Membrane in water
40344
    1TMC1    C1    1   0.210   1.394  11.134  0.4184  0.4433  0.0160
    1TMC1    C2    2   0.145   1.508  11.174 -0.2676  0.1980 -0.4745
    1TMC1    C3    3   0.198   1.627  11.135  0.5599 -0.1432  0.4112
    1TMC1    C4    4   0.325   1.401  11.062  0.3262  0.5027 -0.4809
    1TMC1    C5    5   0.373   1.525  11.023 -0.3368  0.3619 -0.1160
    1TMC1    C6    6   0.310   1.640  11.058  0.3644 -0.1102  0.7374
    1TMC1     C    7   0.170   1.271  11.202 -0.3644 -0.0109 -0.4419
    1TMC1     O    8   0.056   1.275  11.246 -0.3003 -0.0507 -0.4400
    1TMC1     H    9   0.053   1.508  11.232  0.3859 -0.4175  0.5711
    1TMC1    H1   10   0.371   1.313  11.018 -0.6330  0.4647 -1.4208
    1TMC1    H2   11   0.332   1.739  11.020  2.2161 -0.7745  0.0943
    1TMC1    C7   12   0.467   1.542  10.911  0.2262 -0.2136 -0.1315
    1TMC1    C8   13   0.111   1.742  11.145 -0.0764 -0.5678 -0.6909
    1TMC1    O1   14   0.544   1.630  10.898 -0.3678  0.2100 -0.2224
    1TMC1    O2   15   0.136   1.830  11.066 -0.4068  0.0369  0.2743
    1TMC1    O3   16   0.449   1.443  10.820 -0.1589 -0.6418 -0.1944
    1TMC1    H3   17   0.353   1.419  10.818 -0.4396  0.5425 -0.6806
    1TMC1    O5   18   0.029   1.737  11.253 -0.5229 -0.0762  0.7291
    1TMC1    H5   19   0.039   1.654  11.305  2.4709 -0.5074 -0.5080
    2MPD2     C   20   0.213   0.803  11.381  0.3248  0.0343 -0.1793
    2MPD2    C1   21   0.144   0.911  11.439  0.1238 -0.5561  0.8023
    2MPD2    C2   22   0.167   1.036  11.380  0.4708  0.5899  0.5250
    2MPD2    C3   23   0.251   1.047  11.271  0.5761  0.0178  0.6010
    2MPD2    C4   24   0.320   0.939  11.223 -0.1196  0.0642  0.0314
    2MPD2    C5   25   0.302   0.816  11.282 -0.6641  0.0069 -0.3389
    2MPD2     H   26   0.103   1.118  11.410 -2.3368 -1.2923 -0.3231
    2MPD2    H1   27   0.398   0.949  11.148 -0.0123  1.7504  0.3531
    2MPD2    H2   28   0.211   0.702  11.421 -0.0964  0.6782  1.4399
    2MPD2    H3   29   0.356   0.728  11.249  0.4045 -0.2236  2.0068
    2MPD2     N   30   0.261   1.170  11.195 -0.2510 -0.0194 -0.0881
    2MPD2    H5   31   0.347   1.193  11.146 -2.7312  1.1137 -3.8404
    2MPD2    N1   32   0.049   0.889  11.541 -0.0327 -0.1708  0.5598
    2MPD2    H7   33   0.005   0.970  11.583 -1.2981  1.0088 -3.0282
    3TMC1    C1   34   4.717   1.780  10.407 -0.0132 -0.8772  0.4709
    3TMC1    C2   35   4.695   1.875  10.310 -0.0262  0.1280 -1.0599
    3TMC1    C3   36   0.073   1.936  10.266 -0.0842  1.6143 -0.0531
    3TMC1    C4   37   0.093   1.735  10.456  0.3574 -0.0077 -0.5312
    3TMC1    C5   38   0.204   1.804  10.413  0.1895  0.1775  0.4788
    3TMC1    C6   39   0.197   1.902  10.326  0.0083  0.1528  0.0918
    3TMC1     C   40   4.601   1.744  10.488  0.2355  0.1290 -0.3675
    3TMC1     O   41   4.599   1.646  10.561  0.1867 -0.2327  0.3036
    3TMC1     H   42   4.599   1.904  10.270 -0.1796  1.4172  0.2619
    3TMC1    H1   43   0.102   1.658  10.533 -2.5272 -0.1026 -0.2635
    3TMC1    H2   44   0.291   1.945  10.293 -0.7118 -0.7173 -3.1101
    3TMC1    C7   45   0.342   1.770  10.452  0.6341 -0.2056  0.2680
    3TMC1    C8   46   0.066   2.040  10.160  0.3822  0.9351  0.4428
    3TMC1    O1   47   0.441   1.792  10.378  0.0353 -0.2446  0.1742
    3TMC1    O2   48   0.147   2.131  10.143 -0.1602 -0.2666 -0.1025
    3TMC1    O3   49   0.336   1.680  10.551  0.4102 -0.3670  0.0628
    3TMC1    H3   50   0.275   1.707  10.623 -1.3736  1.7855 -2.2652
    3TMC1    O5   51   4.705   2.008  10.076  0.3431 -0.1577 -0.8964
    3TMC1    H5   52   4.665   1.920  10.092 -0.7203  0.0582 -2.3838
    4MPD2     C   53   4.163   1.826  10.743  0.3664 -0.8570 -0.5190
    4MPD2    C1   54   4.212   1.940  10.685 -0.1399  0.7056 -0.3827
    4MPD2    C2   55   4.320   1.948  10.600  0.6241 -0.4507 -0.7311
    4MPD2    C3   56   4.384   1.830  10.572  0.2214 -0.1735  0.1822
    4MPD2    C4   57   4.325   1.711  10.615 -0.1882  0.0735  0.0640
    4MPD2    C5   58   4.217   1.713  10.699  0.3946 -0.4774 -0.3758
    4MPD2     H   59   4.356   2.043  10.563  0.3745  0.2394  0.8207
    4MPD2    H1   60   4.364   1.614  10.584  2.0684  0.9124  0.2476
    4MPD2    H2   61   4.075   1.812  10.805 -0.9439  2.3070 -1.6414
    4MPD2    H3   62   4.182   1.619  10.738  0.3390 -0.3091 -0.0210
    4MPD2     N   63   4.505   1.842  10.492  0.1155  0.1314  0.0885
    4MPD2    H5   64   4.525   1.935  10.457 -0.4399  1.5318  3.5764
    4MPD2    N1   65   4.151   2.069  10.707  0.3666 -0.5257  0.5113
    4MPD2    H7   66   4.183   2.146  10.649 -1.9132  1.2083  1.5745
    5TCq1    O1   67   3.885   3.016  11.116  1.1338 -0.1566  0.0548
    5TCq1    C1   68   3.999   2.985  11.047  0.0723 -0.0781 -0.3994
    5TCq1    O2   69   4.076   2.890  11.069  0.2178 -0.6949  0.8776
    5TCq1    C2   70   4.043   3.096  10.968 -0.7309  0.5415 -0.3446
    5TCq1    C3   71   4.006   3.229  10.997 -0.1120  0.3501  0.2468
    5TCq1    C4   72   4.094   3.336  10.979 -1.1470  0.3781  0.3851
    5TCq1    C5   73   4.211   3.310  10.917  0.7469  0.6997  0.9649
    5TCq1    C6   74   4.240   3.180  10.878  0.6921 -0.1752 -0.1342
    5TCq1    C7   75   4.159   3.075  10.902 -0.0314 -0.1080 -0.2592
    5TCq1    C8   76   4.377   3.143  10.867  0.0999 -0.0163 -0.0523
    5TCq1    O4   77   4.405   3.028  10.899 -0.4110  0.1611  0.0252
    5TCq1    C9   78   4.060   3.471  11.020  0.7146  0.1905  0.1992
    5TCq1    O5   79   3.945   3.489  11.070  0.6593 -0.4543 -0.3372
    5TCq1    O6   80   4.146   3.566  10.992  0.5207 -0.0381  0.1434
    5TCq1    H1   81   3.827   3.077  11.065  0.0822 -0.8909  0.3829
    5TCq1    H2   82   3.912   3.253  11.045 -0.3393  0.8367 -0.4397
    5TCq1    H3   83   4.281   3.390  10.894 -0.5637  2.0208  1.5658
    5TCq1    H4   84   4.202   2.978  10.881 -0.1082 -0.5702  1.7652
    6MPD2     C   85   4.680   3.339  10.774  0.4779  0.6285 -0.0278
    6MPD2    C1   86   4.604   3.227  10.800  0.5220 -0.6499 -0.3252
    6MPD2    C2   87   4.666   3.102  10.791  0.6215  0.0317 -0.4385
    6MPD2    C3   88   0.060   3.087  10.770  0.2660 -0.1573  0.3219
    6MPD2    C4   89   0.130   3.198  10.734 -0.3305 -0.3139  0.9388
    6MPD2    C5   90   0.072   3.329  10.738  0.1530  0.0381 -0.1150
    6MPD2     H   91   4.604   3.018  10.820  0.3468  0.1657 -0.6359
    6MPD2    H1   92   0.237   3.189  10.717 -0.1357  1.8945  0.8980
    6MPD2    H2   93   4.630   3.433  10.793 -1.0535 -0.7264  2.8207
    6MPD2    H3   94   0.121   3.421  10.709  1.6001 -0.0210  2.1926
    6MPD2     N   95   0.116   2.953  10.782 -0.0543 -0.4212  0.3572
    6MPD2    H5   96   0.053   2.876  10.803  0.1565 -0.0816  2.2206
    6MPD2    N1   97   4.465   3.248  10.834 -0.2583  0.2118  0.1318
    6MPD2    H7   98   4.432   3.342  10.817  0.2484  0.0633 -1.6958
    7TCq1    O1   99   2.341   3.392  13.267  0.4580  0.2303  0.2336
    7TCq1    C1  100   2.355   3.263  13.252  0.7081 -0.4362  0.9570
    7TCq1    O2  101   2.344   3.187  13.347  0.4929  0.2644 -0.6883
    7TCq1    C2  102   2.284   3.234  13.126 -0.6108  0.1204 -0.2743
    7TCq1    C3  103   2.332   3.283  13.008  0.2795 -0.0168 -0.4108
    7TCq1    C4  104   2.268   3.230  12.897  0.3908 -0.0515 -0.2174
    7TCq1    C5  105   2.158   3.149  12.897 -0.7039  0.4792 -0.3502
    7TCq1    C6  106   2.119   3.109  13.018 -0.6236  0.1535 -0.5079
    7TCq1    C7  107   2.181   3.143  13.136  0.2413  1.2257  0.1157
    7TCq1    C8  108   2.060   2.980  13.024 -0.0216 -0.2726 -0.2126
    7TCq1    O4  109   1.997   2.952  13.124  0.1983  0.1299 -0.3444
    7TCq1    C9  110   2.313   3.281  12.769  0.3056  0.2949 -0.1305
    7TCq1    O5  111   2.378   3.391  12.774  0.1216  0.0299  0.5406
    7TCq1    O6  112   2.254   3.235  12.671  0.0485 -0.2229  0.2921
    7TCq1    H1  113   2.341   3.449  13.187  0.1901 -1.3939 -0.9239
    7TCq1    H2  114   2.418   3.347  12.995  0.0457 -0.0928 -2.4845
    7TCq1    H3  115   2.111   3.119  12.804  1.7234  0.1065 -1.4598
    7TCq1    H4  116   2.138   3.103  13.227  0.9993 -0.0664 -0.1013
    8MPD2     C  117   1.969   2.524  12.790  0.3411 -0.3388  0.0968
    8MPD2    C1  118   1.908   2.578  12.900 -0.2908 -0.6684  0.6237
    8MPD2    C2  119   1.947   2.702  12.958 -0.0981  0.5312 -0.3528
    8MPD2    C3  120   2.051   2.772  12.891  0.1372 -0.8652 -0.1278
    8MPD2    C4  121   2.123   2.709  12.790  0.4773  0.2139 -0.0278
    8MPD2    C5  122   2.084   2.584  12.747 -0.0704  0.9380  0.7533
    8MPD2     H  123   1.900   2.747  13.045 -0.9536  1.8892 -1.5221
    8MPD2    H1  124   2.213   2.760  12.758 -0.2449  1.4004 -0.1988
    8MPD2    H2  125   1.936   2.428  12.753  0.1298 -0.4213  0.5064
    8MPD2    H3  126   2.141   2.544  12.665 -0.1607 -1.0308  1.6604
    8MPD2     N  127   2.103   2.903  12.921 -0.6902  0.3067 -0.0409
    8MPD2    H5  128   2.179   2.942  12.865  1.8617 -1.3891  2.2536
    8MPD2    N1  129   1.812   2.491  12.952  0.4015  0.2792 -0.4267
    8MPD2    H7  130   1.796   2.408  12.896  1.2774 -2.2178  3.0228
    9TMC1    C1  131   0.086   2.616  11.356 -0.3342 -0.4542  0.0210
    9TMC1    C2  132   0.120   2.707  11.259 -0.3359  0.0017  0.1842
    9TMC1    C3  133   0.223   2.794  11.293 -0.0193  0.2405  0.3370
    9TMC1    C4  134   0.140   2.617  11.480  0.5265  0.2200  0.3360
    9TMC1    C5  135   0.247   2.696  11.499  0.2039 -0.0497  0.4074
    9TMC1    C6  136   0.286   2.791  11.417 -0.1097  0.1243 -0.7612
    9TMC1     C  137   4.693   2.568  11.342  0.1094 -0.2267 -0.1577
    9TMC1     O  138   4.625   2.630  11.262  0.0403 -0.3323  0.5222
    9TMC1     H  139   0.076   2.701  11.161  0.6797 -1.1220 -0.2005
    9TMC1    H1  140   0.103   2.564  11.567 -0.7562 -1.7645 -1.4211
    9TMC1    H2  141   0.376   2.849  11.429 -0.1423 -0.0301  0.2805
    9TMC1    C7  142   0.311   2.695  11.630  0.1077 -0.1523 -0.4968
    9TMC1    C8  143   0.246   2.916  11.221 -0.8065  0.1963 -0.1626
    9TMC1    O1  144   0.315   2.592  11.690  0.0395  0.3486 -0.2243
    9TMC1    O2  145   0.363   2.956  11.214  0.2249 -0.7623 -0.1190
    9TMC1    O3  146   0.359   2.814  11.682  0.5529 -0.3294 -0.5259
    9TMC1    H3  147   0.346   2.891  11.623 -0.0084  0.0152  0.0548
    9TMC1    O5  148   0.165   2.908  11.114  0.2990 -0.1390 -0.3029
    9TMC1    H5  149   0.071   2.889  11.132 -0.0541  1.1322 -0.7803
   10MPD2     C  150   4.411   2.477  11.378  0.8032 -0.2790 -0.0099
   10MPD2    C1  151   4.520   2.426  11.451  0.4672  0.2125 -0.6640
   10MPD2    C2  152   4.499   2.328  11.546  0.1533 -0.3997  0.0028
   10MPD2    C3  153   4.377   2.263  11.544 -0.0885 -0.1733  0.4584
   10MPD2    C4  154   4.279   2.294  11.450 -0.1816  0.3456  0.2622
   10MPD2    C5  155   4.294   2.408  11.375  0.2585  0.4090  0.0020
   10MPD2     H  156   4.587   2.298  11.602  0.4896 -0.8658 -0.7713
   10MPD2    H1  157   4.184   2.245  11.434  0.9623 -1.8245  0.1888
   10MPD2    H2  158   4.424   2.563  11.313  3.1479 -0.8944 -0.3404
   10MPD2    H3  159   4.206   2.441  11.320  1.6291  2.6976 -0.7942
   10MPD2     N  160   4.361   2.166  11.642  0.1340  0.6711  0.1624
   10MPD2    H5  161   4.431   2.170  11.715  0.8633 -1.5306 -0.4051
   10MPD2    N1  162   4.654   2.473  11.435 -0.1980 -0.1095 -0.5512
   10MPD2    H7  163   4.728   2.429  11.489  0.4572 -0.2033 -1.5387
   11TCq1    O1  164   4.575   1.719  14.890 -0.1768 -0.3199 -0.0863
   11TCq1    C1  165   4.709   1.689  14.874 -0.0135 -0.4023 -0.0041
   11TCq1    O2  166   0.040   1.651  14.958  0.8289  0.0575  0.1400
   11TCq1    C2  167   0.009   1.755  14.748  0.3877 -0.6345  0.4273
   11TCq1    C3  168   0.111   1.847  14.766 -0.4904  0.0875  0.5578
   11TCq1    C4  169   0.137   1.935  14.669  0.4342  0.6185  0.5461
   11TCq1    C5  170   0.050   1.955  14.570  0.4507  0.4911 -0.0920
   11TCq1    C6  171   4.696   1.859  14.553 -0.1742 -0.1973  0.0423
   11TCq1    C7  172   4.678   1.752  14.641 -0.2213  0.1559 -0.1989
   11TCq1    C8  173   4.617   1.882  14.434 -0.0066 -0.0847 -0.0792
   11TCq1    O4  174   4.587   1.995  14.400 -0.1296  0.2685  0.3188
   11TCq1    C9  175   0.253   2.022  14.679  0.6385 -0.3792 -0.4874
   11TCq1    O5  176   0.281   2.080  14.572 -0.1545 -0.1660  0.3877
   11TCq1    O6  177   0.322   2.031  14.782 -0.2256 -0.5157  0.1553
   11TCq1    H1  178   4.539   1.779  14.822  0.8871 -0.9465 -1.2119
   11TCq1    H2  179   0.182   1.842  14.848 -2.3187 -0.7790  2.0920
   11TCq1    H3  180   0.069   2.032  14.497 -0.9282  1.5042  0.5990
   11TCq1    H4  181   4.596   1.682  14.624  0.4960 -1.2190  2.0010
   12MPD2     C  182   4.479   1.854  14.170  0.1422 -0.1374 -0.1254
   12MPD2    C1  183   4.540   1.753  14.241 -0.0434 -0.7798  0.9120
   12MPD2    C2  184   4.551   1.629  14.172 -0.5166 -0.2841 -0.9264
   12MPD2    C3  185   4.497   1.602  14.047 -0.7716 -0.2975  0.1323
   12MPD2    C4  186   4.434   1.706  13.982  0.2101 -0.6111 -0.3781
   12MPD2    C5  187   4.432   1.832  14.038 -0.7611 -0.4829 -0.2569
   12MPD2     H  188   4.600   1.547  14.222 -0.2874 -0.4438 -1.4161
   12MPD2    H1  189   4.393   1.697  13.882 -0.4851  1.6734 -0.3018
   12MPD2    H2  190   4.470   1.955  14.210  0.9723 -0.8193  1.7914
   12MPD2    H3  191   4.387   1.913  13.982 -0.6883  0.9024  1.7136
   12MPD2     N  192   4.501   1.483  13.981  0.4539  0.0696 -0.2223
   12MPD2    H5  193   4.467   1.485  13.885 -2.7303 -1.4630  0.8847
   12MPD2    N1  194   4.604   1.767  14.362  0.3010 -0.2509 -0.3379
   12MPD2    H7  195   4.668   1.694  14.392 -0.1741 -0.4181  0.2721
   13TCq1    O1  196   4.475   1.443  10.450  0.4725  0.4034  0.4420
   13TCq1    C1  197   4.463   1.309  10.458 -0.5672 -0.4307  0.6427
   13TCq1    O2  198   4.394   1.235  10.387 -0.4892  0.5174  0.2243
   13TCq1    C2  199   4.540   1.275  10.574  0.4152 -0.2038  0.2670
   13TCq1    C3  200   4.657   1.348  10.606 -0.3731  0.0379 -1.1449
   13TCq1    C4  201   0.004   1.308  10.707 -0.4521  0.0801  0.4741
   13TCq1    C5  202   4.710   1.209  10.792  0.1449 -0.6647 -0.6405
   13TCq1    C6  203   4.594   1.140  10.762  0.0602 -0.0959  0.3369
   13TCq1    C7  204   4.507   1.172  10.658  0.5306 -0.5652 -0.7232
   13TCq1    C8  205   4.525   1.066  10.864  0.7770 -0.6469 -0.0863
   13TCq1    O4  206   4.404   1.055  10.848  0.3317  0.1950 -0.0773
   13TCq1    C9  207   0.113   1.390  10.736  0.6616  0.1445 -0.1914
   13TCq1    O5  208   0.214   1.339  10.793  0.4877  0.0261 -0.1014
   13TCq1    O6  209   0.088   1.511  10.731 -0.2086 -0.1626 -0.6961
   13TCq1    H1  210   4.538   1.474  10.519  0.2128 -0.9589  1.2976
   13TCq1    H2  211   4.695   1.427  10.542 -1.4222 -0.3216 -2.2183
   13TCq1    H3  212   0.032   1.197  10.879  1.6100 -2.5577 -1.9705
   13TCq1    H4  213   4.405   1.139  10.640 -0.8022  1.4658  2.9741
   14MPD2     C  214   4.642   0.880  11.159 -0.1605 -0.1980 -0.8952
   14MPD2    C1  215   4.559   0.951  11.080 -0.5775 -0.6703 -0.1057
   14MPD2    C2  216   4.436   0.976  11.136 -0.2719 -0.4052 -0.2805
   14MPD2    C3  217   4.401   0.940  11.267  0.3134 -0.5597 -0.2593
   14MPD2    C4  218   4.498   0.869  11.338  0.4938  1.3021  0.1422
   14MPD2    C5  219   4.616   0.834  11.284 -0.0263 -0.2222  0.9764
   14MPD2     H  220   4.360   1.031  11.081  1.7350  1.5597 -1.0961
   14MPD2    H1  221   4.483   0.838  11.441  0.0288 -0.1736 -0.3633
   14MPD2    H2  222   0.000   0.854  11.127 -0.2634 -0.0695 -1.3180
   14MPD2    H3  223   4.694   0.782  11.340  0.9187  2.4431  2.1149
   14MPD2     N  224   4.272   0.965  11.312 -0.5632 -0.7318 -0.0319
   14MPD2    H5  225   4.222   1.030  11.253 -0.4323  0.2080  0.8796
   14MPD2    N1  226   4.601   1.009  10.954  0.8431 -0.4590  0.6429
   14MPD2    H7  227   4.701   0.998  10.936  0.4393 -1.2577 -1.0805
   15TCq1    O1  228   1.904   0.587   1.814  0.0980 -0.3204 -0.5466
   15TCq1    C1  229   1.917   0.541   1.686 -0.1975  0.1669 -0.3307
   15TCq1    O2  230   2.024   0.540   1.622 -0.2078  0.0764 -0.1049
   15TCq1    C2  231   1.789   0.562   1.618  0.6917  0.1347  0.8889
   15TCq1    C3  232   1.705   0.661   1.658  0.6445  0.5328  0.1251
   15TCq1    C4  233   1.590   0.691   1.591 -0.0635 -0.0494 -0.1701
   15TCq1    C5  234   1.564   0.618   1.478 -0.2798  0.5701 -0.5100
   15TCq1    C6  235   1.661   0.531   1.431  0.2884  0.6573 -0.0175
   15TCq1    C7  236   1.780   0.501   1.497  0.1373  0.8998 -0.6942
   15TCq1    C8  237   1.641   0.461   1.300  0.0291 -0.0343 -0.4096
   15TCq1    O4  238   1.699   0.352   1.290 -0.1286 -0.1611 -0.1188
   15TCq1    C9  239   1.508   0.793   1.634 -0.3559  0.8402  0.1699
   15TCq1    O5  240   1.529   0.832   1.753  0.6508 -0.7782  0.3954
   15TCq1    O6  241   1.414   0.832   1.560 -0.0220  0.0049  0.3846
   15TCq1    H1  242   1.812   0.580   1.850  0.1376  0.1156 -0.3625
   15TCq1    H2  243   1.731   0.723   1.743  0.1343  1.0531 -0.0941
   15TCq1    H3  244   1.465   0.627   1.433 -1.0346 -0.9131  0.8541
   15TCq1    H4  245   1.842   0.412   1.485  0.6508  1.0598  0.7395
   16MPD2     C  246   1.540   0.605   0.978 -0.5603  0.1690  0.5594
   16MPD2    C1  247   1.585   0.511   1.067 -0.1443 -0.0804 -0.8738
   16MPD2    C2  248   1.647   0.403   1.016  0.5820  0.2462  0.9466
   16MPD2    C3  249   1.643   0.376   0.881 -0.1534 -0.0383  0.2357
   16MPD2    C4  250   1.599   0.472   0.789 -0.4529 -0.9783  0.3696
   16MPD2    C5  251   1.542   0.588   0.845  0.3035 -0.3531 -0.1458
   16MPD2     H  252   1.682   0.319   1.074 -0.1074 -1.9503 -1.7967
   16MPD2    H1  253   1.604   0.470   0.680  1.3351  1.1427  0.3971
   16MPD2    H2  254   1.487   0.696   1.005 -1.8799 -0.9877  1.8353
   16MPD2    H3  255   1.500   0.663   0.780  2.6776 -1.9035 -3.4591
   16MPD2     N  256   1.711   0.260   0.845 -0.0496 -0.3934 -0.0518
   16MPD2    H5  257   1.730   0.197   0.922 -0.4526  0.4212  0.7091
   16MPD2    N1  258   1.576   0.535   1.205 -0.2437 -0.4183 -0.1853
   16MPD2    H7  259   1.535   0.624   1.231  1.5699 -0.8082  4.0349
   17TMC1    C1  260   4.734   0.431  10.445 -0.0044 -0.4509 -0.2419
   17TMC1    C2  261   4.620   0.357  10.441 -0.8282 -0.1002  0.8582
   17TMC1    C3  262   4.535   0.378  10.335 -0.7213  0.3546  0.6350
   17TMC1    C4  263   0.033   0.513  10.339 -0.4118 -0.2481  0.0725
   17TMC1    C5  264   4.684   0.520  10.239 -0.1592 -0.0414 -0.5081
   17TMC1    C6  265   4.560   0.467  10.238  0.2943  0.2880 -0.3155
   17TMC1     C  266   0.075   0.421  10.559  0.2801  0.4503 -0.2481
   17TMC1     O  267   0.017   0.382  10.658 -0.2465 -0.1446 -0.0726
   17TMC1     H  268   4.598   0.282  10.516  0.6678  0.0129  1.3979
   17TMC1    H1  269   0.117   0.581  10.350 -0.4618  0.1071 -1.8144
   17TMC1    H2  270   4.492   0.461  10.154  0.0749  1.0569 -0.1924
   17TMC1    C7  271   4.718   0.625  10.146  0.4250  0.0307  0.2978
   17TMC1    C8  272   4.431   0.285  10.316  0.3055 -0.5678  0.4340
   17TMC1    O1  273   0.088   0.654  10.112  0.0056  0.1229  0.5377
   17TMC1    O2  274   4.322   0.314  10.264 -0.8066  0.5894 -0.2537
   17TMC1    O3  275   4.606   0.669  10.082 -0.0083  0.6072 -0.2137
   17TMC1    H3  276   4.531   0.675  10.146  0.9413 -3.0619  1.2508
   17TMC1    O5  277   4.492   0.168  10.334 -0.1655  0.4526  0.0219
   17TMC1    H5  278   4.585   0.175  10.364  0.8931 -2.4394 -2.5246
   18MPD2     C  279   0.288   0.404  10.757 -0.0440 -0.5259 -0.3688
   18MPD2    C1  280   0.317   0.400  10.618 -0.2005  1.2735 -0.0298
   18MPD2    C2  281   0.446   0.366  10.573  0.4806  0.1015 -1.0411
   18MPD2    C3  282   0.550   0.348  10.670 -0.0056 -0.4516  0.4934
   18MPD2    C4  283   0.518   0.370  10.806 -0.0101  0.0547  0.9263
   18MPD2    C5  284   0.389   0.382  10.840 -0.2584 -0.2864 -0.3219
   18MPD2     H  285   0.476   0.342  10.472 -2.4945  0.9036 -2.1196
   18MPD2    H1  286   0.600   0.378  10.877 -1.1538  0.3057  2.2241
   18MPD2    H2  287   0.192   0.414  10.807  0.5392  2.4054  0.1628
   18MPD2    H3  288   0.375   0.386  10.947 -0.8746  0.9164 -0.4526
   18MPD2     N  289   0.687   0.343  10.642  0.2369 -0.3362 -0.2828
   18MPD2    H5  290   0.746   0.356  10.724  0.3107  0.8362 -0.5229
   18MPD2    N1  291   0.210   0.410  10.528 -0.0366  0.1003  0.6265
   18MPD2    H7  292   0.236   0.407  10.430 -3.7328  3.0040 -0.4718
   19TMC2    C1  293   0.960   1.184  13.377  0.4954 -0.5655  0.6972
   19TMC2    C2  294   0.868   1.176  13.278  0.4859 -0.2757  0.3646
   19TMC2    C3  295   0.826   1.056  13.236 -0.4081 -0.7630  0.4823
   19TMC2    C4  296   1.010   1.074  13.432  0.3691  0.1038  0.1911
   19TMC2    C5  297   0.968   0.957  13.389 -0.5238 -0.0106 -0.3855
   19TMC2    C6  298   0.858   0.946  13.307  0.2415  0.3935  0.6581
   19TMC2     C  299   0.986   1.316  13.426  0.8133 -0.3606 -0.4002
   19TMC2     O  300   0.981   1.411  13.350  0.3586 -0.0026  0.1167
   19TMC2     H  301   0.825   1.272  13.253  0.8906 -0.1834  0.0313
   19TMC2    H1  302   1.071   1.075  13.521  0.4404 -0.1214  0.1447
   19TMC2    H2  303   0.841   0.850  13.261 -2.4063  2.2736 -2.2944
   19TMC2    C7  304   0.993   0.836  13.460  0.6812  0.0642  0.0698
   19TMC2    C8  305   0.718   1.041  13.139 -0.5515 -1.1582 -0.0202
   19TMC2    O1  306   0.918   0.744  13.444 -0.3829  0.2828  0.1930
   19TMC2    O2  307   0.659   0.936  13.139 -0.3585  0.5117  0.8506
   19TMC2    O5  308   0.751   1.109  13.031  0.1229  0.6415  0.3123
   19TMC2    H5  309   0.828   1.169  13.042  0.1483  0.9771 -1.6482
   20MPD2     C  310   1.035   1.554  13.603 -0.0237  0.4034 -0.3982
   20MPD2    C1  311   1.030   1.424  13.649  0.0070  0.1039  0.5791
   20MPD2    C2  312   1.042   1.392  13.782 -1.0491  0.0514 -0.4389
   20MPD2    C3  313   1.082   1.496  13.873 -0.8777 -0.0957  0.1743
   20MPD2    C4  314   1.099   1.627  13.822 -0.2960 -0.0095 -0.4648
   20MPD2    C5  315   1.076   1.652  13.691  0.5625 -0.3363  0.6999
   20MPD2     H  316   1.028   1.289  13.812 -3.7527  0.5060 -0.1708
   20MPD2    H1  317   1.147   1.706  13.878  0.4374 -0.1859 -0.8397
   20MPD2    H2  318   1.022   1.585  13.500  0.8732 -0.8908 -0.8901
   20MPD2    H3  319   1.097   1.751  13.653  0.2961 -0.1280  1.1001
   20MPD2     N  320   1.133   1.465  14.006 -0.3352  0.0622 -0.4086
   20MPD2    H5  321   1.192   1.534  14.051 -0.6767  0.2224 -0.2033
   20MPD2    N1  322   1.002   1.317  13.561 -0.2092  0.4481  0.0747
   20MPD2    H7  323   0.986   1.227  13.605 -1.2101  1.7273  2.3286
   21TMC2    C1  324   3.220   1.493  14.618  0.0724 -0.7921  0.1602
   21TMC2    C2  325   3.234   1.373  14.689 -0.2246  0.3183 -0.1420
   21TMC2    C3  326   3.132   1.331  14.767 -0.3530  0.4233 -0.7739
   21TMC2    C4  327   3.105   1.568  14.634  0.5022  0.0019 -0.4240
   21TMC2    C5  328   3.002   1.511  14.710  0.6652  0.4233  0.1422
   21TMC2    C6  329   3.007   1.397  14.778 -0.1641  0.1792 -0.6058
   21TMC2     C  330   3.349   1.557  14.578 -0.1458 -0.4507 -1.1875
   21TMC2     O  331   3.457   1.506  14.610  0.1381 -0.0342 -0.6839
   21TMC2     H  332   3.330   1.322  14.686  0.6118  1.9575 -1.1603
   21TMC2    H1  333   3.098   1.672  14.601  0.3383 -0.2602 -1.2125
   21TMC2    H2  334   2.910   1.370  14.817 -0.0011 -2.5393 -2.1209
   21TMC2    C7  335   2.896   1.600  14.749  0.3660 -0.8326 -1.0093
   21TMC2    C8  336   3.157   1.212  14.839  0.7158  0.7989  0.9089
   21TMC2    O1  337   2.850   1.606  14.863  0.5020  0.2210  0.5892
   21TMC2    O2  338   3.239   1.128  14.802 -0.2815 -0.3027  0.0377
   21TMC2    O5  339   3.114   1.228  14.965 -0.2399  0.1821  0.0750
   21TMC2    H5  340   3.068   1.311  14.991 -0.9261 -0.4046  0.7342
   22MPD2     C  341   3.627   1.968  14.461 -0.1867 -0.2636 -0.5921
   22MPD2    C1  342   3.661   1.838  14.458  0.0227  0.4711 -0.1712
   22MPD2    C2  343   3.561   1.747  14.472 -0.2212  0.1649  0.1219
   22MPD2    C3  344   3.434   1.778  14.509 -0.1243 -0.1065  0.2512
   22MPD2    C4  345   3.399   1.912  14.510  0.2883  0.5399  0.5545
   22MPD2    C5  346   3.496   2.003  14.493  0.5336 -0.6075 -0.0033
   22MPD2     H  347   3.580   1.645  14.441  0.3642  0.6260 -1.0708
   22MPD2    H1  348   3.299   1.949  14.525 -0.8335 -3.0511  1.8507
   22MPD2    H2  349   3.695   2.049  14.437 -0.5835  0.8803  2.2405
   22MPD2    H3  350   3.470   2.107  14.510 -1.6932 -1.0074 -1.0686
   22MPD2     N  351   3.327   1.683  14.532 -0.7034  0.1937  0.7921
   22MPD2    H5  352   3.232   1.719  14.526 -0.8034 -0.3053 -0.5448
   22MPD2    N1  353   3.787   1.796  14.430 -0.4196 -0.1979  0.3694
   22MPD2    H7  354   3.811   1.698  14.424  0.7709  0.1776 -0.7833
   23TMC2    C1  355   0.154   2.751  14.470 -0.0771  0.5014 -0.0648
   23TMC2    C2  356   0.267   2.717  14.398  0.0277 -0.5252  0.7261
   23TMC2    C3  357   0.246   2.681  14.266 -0.5405 -0.2824 -0.2134
   23TMC2    C4  358   0.031   2.746  14.417 -0.5489  0.5835  0.2448
   23TMC2    C5  359   0.018   2.727  14.281  0.5251  0.2607  0.4902
   23TMC2    C6  360   0.124   2.692  14.202 -0.0985  0.3382  0.6450
   23TMC2     C  361   0.167   2.777  14.610 -0.0486  0.2334 -0.0814
   23TMC2     O  362   0.063   2.786  14.671 -0.2080 -0.4945  0.3278
   23TMC2     H  363   0.369   2.700  14.430  1.3280  2.3016 -1.9581
   23TMC2    H1  364   4.695   2.779  14.485 -0.5642 -0.2229  0.6162
   23TMC2    H2  365   0.106   2.651  14.104  4.8524 -0.5180  0.1277
   23TMC2    C7  366   4.623   2.703  14.230 -0.7946  0.8897  0.3111
   23TMC2    C8  367   0.333   2.577  14.217  0.5807  0.0539  0.2096
   23TMC2    O1  368   4.615   2.621  14.134 -0.3394  0.0542 -0.3488
   23TMC2    O2  369   0.396   2.512  14.302 -0.3114  0.0961 -0.1379
   23TMC2    O5  370   0.383   2.629  14.100 -0.2313 -0.5674  0.5969
   23TMC2    H5  371   0.334   2.700  14.053 -1.6183 -1.4512  0.7014
   24MPD2     C  372   0.425   2.920  15.029 -0.0623 -0.1120  0.3352
   24MPD2    C1  373   0.307   2.850  15.012 -0.4836  0.4938 -0.7104
   24MPD2    C2  374   0.266   2.811  14.887 -0.2270 -0.1217 -0.5359
   24MPD2    C3  375   0.341   2.842  14.773 -0.2942 -0.1732 -0.0359
   24MPD2    C4  376   0.465   2.904  14.798  0.2062  0.6712  0.5072
   24MPD2    C5  377   0.508   2.943  14.922 -0.1609  1.0198 -0.0097
   24MPD2     H  378   0.180   2.748  14.868  0.5601 -1.6344  0.9149
   24MPD2    H1  379   0.526   2.920  14.710  0.1501  0.6793  0.4701
   24MPD2    H2  380   0.477   2.942  15.121 -0.5334  1.4238  0.2264
   24MPD2    H3  381   0.597   3.003  14.933 -1.1002  2.3610  0.1979
   24MPD2     N  382   0.293   2.821  14.645 -0.2095 -0.2907  0.5519
   24MPD2    H5  383   0.360   2.824  14.570 -0.1278 -1.0683  0.5906
   24MPD2    N1  384   0.242   2.799  15.128 -0.1769  0.0105  0.5689
   24MPD2    H7  385   0.171   2.730  15.108  0.3320  0.0394 -1.4189
   25TMC2    C1  386   4.561   4.383  11.660  0.2156  0.6224 -0.4276
   25TMC2    C2  387   4.688   4.382  11.719 -0.7160  0.2565  0.0418
   25TMC2    C3  388   4.689   4.393  11.857 -0.7275 -0.3317 -0.4719
   25TMC2    C4  389   4.447   4.399  11.737  0.3018  0.8441  0.6432
   25TMC2    C5  390   4.461   4.436  11.870 -0.2526  0.4916 -0.6590
   25TMC2    C6  391   4.578   4.416  11.937 -0.2788  0.3189 -0.8288
   25TMC2     C  392   4.557   4.359  11.515 -0.3175 -0.0074 -0.4004
   25TMC2     O  393   4.649   4.293  11.467  0.6871  0.0263 -0.4525
   25TMC2     H  394   0.036   4.359  11.665 -0.9344  0.7895 -0.5478
   25TMC2    H1  395   4.349   4.396  11.691  1.5374  1.6441 -2.0752
   25TMC2    H2  396   4.589   4.435  12.043  0.5662  1.3430 -1.1051
   25TMC2    C7  397   4.358   4.504  11.939  0.2681  0.5751 -0.4675
   25TMC2    C8  398   0.082   4.389  11.916  0.1913  0.7375 -1.0697
   25TMC2    O1  399   4.344   4.493  12.063 -0.2739  0.5462 -0.5103
   25TMC2    O2  400   0.184   4.351  11.855 -0.3882  0.2647  0.2929
   25TMC2    O5  401   0.087   4.480  12.011  0.6273  0.1347  0.4955
   25TMC2    H5  402   4.737   4.511  12.023  0.7354  0.6428  0.0172
   26MPD2     C  403   4.313   4.252  11.088 -0.3142 -0.5093  0.1027
   26MPD2    C1  404   4.214   4.267  11.180 -0.2301 -0.6194  0.1076
   26MPD2    C2  405   4.257   4.311  11.303  0.9206  0.5630 -0.6838
   26MPD2    C3  406   4.391   4.331  11.331 -0.3503 -0.6058 -0.1921
   26MPD2    C4  407   4.484   4.304  11.239  0.0505 -0.7938  0.0794
   26MPD2    C5  408   4.450   4.257  11.115 -0.0435 -0.1244 -0.5261
   26MPD2     H  409   4.187   4.333  11.383  1.3891 -1.8275  0.4068
   26MPD2    H1  410   4.591   4.319  11.253 -0.4057  1.4557  1.2014
   26MPD2    H2  411   4.291   4.221  10.986 -0.3812 -0.4348  0.0948
   26MPD2    H3  412   4.526   4.241  11.040  1.0677 -3.4573  1.3571
   26MPD2     N  413   4.436   4.373  11.462  0.3862  0.3379 -0.1589
   26MPD2    H5  414   4.362   4.401  11.525  1.7630  1.0894  1.1355
   26MPD2    N1  415   4.084   4.260  11.132  0.2524  0.4013  0.3721
   26MPD2    H7  416   4.069   4.235  11.035 -1.3066  1.4690  0.3456
   27TMC2    C1  417   3.013   1.976  12.197  0.3594 -0.7504  0.0664
   27TMC2    C2  418   3.084   2.010  12.085  0.3430  0.0419 -0.1601
   27TMC2    C3  419   3.167   2.110  12.099  0.0594  0.3160 -0.5275
   27TMC2    C4  420   3.017   2.048  12.315 -0.4203  0.4318 -0.1815
   27TMC2    C5  421   3.103   2.153  12.316  0.2881 -0.3099  0.3587
   27TMC2    C6  422   3.184   2.186  12.213 -0.0902  0.4551  0.3398
   27TMC2     C  423   2.908   1.874  12.182  0.0619  0.4863 -0.3453
   27TMC2     O  424   2.939   1.780  12.113 -0.6770  0.0119  0.2339
   27TMC2     H  425   3.083   1.942  12.001 -0.3719  1.0583 -0.9783
   27TMC2    H1  426   2.956   2.027  12.402  2.1805  0.3430  1.6079
   27TMC2    H2  427   3.253   2.268  12.227  1.6362 -1.3799  2.6096
   27TMC2    C7  428   3.120   2.220  12.444 -0.2133 -0.1708 -0.4922
   27TMC2    C8  429   3.248   2.136  11.986 -0.6763 -0.0010 -0.2812
   27TMC2    O1  430   3.173   2.326  12.433 -0.0764 -0.1836 -0.4653
   27TMC2    O2  431   3.209   2.145  11.873  0.5571 -0.7940  0.0468
   27TMC2    O5  432   3.368   2.163  12.039 -0.4042  0.2294 -0.0825
   27TMC2    H5  433   3.380   2.128  12.130  1.2037  0.3933 -0.2330
   28MPD2     C  434   2.469   1.652  12.312 -0.1337 -0.1900  0.1546
   28MPD2    C1  435   2.471   1.782  12.364 -0.5671  0.0121 -0.1874
   28MPD2    C2  436   2.573   1.871  12.343  0.2285  0.3016  0.4043
   28MPD2    C3  437   2.683   1.829  12.261  0.1295  0.4108  0.8791
   28MPD2    C4  438   2.683   1.699  12.215  0.3075 -0.0477 -0.3140
   28MPD2    C5  439   2.576   1.620  12.233  0.1849 -0.5379  0.1391
   28MPD2     H  440   2.584   1.971  12.384 -1.7675 -0.8575  3.6828
   28MPD2    H1  441   2.754   1.660  12.143  0.3415 -1.8130  0.6609
   28MPD2    H2  442   2.385   1.585  12.321 -0.4142 -0.3129 -3.2567
   28MPD2    H3  443   2.574   1.525  12.180  0.0656 -0.2170 -0.4354
   28MPD2     N  444   2.793   1.914  12.240 -0.3165  0.5309 -0.6030
   28MPD2    H5  445   2.790   2.007  12.280 -1.3250  0.8062 -1.3208
   28MPD2    N1  446   2.355   1.824  12.440  0.0657  0.3046  0.3528
   28MPD2    H7  447   2.295   1.747  12.468 -0.1218 -0.3982 -1.9991
   29TMC2    C1  448   1.980   4.707  14.186  0.2321  0.1306  0.5400
   29TMC2    C2  449   1.924   4.737  14.306 -0.4674 -0.3126  0.5117
   29TMC2    C3  450   1.937   0.120  14.350 -0.3211  0.3134  0.9617
   29TMC2    C4  451   2.072   0.051  14.124  0.1343 -0.3865  0.4282
   29TMC2    C5  452   2.094   0.171  14.185  0.2229  0.0536  0.5058
   29TMC2    C6  453   2.024   0.214  14.295 -0.1594  0.3079 -0.6730
   29TMC2     C  454   1.977   4.564  14.160 -1.2834 -0.3296  0.3531
   29TMC2     O  455   1.945   4.489  14.252 -0.9460 -0.0394 -0.2313
   29TMC2     H  456   1.850   4.671  14.351  0.8829 -2.1083  0.1246
   29TMC2    H1  457   2.134   0.016  14.042 -1.2836 -0.4083 -0.6363
   29TMC2    H2  458   2.021   0.318  14.327  2.4590  0.0548  0.3793
   29TMC2    C7  459   2.197   0.254  14.124 -0.3954 -0.1484  0.0760
   29TMC2    C8  460   1.823   0.165  14.427 -0.2344  0.0059 -0.5743
   29TMC2    O1  461   2.230   0.233  14.008 -0.4376  0.4488  0.0872
   29TMC2    O2  462   1.772   0.086  14.503 -0.3508  0.0263 -0.0265
   29TMC2    O5  463   1.754   0.236  14.334 -0.4122 -0.4018  0.3724
   29TMC2    H5  464   1.804   0.290  14.270  1.0737 -0.1114  1.7763
   30MPD2     C  465   1.952   4.152  13.860 -0.0292  0.0974 -0.1952
   30MPD2    C1  466   1.953   4.159  13.997 -0.7218 -0.1428  0.2258
   30MPD2    C2  467   1.977   4.281  14.054 -0.3382 -0.4208  0.0400
   30MPD2    C3  468   1.981   4.396  13.977  0.1334  0.4466  0.3224
   30MPD2    C4  469   1.977   4.387  13.840  0.0863 -0.2369  0.2914
   30MPD2    C5  470   1.978   4.267  13.785 -0.6505  0.7040 -1.0434
   30MPD2     H  471   1.968   4.287  14.162  0.3397 -0.0150  0.0725
   30MPD2    H1  472   1.980   4.482  13.789  1.2246  0.0484  0.8899
   30MPD2    H2  473   1.962   4.055  13.813 -0.6360 -0.1181  0.1223
   30MPD2    H3  474   1.971   4.261  13.677  2.0873  1.8712 -1.2829
   30MPD2     N  475   1.984   4.530  14.025  0.1494  1.0926  0.5346
   30MPD2    H5  476   2.014   4.609  13.969  1.1766  0.2880 -0.0479
   30MPD2    N1  477   1.951   4.046  14.076 -0.2703 -0.6531 -0.3517
   30MPD2    H7  478   1.969   4.070  14.173  2.0562 -0.7896 -0.7391
   31TMC2    C1  479   4.040   3.237  15.599  0.1879 -0.6031  0.0629
   31TMC2    C2  480   3.930   3.324  15.609  0.7808 -0.1134  0.1121
   31TMC2    C3  481   3.918   3.393  15.728 -0.3441  0.4617  0.2202
   31TMC2    C4  482   4.125   3.232  15.706 -0.4717  0.6448  0.1965
   31TMC2    C5  483   4.125   3.320  15.803  0.0027  0.1669 -0.4152
   31TMC2    C6  484   4.024   3.405  15.817  0.1848  0.1981 -0.7425
   31TMC2     C  485   4.093   3.190  15.471  0.3748 -0.0944 -1.2736
   31TMC2     O  486   4.027   3.224  15.374  0.6502  0.3242 -0.3426
   31TMC2     H  487   3.858   3.324  15.528 -0.2801 -2.0514  1.0553
   31TMC2    H1  488   4.215   3.173  15.699 -0.6093  0.4596 -0.0133
   31TMC2    H2  489   4.013   3.463  15.908  2.0769 -1.3635  0.4903
   31TMC2    C7  490   4.187   3.277  15.931 -0.4164  0.1883  0.2366
   31TMC2    C8  491   3.832   3.506  15.713  0.4289 -0.4984  0.3882
   31TMC2    O1  492   4.213   3.160  15.945  0.0629  0.7612 -0.1871
   31TMC2    O2  493   3.709   3.503  15.733  0.2766  0.5898  0.0939
   31TMC2    O5  494   3.894   3.572  15.620  0.1445 -0.0147 -0.3948
   31TMC2    H5  495   3.989   3.548  15.622  0.1042 -0.1677 -0.2839
   32MPD2     C  496   4.459   2.984  15.164  0.3035  0.0589  0.6369
   32MPD2    C1  497   4.358   3.072  15.129  0.7035  0.3370  0.3574
   32MPD2    C2  498   4.262   3.109  15.229 -0.4245 -0.0417 -0.2788
   32MPD2    C3  499   4.268   3.057  15.359  0.3393  0.2959 -0.2866
   32MPD2    C4  500   4.353   2.955  15.378  0.0442 -0.3775 -0.3587
   32MPD2    C5  501   4.451   2.924  15.285 -0.6270  0.3493  0.2365
   32MPD2     H  502   4.189   3.183  15.199 -0.1506  0.5687  0.5615
   32MPD2    H1  503   4.365   2.903  15.472 -3.2648 -1.7340 -0.6990
   32MPD2    H2  504   4.526   2.953  15.085  1.3519  1.4968  0.9662
   32MPD2    H3  505   4.519   2.844  15.312  1.7146  2.2013 -0.2252
   32MPD2     N  506   4.207   3.111  15.474  0.5594  0.5811  0.0215
   32MPD2    H5  507   4.243   3.085  15.565  0.6515 -1.6581 -0.6659
   32MPD2    N1  508   4.386   3.149  15.020  0.2817  0.5098 -0.3110
   32MPD2    H7  509   4.474   3.143  14.970 -0.9131 -2.7229 -2.0295
   33TMC2    C1  510   0.692   1.176  10.716  0.1941  0.5085 -0.3105
   33TMC2    C2  511   0.595   1.144  10.811 -0.3888 -0.2802 -0.0873
   33TMC2    C3  512   0.459   1.136  10.782  1.0941 -0.1450  1.3342
   33TMC2    C4  513   0.643   1.215  10.590 -0.4616  0.1197 -0.4547
   33TMC2    C5  514   0.505   1.215  10.567  0.1818  0.2959 -0.6116
   33TMC2    C6  515   0.410   1.164  10.655  0.2234 -0.0323 -0.2800
   33TMC2     C  516   0.789   1.071  10.708  0.3108 -1.1460  0.1071
   33TMC2     O  517   0.751   0.963  10.748  0.9229 -0.1151 -0.2440
   33TMC2     H  518   0.635   1.120  10.909 -0.0566  0.1283 -0.1239
   33TMC2    H1  519   0.713   1.239  10.511 -0.3482  0.0983 -0.3614
   33TMC2    H2  520   0.306   1.159  10.627 -0.9663  3.2259  3.6706
   33TMC2    C7  521   0.466   1.291  10.449 -0.2323  0.6175  0.2501
   33TMC2    C8  522   0.377   1.054  10.861 -0.4305  0.8020  0.7867
   33TMC2    O1  523   0.558   1.351  10.391  0.0206 -0.1406  0.0817
   33TMC2    O2  524   0.411   0.945  10.906 -0.3022  0.2923  0.2229
   33TMC2    O5  525   0.254   1.110  10.863  1.0506  0.3146  0.4385
   33TMC2    H5  526   0.238   1.195  10.817 -0.4699 -0.2123  0.0090
   34MPD2     C  527   1.231   0.895  10.503  0.1451 -0.6957  0.3588
   34MPD2    C1  528   1.125   0.827  10.567 -0.0228  0.4423  1.0216
   34MPD2    C2  529   1.015   0.900  10.606  0.8156 -0.0799 -0.1893
   34MPD2    C3  530   1.015   1.036  10.596 -0.2303 -0.8336  0.2819
   34MPD2    C4  531   1.126   1.099  10.547 -0.1562 -0.0959 -0.8815
   34MPD2    C5  532   1.233   1.032  10.501  0.4152 -0.6071  0.3771
   34MPD2     H  533   0.933   0.851  10.657  1.2508 -0.9678 -0.3508
   34MPD2    H1  534   1.131   1.207  10.555  2.0336 -0.0099 -3.4212
   34MPD2    H2  535   1.315   0.842  10.461  0.7117  0.4365  0.0601
   34MPD2    H3  536   1.314   1.090  10.459 -0.5900  0.8290  0.3983
   34MPD2     N  537   0.899   1.112  10.640  0.4738  0.0174  0.4655
   34MPD2    H5  538   0.905   1.213  10.635  0.2510  0.0221  0.3088
   34MPD2    N1  539   1.131   0.682  10.561 -0.3000  0.3649  0.4073
   34MPD2    H7  540   1.208   0.645  10.506  0.1878  0.1893  1.2035
   35TMC2    C1  541   1.859   2.333  11.264  0.1518  0.4731  0.1231
   35TMC2    C2  542   1.797   2.451  11.230 -0.7222 -0.1101  0.2600
   35TMC2    C3  543   1.665   2.462  11.269  0.5963 -0.3234  0.0073
   35TMC2    C4  544   1.794   2.226  11.323 -0.0175  0.0344 -0.0800
   35TMC2    C5  545   1.659   2.247  11.346 -0.5595 -0.6751 -0.3380
   35TMC2    C6  546   1.587   2.360  11.316 -0.7104  0.3876 -0.2523
   35TMC2     C  547   2.001   2.343  11.280  0.0112  0.0820 -0.4387
   35TMC2     O  548   2.056   2.436  11.221 -0.2600 -0.2726 -0.4837
   35TMC2     H  549   1.858   2.532  11.191 -0.3501 -0.3724  0.2993
   35TMC2    H1  550   1.834   2.126  11.335 -0.0947 -0.1221 -1.1145
   35TMC2    H2  551   1.479   2.367  11.325 -0.7192  3.4989 -2.6426
   35TMC2    C7  552   1.588   2.132  11.403 -0.2153  0.2664 -0.5693
   35TMC2    C8  553   1.610   2.593  11.272 -0.0415  0.2797 -0.5108
   35TMC2    O1  554   1.627   2.020  11.375 -0.0217  0.4565  0.2090
   35TMC2    O2  555   1.647   2.674  11.192 -0.5207  0.1810  0.4439
   35TMC2    O5  556   1.627   2.618  11.408  0.0702 -0.5865  0.0945
   35TMC2    H5  557   1.615   2.542  11.469 -0.7480 -0.6625 -0.1659
   36MPD2     C  558   2.392   2.264  11.599 -0.0275 -0.1434 -0.2879
   36MPD2    C1  559   2.285   2.199  11.652 -0.2762  0.1889 -0.5454
   36MPD2    C2  560   2.168   2.191  11.575  0.3752  0.5621 -0.2356
   36MPD2    C3  561   2.163   2.265  11.459 -0.7151 -0.5524 -0.4094
   36MPD2    C4  562   2.269   2.346  11.422 -0.5502  0.0590 -0.1271
   36MPD2    C5  563   2.390   2.328  11.479  0.5413 -0.0697 -0.1805
   36MPD2     H  564   2.079   2.140  11.610  0.5989  0.4099  0.1145
   36MPD2    H1  565   2.266   2.402  11.329  0.4917  0.7652  0.2610
   36MPD2    H2  566   2.492   2.244  11.635 -0.1494 -1.5119 -0.6950
   36MPD2    H3  567   2.481   2.381  11.453  0.6904 -0.0863  0.2998
   36MPD2     N  568   2.043   2.264  11.386  0.2484 -0.7689  0.0040
   36MPD2    H5  569   1.971   2.203  11.424 -0.4078  0.3355  0.5420
   36MPD2    N1  570   2.278   2.164  11.785  0.2975  0.7555 -0.0953
   36MPD2    H7  571   2.202   2.100  11.805  0.7139  0.7398  1.4725
   37TMC2    C1  572   3.421   3.084  11.556 -0.2453  0.6740 -0.2595
   37TMC2    C2  573   3.364   3.112  11.430  0.2753 -0.1691  0.0594
   37TMC2    C3  574   3.456   3.149  11.340  0.7314  0.4619 -0.2171
   37TMC2    C4  575   3.559   3.089  11.587 -0.0784 -0.2951  0.0575
   37TMC2    C5  576   3.640   3.132  11.487 -0.0424 -0.5564  0.2873
   37TMC2    C6  577   3.592   3.163  11.366  0.0086  0.2006 -0.4361
   37TMC2     C  578   3.332   3.029  11.646  0.7395 -0.0965  0.0078
   37TMC2     O  579   3.220   3.074  11.638 -0.5650 -0.1615 -0.2823
   37TMC2     H  580   3.259   3.100  11.409  0.5964 -0.3324 -1.4479
   37TMC2    H1  581   3.598   3.067  11.686  0.1180 -0.6946 -0.1064
   37TMC2    H2  582   3.658   3.184  11.283 -0.7961  0.5047 -1.0041
   37TMC2    C7  583   3.777   3.096  11.499 -0.4719 -0.5534  0.0407
   37TMC2    C8  584   3.410   3.155  11.202  0.5938  0.3414  0.0912
   37TMC2    O1  585   3.797   3.018  11.592  0.4028  0.0550  0.1904
   37TMC2    O2  586   3.449   3.241  11.122 -0.9897 -0.6690 -0.4539
   37TMC2    O5  587   3.377   3.027  11.169  0.0241 -0.3003  0.1135
   37TMC2    H5  588   3.355   2.962  11.240 -1.2898 -1.7701 -1.6496
   38MPD2     C  589   3.254   2.734  12.060  0.8744 -0.2217 -0.2725
   38MPD2    C1  590   3.373   2.691  11.998  0.6929  0.0679  0.7489
   38MPD2    C2  591   3.417   2.763  11.893 -0.5294 -0.4834  0.6352
   38MPD2    C3  592   3.344   2.868  11.840 -0.2054 -0.1731 -0.7030
   38MPD2    C4  593   3.233   2.913  11.899  0.1517  0.1959  0.1277
   38MPD2    C5  594   3.188   2.844  12.014  0.7483  0.3183 -0.3043
   38MPD2     H  595   3.506   2.727  11.843  1.2436  0.3195  3.2343
   38MPD2    H1  596   3.181   3.005  11.874 -0.3460 -0.2422 -0.4495
   38MPD2    H2  597   3.209   2.668  12.134 -0.4080  2.7993  1.6152
   38MPD2    H3  598   3.101   2.883  12.067  1.3286 -0.3861  1.1755
   38MPD2     N  599   3.398   2.935  11.731  0.4632 -0.8705 -0.0480
   38MPD2    H5  600   3.492   2.909  11.702  0.5214  0.9411 -1.5239
   38MPD2    N1  601   3.453   2.578  12.032 -0.0951 -0.2069  0.3708
   38MPD2    H7  602   3.536   2.563  11.975 -0.3115 -1.4826  0.3967
   39TMC2    C1  603   1.987   0.103   1.184 -0.5406 -0.2449  0.3148
   39TMC2    C2  604   2.103   0.032   1.227 -0.4978 -0.0123  0.3751
   39TMC2    C3  605   2.212   0.106   1.269 -0.4310 -0.0644  0.3025
   39TMC2    C4  606   1.986   0.238   1.180  0.7150 -0.1346 -0.0210
   39TMC2    C5  607   2.099   0.299   1.223  0.0353  0.7318 -0.2570
   39TMC2    C6  608   2.216   0.241   1.265 -0.8122 -0.3672 -0.3193
   39TMC2     C  609   1.876   0.027   1.129 -0.2884  0.4721  0.1161
   39TMC2     O  610   1.788   0.086   1.066  0.0713 -0.4493  0.3945
   39TMC2     H  611   2.111   4.669   1.204  1.5858  0.5348 -1.4145
   39TMC2    H1  612   1.897   0.291   1.145  0.2921 -0.4321  0.5936
   39TMC2    H2  613   2.307   0.298   1.281  0.0462 -1.8523  0.1650
   39TMC2    C7  614   2.088   0.447   1.238  0.9256  0.3116  0.4060
   39TMC2    C8  615   2.332   0.047   1.332  0.3931  0.4481 -0.1350
   39TMC2    O1  616   2.168   0.512   1.306 -0.2188 -0.1141 -0.8965
   39TMC2    O2  617   2.433   0.116   1.349  0.3394 -0.0031  0.5253
   39TMC2    O5  618   2.323   4.654   1.346  0.0170  0.0314  0.2996
   39TMC2    H5  619   2.234   4.614   1.362 -1.1565  1.1607 -3.5092
   40MPD2     C  620   1.810   4.400   1.164 -0.6004 -0.3797 -0.4198
   40MPD2    C1  621   1.783   4.529   1.127 -0.0778  0.4853 -0.7128
   40MPD2    C2  622   1.657   4.563   1.077 -0.1005 -0.3758 -0.9526
   40MPD2    C3  623   1.563   4.464   1.048 -0.1069 -0.3080  0.3722
   40MPD2    C4  624   1.601   4.336   1.073 -0.0037 -0.1542 -0.8554
   40MPD2    C5  625   1.720   4.307   1.125  0.4801  0.8324 -0.1176
   40MPD2     H  626   1.626   4.667   1.075  0.2236 -0.2789 -0.9269
   40MPD2    H1  627   1.547   4.251   1.033 -0.1699  0.0889 -1.1368
   40MPD2    H2  628   1.907   4.372   1.202 -0.1764  1.2878 -0.2756
   40MPD2    H3  629   1.743   4.202   1.136 -2.3137  0.1744 -0.6260
   40MPD2     N  630   1.442   4.479   0.971 -0.3821 -0.2236  0.4775
   40MPD2    H5  631   1.402   4.395   0.930  1.8222 -0.1002 -1.8597
   40MPD2    N1  632   1.879   4.631   1.160 -0.1892  0.2563 -0.4744
   40MPD2    H7  633   1.955   4.593   1.216 -0.4533  0.9126  0.3293
   41TMC2    C1  634   1.360   2.932  13.406  0.4588 -0.2562  0.4184
   41TMC2    C2  635   1.424   2.945  13.522 -0.1458 -0.4403 -0.4168
   41TMC2    C3  636   1.545   3.016  13.511  0.0159 -0.5709  0.3653
   41TMC2    C4  637   1.399   2.988  13.284  0.0305 -0.3738 -0.1123
   41TMC2    C5  638   1.511   3.059  13.278  0.0291  1.2987  0.0858
   41TMC2    C6  639   1.588   3.071  13.390  0.2621  0.2934 -1.1262
   41TMC2     C  640   1.239   2.857  13.400  0.4389  0.0804  0.3207
   41TMC2     O  641   1.180   2.861  13.295 -0.8745  0.1695 -0.0059
   41TMC2     H  642   1.398   2.897  13.616  0.4013 -1.1132 -0.6036
   41TMC2    H1  643   1.339   2.982  13.194 -0.1518  0.9070 -0.0855
   41TMC2    H2  644   1.678   3.132  13.384 -0.2232  1.0494 -0.6250
   41TMC2    C7  645   1.585   3.058  13.153  0.0627 -0.1616  0.4465
   41TMC2    C8  646   1.609   3.056  13.634  0.8227  0.3455  0.1057
   41TMC2    O1  647   1.709   3.079  13.163 -0.0488  0.3195  0.0947
   41TMC2    O2  648   1.728   3.085  13.623  0.2632 -0.2817  0.1133
   41TMC2    O5  649   1.524   3.137  13.698 -0.8371  0.4824  0.5489
   41TMC2    H5  650   1.429   3.115  13.685 -0.6056  0.1980 -0.6955
   42MPD2     C  651   1.005   2.694  13.455  0.4835  0.2505 -0.1959
   42MPD2    C1  652   1.092   2.735  13.555 -0.2209  0.7083 -0.1483
   42MPD2    C2  653   1.059   2.706  13.684 -0.2874  0.0503  0.5718
   42MPD2    C3  654   0.947   2.630  13.716 -1.2017  0.8027 -0.3457
   42MPD2    C4  655   0.860   2.595  13.621 -0.8359 -0.1137 -0.2672
   42MPD2    C5  656   0.895   2.629  13.488  0.3703  0.2400 -0.1634
   42MPD2     H  657   1.122   2.736  13.767  0.3620 -1.2980  0.5695
   42MPD2    H1  658   0.770   2.537  13.638 -0.7675 -0.3075 -0.5669
   42MPD2    H2  659   1.013   2.723  13.351  1.8664 -0.4064 -0.2747
   42MPD2    H3  660   0.823   2.617  13.408  0.0620 -1.9227  0.4252
   42MPD2     N  661   0.907   2.590  13.853 -0.2130 -0.0855 -0.3015
   42MPD2    H5  662   0.820   2.540  13.867  0.8481 -1.4529  1.4686
   42MPD2    N1  663   1.208   2.814  13.528 -0.3873 -0.0280 -0.2090
   42MPD2    H7  664   1.265   2.831  13.610 -3.5095  1.4008  1.6686
   43TMC2    C1  665   1.572   1.160   0.916  0.2846 -0.5443  0.0567
   43TMC2    C2  666   1.450   1.166   0.983  0.0460 -0.6311  0.5895
   43TMC2    C3  667   1.454   1.206   1.112 -0.2470  1.0711 -0.3265
   43TMC2    C4  668   1.684   1.199   0.978  0.6701  0.2727  0.1018
   43TMC2    C5  669   1.683   1.247   1.106 -0.3168 -0.1886 -0.2510
   43TMC2    C6  670   1.566   1.258   1.174  0.0512 -0.0229  0.6379
   43TMC2     C  671   1.599   1.072   0.805 -0.0309  0.6179 -0.1031
   43TMC2     O  672   1.714   1.040   0.778  0.4487  0.1727 -0.3496
   43TMC2     H  673   1.356   1.128   0.945 -0.0445  0.0643  0.1095
   43TMC2    H1  674   1.776   1.196   0.919  0.7846  0.0653  0.2931
   43TMC2    H2  675   1.559   1.281   1.280  0.3226  1.2586  0.3834
   43TMC2    C7  676   1.809   1.272   1.175 -0.3188 -0.2743 -0.7251
   43TMC2    C8  677   1.328   1.242   1.165  0.0613  0.5653  0.4553
   43TMC2    O1  678   1.913   1.248   1.114  0.3762 -0.3503  0.0777
   43TMC2    O2  679   1.228   1.173   1.149  0.8010 -0.1204  0.5144
   43TMC2    O5  680   1.324   1.374   1.195  0.0569 -0.2544 -0.0076
   43TMC2    H5  681   1.409   1.421   1.183 -0.9804  1.3877 -1.0720
   44MPD2     C  682   1.466   0.720   0.474 -0.2242 -0.0110  0.6401
   44MPD2    C1  683   1.588   0.791   0.490  0.9276  0.4284  1.0620
   44MPD2    C2  684   1.585   0.892   0.580  0.2631 -0.1887  0.4369
   44MPD2    C3  685   1.480   0.920   0.662  0.2912  0.5067 -0.0580
   44MPD2    C4  686   1.358   0.862   0.637  0.6260  0.2888  0.5540
   44MPD2    C5  687   1.358   0.757   0.547 -0.3269  0.1155  0.4709
   44MPD2     H  688   1.678   0.949   0.579 -0.5097  1.0846  0.7230
   44MPD2    H1  689   1.277   0.875   0.707  0.4478  1.4110  0.1462
   44MPD2    H2  690   1.462   0.624   0.425 -1.6980 -0.5637  1.8392
   44MPD2    H3  691   1.269   0.697   0.550 -1.0914  1.1881 -1.0864
   44MPD2     N  692   1.481   1.015   0.763 -0.2348 -0.3739  0.3073
   44MPD2    H5  693   1.388   1.047   0.791 -0.7654 -2.4692  0.9696
   44MPD2    N1  694   1.705   0.765   0.414  0.0211 -0.1294  0.5973
   44MPD2    H7  695   1.783   0.828   0.427 -0.6267  0.7090  0.3716
   45TMC2    C1  696   2.611   3.033   9.890 -0.5363  0.8675 -1.0557
   45TMC2    C2  697   2.552   3.019   9.768 -0.3889 -0.1763  0.5689
   45TMC2    C3  698   2.503   3.129   9.705  0.0982  0.1901 -0.1826
   45TMC2    C4  699   2.621   3.156   9.947  0.2130  0.0657  0.0682
   45TMC2    C5  700   2.586   3.267   9.875  0.4663 -0.6889 -0.5450
   45TMC2    C6  701   2.525   3.250   9.756  0.1726  0.0655  0.1816
   45TMC2     C  702   2.700   2.929   9.942 -0.7240 -0.1645 -0.8879
   45TMC2     O  703   2.798   2.976  10.005  0.4378  0.0897  0.5864
   45TMC2     H  704   2.534   2.920   9.728 -0.3348  0.4230 -0.9360
   45TMC2    H1  705   2.677   3.173  10.038  0.2024 -0.3439  0.1517
   45TMC2    H2  706   2.467   3.329   9.709  2.7308  2.0463  0.3289
   45TMC2    C7  707   2.683   3.377   9.869 -0.6139  0.1363 -0.4988
   45TMC2    C8  708   2.373   3.109   9.637  0.3436  0.2190 -0.1088
   45TMC2    O1  709   2.756   3.388   9.962  0.0894  0.1338 -0.3522
   45TMC2    O2  710   2.269   3.141   9.691 -0.0683 -0.1463  0.2675
   45TMC2    O5  711   2.383   3.020   9.537 -0.1240  0.6066 -0.5736
   45TMC2    H5  712   2.480   3.014   9.520  0.0099 -1.1517  0.8224
   46MPD2     C  713   2.911   2.730   9.895 -0.7609 -0.3480 -0.8838
   46MPD2    C1  714   2.780   2.709   9.864 -0.0617 -0.3123 -0.2444
   46MPD2    C2  715   2.746   2.596   9.795  0.0140  0.8891 -0.3968
   46MPD2    C3  716   2.843   2.497   9.769  0.4070 -0.6550  0.3730
   46MPD2    C4  717   2.974   2.512   9.822  0.0756 -0.0288  0.2566
   46MPD2    C5  718   3.007   2.636   9.876 -0.1356  0.3246 -0.0517
   46MPD2     H  719   2.641   2.595   9.769  0.3875  0.4241 -1.8436
   46MPD2    H1  720   3.051   2.436   9.812  0.9906  1.1150 -1.2515
   46MPD2    H2  721   2.939   2.817   9.954  1.0110 -0.2793 -1.8103
   46MPD2    H3  722   3.101   2.662   9.924 -1.1153 -0.2258  2.1662
   46MPD2     N  723   2.798   2.376   9.715  0.4778 -0.0927  0.1688
   46MPD2    H5  724   2.697   2.380   9.705  0.4012  0.2391  1.0738
   46MPD2    N1  725   2.679   2.808   9.883  0.0899 -0.1285  0.0435
   46MPD2    H7  726   2.584   2.789   9.854 -0.3888  0.8794  0.9470
   47TMC2    C1  727   0.316   3.617   9.260  0.4375  0.7260 -0.5375
   47TMC2    C2  728   0.263   3.721   9.189 -0.9456  0.1874 -0.0684
   47TMC2    C3  729   0.131   3.759   9.210 -0.0928  0.6674  0.0793
   47TMC2    C4  730   0.234   3.540   9.343 -0.5539 -0.5276 -0.2757
   47TMC2    C5  731   0.106   3.581   9.359  0.5751 -0.7100  0.4501
   47TMC2    C6  732   0.049   3.689   9.301  0.4592  0.4722 -0.2743
   47TMC2     C  733   0.452   3.579   9.230 -0.8336  1.5532 -0.4477
   47TMC2     O  734   0.514   3.659   9.162 -0.5082  0.0108  0.4146
   47TMC2     H  735   0.324   3.778   9.120 -1.0878 -0.9663 -1.1348
   47TMC2    H1  736   0.258   3.446   9.391 -2.2545  0.5808  2.7476
   47TMC2    H2  737   4.687   3.718   9.313  0.4547  0.2861  0.1539
   47TMC2    C7  738   0.042   3.561   9.492 -0.5842  0.1994 -0.4115
   47TMC2    C8  739   0.060   3.856   9.134  0.0248  0.0767  0.1105
   47TMC2    O1  740   4.687   3.637   9.520  0.4677 -0.0866 -0.4097
   47TMC2    O2  741   4.710   3.925   9.171  0.5096 -0.0897 -0.2701
   47TMC2    O5  742   0.119   3.862   9.009 -0.3247 -0.1496  0.4955
   47TMC2    H5  743   0.165   3.781   8.976 -1.7503 -0.1271 -1.5440
   48MPD2     C  744   0.737   3.470   9.228 -0.2365  0.1281  0.0072
   48MPD2    C1  745   0.631   3.433   9.310 -0.6060  0.9209  0.2134
   48MPD2    C2  746   0.646   3.342   9.407 -0.1646  0.7738 -0.2431
   48MPD2    C3  747   0.761   3.263   9.422  0.0759 -0.4271  0.2944
   48MPD2    C4  748   0.855   3.292   9.330  0.2161 -0.0796  0.7070
   48MPD2    C5  749   0.850   3.396   9.241  0.0173 -0.4842  1.0615
   48MPD2     H  750   0.557   3.328   9.467 -0.0171 -3.3459 -0.9742
   48MPD2    H1  751   0.953   3.247   9.338  0.2972 -0.1003 -0.5093
   48MPD2    H2  752   0.736   3.537   9.143  0.4921 -1.5460 -1.3122
   48MPD2    H3  753   0.935   3.411   9.176  0.7281 -0.0891  2.0706
   48MPD2     N  754   0.763   3.165   9.525  0.1119  0.1381 -0.1371
   48MPD2    H5  755   0.686   3.156   9.590  0.4665 -0.2353  0.2309
   48MPD2    N1  756   0.498   3.484   9.312  0.1431  0.5160 -0.2132
   48MPD2    H7  757   0.431   3.440   9.374  0.3388 -3.0888 -2.5152
   49TMC2    C1  758   4.514   1.123  10.075 -0.0888 -0.2951 -0.1627
   49TMC2    C2  759   4.485   1.245  10.018  0.4528  0.5715  0.5313
   49TMC2    C3  760   4.390   1.244   9.923  0.3189 -0.5365 -0.6449
   49TMC2    C4  761   4.447   1.005  10.036 -0.3225  0.0429 -0.0677
   49TMC2    C5  762   4.341   1.022   9.951 -0.2162 -0.3001 -0.2323
   49TMC2    C6  763   4.320   1.137   9.884 -0.4089  0.3776 -0.7662
   49TMC2     C  764   4.628   1.101  10.168  0.2831 -0.0514  0.6703
   49TMC2     O  765   4.731   1.161  10.139 -0.3389  0.1705 -0.0566
   49TMC2     H  766   4.551   1.327  10.043 -0.5909  0.9883  1.9176
   49TMC2    H1  767   4.475   0.908  10.075  0.5446  0.4058  0.1999
   49TMC2    H2  768   4.243   1.157   9.810 -0.2994  2.5638 -0.3066
   49TMC2    C7  769   4.269   0.908   9.893 -0.0951  0.2833  0.1770
   49TMC2    C8  770   4.366   1.360   9.842  0.1195 -0.5410 -0.3076
   49TMC2    O1  771   4.207   0.937   9.788 -0.7999  0.2991 -0.3941
   49TMC2    O2  772   4.317   1.352   9.731 -0.2940 -0.3227 -0.4904
   49TMC2    O5  773   4.362   1.464   9.926  0.3761  0.8373  0.0783
   49TMC2    H5  774   4.382   1.442  10.019 -0.2460 -0.6010 -0.1288
   50MPD2     C  775   0.080   0.991  10.381  0.3515 -0.3551 -0.3627
   50MPD2    C1  776   4.683   0.968  10.374  0.4778 -0.4344 -0.4903
   50MPD2    C2  777   4.627   0.902  10.485 -0.6379  0.3736 -0.1100
   50MPD2    C3  778   4.701   0.862  10.599 -0.4861 -0.1219 -0.1730
   50MPD2    C4  779   0.097   0.890  10.594  0.2096  0.6831  0.3581
   50MPD2    C5  780   0.149   0.955  10.487  0.4320  0.0098 -0.6068
   50MPD2     H  781   4.522   0.876  10.479 -1.0770  2.3346 -1.1635
   50MPD2    H1  782   0.169   0.869  10.671 -0.2277  0.0918  0.6077
   50MPD2    H2  783   0.131   1.047  10.303 -0.1782  1.1295  0.3679
   50MPD2    H3  784   0.255   0.977  10.496  0.5366 -0.8369  0.2416
   50MPD2     N  785   4.667   0.791  10.710 -0.0884  0.7519  0.1825
   50MPD2    H5  786   4.742   0.792  10.779 -0.9274  1.7898  1.0866
   50MPD2    N1  787   4.600   1.002  10.259  0.7355  0.0339  0.3747
   50MPD2    H7  788   4.503   0.974  10.260  0.3510  1.3296 -0.1752
   51TMC2    C1  789   3.441   4.554   0.901  0.3718  0.4335 -0.1661
   51TMC2    C2  790   3.323   4.601   0.935  0.0439 -0.2977  0.0539
   51TMC2    C3  791   3.289   4.729   0.920  0.2347  0.2590 -0.2957
   51TMC2    C4  792   3.540   4.634   0.845 -0.0488 -0.0067 -0.2196
   51TMC2    C5  793   3.502   0.021   0.832  0.0409 -0.1365  0.7350
   51TMC2    C6  794   3.377   0.074   0.870 -0.2509  0.1399 -0.0696
   51TMC2     C  795   3.440   4.420   0.843  0.6608  0.5706 -0.0852
   51TMC2     O  796   3.506   4.403   0.743  0.1225 -0.0313  0.0007
   51TMC2     H  797   3.247   4.527   0.959 -0.2298  0.0208  0.1756
   51TMC2    H1  798   3.637   4.599   0.812  0.4796  2.1607 -0.9542
   51TMC2    H2  799   3.334   0.169   0.841 -1.1382 -0.0055  0.7471
   51TMC2    C7  800   3.601   0.116   0.801  0.0288 -0.0392  0.3447
   51TMC2    C8  801   3.169   0.039   0.977 -0.3444 -0.1058 -0.1615
   51TMC2    O1  802   3.708   0.066   0.760  0.0764 -0.2308 -0.0955
   51TMC2    O2  803   3.166   0.154   1.021  0.3699  0.1228 -0.1580
   51TMC2    O5  804   3.074   4.686   1.006  0.3995  0.4083  0.0859
   51TMC2    H5  805   3.077   4.600   0.959  0.4594 -0.2319  1.2465
   52MPD2     C  806   3.354   3.917   0.868 -0.0998 -0.0837  0.2196
   52MPD2    C1  807   3.446   3.991   0.791  0.2752 -0.2125 -0.0609
   52MPD2    C2  808   3.462   4.120   0.828 -0.0793  0.0991  0.2822
   52MPD2    C3  809   3.385   4.189   0.922 -0.1220 -0.1377  0.1698
   52MPD2    C4  810   3.302   4.116   1.000 -0.5680  0.4045  0.0046
   52MPD2    C5  811   3.284   3.982   0.966  0.3899 -0.4892  0.4288
   52MPD2     H  812   3.527   4.179   0.763  0.5754 -0.9609 -0.0231
   52MPD2    H1  813   3.234   4.157   1.075 -1.3252 -1.0904  0.1394
   52MPD2    H2  814   3.347   3.809   0.870  1.4592 -0.1556  1.5878
   52MPD2    H3  815   3.219   3.925   1.032  0.3048 -0.6143  0.2349
   52MPD2     N  816   3.383   4.332   0.938 -0.0360  1.2068  0.4156
   52MPD2    H5  817   3.355   4.376   1.025  0.2299  0.7912  0.7107
   52MPD2    N1  818   3.517   3.939   0.681 -0.2677  0.1060  0.4868
   52MPD2    H7  819   3.583   4.004   0.639  1.5928 -0.9361  1.8307
   53TMC2    C1  820   4.416   2.760  11.565 -0.1371  0.1795  0.3990
   53TMC2    C2  821   4.543   2.750  11.609  0.3080 -0.5806  0.8600
   53TMC2    C3  822   4.552   2.695  11.731 -0.1784 -0.0208 -0.7835
   53TMC2    C4  823   4.308   2.695  11.611  0.0624  0.1440  0.0333
   53TMC2    C5  824   4.319   2.633  11.733  0.3525  0.4753  0.1859
   53TMC2    C6  825   4.441   2.648  11.794 -0.2862  0.4043  0.0717
   53TMC2     C  826   4.393   2.889  11.498  0.4220  0.9519 -0.0066
   53TMC2     O  827   4.485   2.960  11.459  0.3378 -0.1948  0.9426
   53TMC2     H  828   4.625   2.807  11.566 -0.3151 -0.8105 -0.6558
   53TMC2    H1  829   4.213   2.685  11.559 -1.5693  0.8448  2.8903
   53TMC2    H2  830   4.452   2.591  11.886 -0.5995 -0.3533 -0.3561
   53TMC2    C7  831   4.189   2.620  11.803 -0.4411  0.5985  0.3596
   53TMC2    C8  832   4.656   2.755  11.808  0.3434  0.4798 -0.2085
   53TMC2    O1  833   4.087   2.679  11.766 -0.0718 -0.0644  0.2869
   53TMC2    O2  834   0.013   2.801  11.752 -0.2589 -0.1439 -0.8388
   53TMC2    O5  835   4.594   2.811  11.911 -0.6124  0.3275  0.3464
   53TMC2    H5  836   4.523   2.748  11.936 -0.8983  0.7864  0.6891
   54MPD2     C  837   4.260   3.109  11.343 -0.0776  0.3720 -0.4453
   54MPD2    C1  838   4.195   3.026  11.434 -0.2823 -0.4303  0.3268
   54MPD2    C2  839   4.060   3.047  11.463  0.5002 -0.6277 -0.9791
   54MPD2    C3  840   3.994   3.154  11.402 -0.0282 -0.4596  0.0676
   54MPD2    C4  841   4.056   3.233  11.308 -0.3127 -0.5220 -0.6632
   54MPD2    C5  842   4.189   3.201  11.273  0.5189 -0.1559  0.0618
   54MPD2     H  843   4.008   2.980  11.531  1.8219  0.6338  1.2827
   54MPD2    H1  844   3.998   3.306  11.252 -1.6306 -1.9492 -1.1557
   54MPD2    H2  845   4.367   3.098  11.325  0.1882  0.1458  1.2642
   54MPD2    H3  846   4.242   3.262  11.201 -0.5039 -1.2503 -1.6083
   54MPD2     N  847   3.853   3.174  11.419 -0.2155 -0.0328 -0.2366
   54MPD2    H5  848   3.814   3.256  11.374  0.5146  0.0532 -0.7204
   54MPD2    N1  849   4.261   2.920  11.494 -0.9093  0.6089 -0.0012
   54MPD2    H7  850   4.198   2.858  11.544 -1.2308 -0.1655 -1.3512
   55TMC2    C1  851   4.718   1.661  17.355 -0.7004 -0.0415 -0.8370
   55TMC2    C2  852   0.027   1.746  17.253 -0.1847  0.2896 -0.5493
   55TMC2    C3  853   0.160   1.732  17.227  0.0638 -0.2913 -0.4915
   55TMC2    C4  854   0.052   1.568  17.417  0.1387 -0.2826  0.3141
   55TMC2    C5  855   0.186   1.570  17.395 -0.0971 -0.5069 -0.1960
   55TMC2    C6  856   0.239   1.652  17.300  0.6397 -0.2548  0.0673
   55TMC2     C  857   4.591   1.698  17.417  0.1250 -0.0599  0.2252
   55TMC2     O  858   4.559   1.630  17.512  0.6880  0.4873 -0.3107
   55TMC2     H  859   4.709   1.820  17.201 -1.5975 -0.5892 -0.1540
   55TMC2    H1  860   0.009   1.482  17.468 -0.4944 -0.1443  0.0084
   55TMC2    H2  861   0.346   1.646  17.284  0.8622  1.9771  0.7209
   55TMC2    C7  862   0.280   1.493  17.475 -0.4334 -0.1143  0.4365
   55TMC2    C8  863   0.225   1.816  17.128  0.5157 -0.0858 -0.5030
   55TMC2    O1  864   0.398   1.486  17.442 -0.2018 -0.2117  0.3708
   55TMC2    O2  865   0.344   1.837  17.125  0.0223 -0.0530 -0.5374
   55TMC2    O5  866   0.147   1.799  17.018 -0.0663  0.1675  0.0797
   55TMC2    H5  867   0.084   1.725  17.012 -2.9957  2.5137  1.5905
   56MPD2     C  868   4.334   1.924  17.309 -0.0360  1.0969 -0.4277
   56MPD2    C1  869   4.415   1.867  17.406  0.0103 -0.3080 -0.4888
   56MPD2    C2  870   4.381   1.860  17.541 -0.2819  0.3974 -0.7327
   56MPD2    C3  871   4.273   1.931  17.585  0.6567  0.3687 -0.8446
   56MPD2    C4  872   4.198   2.006  17.494 -0.2001 -0.1846  0.0587
   56MPD2    C5  873   4.223   1.994  17.361  0.0437  0.7053  0.0753
   56MPD2     H  874   4.446   1.812  17.613 -1.1681  0.2292 -0.0404
   56MPD2    H1  875   4.107   2.051  17.533  0.0798  0.1386  0.3360
   56MPD2    H2  876   4.355   1.925  17.202  1.9666 -0.6167 -0.0538
   56MPD2    H3  877   4.155   2.049  17.297 -0.5414 -0.9413 -0.7320
   56MPD2     N  878   4.239   1.916  17.723 -0.1840 -0.0455 -0.1445
   56MPD2    H5  879   4.312   1.881   0.019 -1.8546 -2.2751  0.5291
   56MPD2    N1  880   4.531   1.803  17.355  0.6791 -0.1327  0.0451
   56MPD2    H7  881   4.553   1.824  17.258 -0.4585  0.4595 -0.0891
   57TMC2    C1  882   3.888   1.758  13.407 -0.2952  0.2062 -0.3092
   57TMC2    C2  883   3.829   1.645  13.361  0.1446 -0.2160  0.6178
   57TMC2    C3  884   3.874   1.595  13.238 -0.3758 -0.4109 -0.0959
   57TMC2    C4  885   3.990   1.820  13.342 -0.1661 -0.9799  0.2455
   57TMC2    C5  886   4.048   1.747  13.249 -0.7702 -0.2502  0.3126
   57TMC2    C6  887   3.991   1.637  13.188 -0.2755 -0.2004  0.2535
   57TMC2     C  888   3.832   1.831  13.526  0.7489 -0.3556  0.5284
   57TMC2     O  889   3.851   1.954  13.517  0.2510 -0.2027 -0.4900
   57TMC2     H  890   3.731   1.606  13.390  0.3718 -2.5224 -1.7045
   57TMC2    H1  891   4.038   1.911  13.377 -0.5272  0.1589 -2.2117
   57TMC2    H2  892   4.027   1.607  13.090  1.7629  3.4775 -0.1134
   57TMC2    C7  893   4.187   1.760  13.253 -0.7959  0.3906  0.7036
   57TMC2    C8  894   3.800   1.494  13.166  0.5499  0.4804  0.6652
   57TMC2    O1  895   4.235   1.851  13.314  0.0849  0.1298  0.4074
   57TMC2    O2  896   3.799   1.489  13.042 -0.4113 -0.4653  1.2222
   57TMC2    O5  897   3.768   1.398  13.249  0.1058  0.4600  0.0202
   57TMC2    H5  898   3.791   1.423  13.341 -1.5648 -1.4291  0.9400
   58MPD2     C  899   3.399   1.868  13.802  0.6508  0.4553 -0.1629
   58MPD2    C1  900   3.477   1.963  13.743 -0.8451 -0.3757 -0.2566
   58MPD2    C2  901   3.592   1.920  13.680  0.1867  0.2802  0.4133
   58MPD2    C3  902   3.637   1.795  13.673  0.2859 -0.5861 -0.1612
   58MPD2    C4  903   3.550   1.706  13.727 -0.2936  0.2719 -0.4842
   58MPD2    C5  904   3.427   1.733  13.788  0.1198 -0.2786  0.1751
   58MPD2     H  905   3.659   2.000  13.654  0.5629 -0.9128 -2.2493
   58MPD2    H1  906   3.573   1.601  13.728 -2.3994 -0.2037 -2.1645
   58MPD2    H2  907   3.307   1.889  13.856  1.2956  2.2878  0.2024
   58MPD2    H3  908   3.366   1.655  13.833 -0.7440  0.9389  1.1030
   58MPD2     N  909   3.747   1.751  13.596  0.6354 -0.2469 -0.0361
   58MPD2    H5  910   3.764   1.652  13.583 -4.0956 -0.8559 -1.3651
   58MPD2    N1  911   3.439   2.097  13.735 -0.2420 -0.0023  0.5265
   58MPD2    H7  912   3.492   2.159  13.675  1.2266 -1.9970 -0.2686
   59TMC2    C1  913   1.653   1.515  12.704 -0.5690  0.8386  0.3887
   59TMC2    C2  914   1.517   1.488  12.686 -0.4533 -0.0403 -0.4548
   59TMC2    C3  915   1.489   1.399  12.587 -0.1434 -0.1055 -0.1525
   59TMC2    C4  916   1.750   1.478  12.608  0.3310  0.0095 -0.0401
   59TMC2    C5  917   1.707   1.393  12.511  0.0097  0.7601  0.6580
   59TMC2    C6  918   1.586   1.341  12.506  0.2900 -0.7215 -0.6045
   59TMC2     C  919   1.704   1.560  12.835 -0.3185 -0.0981  0.0238
   59TMC2     O  920   1.814   1.612  12.840 -0.5218 -1.0290  0.0266
   59TMC2     H  921   1.441   1.523  12.755 -0.2177  1.3728 -0.9195
   59TMC2    H1  922   1.852   1.510  12.626 -0.3400  1.4138  1.3556
   59TMC2    H2  923   1.557   1.275  12.425 -1.6704  0.4692 -0.8595
   59TMC2    C7  924   1.789   1.388  12.398  0.5255 -0.7443  0.0862
   59TMC2    C8  925   1.358   1.333  12.592 -0.5380  0.2861  0.4544
   59TMC2    O1  926   1.782   1.281  12.338  0.7829  0.0035  0.1661
   59TMC2    O2  927   1.279   1.356  12.687 -0.2380  0.3206 -0.7009
   59TMC2    O5  928   1.313   1.342  12.465  0.6997 -0.9725  0.0437
   59TMC2    H5  929   1.381   1.370  12.400  1.7417 -2.4306  0.4910
   60MPD2     C  930   1.568   1.500  13.171  0.4639 -0.1126 -0.3031
   60MPD2    C1  931   1.665   1.510  13.076  0.0381  0.2884  0.2029
   60MPD2    C2  932   1.799   1.520  13.114  0.2534 -0.5209  0.0395
   60MPD2    C3  933   1.838   1.515  13.242 -0.3077  0.4213  0.8415
   60MPD2    C4  934   1.735   1.510  13.337 -0.0382  0.0867  0.4076
   60MPD2    C5  935   1.605   1.494  13.301 -0.6560 -0.2505  0.4661
   60MPD2     H  936   1.872   1.503  13.037  0.2556  0.7725 -0.2590
   60MPD2    H1  937   1.755   1.491  13.441  0.8661  0.4928  0.3068
   60MPD2    H2  938   1.462   1.497  13.151  0.3260 -2.8900  0.8175
   60MPD2    H3  939   1.524   1.491  13.373 -2.6754 -1.3374 -1.8375
   60MPD2     N  940   1.967   1.508  13.278 -0.1075  0.8630 -0.0727
   60MPD2    H5  941   1.989   1.509  13.377 -1.7836 -0.1103  0.3111
   60MPD2    N1  942   1.624   1.515  12.940 -0.2922  0.3595  0.9422
   60MPD2    H7  943   1.527   1.490  12.925 -0.2565  0.4077  0.6326
   61TMC2    C1  944   1.288   2.782  15.567 -0.1694 -0.5680  0.2097
   61TMC2    C2  945   1.299   2.703  15.678  0.4981  0.1554  0.0303
   61TMC2    C3  946   1.209   2.740  15.773 -0.2372  0.2398 -0.1943
   61TMC2    C4  947   1.192   2.873  15.543 -0.5794  0.3846  0.3292
   61TMC2    C5  948   1.104   2.903  15.644  0.0715 -0.3968 -0.1899
   61TMC2    C6  949   1.118   2.843  15.767 -0.2752  0.5625  0.0007
   61TMC2     C  950   1.331   2.723  15.444 -0.0718 -0.2145 -0.5903
   61TMC2     O  951   1.327   2.601  15.438 -0.0368 -0.2583 -0.3880
   61TMC2     H  952   1.343   2.604  15.672  1.4103  0.5047  1.0656
   61TMC2    H1  953   1.193   2.936  15.455 -0.3368  0.7904  0.6226
   61TMC2    H2  954   1.049   2.868  15.846 -1.4326  1.4912 -1.3012
   61TMC2    C7  955   0.999   3.003  15.615 -0.9165  0.4898 -0.4390
   61TMC2    C8  956   1.258   2.710  15.901  0.9296 -0.6912  0.1020
   61TMC2    O1  957   1.027   3.078  15.522  0.6756 -0.6033 -0.3134
   61TMC2    O2  958   1.241   2.794  15.992  0.5537 -0.1599  0.9089
   61TMC2    O5  959   1.318   2.594  15.895 -0.2282  0.2840 -0.0762
   61TMC2    H5  960   1.299   2.535  15.818  1.9739 -0.2058 -0.2583
   62MPD2     C  961   1.400   2.648  15.164 -0.2712 -0.2992 -0.6651
   62MPD2    C1  962   1.410   2.772  15.219  0.0136  0.2009  0.0509
   62MPD2    C2  963   1.437   2.880  15.130  0.6456 -0.1301  0.2447
   62MPD2    C3  964   1.430   2.871  14.992 -0.2980 -0.1018 -0.4018
   62MPD2    C4  965   1.415   2.741  14.946  0.0144  0.3681 -0.0571
   62MPD2    C5  966   1.408   2.632  15.028 -0.1109 -0.3201 -0.2372
   62MPD2     H  967   1.445   2.980  15.170  0.1479 -0.0282  0.0937
   62MPD2    H1  968   1.407   2.713  14.842 -1.1910  1.2383 -0.1918
   62MPD2    H2  969   1.383   2.558  15.221 -0.9369 -0.1758 -0.6668
   62MPD2    H3  970   1.405   2.534  14.981 -1.0637 -0.0472 -0.7619
   62MPD2     N  971   1.437   2.979  14.898 -0.2759  0.3098 -0.2177
   62MPD2    H5  972   1.400   2.951  14.808  0.5346  0.8193 -0.7122
   62MPD2    N1  973   1.373   2.814  15.348 -0.1796  0.2680 -0.0763
   62MPD2    H7  974   1.382   2.912  15.374 -0.0769  0.8674 -2.3534
   63TMC2    C1  975   0.831   2.967  10.531  0.4241 -0.5778 -0.0999
   63TMC2    C2  976   0.958   2.960  10.577 -0.8182  0.3690 -0.1647
   63TMC2    C3  977   1.058   3.022  10.502 -0.5486  0.5950 -0.5787
   63TMC2    C4  978   0.800   3.043  10.421  0.0120  0.2370 -0.3033
   63TMC2    C5  979   0.900   3.104  10.347  0.0107 -0.2344  0.7917
   63TMC2    C6  980   1.029   3.095  10.386  0.5228 -0.4041 -0.0458
   63TMC2     C  981   0.740   2.857  10.545 -0.7037  0.2818  0.3561
   63TMC2     O  982   0.641   2.850  10.476 -0.1008 -0.5076  0.3487
   63TMC2     H  983   0.980   2.885  10.653 -1.1016  1.9943  1.5126
   63TMC2    H1  984   0.697   3.063  10.394  0.2272 -0.0511 -1.3613
   63TMC2    H2  985   1.111   3.156  10.349 -0.1095  0.1112 -0.5881
   63TMC2    C7  986   0.859   3.199  10.244  0.3525  0.5454  0.4981
   63TMC2    C8  987   1.190   3.029  10.552 -0.3908 -0.0727  0.2866
   63TMC2    O1  988   0.910   3.177  10.131  0.3408  0.0074 -0.1283
   63TMC2    O2  989   1.282   3.015  10.472 -0.3769  0.2562 -1.0927
   63TMC2    O5  990   1.194   2.985  10.682 -0.0956  0.0293 -0.1051
   63TMC2    H5  991   1.129   3.020  10.746  0.4151 -1.2310  1.1040
   64MPD2     C  992   0.587   2.407  10.770 -0.5581  0.0333 -0.6646
   64MPD2    C1  993   0.716   2.447  10.815  0.8241 -0.1502 -0.3410
   64MPD2    C2  994   0.776   2.565  10.770 -0.4290  0.1893  1.1550
   64MPD2    C3  995   0.712   2.645  10.675  0.1236 -0.0514 -0.7826
   64MPD2    C4  996   0.596   2.603  10.628 -0.3679 -0.0270 -0.0195
   64MPD2    C5  997   0.528   2.492  10.682  0.6035 -0.3935 -0.2541
   64MPD2     H  998   0.872   2.600  10.807  0.3225 -0.0892 -0.5549
   64MPD2    H1  999   0.531   2.673  10.576  0.9081  0.4746 -0.9294
   64MPD2    H2 1000   0.538   2.315  10.799 -0.7371  0.2085 -0.4201
   64MPD2    H3 1001   0.441   2.474  10.620  0.2369 -1.9005  0.6844
   64MPD2     N 1002   0.780   2.761  10.634  0.0418  0.4013 -0.5453
   64MPD2    H5 1003   0.873   2.764  10.676  0.1627  0.2486 -0.8020
   64MPD2    N1 1004   0.793   2.377  10.914 -0.0851 -0.3396  0.6769
   64MPD2    H7 1005   0.885   2.413  10.939 -0.2802  0.0272  0.8567
   65TMC2    C1 1006   2.012   3.002  15.490  0.5904  0.0842 -0.1935
   65TMC2    C2 1007   2.075   2.959  15.379 -0.4006 -0.4027 -0.3240
   65TMC2    C3 1008   2.075   3.041  15.272  0.5603 -0.2810  0.1519
   65TMC2    C4 1009   1.968   3.127  15.501  0.2070 -0.4027  1.2143
   65TMC2    C5 1010   1.983   3.208  15.394  0.4246 -0.3210 -0.5643
   65TMC2    C6 1011   2.024   3.164  15.273 -0.0025 -0.1570 -0.2521
   65TMC2     C 1012   1.959   2.910  15.591 -0.3450  0.4730 -0.3868
   65TMC2     O 1013   1.917   2.951  15.697 -0.2369 -0.0817 -0.3382
   65TMC2     H 1014   2.132   2.866  15.374 -1.0186 -0.8068  0.1851
   65TMC2    H1 1015   1.927   3.166  15.593 -1.2453  3.7475 -1.1857
   65TMC2    H2 1016   2.016   3.227  15.185 -0.3515  0.5589  0.3021
   65TMC2    C7 1017   1.918   3.334  15.399 -0.0696  0.4169  0.1718
   65TMC2    C8 1018   2.135   2.999  15.147 -0.2789  0.3085 -0.3183
   65TMC2    O1 1019   1.931   3.409  15.306 -0.3930  0.2348 -0.6574
   65TMC2    O2 1020   2.118   2.889  15.091 -0.8317  0.0800  0.0176
   65TMC2    O5 1021   2.191   3.112  15.100  0.1056  0.3699 -0.4114
   65TMC2    H5 1022   2.194   3.195  15.153 -1.7690  0.1461  0.0746
   66MPD2     C 1023   1.844   2.685  15.719  1.1997 -0.0925 -1.1481
   66MPD2    C1 1024   1.845   2.702  15.577 -0.1773  0.1093  0.3481
   66MPD2    C2 1025   1.767   2.625  15.494  0.1211 -0.3758  0.3327
   66MPD2    C3 1026   1.669   2.548  15.557  0.2847  0.0103 -0.5725
   66MPD2    C4 1027   1.668   2.533  15.693  0.6440  0.4006 -0.6685
   66MPD2    C5 1028   1.766   2.595  15.777 -0.3962  0.0789 -0.0444
   66MPD2     H 1029   1.778   2.631  15.386 -0.3416  1.2500  0.3830
   66MPD2    H1 1030   1.609   2.456  15.741 -1.4101  1.5903 -1.2840
   66MPD2    H2 1031   1.917   2.741  15.777  0.4625 -0.3427  0.0242
   66MPD2    H3 1032   1.760   2.567  15.882  0.4196 -1.0936 -0.3156
   66MPD2     N 1033   1.584   2.455  15.489  0.4772 -0.0009  0.1210
   66MPD2    H5 1034   1.513   2.405  15.542  2.8892  1.2860  4.6031
   66MPD2    N1 1035   1.917   2.805  15.514 -0.1337  0.5251  0.4432
   66MPD2    H7 1036   1.910   2.815  15.413 -1.3516 -0.6365  0.4014
   67TMC2    C1 1037   1.827   1.952  14.159 -0.4947  0.3365 -0.9636
   67TMC2    C2 1038   1.768   2.077  14.150  0.0215  0.0554 -0.0681
   67TMC2    C3 1039   1.806   2.178  14.238 -0.4693 -0.2018 -0.8124
   67TMC2    C4 1040   1.929   1.928  14.243 -0.4392  0.4861 -0.4121
   67TMC2    C5 1041   1.947   2.024  14.346  0.1167 -0.5277 -0.1057
   67TMC2    C6 1042   1.893   2.153  14.339 -0.0807 -0.4412  0.4517
   67TMC2     C 1043   1.822   1.868  14.042  0.7541 -0.1899  0.0126
   67TMC2     O 1044   1.905   1.778  14.030 -0.7777  0.7020  0.0203
   67TMC2     H 1045   1.699   2.104  14.070  1.9002  2.9629 -0.7097
   67TMC2    H1 1046   1.979   1.832  14.240 -1.6983 -0.1690 -0.7174
   67TMC2    H2 1047   1.915   2.227  14.415 -1.4246  0.0321  0.3664
   67TMC2    C7 1048   2.056   1.999  14.440  1.1377  0.1265 -0.0777
   67TMC2    C8 1049   1.747   2.308  14.211 -0.0683  0.1819  0.3132
   67TMC2    O1 1050   2.132   1.904  14.416 -0.1846 -0.4649  0.2156
   67TMC2    O2 1051   1.630   2.315  14.171 -0.2902 -0.4353 -0.3742
   67TMC2    O5 1052   1.813   2.404  14.276  0.1359  0.2069  0.1043
   67TMC2    H5 1053   1.907   2.379  14.290  0.0632  0.8662  1.6993
   68MPD2     C 1054   1.739   1.763  13.771 -0.1719 -0.2868 -0.7147
   68MPD2    C1 1055   1.655   1.840  13.847 -0.5494  0.4652 -0.9380
   68MPD2    C2 1056   1.530   1.877  13.804 -0.2803  0.0640 -0.4169
   68MPD2    C3 1057   1.481   1.833  13.684  0.3617  0.2387 -0.2904
   68MPD2    C4 1058   1.560   1.756  13.600 -0.0443 -0.3677 -0.3461
   68MPD2    C5 1059   1.688   1.724  13.646  0.3315 -0.5376 -0.4453
   68MPD2     H 1060   1.482   1.964  13.847  0.0346 -0.3655  0.8105
   68MPD2    H1 1061   1.518   1.716  13.508  2.1359  0.0904 -1.5421
   68MPD2    H2 1062   1.836   1.722  13.798 -0.4567 -0.6952 -0.3110
   68MPD2    H3 1063   1.761   1.669  13.587  2.0841 -0.0353  1.2484
   68MPD2     N 1064   1.355   1.873  13.625  0.6574 -0.0264 -0.3207
   68MPD2    H5 1065   1.350   1.864  13.524 -0.1321 -1.7482 -0.1260
   68MPD2    N1 1066   1.701   1.891  13.973 -0.4187  0.3450 -0.0163
   68MPD2    H7 1067   1.628   1.946  14.016 -0.9731 -2.5857  2.8108
   69TMC2    C1 1068   4.121   2.968  12.398  0.2386  0.1663  0.3753
   69TMC2    C2 1069   4.058   3.032  12.292 -1.0222 -0.3399 -0.3648
   69TMC2    C3 1070   4.073   2.985  12.166 -0.2693 -0.1057 -0.1571
   69TMC2    C4 1071   4.213   2.871  12.373 -0.4662 -0.4888 -0.2981
   69TMC2    C5 1072   4.249   2.843  12.242 -0.1564  0.0679  0.8635
   69TMC2    C6 1073   4.171   2.895  12.138  0.2242 -0.3197  0.0864
   69TMC2     C 1074   4.038   2.925  12.510 -0.0919  0.3214 -0.1014
   69TMC2     O 1075   4.064   2.817  12.561  0.0624 -0.2295  0.3545
   69TMC2     H 1076   3.974   3.095  12.317 -0.1460  0.5360  0.4074
   69TMC2    H1 1077   4.262   2.821  12.457  1.2324  0.6447 -0.6036
   69TMC2    H2 1078   4.190   2.855  12.039 -0.1013  2.4786 -1.1072
   69TMC2    C7 1079   4.376   2.771  12.213 -0.9061  0.6922 -0.0518
   69TMC2    C8 1080   3.980   3.024  12.063 -0.4472  0.9309  0.0597
   69TMC2    O1 1081   4.397   2.737  12.095  0.2488 -0.5244  0.0554
   69TMC2    O2 1082   3.864   3.059  12.096  1.0636 -0.2597 -0.2925
   69TMC2    O5 1083   4.029   2.999  11.939  0.3482 -0.4194 -0.1206
   69TMC2    H5 1084   4.126   2.989  11.926  0.3788  0.2825 -0.4407
   70MPD2     C 1085   3.877   3.180  12.720 -0.2722  0.1612  0.6183
   70MPD2    C1 1086   3.910   3.058  12.675  0.3858  0.2665  0.2610
   70MPD2    C2 1087   3.867   2.944  12.742 -0.3930 -0.0291 -0.1655
   70MPD2    C3 1088   3.811   2.957  12.875 -0.2219  0.1294 -0.4667
   70MPD2    C4 1089   3.802   3.086  12.925  0.5004 -0.2951  0.7804
   70MPD2    C5 1090   3.826   3.196  12.849 -0.0203 -0.3402  0.3695
   70MPD2     H 1091   3.881   2.847  12.696  1.8338 -0.7837  2.1136
   70MPD2    H1 1092   3.761   3.102  13.024  0.2802 -2.2546  1.0048
   70MPD2    H2 1093   3.911   3.267  12.664  0.4361 -0.5794 -0.1153
   70MPD2    H3 1094   3.817   3.290  12.902 -0.4910 -0.4892  0.5571
   70MPD2     N 1095   3.773   2.852  12.955 -0.1704  0.1001  0.3689
   70MPD2    H5 1096   3.748   2.874  13.051 -1.3908 -2.1221  0.5610
   70MPD2    N1 1097   3.981   3.042  12.554 -0.0870  0.1949 -0.0858
   70MPD2    H7 1098   4.011   3.131  12.516  1.2973 -0.9436 -1.6736
   71TMC2    C1 1099   1.494   3.696   1.316  0.0708  0.3111  0.2737
   71TMC2    C2 1100   1.602   3.648   1.378 -0.2349  0.1220 -0.3099
   71TMC2    C3 1101   1.630   3.674   1.508 -0.4826 -0.2479  0.1889
   71TMC2    C4 1102   1.403   3.771   1.390 -0.4630 -0.0417 -0.3386
   71TMC2    C5 1103   1.433   3.798   1.523 -0.0359 -0.0700  0.3179
   71TMC2    C6 1104   1.543   3.749   1.581 -0.3502  0.6544  0.1685
   71TMC2     C 1105   1.457   3.657   1.183  0.0032 -0.1805 -0.2985
   71TMC2     O 1106   1.339   3.678   1.151 -0.5256  0.1256  0.2632
   71TMC2     H 1107   1.665   3.569   1.339  1.5090  1.9724 -1.2561
   71TMC2    H1 1108   1.324   3.820   1.334 -0.4999  0.7854  0.4337
   71TMC2    H2 1109   1.562   3.764   1.686 -0.3172 -0.1136  0.2719
   71TMC2    C7 1110   1.342   3.879   1.610  0.0099  1.0010  0.2555
   71TMC2    C8 1111   1.732   3.591   1.573 -0.5519 -0.0906 -0.0580
   71TMC2    O1 1112   1.392   3.952   1.696  0.1801 -0.4700 -0.9735
   71TMC2    O2 1113   1.842   3.562   1.526  0.3533 -0.3757  1.0587
   71TMC2    O5 1114   1.678   3.528   1.679  0.3083 -0.8373  0.2682
   71TMC2    H5 1115   1.592   3.563   1.712  0.6537 -0.7240  1.0318
   72MPD2     C 1116   1.482   3.431   0.735  0.0996  0.5362 -0.6841
   72MPD2    C1 1117   1.438   3.556   0.764  0.7081  0.2338 -0.6432
   72MPD2    C2 1118   1.456   3.595   0.892  0.4758  0.1067  0.0118
   72MPD2    C3 1119   1.526   3.522   0.988  0.1981 -0.1306 -0.8138
   72MPD2    C4 1120   1.580   3.409   0.952  0.1330  1.0108  0.1752
   72MPD2    C5 1121   1.551   3.357   0.825 -0.0968 -0.4601 -0.1447
   72MPD2     H 1122   1.423   3.693   0.924 -2.9785 -1.6961  1.9560
   72MPD2    H1 1123   1.647   3.352   1.015 -0.2462 -0.3255 -0.6391
   72MPD2    H2 1124   1.471   3.379   0.641  0.2816  1.7395 -1.3707
   72MPD2    H3 1125   1.584   3.257   0.801  2.0148  0.3956 -0.7580
   72MPD2     N 1126   1.545   3.567   1.121 -0.0637  0.2455  0.1761
   72MPD2    H5 1127   1.640   3.546   1.151  0.7789  1.4051 -1.6983
   72MPD2    N1 1128   1.355   3.632   0.676  0.1542  0.5581 -0.3725
   72MPD2    H7 1129   1.302   3.715   0.702  0.1185  1.3638 -3.0306
   73TMC2    C1 1130   1.278   0.474  13.362 -0.1131  0.7129  0.2785
   73TMC2    C2 1131   1.180   0.456  13.452  0.0026  0.3607  0.5033
   73TMC2    C3 1132   1.207   0.403  13.573  0.3003 -0.2123  0.1348
   73TMC2    C4 1133   1.406   0.436  13.399  0.1364 -0.1448 -0.5517
   73TMC2    C5 1134   1.429   0.398  13.535  0.8382  0.5499  0.2431
   73TMC2    C6 1135   1.328   0.378  13.633  0.6009  0.4518 -0.3495
   73TMC2     C 1136   1.287   0.614  13.315  0.0342 -0.2321 -0.1022
   73TMC2     O 1137   1.389   0.672  13.352 -0.3163 -0.0292  0.3030
   73TMC2     H 1138   1.080   0.484  13.419  0.8865 -0.7537 -3.1119
   73TMC2    H1 1139   1.490   0.446  13.332  0.1751 -1.3210 -0.6895
   73TMC2    H2 1140   1.347   0.327  13.727  2.2870  1.8171  0.0557
   73TMC2    C7 1141   1.554   0.456  13.590 -0.7764  0.1339  0.8515
   73TMC2    C8 1142   1.093   0.374  13.660  0.3206  0.5220  0.3442
   73TMC2    O1 1143   1.607   0.403  13.685  0.1748 -0.2997 -0.3639
   73TMC2    O2 1144   1.120   0.348  13.777  0.2547 -0.5650  0.4706
   73TMC2    O5 1145   0.999   0.309  13.596 -0.4605  0.3930 -0.0799
   73TMC2    H5 1146   0.996   0.325  13.499 -0.6328  2.7466  0.3285
   74MPD2     C 1147   1.170   1.020  13.034 -0.3712  0.5756  0.0337
   74MPD2    C1 1148   1.277   0.998  13.113 -0.7350 -0.3066 -0.8275
   74MPD2    C2 1149   1.276   0.875  13.188  0.2836  0.3406 -0.1564
   74MPD2    C3 1150   1.173   0.789  13.182  0.6361 -1.0750  0.4774
   74MPD2    C4 1151   1.071   0.816  13.094 -0.8987 -0.0646 -0.2413
   74MPD2    C5 1152   1.061   0.936  13.025  0.3944  1.2180 -0.7040
   74MPD2     H 1153   1.363   0.860  13.250  0.2667 -1.0107 -0.4753
   74MPD2    H1 1154   0.994   0.741  13.081 -1.2739  0.4185 -0.7697
   74MPD2    H2 1155   1.172   1.112  12.978 -1.7784  0.2008 -0.6293
   74MPD2    H3 1156   0.973   0.959  12.965 -1.1292 -0.3326  0.9523
   74MPD2     N 1157   1.178   0.656  13.235  0.0355 -0.6184  0.7328
   74MPD2    H5 1158   1.099   0.596  13.216 -0.0735 -0.8862  2.0543
   74MPD2    N1 1159   1.380   1.094  13.114  0.2733 -0.2529 -0.0371
   74MPD2    H7 1160   1.371   1.179  13.060 -1.5509  0.0580  0.7472
   75TMC2    C1 1161   1.150   2.005  13.618  0.0576 -0.3609  0.1672
   75TMC2    C2 1162   1.045   2.063  13.689 -0.7778 -0.0603  0.3198
   75TMC2    C3 1163   0.982   2.178  13.638  0.2981 -0.5584 -0.6041
   75TMC2    C4 1164   1.184   2.050  13.494 -0.2335  0.1954 -0.1278
   75TMC2    C5 1165   1.110   2.157  13.439  0.4377  0.0410 -0.0360
   75TMC2    C6 1166   1.018   2.226  13.513  0.1213  0.0916  0.2039
   75TMC2     C 1167   1.252   1.932  13.695  0.4090  0.2240 -0.4630
   75TMC2     O 1168   1.247   1.956  13.815  0.1681  0.2743  0.4031
   75TMC2     H 1169   1.014   2.013  13.780  0.3338  0.1976  0.8399
   75TMC2    H1 1170   1.267   2.008  13.437  0.1767  1.3732 -0.3905
   75TMC2    H2 1171   0.970   2.310  13.465 -2.9591 -0.4749  2.2756
   75TMC2    C7 1172   1.143   2.211  13.312  0.7671  0.1015 -0.2242
   75TMC2    C8 1173   0.850   2.227  13.679 -0.1415  0.7000 -0.4369
   75TMC2    O1 1174   1.167   2.126  13.224 -0.0150 -0.1406  0.1019
   75TMC2    O2 1175   0.779   2.293  13.601  0.2718 -0.2254 -0.8116
   75TMC2    O5 1176   0.791   2.159  13.782  0.2050  0.1767  0.2707
   75TMC2    H5 1177   0.866   2.126  13.835  1.5376  1.3550 -0.8799
   76TMC2    C1 1178   1.027   1.757  11.966 -0.1211  0.1767  0.1418
   76TMC2    C2 1179   1.049   1.629  11.995  0.1648  0.4771 -0.3112
   76TMC2    C3 1180   1.180   1.584  11.979  0.2725  0.1279 -0.3294
   76TMC2    C4 1181   1.131   1.846  11.950  0.0947  0.0128 -0.2531
   76TMC2    C5 1182   1.261   1.800  11.958  0.2401 -0.2046 -0.2862
   76TMC2    C6 1183   1.288   1.667  11.967 -0.1016 -0.2515  0.6014
   76TMC2     C 1184   0.896   1.817  11.978  0.1558 -0.3135 -0.1784
   76TMC2     O 1185   0.871   1.929  11.933 -0.4511 -0.1820 -0.6096
   76TMC2     H 1186   0.982   1.546  12.017 -0.5671  1.2144  0.2259
   76TMC2    H1 1187   1.105   1.949  11.925  3.6516  0.8498 -0.5586
   76TMC2    H2 1188   1.393   1.643  11.984  0.2459  0.0086 -1.1849
   76TMC2    C7 1189   1.370   1.891  11.952  0.6692  0.3290  0.4122
   76TMC2    C8 1190   1.197   1.441  12.020  0.3365  0.6864 -0.1554
   76TMC2    O1 1191   1.481   1.846  11.940  0.1351  0.4869  0.7032
   76TMC2    O2 1192   1.137   1.395  12.117  0.1327 -0.4331  0.9299
   76TMC2    O5 1193   1.322   1.409  11.987 -0.4689  0.1913 -0.7753
   76TMC2    H5 1194   1.339   1.443  11.896  0.1776  0.7585 -0.4426
   77MPD2     C 1195   0.395   1.790  12.091  0.0041 -0.1004  0.0107
   77MPD2    C1 1196   0.465   1.885  12.020 -0.3645 -0.1786 -0.4524
   77MPD2    C2 1197   0.599   1.864  11.996  0.1422  0.0424  0.3367
   77MPD2    C3 1198   0.674   1.760  12.061  0.3188 -0.4749  0.1658
   77MPD2    C4 1199   0.597   1.683  12.149  0.0338  0.4502 -0.4253
   77MPD2    C5 1200   0.458   1.691  12.152 -0.2869  0.3302 -0.0150
   77MPD2     H 1201   0.643   1.933  11.925  1.0936  0.9240  1.7708
   77MPD2    H1 1202   0.635   1.600  12.207 -2.0197  0.0289  0.3284
   77MPD2    H2 1203   0.287   1.783  12.098 -0.1311  3.2195  1.1836
   77MPD2    H3 1204   0.401   1.611  12.197 -1.3707 -0.3923 -2.6960
   77MPD2     N 1205   0.815   1.733  12.052 -0.3822  0.0384  0.1804
   77MPD2    H5 1206   0.856   1.650  12.092 -1.1310 -0.9117 -1.0612
   77MPD2    N1 1207   0.403   1.996  11.966  0.4612 -0.2089  0.3847
   77MPD2    H7 1208   0.464   2.041  11.899 -0.3221 -0.4216 -0.4707
   78TMC2    C1 1209   1.226   4.230   1.424  0.7579  0.1292  0.2621
   78TMC2    C2 1210   1.253   4.269   1.558  0.1827  0.1709  0.4320
   78TMC2    C3 1211   1.379   4.252   1.604 -0.6255 -0.8338 -0.4164
   78TMC2    C4 1212   1.318   4.169   1.352  0.2159 -0.6144 -0.6304
   78TMC2    C5 1213   1.442   4.143   1.411  0.2212  0.1703 -1.0503
   78TMC2    C6 1214   1.479   4.188   1.537  0.1415 -0.0396  0.0283
   78TMC2     C 1215   1.098   4.253   1.369  0.1114  0.5856 -0.2529
   78TMC2     O 1216   1.089   4.218   1.253 -0.5712 -0.1634 -0.1333
   78TMC2     H 1217   1.182   4.323   1.619 -0.1610  1.7929 -1.4092
   78TMC2    H1 1218   1.286   4.125   1.259 -0.6240  0.6730 -0.9534
   78TMC2    H2 1219   1.579   4.163   1.570  0.5394 -0.4259 -1.4625
   78TMC2    C7 1220   1.541   4.047   1.348  0.0296  0.2957 -0.0128
   78TMC2    C8 1221   1.410   4.302   1.735 -0.0497 -0.1762  0.3806
   78TMC2    O1 1222   1.643   4.020   1.406  0.3420 -0.2350  0.1692
   78TMC2    O2 1223   1.312   4.329   1.801 -0.3055  0.7430  0.3528
   78TMC2    O5 1224   1.527   4.362   1.735 -0.2991  0.3625  0.2871
   78TMC2    H5 1225   1.591   4.338   1.665  0.7653  1.6714  0.8061
   79MPD1     C 1226   0.604   4.347   1.384  0.4675 -0.5927 -0.1343
   79MPD1    C1 1227   0.686   4.326   1.280  0.1906  0.0857 -0.1824
   79MPD1    C2 1228   0.813   4.289   1.308  0.3361  0.8081  0.3537
   79MPD1    C3 1229   0.867   4.280   1.435  0.9022  0.4431  0.3388
   79MPD1    C4 1230   0.783   4.309   1.540  0.0546  0.0548 -0.2126
   79MPD1    C5 1231   0.655   4.345   1.511  0.3843  0.1692 -0.1699
   79MPD1     H 1232   0.880   4.276   1.224  0.1442  0.5777  0.2336
   79MPD1    H1 1233   0.819   4.311   1.642  0.6639 -1.4164 -0.3991
   79MPD1    H2 1234   0.504   4.381   1.359  0.5901  0.8014  1.2171
   79MPD1    H3 1235   0.590   4.371   1.594 -0.9961 -0.3627 -1.0824
   79MPD1     N 1236   1.002   4.268   1.465  0.6184 -0.3648  0.0909
   79MPD1    H5 1237   1.033   4.277   1.561  1.8322 -2.5713 -0.0863
   79MPD1    N1 1238   0.653   4.322   1.148 -0.0730  0.3006 -0.2996
   79MPD1    H6 1239   0.598   4.238   1.129 -0.3705  0.5792 -0.6849
   79MPD1    H7 1240   0.731   4.323   1.082 -0.7366  1.0115 -1.0813
   80TMC2    C1 1241   3.826   1.736  11.710 -0.0421 -0.2109  0.1627
   80TMC2    C2 1242   3.739   1.724  11.601 -0.1497  0.7676  0.4028
   80TMC2    C3 1243   3.672   1.605  11.582 -0.2077  0.7738 -0.7500
   80TMC2    C4 1244   3.837   1.633  11.802 -0.7048 -0.9175 -0.0497
   80TMC2    C5 1245   3.766   1.517  11.778 -0.1443  0.6327  0.0575
   80TMC2    C6 1246   3.683   1.506  11.667 -0.4137 -0.9873  0.3717
   80TMC2     C 1247   3.880   1.853  11.755 -0.2016 -0.2226  0.2311
   80TMC2     O 1248   3.896   1.871  11.873 -0.1763 -0.1974  0.4188
   80TMC2     H 1249   3.722   1.796  11.522  0.1895 -0.6415 -0.9596
   80TMC2    H1 1250   3.907   1.652  11.883 -0.3771  1.1679 -0.8148
   80TMC2    H2 1251   3.622   1.418  11.649  0.0775 -1.1349 -0.5641
   80TMC2    C7 1252   3.763   1.405  11.871  0.1759 -0.0483  0.0728
   80TMC2    C8 1253   3.579   1.595  11.460  0.2499 -0.1955 -0.4835
   80TMC2    O1 1254   3.746   1.290  11.826  0.3952  0.1356 -0.4800
   80TMC2    O2 1255   3.549   1.690  11.392  0.2535 -0.0181 -0.5056
   80TMC2    O5 1256   3.575   1.467  11.425 -0.4763  0.0352 -0.4010
   80TMC2    H5 1257   3.646   1.418  11.472 -0.5654  0.8378  0.5658
   81MPD2     C 1258   3.933   2.162  11.544  0.0815  0.5366  0.7776
   81MPD2    C1 1259   3.903   2.087  11.657 -0.5376  0.3368 -0.4249
   81MPD2    C2 1260   3.885   2.155  11.773 -0.7078  0.2278 -0.5276
   81MPD2    C3 1261   3.883   2.292  11.771 -0.0706 -1.1635  0.7831
   81MPD2    C4 1262   3.923   2.363  11.667  0.2116  0.1660  0.8087
   81MPD2    C5 1263   3.943   2.298  11.547  0.2829 -1.2808  0.5931
   81MPD2     H 1264   3.856   2.093  11.857  1.4250 -0.4467 -0.2863
   81MPD2    H1 1265   3.938   2.471  11.674  2.0742 -0.1712  1.9205
   81MPD2    H2 1266   3.944   2.109  11.450 -1.1922  1.5940  0.0224
   81MPD2    H3 1267   3.965   2.350  11.455 -1.1732 -0.0986  0.9070
   81MPD2     N 1268   3.850   2.359  11.892  0.3613  0.2018  0.4060
   81MPD2    H5 1269   3.834   2.459  11.888  1.4892  0.3344 -1.1362
   81MPD2    N1 1270   3.891   1.943  11.644 -0.4740  0.0590  0.2481
   81MPD2    H7 1271   3.906   1.910  11.549 -0.9326 -0.2306  0.2762
   82TMC2    C1 1272   2.957   1.079  10.864  0.1768 -0.0747 -0.2008
   82TMC2    C2 1273   3.079   1.068  10.808  0.2580  0.1478  0.8293
   82TMC2    C3 1274   3.114   0.944  10.760 -0.2524 -0.2335 -0.2073
   82TMC2    C4 1275   2.878   0.981  10.895  0.2302  0.1306 -0.2073
   82TMC2    C5 1276   2.915   0.855  10.849  0.4872 -0.4803  0.3393
   82TMC2    C6 1277   3.028   0.841  10.767  0.3873 -0.2008  0.3288
   82TMC2     C 1278   2.918   1.214  10.903 -0.3919 -0.6656 -0.1929
   82TMC2     O 1279   3.005   1.272  10.966 -0.2848  0.1612  0.2279
   82TMC2     H 1280   3.130   1.157  10.773  2.2622 -2.5121 -2.9578
   82TMC2    H1 1281   2.784   0.997  10.948 -0.3738  3.1853 -2.1850
   82TMC2    H2 1282   3.043   0.749  10.711 -2.2301 -1.3304  1.4558
   82TMC2    C7 1283   2.821   0.749  10.854  0.1906 -0.7975 -0.1971
   82TMC2    C8 1284   3.240   0.931  10.677  0.3691  0.1746  0.5958
   82TMC2    O1 1285   2.841   0.659  10.768  0.3470  0.3790  0.4656
   82TMC2    O2 1286   3.225   0.862  10.575  0.0588 -0.0906  0.0035
   82TMC2    O5 1287   3.345   0.950  10.754 -0.0085  0.3114  0.0214
   82TMC2    H5 1288   3.326   1.005  10.833  3.0702  2.6478 -0.8558
   83MPD2     C 1289   2.637   1.628  10.852  0.2691 -0.3009 -0.8977
   83MPD2    C1 1290   2.556   1.519  10.832  0.5253 -0.0308  0.2568
   83MPD2    C2 1291   2.610   1.390  10.840 -0.2537 -0.1258 -0.6132
   83MPD2    C3 1292   2.731   1.370  10.891 -0.3216  0.0387 -0.2389
   83MPD2    C4 1293   2.810   1.479  10.922 -0.3279 -0.5228 -0.5461
   83MPD2    C5 1294   2.762   1.605  10.896 -0.2566  0.0055  0.1225
   83MPD2     H 1295   2.542   1.311  10.813  0.2533 -0.5611 -0.6263
   83MPD2    H1 1296   2.910   1.479  10.963 -0.8743 -0.3308  0.7975
   83MPD2    H2 1297   2.603   1.730  10.837 -2.9513 -1.3144 -0.4300
   83MPD2    H3 1298   2.815   1.698  10.909 -0.1185 -0.0783  0.1604
   83MPD2     N 1299   2.787   1.242  10.886  0.0426 -0.4161  0.1471
   83MPD2    H5 1300   2.737   1.164  10.846  0.8426  0.2650 -2.2328
   83MPD2    N1 1301   2.432   1.549  10.763  0.3212 -0.0174 -0.2728
   83MPD2    H7 1302   2.392   1.642  10.773 -1.5402 -0.6984 -1.3574
   84TMC2    C1 1303   4.422   0.602  11.054 -0.0239 -0.3866  0.2197
   84TMC2    C2 1304   4.542   0.574  11.123 -0.9066 -0.4935 -1.0687
   84TMC2    C3 1305   4.656   0.575  11.046 -0.1279  0.8090 -0.4618
   84TMC2    C4 1306   4.415   0.647  10.924  0.3880 -0.0302 -0.1120
   84TMC2    C5 1307   4.537   0.651  10.852 -0.2727  0.5635 -1.3552
   84TMC2    C6 1308   4.658   0.615  10.915  0.0459  0.4709  0.8039
   84TMC2     C 1309   4.300   0.591  11.126 -0.1966 -0.2717  0.1819
   84TMC2     O 1310   4.310   0.546  11.238 -0.3599  0.4041  0.0949
   84TMC2     H 1311   4.538   0.536  11.225 -0.0826  0.5726 -0.6400
   84TMC2    H1 1312   4.322   0.664  10.871  0.3750  2.0335  0.5653
   84TMC2    H2 1313   0.015   0.622  10.873  0.5469  3.7016  2.5018
   84TMC2    C7 1314   4.544   0.748  10.742  1.1430  0.8181 -0.2667
   84TMC2    C8 1315   0.040   0.566  11.110  0.1525  0.5895  0.3023
   84TMC2    O1 1316   4.439   0.784  10.685 -0.2090 -0.3916  0.3599
   84TMC2    O2 1317   0.136   0.633  11.074 -0.7032  0.4038 -0.2109
   84TMC2    O5 1318   0.019   0.514  11.234  0.6111 -0.2806 -0.1128
   84TMC2    H5 1319   4.687   0.450  11.236  0.3382  0.0394 -0.0454
   85TMC2    C1 1320   3.956   3.870  15.809 -0.6440  0.0207 -0.4441
   85TMC2    C2 1321   3.867   3.971  15.826  0.0352  0.0110  0.1702
   85TMC2    C3 1322   3.822   4.035  15.713 -0.1941  0.0840 -0.4214
   85TMC2    C4 1323   4.014   3.845  15.687 -0.0976 -1.3296 -0.3055
   85TMC2    C5 1324   3.977   3.919  15.576  0.2646 -0.5057  0.0392
   85TMC2    C6 1325   3.878   4.014  15.588  0.2623 -0.3051 -0.0056
   85TMC2     C 1326   3.970   3.768  15.912 -0.3685 -0.4838 -0.1239
   85TMC2     O 1327   4.078   3.709  15.924  0.0759  0.0347 -0.2548
   85TMC2     H 1328   3.831   3.999  15.924  0.9528 -1.3110  0.8829
   85TMC2    H1 1329   4.089   3.767  15.681 -0.3521 -1.5520 -0.6328
   85TMC2    H2 1330   3.851   4.074  15.503 -2.2727 -0.4972  0.6651
   85TMC2    C7 1331   4.047   3.905  15.452  0.2432  0.7757 -0.1059
   85TMC2    C8 1332   3.750   4.153  15.724 -0.3402  0.1691  0.1550
   85TMC2    O1 1333   4.145   3.834  15.456 -0.4001 -0.2369 -0.3774
   85TMC2    O2 1334   3.761   4.244  15.639  0.5564  0.5196 -0.0900
   85TMC2    O5 1335   3.687   4.156  15.843 -0.0263 -0.4697  0.4512
   85TMC2    H5 1336   3.659   4.067  15.872 -0.8082 -0.6201 -0.7885
   86MPD2     C 1337   3.806   3.456  16.280 -0.1072  0.8450 -0.7001
   86MPD2    C1 1338   3.690   3.509  16.219  0.7273  0.0961  0.2287
   86MPD2    C2 1339   3.713   3.603  16.120  0.6265  0.1276  0.0745
   86MPD2    C3 1340   3.836   3.644  16.078  0.0533 -0.4187  0.1087
   86MPD2    C4 1341   3.945   3.604  16.157  1.3556 -0.3413 -0.3195
   86MPD2    C5 1342   3.930   3.511  16.254 -0.2590 -0.0453  0.2133
   86MPD2     H 1343   3.623   3.647  16.078  1.4466  2.0965  0.3558
   86MPD2    H1 1344   4.049   3.629  16.138  1.5449 -1.7936 -1.1953
   86MPD2    H2 1345   3.812   3.387  16.363  0.5541  1.4535 -0.2381
   86MPD2    H3 1346   4.015   3.471  16.309 -0.9577 -0.5889  0.8888
   86MPD2     N 1347   3.850   3.727  15.961 -0.8235 -0.1636  0.9263
   86MPD2    H5 1348   3.764   3.750  15.912 -0.5763 -0.2889  0.4421
   86MPD2    N1 1349   3.556   3.471  16.252 -0.1101  0.3629 -0.5211
   86MPD2    H7 1350   3.479   3.513  16.199 -1.6871 -3.1007 -0.9995
   87TMC2    C1 1351   1.773   2.188   0.929 -0.5687 -0.0856 -0.1749
   87TMC2    C2 1352   1.877   2.100   0.919 -0.0936  0.5210 -0.4151
   87TMC2    C3 1353   1.987   2.106   0.998 -0.0508 -0.0845 -0.3312
   87TMC2    C4 1354   1.777   2.284   1.017  0.8427 -0.4764  0.6577
   87TMC2    C5 1355   1.881   2.277   1.112  0.2035 -0.2745 -0.2237
   87TMC2    C6 1356   1.984   2.182   1.112 -0.4584 -0.4825  0.0022
   87TMC2     C 1357   1.688   2.196   0.811 -0.3393 -0.3696  0.7946
   87TMC2     O 1358   1.750   2.172   0.710  0.1678  0.2694 -0.2825
   87TMC2     H 1359   1.877   2.022   0.843  0.9419  1.1544 -1.0639
   87TMC2    H1 1360   1.705   2.365   1.027  2.0423  0.6542  0.1231
   87TMC2    H2 1361   2.052   2.175   1.197  0.5768 -1.5826 -0.9189
   87TMC2    C7 1362   1.850   2.352   1.237  0.4967 -0.6706  0.2705
   87TMC2    C8 1363   2.070   1.982   1.010 -0.1446 -0.3818 -0.1484
   87TMC2    O1 1364   1.741   2.408   1.237 -0.4047  0.0901  0.5456
   87TMC2    O2 1365   2.029   1.882   0.948 -0.8303  0.3958 -0.4521
   87TMC2    O5 1366   2.195   2.016   1.046  0.8806 -0.8190 -0.1089
   87TMC2    H5 1367   2.224   2.109   1.033 -0.3360 -0.8679 -3.2832
   88MPD2     C 1368   2.084   2.508   1.465  1.3408 -0.3568 -0.3679
   88MPD2    C1 1369   1.968   2.493   1.393 -0.6665 -0.7522 -0.0914
   88MPD2    C2 1370   1.883   2.601   1.395 -0.1618 -0.0051  0.0661
   88MPD2    C3 1371   1.908   2.718   1.471  0.2471 -0.1874 -0.0837
   88MPD2    C4 1372   2.017   2.719   1.549 -0.3426  0.4764  0.7154
   88MPD2    C5 1373   2.105   2.615   1.547  0.9549  0.8745  0.5328
   88MPD2     H 1374   1.785   2.602   1.349 -0.6861  0.1200  1.2018
   88MPD2    H1 1375   2.032   2.793   1.626 -0.2326  1.7408 -0.5368
   88MPD2    H2 1376   2.144   2.421   1.488 -0.8389 -2.1357 -1.4969
   88MPD2    H3 1377   2.189   2.615   1.615 -0.8799 -1.6456  2.8042
   88MPD2     N 1378   1.826   2.835   1.486 -0.0188 -0.1582  0.3795
   88MPD2    H5 1379   1.865   2.910   1.543  0.4325 -0.0664 -0.0508
   88MPD2    N1 1380   1.959   2.377   1.319 -0.4373 -0.4575  0.3137
   88MPD2    H7 1381   2.048   2.330   1.305 -1.0586 -1.6054  0.1835
   89TMC2    C1 1382   1.848   1.036   1.562  0.7731 -0.8022 -0.1468
   89TMC2    C2 1383   1.744   1.080   1.645 -0.0302  0.3456 -0.0858
   89TMC2    C3 1384   1.762   1.072   1.780  0.8626 -0.9224 -0.8050
   89TMC2    C4 1385   1.965   0.997   1.624  0.9238 -0.2837 -0.3940
   89TMC2    C5 1386   1.989   1.022   1.753  0.4229 -0.3182  0.2486
   89TMC2    C6 1387   1.887   1.073   1.831  0.2189 -0.7066  0.1102
   89TMC2     C 1388   1.812   0.995   1.429 -0.3875 -0.1047  0.5092
   89TMC2     O 1389   1.702   1.033   1.389  0.6334 -0.4903 -0.4033
   89TMC2     H 1390   1.650   1.108   1.599 -0.7815 -1.1063  0.5697
   89TMC2    H1 1391   2.043   0.966   1.556  1.6334  0.8188 -0.0861
   89TMC2    H2 1392   1.892   1.096   1.937  0.0708  0.5181 -0.1484
   89TMC2    C7 1393   2.120   1.060   1.804  0.1500 -0.7676  0.8620
   89TMC2    C8 1394   1.656   1.112   1.869  0.0079  0.5944 -0.0610
   89TMC2    O1 1395   2.115   1.126   1.905  0.1961  0.0049 -0.1848
   89TMC2    O2 1396   1.684   1.193   1.958  0.4427 -0.0603 -0.4698
   89TMC2    O5 1397   1.536   1.061   1.846 -0.2338  0.1432  0.0931
   89TMC2    H5 1398   1.550   0.975   1.801  0.4935  0.2264  0.1608
   90MPD2     C 1399   1.871   0.668   1.047  0.3090  0.6023  0.1115
   90MPD2    C1 1400   1.944   0.631   1.157  0.0042 -0.1007 -0.4911
   90MPD2    C2 1401   1.954   0.703   1.270 -0.9678 -0.1682  0.5242
   90MPD2    C3 1402   1.869   0.814   1.278  0.5268 -0.1132 -0.7638
   90MPD2    C4 1403   1.800   0.862   1.171 -0.3321 -0.3287  0.4734
   90MPD2    C5 1404   1.799   0.788   1.054  0.1903 -0.0088  0.0368
   90MPD2     H 1405   2.011   0.679   1.359 -0.1322 -1.4137 -0.3398
   90MPD2    H1 1406   1.734   0.948   1.168  1.0488  0.6164 -2.8470
   90MPD2    H2 1407   1.859   0.598   0.965  1.9421  1.5975 -0.9603
   90MPD2    H3 1408   1.746   0.827   0.967 -0.6583 -2.1689 -0.4005
   90MPD2     N 1409   1.882   0.884   1.396 -0.7769 -0.3242 -0.3090
   90MPD2    H5 1410   1.945   0.847   1.466  1.0418  3.2744 -0.0350
   90MPD2    N1 1411   2.003   0.503   1.144 -0.8363 -0.2278  0.8023
   90MPD2    H7 1412   1.971   0.436   1.075  0.7810  0.3222 -0.4841
   91TMC2    C1 1413   3.709   0.481  16.609  0.0455  0.3184  0.3593
   91TMC2    C2 1414   3.772   0.589  16.667 -1.1516  0.5418 -0.4558
   91TMC2    C3 1415   3.719   0.707  16.649  0.0301  0.3607  0.0377
   91TMC2    C4 1416   3.601   0.496  16.529 -0.1959 -0.4596 -0.4462
   91TMC2    C5 1417   3.549   0.625  16.516 -0.0068 -0.8657 -0.4371
   91TMC2    C6 1418   3.604   0.728  16.582 -0.4624  0.1428 -1.1338
   91TMC2     C 1419   3.774   0.351  16.619  0.1486  0.2894 -0.2582
   91TMC2     O 1420   3.705   0.253  16.597 -0.4360  0.0208  0.7904
   91TMC2     H 1421   3.851   0.581  16.741 -2.1441 -2.5256  0.2993
   91TMC2    H1 1422   3.548   0.408  16.494 -0.6342 -0.8649  1.2409
   91TMC2    H2 1423   3.577   0.829  16.553  2.0482  0.7644 -1.2547
   91TMC2    C7 1424   3.408   0.639  16.496  0.2291  0.1462 -0.2735
   91TMC2    C8 1425   3.790   0.821  16.709 -0.3686  0.0479  0.4540
   91TMC2    O1 1426   3.348   0.724  16.559 -0.0253 -0.2117 -0.0946
   91TMC2    O2 1427   3.912   0.814  16.720  0.4195 -0.5181 -0.2894
   91TMC2    O5 1428   3.701   0.864  16.796  0.5528  0.0098 -0.2280
   91TMC2    H5 1429   3.606   0.850  16.775  0.2218  0.1052  1.1754
   92MPD2     C 1430   3.958   0.144  16.747  0.5149  0.8830 -0.7401
   92MPD2    C1 1431   3.993   0.263  16.687 -0.1066  0.4747  0.1942
   92MPD2    C2 1432   4.130   0.281  16.667 -0.3380  0.5894 -0.7747
   92MPD2    C3 1433   4.228   0.190  16.695 -0.3753 -0.3745  0.3368
   92MPD2    C4 1434   4.192   0.065  16.749 -0.5110 -0.7881 -0.0870
   92MPD2    C5 1435   4.055   0.044  16.759 -0.1354  0.4498 -0.1168
   92MPD2     H 1436   4.169   0.379  16.639  2.2695 -0.3012 -0.1951
   92MPD2    H1 1437   4.271   4.734  16.760  0.0208  0.3236  3.5629
   92MPD2    H2 1438   3.854   0.128  16.770  1.2615 -0.3249  1.7922
   92MPD2    H3 1439   4.017   4.692  16.798 -0.8830  0.5597 -0.5709
   92MPD2     N 1440   4.359   0.233  16.670  0.1828  0.2306  0.1302
   92MPD2    H5 1441   4.372   0.328  16.637 -0.7140  0.3190  0.0268
   92MPD2    N1 1442   3.909   0.364  16.650  0.0160  0.6118  0.3598
   92MPD2    H7 1443   3.943   0.458  16.628 -1.3147  0.5270 -2.0753
   93TMC2    C1 1444   1.565   4.696  13.895 -0.0193  0.5680  0.7605
   93TMC2    C2 1445   1.493   0.064  13.926 -0.1450  0.2155  0.1103
   93TMC2    C3 1446   1.560   0.186  13.917 -0.3711 -0.3242 -0.5952
   93TMC2    C4 1447   1.701   4.699  13.867  0.0945  0.6758  0.8701
   93TMC2    C5 1448   1.763   0.073  13.880 -0.0495 -0.0831 -0.0419
   93TMC2    C6 1449   1.695   0.189  13.903 -0.4368 -0.0757 -0.3592
   93TMC2     C 1450   1.503   4.570  13.882 -0.5241 -0.3689 -0.2855
   93TMC2     O 1451   1.580   4.468  13.898  0.7434  0.1616 -0.1202
   93TMC2     H 1452   1.392   0.068  13.966 -0.3248 -2.2073 -0.1109
   93TMC2    H1 1453   1.762   4.613  13.845 -0.9973  0.0106  0.4182
   93TMC2    H2 1454   1.750   0.283  13.907  1.6745 -1.2656 -1.6750
   93TMC2    C7 1455   1.888   0.083  13.816  0.2979  0.3796 -0.7821
   93TMC2    C8 1456   1.503   0.292  13.997 -0.0625  0.6120  0.4955
   93TMC2    O1 1457   1.978   0.003  13.835 -0.3433  0.8416 -0.1392
   93TMC2    O2 1458   1.419   0.271  14.082  0.0063 -0.3476  0.0430
   93TMC2    O5 1459   1.538   0.405  13.934  0.1104  0.1516 -0.7796
   93TMC2    H5 1460   1.581   0.397  13.847 -1.6883 -1.4169 -1.5264
   94MPD2     C 1461   1.323   4.333  13.906  0.0086  0.3126  0.5338
   94MPD2    C1 1462   1.276   4.464  13.905 -0.2030  0.1331 -0.5792
   94MPD2    C2 1463   1.137   4.487  13.916  0.2371 -0.1173  0.2732
   94MPD2    C3 1464   1.047   4.380  13.936 -0.1479  0.0323 -0.1400
   94MPD2    C4 1465   1.094   4.253  13.926  0.3974  0.2829 -0.5192
   94MPD2    C5 1466   1.229   4.234  13.915 -0.0097  0.4705  0.5694
   94MPD2     H 1467   1.100   4.588  13.911 -0.7315 -0.4912 -0.0694
   94MPD2    H1 1468   1.020   4.175  13.942  1.0844 -0.1637  0.4472
   94MPD2    H2 1469   1.426   4.302  13.891 -0.8321 -1.8540 -0.6315
   94MPD2    H3 1470   1.254   4.129  13.910  0.5813  0.6642 -0.5662
   94MPD2     N 1471   0.909   4.394  13.970 -0.2147  0.2294 -0.2769
   94MPD2    H5 1472   0.849   4.313  13.986 -0.4155  0.2297 -1.0338
   94MPD2    N1 1473   1.365   4.574  13.889 -0.2103  0.1133  0.1209
   94MPD2    H7 1474   1.323   4.666  13.876  1.5984  0.7185 -1.4446
   95TMC2    C1 1475   0.754   2.224  15.940 -0.0148 -1.1471  0.5041
   95TMC2    C2 1476   0.713   2.098  15.990 -0.2266  0.2660  0.3255
   95TMC2    C3 1477   0.715   2.083  16.126  0.1219  0.0363  0.0429
   95TMC2    C4 1478   0.790   2.320  16.027  0.6818 -0.8628 -0.2911
   95TMC2    C5 1479   0.783   2.294  16.163  0.1186 -0.2620  0.3720
   95TMC2    C6 1480   0.744   2.173  16.218  0.6064 -0.0314 -0.5306
   95TMC2     C 1481   0.802   2.234  15.802  0.4304  0.3218 -0.0364
   95TMC2     O 1482   0.881   2.324  15.778  0.5002  0.1126 -0.3480
   95TMC2     H 1483   0.695   2.013  15.925 -1.4019 -1.2629  2.6437
   95TMC2    H1 1484   0.816   2.418  15.990 -0.4697  0.0226  1.2940
   95TMC2    H2 1485   0.714   2.158  16.320 -1.4523 -2.1444 -1.4537
   95TMC2    C7 1486   0.807   2.411  16.252  0.6915 -0.1319  0.2499
   95TMC2    C8 1487   0.689   1.943  16.175  0.2973  0.1817 -0.2738
   95TMC2    O1 1488   0.793   2.530  16.212  0.3493 -0.6481 -0.2549
   95TMC2    O2 1489   0.649   1.856  16.103 -1.0841 -0.4205 -0.0787
   95TMC2    O5 1490   0.791   1.919  16.258 -0.2587  0.1311 -0.2026
   95TMC2    H5 1491   0.851   1.987  16.296  0.9739 -2.3169  2.2771
   96MPD2     C 1492   0.862   2.042  15.325  0.0186 -0.1582  1.1697
   96MPD2    C1 1493   0.946   2.126  15.400 -0.4656 -0.1019 -0.3682
   96MPD2    C2 1494   0.904   2.175  15.529  0.2620 -0.0154  0.4108
   96MPD2    C3 1495   0.795   2.113  15.579 -0.5935  0.6249 -0.0636
   96MPD2    C4 1496   0.715   2.032  15.499  0.3385 -0.8514  0.3608
   96MPD2    C5 1497   0.751   1.995  15.374  0.3971 -0.3191  0.0578
   96MPD2     H 1498   0.962   2.256  15.574 -1.2095  1.2465  0.0196
   96MPD2    H1 1499   0.618   1.992  15.529  0.8610 -1.5430  1.1237
   96MPD2    H2 1500   0.903   2.008  15.231 -1.3276 -0.9580  0.8770
   96MPD2    H3 1501   0.679   1.928  15.328  0.1935  0.9035 -1.4170
   96MPD2     N 1502   0.754   2.142  15.715 -0.0057 -0.1002  0.2109
   96MPD2    H5 1503   0.678   2.087  15.754  0.7281 -1.0601  0.2902
   96MPD2    N1 1504   1.066   2.164  15.339  0.4381  0.1712 -0.6284
   96MPD2    H7 1505   1.087   2.130  15.246  0.5973  1.8990 -1.2388
   97TMC2    C1 1506   3.788   0.018  17.244 -0.4141 -0.3477 -0.1234
   97TMC2    C2 1507   3.907   4.719  17.205 -0.6263  0.1249 -0.2771
   97TMC2    C3 1508   4.001   0.071  17.181 -0.5050  0.2484 -0.1556
   97TMC2    C4 1509   3.764   0.151  17.271 -0.1280 -0.2912  0.0776
   97TMC2    C5 1510   3.864   0.241  17.260 -0.1186 -0.0174  0.2908
   97TMC2    C6 1511   3.986   0.201  17.219 -0.3915 -0.6052 -0.7148
   97TMC2     C 1512   3.733   4.678  17.351 -0.6542  0.3298 -0.5462
   97TMC2     O 1513   3.685   4.734  17.450  0.5466 -0.0288 -0.4754
   97TMC2     H 1514   3.927   4.617  17.175 -0.7612 -0.2911  1.0520
   97TMC2    H1 1515   3.662   0.184  17.282 -0.6813 -2.1097  0.4725
   97TMC2    H2 1516   4.069   0.271  17.226 -1.7927  0.8381  1.4764
   97TMC2    C7 1517   3.875   0.340  17.365 -0.1520  0.6595 -0.3758
   97TMC2    C8 1518   4.139   0.028  17.171 -0.4953  0.3854 -0.0201
   97TMC2    O1 1519   3.946   0.438  17.360  0.3238 -0.2122  0.9742
   97TMC2    O2 1520   4.165   4.651  17.196  0.7559 -0.4104  0.0079
   97TMC2    O5 1521   4.202   0.107  17.082  0.1955  0.0940 -0.0028
   97TMC2    H5 1522   4.148   0.189  17.073 -0.0912 -0.1965 -0.9063
   98MPD2     C 1523   3.639   4.210  17.544  0.1228 -0.1911  0.4406
   98MPD2    C1 1524   3.636   4.335  17.601  0.2308 -0.1673  0.1123
   98MPD2    C2 1525   3.668   4.450  17.527 -0.1679  1.3589 -0.0132
   98MPD2    C3 1526   3.706   4.437  17.396 -0.1421  0.3859  0.6452
   98MPD2    C4 1527   3.697   4.311  17.337  0.1906  0.1836 -1.0031
   98MPD2    C5 1528   3.672   4.198  17.410 -0.4427 -0.0231  0.5005
   98MPD2     H 1529   3.679   4.546  17.577  0.3542  1.0100  0.5412
   98MPD2    H1 1530   3.716   4.297  17.231  0.3514  0.2888 -0.9892
   98MPD2    H2 1531   3.605   4.117  17.589 -0.4845 -0.7990 -1.2632
   98MPD2    H3 1532   3.671   4.098  17.367  2.4841  0.8618 -1.6149
   98MPD2     N 1533   3.744   4.547  17.316 -0.0156 -0.0433  0.5506
   98MPD2    H5 1534   3.785   4.525  17.226 -0.4516 -2.0603  0.8554
   98MPD2    N1 1535   3.579   4.348  17.726 -0.0732 -0.3896 -0.0466
   98MPD2    H7 1536   3.553   4.262   0.007 -0.4371  0.6046  1.5608
   99TMC2    C1 1537   1.858   1.556   1.954 -0.3937  0.2200  0.0396
   99TMC2    C2 1538   1.921   1.652   2.021 -0.3288  0.1533 -1.0744
   99TMC2    C3 1539   1.849   1.723   2.113  0.8700 -0.0961 -0.0425
   99TMC2    C4 1540   1.724   1.521   1.985 -0.8751 -0.3395 -0.1891
   99TMC2    C5 1541   1.658   1.595   2.080 -0.1329  0.0631  0.1831
   99TMC2    C6 1542   1.725   1.691   2.150 -0.1171  0.6571 -0.0973
   99TMC2     C 1543   1.940   1.477   1.871  0.1456  0.2421  0.0253
   99TMC2     O 1544   2.060   1.483   1.884  0.1112  0.6757  0.0268
   99TMC2     H 1545   2.020   1.687   1.992  0.5491 -0.2625  1.4127
   99TMC2    H1 1546   1.684   1.431   1.939 -1.0321 -0.4609  0.1869
   99TMC2    H2 1547   1.678   1.744   2.232 -1.0105 -0.9525  0.4286
   99TMC2    C7 1548   1.512   1.597   2.091 -0.0371 -0.1169 -0.2985
   99TMC2    C8 1549   1.908   1.850   2.150 -0.3797  0.1341  0.0259
   99TMC2    O1 1550   1.466   1.686   2.161 -0.4144 -0.5346  0.3434
   99TMC2    O2 1551   2.031   1.866   2.144  0.5047  0.3266  0.0783
   99TMC2    O5 1552   1.822   1.935   2.191 -0.1082 -0.0812  0.5847
   99TMC2    H5 1553   1.735   1.933   2.147 -0.3569  0.0530  1.0670
  100MPD2     C 1554   2.053   1.358   1.622 -0.5673 -0.5456  0.3007
  100MPD2    C1 1555   1.918   1.390   1.637 -0.0599  0.0614 -0.0818
  100MPD2    C2 1556   1.833   1.380   1.524 -0.3948 -0.1030  0.2011
  100MPD2    C3 1557   1.885   1.337   1.404 -0.0185 -0.3157 -0.0714
  100MPD2    C4 1558   2.019   1.313   1.385 -0.7118  0.1796 -0.1149
  100MPD2    C5 1559   2.095   1.325   1.493 -0.0317 -0.5799 -0.0222
  100MPD2     H 1560   1.728   1.407   1.535 -0.5082  1.2041 -4.1514
  100MPD2    H1 1561   2.063   1.271   1.295 -0.6419 -0.0349  0.0181
  100MPD2    H2 1562   2.123   1.337   1.702  0.1271 -0.8467 -0.3907
  100MPD2    H3 1563   2.192   1.277   1.484  0.0078 -0.8051  1.5906
  100MPD2     N 1564   1.796   1.323   1.298 -0.0963  0.0479 -0.0730
  100MPD2    H5 1565   1.698   1.332   1.326 -0.1381 -2.5643  0.6182
  100MPD2    N1 1566   1.865   1.432   1.763 -0.5229 -0.3574  0.2620
  100MPD2    H7 1567   1.764   1.441   1.764 -0.7155 -2.4342 -0.9694
  101TMC2    C1 1568   2.734   2.504  13.028  0.3885  0.8204  0.1822
  101TMC2    C2 1569   2.698   2.577  13.137 -0.3990  0.9076 -0.7605
  101TMC2    C3 1570   2.757   2.694  13.161  0.0126 -0.2815  0.1406
  101TMC2    C4 1571   2.817   2.557  12.931  0.0978 -0.3086 -0.0023
  101TMC2    C5 1572   2.868   2.678  12.956 -0.5679  0.0233 -1.0716
  101TMC2    C6 1573   2.843   2.748  13.066 -0.1335 -0.4899  0.2222
  101TMC2     C 1574   2.675   2.372  13.024  0.4408 -0.1926  0.8349
  101TMC2     O 1575   2.604   2.345  13.117  0.9887 -0.2307 -0.1875
  101TMC2     H 1576   2.622   2.544  13.207  1.2133 -0.0289  0.5216
  101TMC2    H1 1577   2.848   2.494  12.849  0.9133 -2.0751  1.6759
  101TMC2    H2 1578   2.884   2.847  13.083  1.5801 -0.5830 -3.2695
  101TMC2    C7 1579   2.971   2.727  12.866 -0.4133 -0.8291 -0.2415
  101TMC2    C8 1580   2.731   2.772  13.279 -0.6443 -0.4402  0.6376
  101TMC2    O1 1581   2.964   2.683  12.749  0.4336  0.3297  0.5555
  101TMC2    O2 1582   2.733   2.894  13.275  0.0156  0.0684  0.0496
  101TMC2    O5 1583   2.711   2.685  13.379  0.9687  0.0894  0.7211
  101TMC2    H5 1584   2.736   2.593  13.356 -1.0156  0.3509 -2.4661
  102MPD2     C 1585   2.677   2.136  12.747  0.1998 -0.6998 -0.2916
  102MPD2    C1 1586   2.655   2.179  12.876 -0.6103 -0.3253  0.1435
  102MPD2    C2 1587   2.586   2.101  12.972  0.2540 -0.0564 -0.1065
  102MPD2    C3 1588   2.543   1.974  12.933  0.1996 -0.1730  0.8910
  102MPD2    C4 1589   2.568   1.929  12.809  0.0445  0.2214  0.3103
  102MPD2    C5 1590   2.635   2.006  12.721 -0.9675 -0.8644 -0.5366
  102MPD2     H 1591   2.574   2.129  13.076 -1.9914  1.1734 -0.7205
  102MPD2    H1 1592   2.546   1.830  12.770  0.2275 -0.1090  1.0400
  102MPD2    H2 1593   2.730   2.202  12.680  0.6704 -0.4815  0.2935
  102MPD2    H3 1594   2.657   1.972  12.621  0.9418 -1.5816  0.1214
  102MPD2     N 1595   2.465   1.902  13.031  0.3771  0.1097  0.2929
  102MPD2    H5 1596   2.444   1.959  13.112  0.6039 -0.6974  0.9179
  102MPD2    N1 1597   2.699   2.308  12.907 -0.5186  0.2155  0.2705
  102MPD2    H7 1598   2.749   2.357  12.834  1.4214 -3.0532 -0.5787
  103TMC2    C1 1599   1.261   2.618  12.233 -0.0799  0.1413  0.0247
  103TMC2    C2 1600   1.137   2.671  12.258 -0.2462  0.0864  0.1616
  103TMC2    C3 1601   1.122   2.768  12.350  0.6727  0.5159  0.3484
  103TMC2    C4 1602   1.374   2.654  12.298 -1.0321 -0.3481 -0.4294
  103TMC2    C5 1603   1.349   2.750  12.403  0.4913  0.4886 -0.3420
  103TMC2    C6 1604   1.230   2.807  12.434 -0.2804  0.0392 -1.0426
  103TMC2     C 1605   1.264   2.495  12.152 -0.6296  0.3908  0.8743
  103TMC2     O 1606   1.165   2.427  12.149 -0.8583  0.3863  0.4321
  103TMC2     H 1607   1.053   2.642  12.196  0.9883 -3.4571  0.1737
  103TMC2    H1 1608   1.473   2.613  12.282 -1.1782 -0.7471 -0.3288
  103TMC2    H2 1609   1.217   2.898  12.491 -0.8562  0.2857 -1.5679
  103TMC2    C7 1610   1.463   2.813  12.471  0.3238  0.5101 -0.4701
  103TMC2    C8 1611   0.987   2.808  12.368 -0.2163 -0.9547  0.3185
  103TMC2    O1 1612   1.569   2.819  12.408 -0.0331  0.2920  0.2993
  103TMC2    O2 1613   0.910   2.722  12.409  0.1739 -0.1231 -0.0218
  103TMC2    O5 1614   0.995   2.920  12.441 -0.2917  0.3627 -0.0682
  103TMC2    H5 1615   1.061   2.982  12.403  0.2186 -0.6424 -0.7990
  104MPD2     C 1616   1.543   2.357  11.961 -0.2412  0.4192 -0.1942
  104MPD2    C1 1617   1.433   2.350  12.038 -0.6962 -0.2988 -0.3902
  104MPD2    C2 1618   1.371   2.236  12.067 -0.1381 -0.7370  0.2321
  104MPD2    C3 1619   1.413   2.126  11.996  0.9179 -0.6656 -0.0911
  104MPD2    C4 1620   1.511   2.137  11.901 -0.2651  0.1136 -0.6464
  104MPD2    C5 1621   1.588   2.252  11.890  0.0225 -0.3388 -0.1436
  104MPD2     H 1622   1.287   2.233  12.136 -0.6771  1.4287 -0.3416
  104MPD2    H1 1623   1.538   2.056  11.833  0.7808  0.1169 -0.2317
  104MPD2    H2 1624   1.600   2.449  11.955  0.3543  0.1155  0.7380
  104MPD2    H3 1625   1.661   2.260  11.810 -0.2884  1.8821 -0.2265
  104MPD2     N 1626   1.338   2.013  12.009 -0.3943  0.3985  0.0143
  104MPD2    H5 1627   1.253   2.022  12.063  0.5828  2.0307  1.2494
  104MPD2    N1 1628   1.386   2.477  12.088  0.9071 -0.2672  0.5007
  104MPD2    H7 1629   1.436   2.559  12.056  3.2798 -1.1542  1.9889
  105TMC2    C1 1630   1.458   2.077  17.721  0.2679 -0.3776  0.2642
  105TMC2    C2 1631   1.549   2.173  17.691  0.0202  0.0908  0.4501
  105TMC2    C3 1632   1.556   2.279   0.010 -0.8499  0.4244  0.6783
  105TMC2    C4 1633   1.378   2.086   0.066 -0.7078  0.0531 -0.2461
  105TMC2    C5 1634   1.385   2.203   0.143  0.1298  0.3804  0.3313
  105TMC2    C6 1635   1.469   2.307   0.116 -0.4259 -0.2010  0.5811
  105TMC2     C 1636   1.455   1.953  17.645  0.3464 -0.2445 -0.4062
  105TMC2     O 1637   1.393   1.854  17.693 -0.4766 -0.6041 -0.1537
  105TMC2     H 1638   1.636   2.166  17.626  0.3851  3.4941  0.5791
  105TMC2    H1 1639   1.332   1.996   0.106 -2.0358  1.1476  0.7230
  105TMC2    H2 1640   1.482   2.389   0.185 -1.0727 -0.1409  0.6309
  105TMC2    C7 1641   1.332   2.201   0.280  0.5523 -0.1311  0.3951
  105TMC2    C8 1642   1.668   2.369  17.744 -0.2748  0.1054  0.0799
  105TMC2    O1 1643   1.226   2.138   0.293  0.2785  0.3635 -0.2951
  105TMC2    O2 1644   1.722   2.373  17.637 -0.1476  0.3454  0.2759
  105TMC2    O5 1645   1.725   2.378   0.101 -0.1405  0.1410 -0.4392
  105TMC2    H5 1646   1.670   2.344   0.175 -0.3232  2.2908  0.4035
  106MPD2     C 1647   1.684   1.658  17.279 -0.4368  0.3322 -0.1418
  106MPD2    C1 1648   1.733   1.787  17.270  0.0532 -0.7879  0.2666
  106MPD2    C2 1649   1.681   1.881  17.355  0.2758  0.0202  0.0047
  106MPD2    C3 1650   1.579   1.856  17.451 -0.7842 -0.1904  0.3691
  106MPD2    C4 1651   1.533   1.726  17.455 -0.5582 -0.2106 -0.9126
  106MPD2    C5 1652   1.581   1.627  17.374 -0.2764  0.6913  0.5581
  106MPD2     H 1653   1.717   1.983  17.352 -0.1058  0.1072 -1.3358
  106MPD2    H1 1654   1.472   1.701  17.542  0.0753 -1.2041 -0.7603
  106MPD2    H2 1655   1.743   1.582  17.229 -2.3837 -2.5218  1.9002
  106MPD2    H3 1656   1.554   1.523  17.391  2.9618 -0.6510 -2.4989
  106MPD2     N 1657   1.541   1.960  17.537 -0.2092  0.2481 -0.1794
  106MPD2    H5 1658   1.574   2.053  17.514  3.6429 -0.6292  1.7538
  106MPD2    N1 1659   1.842   1.830  17.201 -0.0216 -0.2808 -0.6255
  106MPD2    H7 1660   1.875   1.925  17.212  1.8244 -0.9535 -0.3366
  107TMC2    C1 1661   3.468   1.229  11.234  0.5738 -0.3876 -0.1775
  107TMC2    C2 1662   3.521   1.314  11.147 -0.1387 -0.2699 -0.1330
  107TMC2    C3 1663   3.649   1.287  11.101 -1.2167  0.7878  0.1862
  107TMC2    C4 1664   3.530   1.123  11.283 -0.1547  0.0322  0.1742
  107TMC2    C5 1665   3.658   1.098  11.241 -0.1312 -0.1750 -0.1994
  107TMC2    C6 1666   3.713   1.172  11.138  0.0060 -0.7553  0.3315
  107TMC2     C 1667   3.339   1.267  11.302  0.1055 -0.2318  0.6334
  107TMC2     O 1668   3.300   1.212  11.406  0.3031 -0.4616 -0.4205
  107TMC2     H 1669   3.469   1.401  11.110  1.7950  1.0192  0.1701
  107TMC2    H1 1670   3.480   1.060  11.356  0.3976 -1.0513 -0.3817
  107TMC2    H2 1671   3.814   1.151  11.107 -1.2015 -2.2775 -2.5360
  107TMC2    C7 1672   3.708   0.964  11.278  0.2227  0.5704  0.5255
  107TMC2    C8 1673   3.742   1.387  11.055  0.2206 -0.6368 -0.4997
  107TMC2    O1 1674   3.627   0.892  11.336 -0.0076  1.1509  0.0242
  107TMC2    O2 1675   3.856   1.364  11.021  0.4168 -0.5702 -0.0642
  107TMC2    O5 1676   3.683   1.506  11.057 -0.6127 -0.3279  0.0175
  107TMC2    H5 1677   3.592   1.521  11.090 -0.5714 -0.9790  0.4291
  108MPD2     C 1678   3.101   1.533  11.197 -0.3441  0.2410  0.9031
  108MPD2    C1 1679   3.160   1.439  11.282  0.1519  0.8127 -0.7047
  108MPD2    C2 1680   3.098   1.418  11.406  0.6876  0.8057 -0.0432
  108MPD2    C3 1681   2.982   1.485  11.441  0.6625  0.0231  0.4686
  108MPD2    C4 1682   2.915   1.563  11.353 -0.2074  0.1358 -0.9772
  108MPD2    C5 1683   2.977   1.592  11.230  0.0419 -0.4339  0.6108
  108MPD2     H 1684   3.144   1.350  11.477 -0.3987 -1.1611 -1.2188
  108MPD2    H1 1685   2.818   1.607  11.376  0.8384  0.1855  3.3449
  108MPD2    H2 1686   3.144   1.554  11.099  0.5014 -2.9776  0.6082
  108MPD2    H3 1687   2.933   1.663  11.160 -0.6504 -1.8924 -0.4330
  108MPD2     N 1688   2.919   1.466  11.567 -0.2290  0.2458 -0.3235
  108MPD2    H5 1689   2.819   1.480  11.577 -0.3829 -0.1837 -1.3606
  108MPD2    N1 1690   3.272   1.364  11.234  0.2636  0.3633  0.2695
  108MPD2    H7 1691   3.313   1.404  11.150  0.7774 -1.0191 -0.1364
  109TMC2    C1 1692   2.727   3.556   0.282  0.0129  0.7212  0.4048
  109TMC2    C2 1693   2.754   3.494   0.162 -0.5184 -0.0630 -0.9558
  109TMC2    C3 1694   2.880   3.516   0.102 -0.7348 -0.2129  0.0526
  109TMC2    C4 1695   2.819   3.649   0.332 -0.2897 -0.0117 -0.1078
  109TMC2    C5 1696   2.938   3.671   0.270 -0.2716 -0.3032 -0.2314
  109TMC2    C6 1697   2.977   3.601   0.154 -0.0263  0.2878 -0.2214
  109TMC2     C 1698   2.584   3.570   0.315  0.0114  0.2285 -0.0356
  109TMC2     O 1699   2.504   3.529   0.230 -0.2170 -0.0670  0.8586
  109TMC2     H 1700   2.677   3.439   0.111 -1.0382 -0.1141 -0.1145
  109TMC2    H1 1701   2.798   3.711   0.418 -1.1754 -1.7044  0.8977
  109TMC2    H2 1702   3.066   3.629   0.097  0.1065 -0.6393 -0.4656
  109TMC2    C7 1703   3.014   3.785   0.306 -0.5954 -0.5086 -0.2450
  109TMC2    C8 1704   2.891   3.475  17.731 -0.0626  0.3879  0.3099
  109TMC2    O1 1705   3.095   3.821   0.221 -0.3631  0.1458  0.4342
  109TMC2    O2 1706   2.792   3.464  17.662 -0.3091  0.5369 -0.0865
  109TMC2    O5 1707   3.024   3.458  17.696  0.7973 -0.5417 -0.7707
  109TMC2    H5 1708   3.083   3.453   0.008 -1.1289  0.9540  0.7835
  110MPD2     C 1709   2.200   3.742   0.601 -0.6010 -0.4866 -0.4687
  110MPD2    C1 1710   2.298   3.702   0.686 -0.4720  0.1970  0.1476
  110MPD2    C2 1711   2.419   3.656   0.632  0.1426 -0.2301  0.7649
  110MPD2    C3 1712   2.433   3.646   0.491  0.1069 -1.0875 -0.1318
  110MPD2    C4 1713   2.336   3.688   0.408 -0.4373 -0.5171  0.0537
  110MPD2    C5 1714   2.217   3.726   0.465  0.4284 -0.3573  0.0424
  110MPD2     H 1715   2.498   3.614   0.693 -1.6631  0.0435  3.2337
  110MPD2    H1 1716   2.349   3.701   0.301  1.4812  0.4137  0.4008
  110MPD2    H2 1717   2.110   3.788   0.640  0.3000  1.0026 -0.1419
  110MPD2    H3 1718   2.134   3.746   0.398  0.2085  1.6294  0.8988
  110MPD2     N 1719   2.560   3.603   0.445  0.9356 -0.6694  0.0795
  110MPD2    H5 1720   2.631   3.605   0.518 -0.3180  0.0103  1.2684
  110MPD2    N1 1721   2.261   3.712   0.830  0.0903  0.3452 -0.0371
  110MPD2    H7 1722   2.179   3.765   0.856 -0.6292 -0.2910 -1.0227
  111TMC2    C1 1723   3.052   3.414  11.493  0.0233  0.4786  0.4795
  111TMC2    C2 1724   2.936   3.426  11.567  0.5489 -0.2421 -0.0390
  111TMC2    C3 1725   2.958   3.514  11.676 -0.5314  0.1326 -0.5732
  111TMC2    C4 1726   3.181   3.464  11.511 -0.3624  0.2241 -0.6249
  111TMC2    C5 1727   3.197   3.527  11.633 -0.3192  0.0439  0.0350
  111TMC2    C6 1728   3.085   3.557  11.709 -0.8841 -0.0402 -0.6498
  111TMC2     C 1729   3.055   3.309  11.397 -0.6173  0.2038  0.5826
  111TMC2     O 1730   3.132   3.316  11.300  0.3819 -0.0232  0.0461
  111TMC2     H 1731   2.842   3.374  11.551  0.1208  0.7401 -0.7013
  111TMC2    H1 1732   3.271   3.421  11.469  1.8453  1.2493  2.9473
  111TMC2    H2 1733   3.104   3.622  11.794 -1.0490 -0.3795 -0.3530
  111TMC2    C7 1734   3.301   3.464  11.712 -0.3077  0.2545 -0.0847
  111TMC2    C8 1735   2.870   3.496  11.790  0.0536  0.2143  0.5068
  111TMC2    O1 1736   3.251   3.416  11.818  0.0192  1.0819 -0.1294
  111TMC2    O2 1737   2.747   3.486  11.775  0.5796 -0.9834  0.1300
  111TMC2    O5 1738   2.941   3.434  11.883 -0.3130 -0.1526  0.7910
  111TMC2    H5 1739   3.035   3.427  11.855 -0.9378  2.5974 -1.9619
  112MPD2     C 1740   2.988   2.815  11.272 -0.0020 -0.6436  0.4337
  112MPD2    C1 1741   3.040   2.923  11.202 -0.4932  0.1936 -0.4943
  112MPD2    C2 1742   3.037   3.050  11.262 -0.3362  0.7778  0.9385
  112MPD2    C3 1743   2.992   3.072  11.387 -0.2626  0.1353  0.1611
  112MPD2    C4 1744   2.951   2.961  11.454  0.5275  0.6516 -0.1708
  112MPD2    C5 1745   2.953   2.841  11.400 -0.2166  0.2473 -0.2950
  112MPD2     H 1746   3.050   3.134  11.195 -0.4404  0.9253  1.1038
  112MPD2    H1 1747   2.919   2.967  11.558  0.0341 -1.4824 -0.1965
  112MPD2    H2 1748   2.995   2.712  11.238 -0.1990  0.0662 -1.7544
  112MPD2    H3 1749   2.926   2.759  11.464  1.9549  0.0698  0.4139
  112MPD2     N 1750   2.988   3.201  11.451  0.6668 -0.1513 -0.1582
  112MPD2    H5 1751   2.954   3.197  11.546  1.9633  0.5469  0.3233
  112MPD2    N1 1752   3.084   2.920  11.067  0.6346  0.3163 -0.1315
  112MPD2    H7 1753   3.112   3.008  11.025  0.4453  0.5228  0.1830
  113TMC2    C1 1754   0.635   1.846   0.979  0.2135  0.1045  0.1005
  113TMC2    C2 1755   0.577   1.975   0.987  0.3476  0.0853 -0.1418
  113TMC2    C3 1756   0.491   2.002   0.887 -0.7723 -0.1182 -0.7120
  113TMC2    C4 1757   0.611   1.751   0.879  0.5298  0.5828  0.2232
  113TMC2    C5 1758   0.518   1.783   0.787  0.0500 -0.8783 -0.6739
  113TMC2    C6 1759   0.460   1.907   0.789  0.1720  0.5868  0.3141
  113TMC2     C 1760   0.725   1.801   1.087  0.3108 -0.0599 -0.3293
  113TMC2     O 1761   0.793   1.892   1.136 -0.7613 -0.1109  0.4511
  113TMC2     H 1762   0.584   2.036   1.077  1.6066 -2.0408  1.1984
  113TMC2    H1 1763   0.674   1.663   0.875 -0.2881 -0.0582  1.5696
  113TMC2    H2 1764   0.369   1.921   0.730 -0.4192 -0.2759  1.0264
  113TMC2    C7 1765   0.517   1.713   0.659 -0.4589  0.1193 -0.0067
  113TMC2    C8 1766   0.394   2.106   0.918 -0.7627 -0.6724  0.0164
  113TMC2    O1 1767   0.472   1.772   0.563 -0.2026 -0.3488  0.2470
  113TMC2    O2 1768   0.390   2.164   1.024  0.0548  0.0192  0.2820
  113TMC2    O5 1769   0.299   2.119   0.830 -0.1849 -0.5142 -0.3648
  113TMC2    H5 1770   0.325   2.104   0.737  0.3227 -3.0521  0.1704
  114MPD2     C 1771   1.020   1.447   1.299  0.4796 -0.2278  0.7186
  114MPD2    C1 1772   0.995   1.575   1.343  0.0950  0.5026  1.3413
  114MPD2    C2 1773   0.896   1.650   1.287  0.2261 -0.3724 -0.4012
  114MPD2    C3 1774   0.820   1.598   1.191 -0.3369  0.4072 -0.1308
  114MPD2    C4 1775   0.841   1.463   1.158  0.4058 -0.4280 -0.2613
  114MPD2    C5 1776   0.941   1.392   1.209 -0.1687  0.6045 -0.5826
  114MPD2     H 1777   0.867   1.741   1.338 -0.1726 -0.2524 -0.8380
  114MPD2    H1 1778   0.769   1.411   1.096  1.7222 -3.0417  0.4097
  114MPD2    H2 1779   1.099   1.385   1.340 -0.1048 -0.7486  1.0550
  114MPD2    H3 1780   0.962   1.290   1.179 -0.7592 -0.0492  1.2289
  114MPD2     N 1781   0.719   1.667   1.118 -0.0626 -0.0257 -0.1968
  114MPD2    H5 1782   0.660   1.607   1.062  0.9427 -0.4391 -0.8185
  114MPD2    N1 1783   1.069   1.633   1.447  0.1281 -0.0369 -1.0143
  114MPD2    H7 1784   1.046   1.728   1.477 -3.0712 -0.6070 -1.6375
  115TMC2    C1 1785   1.692   3.607   0.019  1.4772 -0.1490  0.2380
  115TMC2    C2 1786   1.830   3.617   0.042  1.0907 -0.2112  1.3630
  115TMC2    C3 1787   1.876   3.735   0.088 -0.1187  0.8421  0.0403
  115TMC2    C4 1788   1.606   3.711   0.050  0.0281  0.4179 -0.7440
  115TMC2    C5 1789   1.662   3.828   0.090  0.1096 -0.2624  0.0588
  115TMC2    C6 1790   1.797   3.842   0.121  0.8161  0.6112  0.4711
  115TMC2     C 1791   1.648   3.480  17.735 -0.0237  0.1457 -0.1995
  115TMC2     O 1792   1.734   3.400  17.703 -0.1585 -0.1271  0.2460
  115TMC2     H 1793   1.893   3.531   0.026 -0.6589 -0.6651 -2.9691
  115TMC2    H1 1794   1.501   3.696   0.028  0.8169 -2.1964 -2.7976
  115TMC2    H2 1795   1.833   3.930   0.173 -2.4133  0.3670  3.1720
  115TMC2    C7 1796   1.589   3.954   0.085  0.1095 -0.1450  0.5020
  115TMC2    C8 1797   1.997   3.709   0.167 -0.9413  0.9935 -0.2611
  115TMC2    O1 1798   1.462   3.940   0.078  0.3689 -0.0167  0.7133
  115TMC2    O2 1799   1.992   3.605   0.233  0.0295 -0.0504 -0.2180
  115TMC2    O5 1800   2.065   3.822   0.187 -0.0874 -0.6351 -0.2989
  115TMC2    H5 1801   2.046   3.900   0.130 -0.5688 -0.8202 -0.3839
  116MPD2     C 1802   1.285   3.189  17.513  0.0545  0.4422 -0.5522
  116MPD2    C1 1803   1.425   3.181  17.509 -0.2023 -0.2984  0.9173
  116MPD2    C2 1804   1.497   3.270  17.585  0.4398  0.1596 -0.0568
  116MPD2    C3 1805   1.436   3.372  17.659  0.1159  0.4071  0.2371
  116MPD2    C4 1806   1.298   3.387  17.653  0.7349  0.1329  0.0221
  116MPD2    C5 1807   1.224   3.298  17.579 -0.3131  0.4160  0.2369
  116MPD2     H 1808   1.604   3.255  17.591  0.6636  0.4665 -2.8563
  116MPD2    H1 1809   1.246   3.469  17.703  0.7443 -0.4755  1.0333
  116MPD2    H2 1810   1.224   3.117  17.461  0.5644 -0.2189 -0.2387
  116MPD2    H3 1811   1.116   3.300  17.581 -0.2835  0.5676  1.2190
  116MPD2     N 1812   1.507   3.470  17.732 -0.3102 -0.0383  0.5491
  116MPD2    H5 1813   1.452   3.553  17.756 -1.1555 -0.4187 -0.0733
  116MPD2    N1 1814   1.481   3.095  17.415 -0.7723  0.2129  0.0105
  116MPD2    H7 1815   1.423   3.036  17.356  0.5335  1.5247 -2.6135
  117TMC2    C1 1816   0.547   0.473  14.117 -0.0320  0.5194 -0.1021
  117TMC2    C2 1817   0.612   0.418  14.221  0.5995 -0.6252 -0.4844
  117TMC2    C3 1818   0.748   0.420  14.211  0.5081  0.1940 -0.5161
  117TMC2    C4 1819   0.609   0.535  14.014 -0.1241  0.0593 -1.0746
  117TMC2    C5 1820   0.745   0.535  14.012 -0.6788 -0.0291 -0.7547
  117TMC2    C6 1821   0.816   0.476  14.112  0.3347 -0.2218  0.8312
  117TMC2     C 1822   0.406   0.453  14.101  0.1864 -0.3309  0.5554
  117TMC2     O 1823   0.358   0.356  14.157  0.0953 -0.7015  0.0941
  117TMC2     H 1824   0.554   0.392  14.308  0.4867  0.9213 -0.1030
  117TMC2    H1 1825   0.548   0.593  13.944  0.2079 -0.2481 -1.6190
  117TMC2    H2 1826   0.924   0.474  14.124  0.2933  2.2311  1.6021
  117TMC2    C7 1827   0.819   0.589  13.903  0.3153 -0.6132 -0.1367
  117TMC2    C8 1828   0.828   0.344  14.302  0.0753  0.4815 -0.7004
  117TMC2    O1 1829   0.758   0.616  13.801 -0.5014 -0.1101 -0.3572
  117TMC2    O2 1830   0.940   0.390  14.330  0.1267  0.1406  0.5351
  117TMC2    O5 1831   0.806   0.223  14.242  0.0011 -0.9279  0.3084
  117TMC2    H5 1832   0.709   0.222  14.226 -0.0779 -1.2525  0.7925
  118MPD2     C 1833   1.185   0.639  13.879 -0.3337 -0.6904  0.8340
  118MPD2    C1 1834   1.053   0.643  13.835 -0.2922 -0.2455 -0.2096
  118MPD2    C2 1835   1.025   0.698  13.706 -0.7068 -0.0313  0.0331
  118MPD2    C3 1836   1.132   0.747  13.637 -0.4940  0.2867  0.3536
  118MPD2    C4 1837   1.257   0.735  13.680  0.0360 -0.5334 -0.4533
  118MPD2    C5 1838   1.290   0.690  13.803  0.3095 -0.2696  0.4323
  118MPD2     H 1839   0.922   0.717  13.675 -1.2341  0.3738  2.0610
  118MPD2    H1 1840   1.332   0.786  13.620  0.3661 -1.7541 -1.0850
  118MPD2    H2 1841   1.209   0.596  13.975  0.0305  1.0286  1.5125
  118MPD2    H3 1842   1.392   0.681  13.837 -0.1953  0.0094  1.9904
  118MPD2     N 1843   1.107   0.831  13.531  0.2715  0.7239  0.7372
  118MPD2    H5 1844   1.187   0.889  13.509  1.4138 -0.5057  1.6980
  118MPD2    N1 1845   0.957   0.586  13.920 -0.6454 -0.6211 -1.1056
  118MPD2    H7 1846   0.989   0.541  14.005 -0.7371 -0.3203 -0.9157
  119TMC2    C1 1847   3.637   1.947  13.063 -0.1547  0.2525  0.8427
  119TMC2    C2 1848   3.570   1.891  12.951  0.5554 -0.0164 -0.1141
  119TMC2    C3 1849   3.463   1.806  12.978 -0.6060 -0.6642  0.0605
  119TMC2    C4 1850   3.593   1.926  13.187 -0.0157  0.0590  0.4094
  119TMC2    C5 1851   3.484   1.853  13.204 -0.3860 -0.3473 -0.5173
  119TMC2    C6 1852   3.419   1.779  13.108  0.3923 -0.2190  0.1252
  119TMC2     C 1853   3.687   2.083  13.059 -0.1625 -0.0303 -0.0318
  119TMC2     O 1854   3.750   2.106  13.160 -0.1070  0.0306 -0.2422
  119TMC2     H 1855   3.582   1.932  12.852  1.2034  2.8272  1.1515
  119TMC2    H1 1856   3.620   1.981  13.277  0.4922  0.8098 -0.2042
  119TMC2    H2 1857   3.339   1.710  13.131  0.4846  0.1651  1.6306
  119TMC2    C7 1858   3.399   1.907  13.313  0.0711 -0.4477 -0.5748
  119TMC2    C8 1859   3.363   1.793  12.885 -0.4323  0.3259 -0.3424
  119TMC2    O1 1860   3.424   2.019  13.347 -0.4094 -0.1948  0.5476
  119TMC2    O2 1861   3.268   1.868  12.885  0.0417  0.3424  0.0304
  119TMC2    O5 1862   3.441   1.765  12.778 -0.2038 -0.5825 -0.0695
  119TMC2    H5 1863   3.525   1.715  12.788 -0.7958 -1.4675  0.3927
  120MPD2     C 1864   3.360   2.469  13.163 -0.0324  0.2668 -0.5810
  120MPD2    C1 1865   3.407   2.377  13.251  0.8284 -0.4204  0.1949
  120MPD2    C2 1866   3.496   2.280  13.202  0.2680 -0.2897 -0.0120
  120MPD2    C3 1867   3.527   2.265  13.065  0.1451  0.0086  0.2269
  120MPD2    C4 1868   3.467   2.355  12.981 -0.2385  0.2838 -0.1125
  120MPD2    C5 1869   3.382   2.457  13.027  0.4960 -0.2643 -0.6035
  120MPD2     H 1870   3.525   2.211  13.281 -0.8420 -1.7798 -0.9169
  120MPD2    H1 1871   3.487   2.348  12.874 -2.8536 -3.2573 -0.3514
  120MPD2    H2 1872   3.296   2.555  13.180  0.7711  1.2362 -2.4632
  120MPD2    H3 1873   3.340   2.514  12.945  0.3925  0.4852 -0.0268
  120MPD2     N 1874   3.602   2.166  12.995  0.2380 -0.3429  0.3216
  120MPD2    H5 1875   3.586   2.160  12.895 -1.6792  2.0204  0.4732
  120MPD2    N1 1876   3.362   2.369  13.381 -0.1535 -0.7298  0.1125
  120MPD2    H7 1877   3.417   2.309  13.441 -0.6452 -0.5190  0.7816
  121TMC2    C1 1878   0.191   3.097  14.206  0.0338  0.4159  0.3963
  121TMC2    C2 1879   0.171   3.186  14.312 -0.1296  0.1319  0.1386
  121TMC2    C3 1880   0.056   3.264  14.303 -0.5164 -0.2911 -0.1063
  121TMC2    C4 1881   0.099   3.080  14.108  0.4795 -0.4090 -0.0271
  121TMC2    C5 1882   4.720   3.149  14.113  0.0768  0.1151 -0.0725
  121TMC2    C6 1883   4.698   3.241  14.215 -0.7193 -0.0050  0.0231
  121TMC2     C 1884   0.326   3.055  14.191 -0.2315 -0.5741 -0.2564
  121TMC2     O 1885   0.374   3.036  14.304 -0.2130  0.7084 -0.3692
  121TMC2     H 1886   0.249   3.204  14.386  0.1769 -0.4161 -0.0519
  121TMC2    H1 1887   0.116   3.009  14.028  0.9394 -1.0399  0.6317
  121TMC2    H2 1888   4.597   3.271  14.238 -1.4343 -1.3379 -1.4500
  121TMC2    C7 1889   4.608   3.078  14.048 -0.5893 -0.0554  0.6117
  121TMC2    C8 1890   0.035   3.369  14.401 -0.1548 -0.0313  0.4689
  121TMC2    O1 1891   4.630   2.963  14.015  0.3512 -0.2984 -0.3573
  121TMC2    O2 1892   4.664   3.401  14.432  0.2253 -0.2636 -0.2760
  121TMC2    O5 1893   0.146   3.451  14.403  0.1847 -0.4082  0.4548
  121TMC2    H5 1894   0.211   3.415  14.339 -0.5885  1.7128 -1.4957
  122MPD2     C 1895   0.611   3.069  14.129  0.3314 -0.0424 -0.3054
  122MPD2    C1 1896   0.511   3.122  14.047  0.1393 -0.2380  0.0898
  122MPD2    C2 1897   0.550   3.197  13.936 -0.0901  0.3550 -0.5330
  122MPD2    C3 1898   0.686   3.209  13.913 -0.4011 -0.3993 -0.2269
  122MPD2    C4 1899   0.780   3.137  13.985  0.5983 -0.9032 -0.4081
  122MPD2    C5 1900   0.745   3.078  14.101  0.4595  0.1459 -0.5124
  122MPD2     H 1901   0.478   3.262  13.888 -0.6726  0.8970  1.0849
  122MPD2    H1 1902   0.887   3.146  13.968  0.7612 -2.0739 -0.0259
  122MPD2    H2 1903   0.585   3.009  14.216  0.4496  1.0809  0.5111
  122MPD2    H3 1904   0.821   3.031  14.161 -0.5576  0.7191  1.2188
  122MPD2     N 1905   0.737   3.305  13.817 -0.2604  0.1437  0.3924
  122MPD2    H5 1906   0.838   3.316  13.807 -0.0626 -0.8394  1.3213
  122MPD2    N1 1907   0.374   3.107  14.071 -0.0984 -0.2487  0.4916
  122MPD2    H7 1908   0.308   3.132  13.998 -0.4521 -0.1178  0.8554
  123TMC2    C1 1909   3.850   1.931  10.547 -0.0125  0.4871  0.0264
  123TMC2    C2 1910   3.769   2.026  10.608  0.2791 -0.7494  0.3119
  123TMC2    C3 1911   3.735   2.128  10.519 -0.3606  0.6248  0.2580
  123TMC2    C4 1912   3.914   1.944  10.426 -0.7127 -0.2237 -0.2151
  123TMC2    C5 1913   3.884   2.061  10.351 -0.6787 -0.1107  0.2546
  123TMC2    C6 1914   3.796   2.156  10.400  0.1457 -0.3290 -0.7296
  123TMC2     C 1915   3.849   1.802  10.614  0.3691  0.0111  0.2894
  123TMC2     O 1916   3.832   1.799  10.736  0.1630  0.3447  0.3599
  123TMC2     H 1917   3.714   2.015  10.701 -0.1483 -1.9958 -0.0798
  123TMC2    H1 1918   3.975   1.865  10.385 -2.7736 -2.1246  0.3959
  123TMC2    H2 1919   3.770   2.250  10.353 -0.3285 -0.8375 -1.4831
  123TMC2    C7 1920   3.882   2.036  10.208 -0.2607 -0.5041  0.5871
  123TMC2    C8 1921   3.606   2.193  10.541  0.0270  0.2475 -0.5622
  123TMC2    O1 1922   3.932   1.936  10.161 -0.4608 -0.0472  0.1957
  123TMC2    O2 1923   3.614   2.297  10.609  0.3567 -0.1763  0.0336
  123TMC2    O5 1924   3.559   2.177  10.419  0.3807 -0.1741  0.1266
  123TMC2    H5 1925   3.580   2.096  10.368 -1.0013 -1.5983  1.8024
  124MPD2     C 1926   3.831   1.288  10.570  0.4076 -0.1151 -0.6967
  124MPD2    C1 1927   3.796   1.350  10.450 -0.1243 -0.1393  0.5270
  124MPD2    C2 1928   3.791   1.488  10.449 -0.0299 -0.3797 -0.3622
  124MPD2    C3 1929   3.817   1.559  10.565  0.1383 -0.6539 -0.9754
  124MPD2    C4 1930   3.842   1.506  10.690 -0.3079  0.2144 -0.1798
  124MPD2    C5 1931   3.851   1.367  10.684  1.0538 -0.0173 -0.2191
  124MPD2     H 1932   3.773   1.548  10.361 -2.7324 -0.8402 -0.1457
  124MPD2    H1 1933   3.872   1.564  10.777 -3.0935 -0.9796  1.5945
  124MPD2    H2 1934   3.837   1.181  10.584 -1.6942 -0.5338 -2.9843
  124MPD2    H3 1935   3.860   1.317  10.780 -0.0791  0.7413  0.2789
  124MPD2     N 1936   3.827   1.700  10.529 -0.0754 -0.1115 -0.3679
  124MPD2    H5 1937   3.792   1.733  10.440  0.0552  0.7472 -0.1055
  124MPD2    N1 1938   3.765   1.267  10.339  0.3702 -0.7040 -0.2750
  124MPD2    H7 1939   3.772   1.168  10.362 -1.4762 -0.2447  2.3018
  125TMC2    C1 1940   4.141   3.445  10.113  0.3632  0.8639 -0.2592
  125TMC2    C2 1941   4.094   3.560  10.057  0.4160  0.0728  0.4293
  125TMC2    C3 1942   4.194   3.650  10.014 -0.1926  0.5647  0.2848
  125TMC2    C4 1943   4.275   3.419  10.124  0.2961  0.2480 -1.2687
  125TMC2    C5 1944   4.365   3.514  10.086  0.2435 -0.2586 -0.0032
  125TMC2    C6 1945   4.329   3.635  10.030 -0.8218 -0.1773  0.1121
  125TMC2     C 1946   4.054   3.333  10.080 -0.5445  0.0527 -0.2444
  125TMC2     O 1947   3.974   3.337   9.989  0.1914 -0.6600 -0.1057
  125TMC2     H 1948   3.987   3.570  10.050  0.4152 -0.0819  0.2535
  125TMC2    H1 1949   4.305   3.317  10.146 -0.6907 -0.2345 -2.1385
  125TMC2    H2 1950   4.396   3.713   9.995  1.2776 -2.1650 -0.2858
  125TMC2    C7 1951   4.495   3.456  10.063  0.1155  0.4776  0.2917
  125TMC2    C8 1952   4.144   3.779   9.973 -0.1632  0.2271 -0.3379
  125TMC2    O1 1953   4.512   3.353  10.125 -0.5077  0.3863  0.0878
  125TMC2    O2 1954   4.210   3.883   9.977 -0.7540 -0.2218 -0.0583
  125TMC2    O5 1955   4.031   3.759   9.899  0.2612  0.2031  0.1967
  125TMC2    H5 1956   4.002   3.667   9.885  1.0873 -0.1441  0.7973
  126MPD1     C 1957   3.961   2.832  10.134  0.1958 -0.3091  0.1450
  126MPD1    C1 1958   4.045   2.868  10.240 -0.3892  0.1182 -0.1490
  126MPD1    C2 1959   4.087   3.000  10.239  0.6299 -0.7868  0.4902
  126MPD1    C3 1960   4.043   3.093  10.146  0.3238  0.4497  0.4216
  126MPD1    C4 1961   3.943   3.052  10.055 -0.0473 -0.2144 -0.1327
  126MPD1    C5 1962   3.911   2.917  10.047  0.3693  0.2509 -0.5381
  126MPD1     H 1963   4.166   3.033  10.305  1.3698  0.0104 -0.7910
  126MPD1    H1 1964   3.891   3.127   9.995 -0.1803  0.3099  0.6481
  126MPD1    H2 1965   3.942   2.727  10.115  1.0029 -0.4110 -0.0754
  126MPD1    H3 1966   3.838   2.882   9.973  2.1416 -0.5223 -1.9166
  126MPD1     N 1967   4.094   3.225  10.154 -0.2306 -0.0256  0.1296
  126MPD1    H5 1968   4.165   3.242  10.224 -0.2773 -0.6430  0.3202
  126MPD1    N1 1969   4.102   2.781  10.335 -0.3577  0.0914 -0.1347
  126MPD1    H6 1970   4.047   2.700  10.364  2.0983 -1.1956  0.8787
  126MPD1    H7 1971   4.131   2.831  10.419 -0.9460 -2.1934  1.4536
  127TMC2    C1 1972   0.467   2.051  10.068 -0.0021  0.7272 -0.1142
  127TMC2    C2 1973   0.585   2.009  10.105 -0.1011  0.2000 -0.5623
  127TMC2    C3 1974   0.626   1.885  10.094 -0.3035  0.8069  0.3079
  127TMC2    C4 1975   0.380   1.962  10.021 -0.8714  0.6345  0.4675
  127TMC2    C5 1976   0.413   1.831  10.009  0.0657 -0.5240  0.0101
  127TMC2    C6 1977   0.544   1.792  10.041 -0.1721  0.0173  0.0971
  127TMC2     C 1978   0.457   2.188  10.026 -0.2140  0.2437 -0.3160
  127TMC2     O 1979   0.533   2.265  10.087  0.2671  0.1520 -0.1365
  127TMC2     H 1980   0.658   2.084  10.133 -0.5753 -0.0771  1.4245
  127TMC2    H1 1981   0.279   1.989   9.990 -0.8895  0.8205  0.6884
  127TMC2    H2 1982   0.582   1.694  10.016  1.3101  0.2357  1.5386
  127TMC2    C7 1983   0.304   1.736  10.025 -0.2028 -0.3910 -0.3116
  127TMC2    C8 1984   0.768   1.872  10.084 -0.2044  0.1278 -0.5235
  127TMC2    O1 1985   0.196   1.762   9.972 -0.0532 -0.0063  0.3405
  127TMC2    O2 1986   0.837   1.966  10.054 -0.2831  0.6172 -0.0884
  127TMC2    O5 1987   0.804   1.747  10.085  0.4771 -0.8159 -0.3538
  127TMC2    H5 1988   0.738   1.676  10.097  0.3069 -0.5926  0.0212
  128MPD2     C 1989   0.218   2.376   9.829 -0.2413  0.2270  0.0613
  128MPD2    C1 1990   0.339   2.348   9.886  0.3098  0.2216  0.2436
  128MPD2    C2 1991   0.447   2.437   9.869 -0.4145  0.0906  0.6900
  128MPD2    C3 1992   0.435   2.553   9.794 -0.4798  0.4231  0.2501
  128MPD2    C4 1993   0.320   2.572   9.733  0.1553  0.0205  0.6500
  128MPD2    C5 1994   0.211   2.489   9.752  0.0059  0.8639 -0.3886
  128MPD2     H 1995   0.539   2.421   9.924 -0.1844 -0.3083  0.1792
  128MPD2    H1 1996   0.305   2.659   9.670 -0.9106  2.6116  4.5152
  128MPD2    H2 1997   0.129   2.315   9.827 -0.7459  0.9258  1.2422
  128MPD2    H3 1998   0.123   2.512   9.692 -0.6812 -0.7854  0.0048
  128MPD2     N 1999   0.548   2.637   9.792 -0.4822 -0.7416 -0.2548
  128MPD2    H5 2000   0.628   2.617   9.851 -0.7579 -3.1551 -0.6951
  128MPD2    N1 2001   0.352   2.222   9.949  0.8466 -0.1840 -0.3911
  128MPD2    H7 2002   0.278   2.157   9.929  0.4174  0.7675 -1.8497
  129TMC2    C1 2003   3.765   2.830   0.873 -0.4816  0.0159  0.0442
  129TMC2    C2 2004   3.721   2.924   0.967 -0.5900 -0.1066  0.0499
  129TMC2    C3 2005   3.631   2.885   1.062  0.2183 -0.2723  0.3130
  129TMC2    C4 2006   3.733   2.701   0.878  0.3604 -0.3263  0.9494
  129TMC2    C5 2007   3.647   2.665   0.981  0.2602  0.4864  0.4297
  129TMC2    C6 2008   3.594   2.751   1.072 -0.6024  0.2459  0.4722
  129TMC2     C 2009   3.821   2.882   0.745  0.0249  0.4009 -0.5117
  129TMC2     O 2010   3.867   2.799   0.667  0.0579 -0.1325 -0.4965
  129TMC2     H 2011   3.750   3.029   0.972  0.5949 -0.4964  1.3421
  129TMC2    H1 2012   3.768   2.632   0.801 -1.3351 -0.5133  0.3421
  129TMC2    H2 2013   3.523   2.730   1.152 -0.7486  0.4089  0.3855
  129TMC2    C7 2014   3.593   2.529   0.988 -0.4554 -1.0592 -0.0381
  129TMC2    C8 2015   3.564   2.979   1.147 -0.3410  0.6394  0.4391
  129TMC2    O1 2016   3.496   2.517   1.065 -0.1810  0.4215 -0.1597
  129TMC2    O2 2017   3.530   3.088   1.102 -0.1200  0.1579  1.0660
  129TMC2    O5 2018   3.530   2.930   1.267  0.6276 -0.2349  0.2114
  129TMC2    H5 2019   3.593   2.871   1.313  2.7492  0.1948 -2.1776
  130MPD2     C 2020   3.943   3.041   0.531 -0.3545 -0.4198  0.3152
  130MPD2    C1 2021   3.867   3.096   0.632  0.2964 -0.0745  0.2852
  130MPD2    C2 2022   3.830   3.230   0.617  0.3727 -0.3092 -0.0116
  130MPD2    C3 2023   3.867   3.310   0.507 -0.0555  0.3877  0.3196
  130MPD2    C4 2024   3.949   3.252   0.415 -0.9601 -0.1235 -0.2358
  130MPD2    C5 2025   3.977   3.114   0.420  0.1936  0.1034 -0.5114
  130MPD2     H 2026   3.778   3.287   0.693 -0.8341  0.5058 -1.4495
  130MPD2    H1 2027   3.976   3.311   0.328  1.1268 -1.5601 -0.5664
  130MPD2    H2 2028   3.971   2.936   0.528 -1.3925 -0.7537  2.2098
  130MPD2    H3 2029   4.037   3.073   0.339  0.6633 -2.1388  0.9706
  130MPD2     N 2030   3.818   3.446   0.490  0.1954  0.1967 -0.0899
  130MPD2    H5 2031   3.776   3.484   0.574  2.6933  2.7575 -0.0333
  130MPD2    N1 2032   3.815   3.022   0.737  0.3979  0.0082  0.1561
  130MPD2    H7 2033   3.763   3.077   0.805  0.0131  0.4470 -0.4976
  131TMC2    C1 2034   3.305   2.050   9.978 -0.7487  0.0767 -0.2107
  131TMC2    C2 2035   3.276   2.074  10.105  0.1583  0.7513  0.1598
  131TMC2    C3 2036   3.257   2.204  10.149  0.3982 -0.1750  0.5153
  131TMC2    C4 2037   3.328   2.155   9.886 -0.4185  0.7058 -0.6738
  131TMC2    C5 2038   3.311   2.281   9.936 -0.2440 -0.4484 -0.1435
  131TMC2    C6 2039   3.278   2.309  10.066  1.0339  0.1649 -0.4027
  131TMC2     C 2040   3.358   1.924   9.947  0.4083  0.4709  0.2087
  131TMC2     O 2041   3.416   1.872  10.040 -0.1860  0.3773 -0.3154
  131TMC2     H 2042   3.251   1.988  10.166  0.0812  1.0665  0.5752
  131TMC2    H1 2043   3.366   2.140   9.785  0.6855  1.4602 -0.3743
  131TMC2    H2 2044   3.251   2.411  10.088 -0.7973 -0.3677 -0.1344
  131TMC2    C7 2045   3.335   2.392   9.847 -0.2064  0.0536 -0.4602
  131TMC2    C8 2046   3.185   2.223  10.277  0.2661 -0.8437  0.2406
  131TMC2    O1 2047   3.311   2.377   9.726 -1.0401 -0.0179  0.1400
  131TMC2    O2 2048   3.088   2.149  10.308 -0.2391 -0.3280 -0.2569
  131TMC2    O5 2049   3.248   2.313  10.348  0.2602 -0.4150 -0.6553
  131TMC2    H5 2050   3.323   2.359  10.304  0.5129 -0.7885 -0.6144
  132MPD2     C 2051   3.223   1.698   9.689 -0.3477 -0.2963  0.4267
  132MPD2    C1 2052   3.303   1.735   9.800  0.3010  0.5002 -0.7660
  132MPD2    C2 2053   3.375   1.634   9.863 -0.0159 -0.1724 -0.1247
  132MPD2    C3 2054   3.371   1.502   9.814 -0.2381 -0.6613  0.3856
  132MPD2    C4 2055   3.290   1.476   9.706 -0.1396 -0.0957  0.2837
  132MPD2    C5 2056   3.228   1.575   9.641 -0.5937  0.0495 -0.8845
  132MPD2     H 2057   3.446   1.649   9.944  1.6636 -3.9264 -0.9245
  132MPD2    H1 2058   3.306   1.386   9.648 -0.4941 -0.5899  0.9545
  132MPD2    H2 2059   3.159   1.774   9.646  2.4959  0.7312 -1.9779
  132MPD2    H3 2060   3.165   1.549   9.557 -0.4901 -0.1042 -0.9137
  132MPD2     N 2061   3.455   1.405   9.870 -0.0181  0.1003  0.4083
  132MPD2    H5 2062   3.520   1.431   9.944  0.4264  0.9114 -0.2644
  132MPD2    N1 2063   3.297   1.871   9.837 -0.1717  0.3300 -0.5063
  132MPD2    H7 2064   3.263   1.937   9.768 -1.7295  0.6029  0.5202
  133TMC2    C1 2065   3.161   1.233   9.424  0.3732 -0.2731  0.1432
  133TMC2    C2 2066   3.148   1.159   9.544 -0.5253  0.5667 -0.4282
  133TMC2    C3 2067   3.222   1.043   9.566  0.2007 -0.6088 -0.3047
  133TMC2    C4 2068   3.265   1.189   9.338 -0.2543 -0.8888  0.3804
  133TMC2    C5 2069   3.330   1.074   9.366 -0.6345 -0.2501  0.0555
  133TMC2    C6 2070   3.314   0.991   9.481 -0.0831  0.3968 -0.9986
  133TMC2     C 2071   3.091   1.358   9.405  0.6206  0.1396  0.2888
  133TMC2     O 2072   2.990   1.374   9.474 -0.0346  0.2739 -0.3629
  133TMC2     H 2073   3.069   1.196   9.608 -1.1911  2.1647 -2.1586
  133TMC2    H1 2074   3.278   1.241   9.244 -2.6755  0.4226  0.7822
  133TMC2    H2 2075   3.348   0.889   9.491  1.1664  0.8734 -0.3923
  133TMC2    C7 2076   3.453   1.046   9.291 -0.0146  0.3023  0.0987
  133TMC2    C8 2077   3.171   0.963   9.676  0.1250 -0.0491  0.4591
  133TMC2    O1 2078   3.462   1.087   9.178  0.3891  0.1953 -0.3303
  133TMC2    O2 2079   3.054   0.964   9.710  0.0714  0.2348  0.4984
  133TMC2    O5 2080   3.272   0.912   9.753 -0.2513  0.1269  0.4627
  133TMC2    H5 2081   3.364   0.922   9.721 -0.5501  1.1981 -0.0664
  134MPD2     C 2082   3.229   1.635   9.214  0.1195  0.3916  0.4339
  134MPD2    C1 2083   3.137   1.574   9.295  0.5026 -0.2721  0.1941
  134MPD2    C2 2084   3.024   1.638   9.344  1.1718  0.0841 -0.9373
  134MPD2    C3 2085   3.020   1.775   9.325 -0.0012  0.5182 -0.0489
  134MPD2    C4 2086   3.108   1.834   9.233 -0.2729 -0.0762  0.8206
  134MPD2    C5 2087   3.215   1.770   9.184  0.4944 -0.8503 -0.3729
  134MPD2     H 2088   2.955   1.601   9.419 -0.1789  0.8706 -1.7690
  134MPD2    H1 2089   3.093   1.936   9.198  1.3913 -0.1850 -0.2147
  134MPD2    H2 2090   3.316   1.588   9.169  0.9738  1.2415  1.2145
  134MPD2    H3 2091   3.276   1.814   9.106  0.4608 -0.0437  0.0545
  134MPD2     N 2092   2.917   1.862   9.383  0.3941 -0.1270  0.2625
  134MPD2    H5 2093   2.932   1.961   9.363  3.3723 -0.9194 -1.3319
  134MPD2    N1 2094   3.163   1.439   9.324 -0.4283  0.3232 -0.1678
  134MPD2    H7 2095   3.257   1.407   9.303  0.5177  0.7362  3.3581
  135TMC2    C1 2096   0.318   4.439   9.462 -0.4867 -0.1809  0.2239
  135TMC2    C2 2097   0.363   4.338   9.545  0.1500 -0.1857 -0.2754
  135TMC2    C3 2098   0.269   4.268   9.621  0.4399  0.5558 -0.0017
  135TMC2    C4 2099   0.188   4.482   9.457 -0.8050 -0.5732  0.3194
  135TMC2    C5 2100   0.100   4.417   9.539  0.1291  0.3728  0.0195
  135TMC2    C6 2101   0.138   4.310   9.621 -0.4620  0.3147 -0.5500
  135TMC2     C 2102   0.412   4.509   9.378  0.0868  0.0122 -1.0541
  135TMC2     O 2103   0.395   4.624   9.343 -0.2496  0.5283 -0.3761
  135TMC2     H 2104   0.466   4.337   9.580 -0.3437 -1.5887  1.1514
  135TMC2    H1 2105   0.159   4.553   9.381 -0.3656 -0.5621  0.1622
  135TMC2    H2 2106   0.063   4.257   9.678  0.5081 -0.8391 -0.3460
  135TMC2    C7 2107   4.709   4.468   9.526 -0.5503 -0.7374  0.4446
  135TMC2    C8 2108   0.309   4.190   9.731 -0.1754 -0.0556  0.6064
  135TMC2    O1 2109   4.690   4.562   9.448 -0.4042  0.4060 -0.3172
  135TMC2    O2 2110   0.235   4.177   9.827  0.4457  0.2397 -0.6383
  135TMC2    O5 2111   0.428   4.139   9.707 -0.2314  0.4525 -0.1346
  135TMC2    H5 2112   0.443   4.128   9.610 -2.1946  0.3696 -0.4391
  136MPD2     C 2113   0.673   4.573   9.241  0.0011 -0.3836  0.4273
  136MPD2    C1 2114   0.640   4.454   9.291  0.2669  0.5734 -0.2578
  136MPD2    C2 2115   0.733   4.351   9.291  0.5552  0.7797  0.1211
  136MPD2    C3 2116   0.857   4.369   9.236 -0.5887 -0.3927 -0.0899
  136MPD2    C4 2117   0.892   4.490   9.183 -0.2650 -0.4291 -0.2841
  136MPD2    C5 2118   0.800   4.594   9.185 -0.1469  0.6517  0.1426
  136MPD2     H 2119   0.706   4.258   9.339 -2.6516  1.5377 -0.2397
  136MPD2    H1 2120   0.986   4.499   9.130 -0.4036 -0.0761 -0.4712
  136MPD2    H2 2121   0.600   4.651   9.224  0.4196 -0.4833 -1.8621
  136MPD2    H3 2122   0.824   4.688   9.137  1.9790 -0.3093 -0.6874
  136MPD2     N 2123   0.950   4.270   9.228 -0.1937  0.1308 -0.2665
  136MPD2    H5 2124   1.037   4.289   9.180 -0.1371 -0.8878 -0.5593
  136MPD2    N1 2125   0.517   4.428   9.353  0.4397 -0.3297 -0.5399
  136MPD2    H7 2126   0.515   4.334   9.389  3.0092 -1.1065 -2.4265
  137TMC2    C1 2127   4.469   2.714  10.600 -0.1724 -0.8768 -0.1221
  137TMC2    C2 2128   4.483   2.589  10.541  0.5437 -0.0072  0.5937
  137TMC2    C3 2129   4.394   2.491  10.575 -0.3629  0.0442 -0.4675
  137TMC2    C4 2130   4.368   2.746  10.684 -0.5251  0.6483 -0.1416
  137TMC2    C5 2131   4.283   2.645  10.713  0.0005  0.0469  0.1583
  137TMC2    C6 2132   4.291   2.513  10.667  0.0021 -0.1467 -0.9182
  137TMC2     C 2133   4.542   2.838  10.540  0.2926  0.4219 -0.0525
  137TMC2     O 2134   4.509   2.952  10.571  0.2396  0.8727  0.4199
  137TMC2     H 2135   4.560   2.558  10.472  0.6236  0.7372  0.3544
  137TMC2    H1 2136   4.352   2.848  10.719 -1.5366  1.7162 -3.7147
  137TMC2    H2 2137   4.224   2.436  10.702 -0.3596 -0.0197 -1.3329
  137TMC2    C7 2138   4.156   2.680  10.766  0.3232 -0.0186  0.2822
  137TMC2    C8 2139   4.377   2.369  10.501 -0.5267  0.2795 -0.1299
  137TMC2    O1 2140   4.087   2.592  10.815 -0.7231 -0.0760 -0.1823
  137TMC2    O2 2141   4.308   2.280  10.545  0.0122  0.2138  0.0522
  137TMC2    O5 2142   4.372   2.407  10.369 -0.0423  0.8133  0.0357
  137TMC2    H5 2143   4.424   2.485  10.340 -1.3150  0.7444 -2.3956
  138MPD2     C 2144   0.130   2.831  10.374 -0.1556  0.0386  0.1425
  138MPD2    C1 2145   0.008   2.885  10.411  0.0663 -0.5400 -0.1173
  138MPD2    C2 2146   4.736   3.023  10.395 -0.1247 -0.1546 -0.6022
  138MPD2    C3 2147   0.100   3.107  10.349  0.2577 -0.2694  0.0589
  138MPD2    C4 2148   0.218   3.046  10.323  0.0062 -0.4549 -0.5205
  138MPD2    C5 2149   0.228   2.912  10.325  0.3385  0.3326 -0.4089
  138MPD2     H 2150   4.639   3.067  10.418 -0.0634 -0.4830  0.2544
  138MPD2    H1 2151   0.308   3.104  10.302 -1.3809  0.9976 -2.3810
  138MPD2    H2 2152   0.149   2.725  10.378 -2.2533 -0.2963  1.2083
  138MPD2    H3 2153   0.330   2.879  10.311  0.7950  1.9405 -0.8652
  138MPD2     N 2154   0.076   3.242  10.346  0.6452  0.0494  0.1810
  138MPD2    H5 2155   4.723   3.259  10.376  0.7075 -1.0918  1.0247
  138MPD2    N1 2156   4.652   2.800  10.472  0.2565 -0.1787  0.0845
  138MPD2    H7 2157   4.661   2.699  10.459  1.2549 -0.4140  2.6089
  139TMC2    C1 2158   0.224   1.493  13.914  0.5114  0.1802 -0.2831
  139TMC2    C2 2159   0.347   1.529  13.954 -0.9524 -0.0245  0.3455
  139TMC2    C3 2160   0.364   1.663  13.983 -0.1059 -0.3855 -0.4552
  139TMC2    C4 2161   0.128   1.583  13.897 -0.2833  0.2584 -0.1274
  139TMC2    C5 2162   0.147   1.718  13.916 -0.1263  0.7513 -0.2912
  139TMC2    C6 2163   0.270   1.761  13.956  0.3052 -0.2186 -0.6782
  139TMC2     C 2164   0.202   1.370  13.845 -0.1883 -0.5410 -0.2141
  139TMC2     O 2165   0.270   1.274  13.881  0.4404 -0.9872  0.4013
  139TMC2     H 2166   0.425   1.460  13.984 -0.0262  0.2406 -1.4564
  139TMC2    H1 2167   0.026   1.546  13.894  0.3790 -1.7690  1.9322
  139TMC2    H2 2168   0.309   1.862  13.954  1.8889 -0.8175  0.1756
  139TMC2    C7 2169   0.079   1.788  13.811  0.3580  0.2749  0.2945
  139TMC2    C8 2170   0.500   1.706  13.994 -0.8100 -0.0873 -0.3633
  139TMC2    O1 2171   4.741   1.723  13.748 -0.1797  0.1233 -0.5231
  139TMC2    O2 2172   0.528   1.813  14.045 -0.0946  0.0876  0.2002
  139TMC2    O5 2173   0.558   1.657  13.879  0.1276 -0.2203  0.0127
  139TMC2    H5 2174   0.497   1.603  13.824  0.0910  3.2534 -3.3575
  140MPD2     C 2175   4.709   1.325  13.567 -0.7138 -0.5292 -0.7386
  140MPD2    C1 2176   0.057   1.292  13.663  0.4230  0.0852 -0.6428
  140MPD2    C2 2177   0.100   1.161  13.667 -0.2277  0.4435  0.1693
  140MPD2    C3 2178   0.025   1.064  13.604  0.0932  0.7562  0.2959
  140MPD2    C4 2179   4.662   1.103  13.522 -0.2390  0.4850  0.5380
  140MPD2    C5 2180   4.642   1.231  13.500  0.0317  0.0185 -0.6088
  140MPD2     H 2181   0.174   1.129  13.739  0.6010 -0.6313 -1.1594
  140MPD2    H1 2182   4.598   1.023  13.487  1.8515 -0.1742 -1.8642
  140MPD2    H2 2183   4.681   1.428  13.548  1.8443  0.5766  1.5137
  140MPD2    H3 2184   4.574   1.266  13.422 -1.6799 -1.2449  0.3150
  140MPD2     N 2185   0.069   0.939  13.637 -0.4273  0.7424  0.0706
  140MPD2    H5 2186   0.165   0.933  13.668 -0.5906  0.5362  0.5277
  140MPD2    N1 2187   0.105   1.391  13.746  0.5134 -0.1258 -0.1905
  140MPD2    H7 2188   0.067   1.483  13.727 -1.5334 -1.4905 -2.6666
  141TMC2    C1 2189   0.870   2.593  14.090  0.7918 -0.1191  0.0097
  141TMC2    C2 2190   0.824   2.466  14.107 -0.7053  0.0160 -0.0677
  141TMC2    C3 2191   0.725   2.447  14.199  0.3737  0.8830  0.0960
  141TMC2    C4 2192   0.829   2.706  14.163  0.1142  0.4706  0.1331
  141TMC2    C5 2193   0.727   2.678  14.250 -0.4278 -1.0246  0.2064
  141TMC2    C6 2194   0.678   2.550  14.275  0.1059 -0.1403  0.7876
  141TMC2     C 2195   0.958   2.620  13.976 -0.3114 -0.0188  0.4191
  141TMC2     O 2196   1.050   2.696  13.997 -0.3526  0.6806 -0.0262
  141TMC2     H 2197   0.843   2.395  14.027 -0.4923  0.6567 -0.5880
  141TMC2    H1 2198   0.872   2.802  14.136  3.4962 -1.0469  0.0948
  141TMC2    H2 2199   0.627   2.534  14.369  0.2015  0.4677  0.9455
  141TMC2    C7 2200   0.702   2.767  14.358 -0.3489 -0.1780  0.8713
  141TMC2    C8 2201   0.685   2.310  14.213  0.0086 -0.6120 -0.0428
  141TMC2    O1 2202   0.597   2.759  14.424  0.0943  0.5542 -0.1408
  141TMC2    O2 2203   0.728   2.221  14.147  0.4120  0.8277  0.3337
  141TMC2    O5 2204   0.552   2.317  14.231  0.1124  0.2195 -0.0205
  141TMC2    H5 2205   0.512   2.406  14.247  4.0629  1.7264  1.5543
  142TMC2    C1 2206   3.740   1.393   9.669  0.1892  0.2504 -0.2253
  142TMC2    C2 2207   3.654   1.399   9.566  1.0022 -0.0657 -0.1509
  142TMC2    C3 2208   3.590   1.518   9.540  0.2814 -0.4376  0.4862
  142TMC2    C4 2209   3.783   1.506   9.732 -0.6578 -0.9731  0.0687
  142TMC2    C5 2210   3.723   1.623   9.696  0.1377 -0.3322 -0.5946
  142TMC2    C6 2211   3.628   1.638   9.607  0.3175 -0.2976 -0.3338
  142TMC2     C 2212   3.784   1.269   9.727  0.0423  0.0388  0.2572
  142TMC2     O 2213   3.709   1.172   9.702  0.0103 -0.4572 -0.6921
  142TMC2     H 2214   3.625   1.306   9.518  0.5735  0.2698 -0.5480
  142TMC2    H1 2215   3.848   1.516   9.819 -1.0358  3.0690 -0.1051
  142TMC2    H2 2216   3.570   1.727   9.586 -0.6426 -1.1441 -1.3259
  142TMC2    C7 2217   3.716   1.725   9.794 -0.5492  0.1022  0.0219
  142TMC2    C8 2218   3.506   1.519   9.420  0.4722 -0.3392 -0.2207
  142TMC2    O1 2219   3.747   1.694   9.910 -0.2912 -0.2131  0.2093
  142TMC2    O2 2220   3.453   1.421   9.365 -0.3615  0.4531  0.2022
  142TMC2    O5 2221   3.529   1.641   9.361  0.4781 -0.5320  1.1867
  142TMC2    H5 2222   3.574   1.712   9.411  1.5997  1.1670 -2.2208
  143MPD2     C 2223   3.981   0.994  10.103  0.5186  0.2734 -0.0337
  143MPD2    C1 2224   3.895   0.946  10.004 -0.5684 -0.2752 -0.3207
  143MPD2    C2 2225   3.873   1.044   9.903  0.6332  0.7236 -0.4295
  143MPD2    C3 2226   3.922   1.175   9.904  0.4382 -0.6648 -0.0740
  143MPD2    C4 2227   4.001   1.209  10.008  0.2190 -0.3396 -0.0834
  143MPD2    C5 2228   4.031   1.117  10.105 -0.3792 -0.1841 -0.9223
  143MPD2     H 2229   3.832   1.013   9.808 -0.1057  0.8329 -0.1471
  143MPD2    H1 2230   4.047   1.306  10.021 -0.1409 -0.3531  1.3072
  143MPD2    H2 2231   4.010   0.922  10.179  2.2847 -0.3460 -1.3001
  143MPD2    H3 2232   4.099   1.135  10.188 -2.4914  1.9685  0.3439
  143MPD2     N 2233   3.887   1.281   9.818  0.2589 -0.0798 -0.8055
  143MPD2    H5 2234   3.937   1.368   9.834 -0.0514 -0.1958  0.7530
  143MPD2    N1 2235   3.854   0.813  10.009 -0.2745  0.8668  0.3971
  143MPD2    H7 2236   3.879   0.754  10.088 -0.2922  1.1839  0.6364
  144TMC2    C1 2237   1.145   0.452   0.688 -0.0893  0.6234  0.5868
  144TMC2    C2 2238   1.224   0.372   0.608 -0.3589  0.2953 -0.5264
  144TMC2    C3 2239   1.294   0.276   0.673 -0.5428  0.4039  0.3254
  144TMC2    C4 2240   1.139   0.455   0.831 -0.3352 -0.4481  0.0103
  144TMC2    C5 2241   1.216   0.360   0.892  0.0687  0.1102 -0.6865
  144TMC2    C6 2242   1.299   0.271   0.818  0.4114 -0.0683 -0.0183
  144TMC2     C 2243   1.028   0.517   0.616  0.3915  0.3832 -0.0456
  144TMC2     O 2244   1.005   0.464   0.507  0.1668 -0.1828 -0.2145
  144TMC2     H 2245   1.209   0.387   0.502  1.3656  1.5735 -0.5948
  144TMC2    H1 2246   1.070   0.516   0.888  2.0671  2.1288  0.1560
  144TMC2    H2 2247   1.340   0.181   0.861 -0.9907  1.0828  3.7157
  144TMC2    C7 2248   1.232   0.355   1.035  0.2660  0.2541 -0.4282
  144TMC2    C8 2249   1.340   0.155   0.606 -0.5309  1.2698  0.3961
  144TMC2    O1 2250   1.286   0.259   1.089  0.4437  0.3840  0.9517
  144TMC2    O2 2251   1.356   0.052   0.665  0.0423  0.2493  0.2594
  144TMC2    O5 2252   1.324   0.156   0.472 -0.2856  0.0218  0.4682
  144TMC2    H5 2253   1.319   0.248   0.438 -0.2333 -0.1602 -0.0277
  145MPD2     C 2254   0.798   0.958   0.489  0.5300 -0.6537  0.2499
  145MPD2    C1 2255   0.789   0.826   0.437 -0.0575 -0.0986 -1.7940
  145MPD2    C2 2256   0.857   0.719   0.499  0.6138  0.0397 -0.1653
  145MPD2    C3 2257   0.932   0.740   0.609  0.1032 -0.1688  0.5709
  145MPD2    C4 2258   0.944   0.871   0.653  0.2591 -0.4371  0.2247
  145MPD2    C5 2259   0.882   0.981   0.598  0.0388 -0.5233  0.1141
  145MPD2     H 2260   0.839   0.619   0.459  0.7597 -0.8309  1.9789
  145MPD2    H1 2261   1.006   0.899   0.737 -0.1826  0.1965  0.3435
  145MPD2    H2 2262   0.755   1.044   0.440 -0.1200  1.1965  4.0928
  145MPD2    H3 2263   0.899   1.079   0.641 -1.6236 -0.8160  1.4308
  145MPD2     N 2264   1.009   0.638   0.671  0.2381  0.2672  0.2869
  145MPD2    H5 2265   1.055   0.656   0.760  1.9938  1.2165 -0.8193
  145MPD2    N1 2266   0.710   0.786   0.328 -0.7484  0.8259  0.6429
  145MPD2    H7 2267   0.721   0.690   0.297 -1.6165  1.1464 -0.6616
  146TMC2    C1 2268   2.372   4.033  12.475 -0.8537  0.0686  0.2735
  146TMC2    C2 2269   2.269   4.101  12.419 -0.3631  0.3282 -0.1523
  146TMC2    C3 2270   2.284   4.129  12.287  0.2350 -0.6657 -0.4765
  146TMC2    C4 2271   2.481   3.982  12.404 -0.0859 -0.4136  0.1603
  146TMC2    C5 2272   2.481   4.003  12.266  0.0340  0.2675 -0.1043
  146TMC2    C6 2273   2.390   4.088  12.208  0.2888 -0.4779 -0.5664
  146TMC2     C 2274   2.399   4.071  12.609 -0.1687 -0.2216 -0.8583
  146TMC2     O 2275   2.345   4.178  12.645 -0.2239 -0.6215  0.3394
  146TMC2     H 2276   2.194   4.156  12.474  2.1047  3.9441 -0.3757
  146TMC2    H1 2277   2.567   3.943  12.457 -0.7422 -2.0609 -0.0066
  146TMC2    H2 2278   2.387   4.093  12.100  1.2471  1.0020 -0.5195
  146TMC2    C7 2279   2.594   3.953  12.183  0.3756 -0.1280  0.0597
  146TMC2    C8 2280   2.166   4.185  12.229 -0.3586  0.3992  0.0388
  146TMC2    O1 2281   2.605   4.007  12.074  0.5254 -0.4032  0.3143
  146TMC2    O2 2282   2.093   4.252  12.299 -0.4035  0.5108  0.6367
  146TMC2    O5 2283   2.126   4.094  12.133 -0.7158  0.0484  0.4898
  146TMC2    H5 2284   2.196   4.025  12.126  0.6296  1.4994 -0.2735
  147MPD2     C 2285   3.014   3.666  12.094  0.6043 -0.5838 -0.7954
  147MPD2    C1 2286   2.954   3.609  12.205 -0.4073  0.3409 -0.0594
  147MPD2    C2 2287   2.836   3.672  12.251  0.0436 -0.0863 -0.5348
  147MPD2    C3 2288   2.785   3.787  12.189  0.4433  0.7660 -0.1409
  147MPD2    C4 2289   2.836   3.828  12.070 -0.3188 -0.0222  0.0685
  147MPD2    C5 2290   2.950   3.763  12.027 -0.2888  0.3049 -0.5350
  147MPD2     H 2291   2.789   3.628  12.339 -1.0278  0.3755 -0.8835
  147MPD2    H1 2292   2.797   3.904  12.004 -1.5527  0.5101  1.4292
  147MPD2    H2 2293   3.096   3.617  12.043  0.2584 -1.1220 -0.8316
  147MPD2    H3 2294   3.000   3.778  11.932  1.6247 -1.4824  0.1766
  147MPD2     N 2295   2.672   3.853  12.247  0.3049  0.1475 -0.3988
  147MPD2    H5 2296   2.629   3.817  12.332 -1.1419  0.0357 -1.1841
  147MPD2    N1 2297   3.034   3.503  12.260  0.3400  0.5088  0.5406
  147MPD2    H7 2298   3.123   3.498  12.212 -0.4899 -0.1133 -0.9434
  148TMC2    C1 2299   3.051   2.419  10.618  0.5214 -0.2463 -0.1033
  148TMC2    C2 2300   3.125   2.532  10.588  0.0133 -0.1708 -0.0809
  148TMC2    C3 2301   3.255   2.525  10.632  0.5428  0.2074  0.2237
  148TMC2    C4 2302   3.096   2.323  10.706 -0.2337 -0.3001 -0.8152
  148TMC2    C5 2303   3.228   2.321  10.736 -0.0775 -0.2405 -0.4979
  148TMC2    C6 2304   3.310   2.422  10.707 -0.1931 -0.3995 -0.0218
  148TMC2     C 2305   2.915   2.409  10.581 -0.1963  0.2694 -0.6999
  148TMC2     O 2306   2.849   2.508  10.552 -0.2416 -0.0476  0.3269
  148TMC2     H 2307   3.096   2.620  10.532 -0.6877  0.5088  1.3222
  148TMC2    H1 2308   3.038   2.236  10.734  1.8165 -1.8085 -1.2071
  148TMC2    H2 2309   3.418   2.411  10.712 -0.0240  0.5058 -1.5672
  148TMC2    C7 2310   3.282   2.191  10.710  0.1762 -0.4771  0.5088
  148TMC2    C8 2311   3.344   2.638  10.603  0.0373  0.0380  0.1986
  148TMC2    O1 2312   3.225   2.125  10.626 -0.2060 -0.2003 -0.4034
  148TMC2    O2 2313   3.354   2.692  10.494  0.5815 -0.0935 -0.2183
  148TMC2    O5 2314   3.438   2.646  10.703 -0.0159  0.0981 -0.1194
  148TMC2    H5 2315   3.401   2.618  10.789 -0.2904  0.8253 -0.0001
  149MPD2     C 2316   2.663   2.305  10.462 -0.3998  0.1878  0.7101
  149MPD2    C1 2317   2.771   2.225  10.498  0.1469 -0.1795 -0.6784
  149MPD2    C2 2318   2.775   2.095  10.458 -0.1326 -0.8587  0.3275
  149MPD2    C3 2319   2.665   2.041  10.384 -0.4508 -0.1760 -0.7966
  149MPD2    C4 2320   2.564   2.127  10.344 -0.3452 -0.1079 -0.0008
  149MPD2    C5 2321   2.559   2.252  10.389  0.5350 -0.4895 -0.6715
  149MPD2     H 2322   2.859   2.029  10.477  1.8183  0.7233 -2.8582
  149MPD2    H1 2323   2.477   2.088  10.293 -1.9756  2.3901  0.8936
  149MPD2    H2 2324   2.651   2.408  10.494  1.0953  0.1970  1.2160
  149MPD2    H3 2325   2.470   2.306  10.360 -0.2340 -1.0157  0.7593
  149MPD2     N 2326   2.656   1.908  10.343 -0.2976 -0.0874 -0.1499
  149MPD2    H5 2327   2.578   1.875  10.288  0.7051 -0.1756 -1.4953
  149MPD2    N1 2328   2.888   2.272  10.562  0.0007 -0.1276  0.0064
  149MPD2    H7 2329   2.965   2.205  10.564  0.2838  0.1615 -0.9859
  150TMC2    C1 2330   0.373   1.989  12.385 -0.4143 -0.0207 -0.6027
  150TMC2    C2 2331   0.358   2.120  12.341  0.2289 -0.5583 -0.2505
  150TMC2    C3 2332   0.465   2.189  12.299 -0.2625  0.5712  0.2737
  150TMC2    C4 2333   0.498   1.941  12.388 -0.1165  0.1024 -0.2842
  150TMC2    C5 2334   0.608   2.015  12.355 -0.1562  0.2467  0.0268
  150TMC2    C6 2335   0.592   2.141  12.301  0.0550 -0.7180  0.5805
  150TMC2     C 2336   0.262   1.907  12.423 -0.3887  0.2404  0.7535
  150TMC2     O 2337   0.289   1.810  12.497 -0.1772 -0.0802 -0.0913
  150TMC2     H 2338   0.261   2.168  12.337 -0.5822 -2.2298 -0.8817
  150TMC2    H1 2339   0.509   1.834  12.400 -1.3576  0.2441  2.0779
  150TMC2    H2 2340   0.678   2.204  12.283  0.0295 -1.0772 -0.7703
  150TMC2    C7 2341   0.742   1.962  12.347 -0.4288 -0.8089 -0.5839
  150TMC2    C8 2342   0.450   2.318  12.229  0.2276 -0.2387 -0.4614
  150TMC2    O1 2343   0.826   2.020  12.276 -0.0450  0.1862 -0.1086
  150TMC2    O2 2344   0.343   2.379  12.230  0.2562 -0.1877 -0.3087
  150TMC2    O5 2345   0.512   2.303  12.112 -0.1047 -0.4211  0.1496
  150TMC2    H5 2346   0.574   2.229  12.100  1.6058  0.5170  3.4188
  151MPD2     C 2347   4.522   1.748  12.372  1.0710 -0.3066  0.1324
  151MPD2    C1 2348   4.551   1.843  12.284 -0.8024 -0.8289  0.3620
  151MPD2    C2 2349   4.674   1.901  12.272  0.0405 -0.0608 -0.1556
  151MPD2    C3 2350   0.028   1.863  12.362 -0.3450 -0.1387  0.4105
  151MPD2    C4 2351   0.000   1.759  12.455 -0.1947 -0.1345  0.3334
  151MPD2    C5 2352   4.614   1.708  12.463  0.5167  0.2559 -0.2413
  151MPD2     H 2353   4.693   1.962  12.185 -1.1445  1.3666  0.5874
  151MPD2    H1 2354   0.071   1.728  12.531  0.1282  2.0479  0.9188
  151MPD2    H2 2355   4.428   1.695  12.365 -0.1100  1.8315 -0.0983
  151MPD2    H3 2356   4.592   1.622  12.526  0.8349  1.7313  1.8893
  151MPD2     N 2357   0.148   1.929  12.347  0.2310 -0.3503 -0.1781
  151MPD2    H5 2358   0.165   1.983  12.263 -0.9030 -1.9088 -1.4098
  151MPD2    N1 2359   4.461   1.847  12.169  0.1431  0.0370  0.9277
  151MPD2    H7 2360   4.373   1.797  12.171 -0.3792  1.0272  3.0495
  152TMC2    C1 2361   0.197   1.838  12.832  0.7558  0.7320  0.0435
  152TMC2    C2 2362   0.312   1.767  12.829 -0.0557 -0.4147 -0.3199
  152TMC2    C3 2363   0.427   1.826  12.790 -0.1481  0.5323 -0.3163
  152TMC2    C4 2364   0.200   1.971  12.801 -0.5736 -0.4859 -0.9115
  152TMC2    C5 2365   0.319   2.030  12.758 -0.0909 -0.6591  0.5514
  152TMC2    C6 2366   0.436   1.957  12.759  0.4909 -1.3190 -1.0160
  152TMC2     C 2367   0.070   1.772  12.817 -0.0457  0.5208 -0.4330
  152TMC2     O 2368   4.716   1.845  12.802  0.0430 -0.1772 -0.0128
  152TMC2     H 2369   0.327   1.660  12.835  2.1207  0.0057  2.0308
  152TMC2    H1 2370   0.110   2.031  12.809 -0.1987 -0.0981  0.4371
  152TMC2    H2 2371   0.533   1.997  12.732  0.9941 -2.6013 -1.1267
  152TMC2    C7 2372   0.310   2.166  12.711 -0.0267  0.0173 -0.3049
  152TMC2    C8 2373   0.537   1.741  12.746  0.1072 -0.4569 -0.2835
  152TMC2    O1 2374   0.202   2.221  12.727 -0.3838 -0.0440 -0.3515
  152TMC2    O2 2375   0.598   1.772  12.645 -0.3564 -0.2002 -0.5970
  152TMC2    O5 2376   0.590   1.672  12.848 -0.4619 -0.1365 -0.5730
  152TMC2    H5 2377   0.532   1.687  12.925 -0.3974 -0.4721 -0.4605
  153MPD2     C 2378   0.030   1.402  12.784 -0.7048  0.3483  0.3507
  153MPD2    C1 2379   4.726   1.535  12.789 -0.1680 -0.5362  0.5199
  153MPD2    C2 2380   4.591   1.565  12.778 -0.1824 -0.0845  0.5700
  153MPD2    C3 2381   4.498   1.460  12.787 -0.7821  0.0392 -0.1556
  153MPD2    C4 2382   4.542   1.330  12.791 -0.2355 -0.1296 -0.4187
  153MPD2    C5 2383   4.679   1.301  12.779  0.0375  0.3209 -0.0042
  153MPD2     H 2384   4.556   1.666  12.763 -1.4344 -0.3073  2.0124
  153MPD2    H1 2385   4.470   1.249  12.794 -0.4033  0.0384 -0.0083
  153MPD2    H2 2386   0.136   1.377  12.785 -0.2747  2.1512 -0.2196
  153MPD2    H3 2387   4.720   1.201  12.787 -1.4983 -0.4355 -1.7640
  153MPD2     N 2388   4.361   1.501  12.783  0.1413  0.4187  0.8070
  153MPD2    H5 2389   4.341   1.600  12.794 -1.1323  0.4407 -1.6942
  153MPD2    N1 2390   0.087   1.635  12.802 -0.1660 -0.2317 -0.3921
  153MPD2    H7 2391   0.181   1.598  12.810  0.0756  0.5357  0.3731
  154TMC2    C1 2392   1.200   1.838   0.665 -0.2051 -0.4895  0.1226
  154TMC2    C2 2393   1.306   1.808   0.757 -0.3754  0.0068  0.1517
  154TMC2    C3 2394   1.387   1.703   0.730 -0.2014  0.4410 -0.0045
  154TMC2    C4 2395   1.191   1.763   0.544 -0.1756 -0.5829  0.5671
  154TMC2    C5 2396   1.282   1.664   0.521  0.2658 -0.2380  0.2280
  154TMC2    C6 2397   1.378   1.625   0.614 -0.1665  0.6102 -0.0588
  154TMC2     C 2398   1.113   1.953   0.700  0.7180  0.0492 -0.2797
  154TMC2     O 2399   1.125   1.993   0.813  0.4549 -0.1460  0.7348
  154TMC2     H 2400   1.320   1.858   0.852 -0.5549 -0.7185  0.5565
  154TMC2    H1 2401   1.128   1.793   0.461  0.4701 -1.4039 -0.2310
  154TMC2    H2 2402   1.462   1.565   0.582 -1.4518 -0.1676 -1.9699
  154TMC2    C7 2403   1.283   1.596   0.389  0.5109 -0.0113 -0.3154
  154TMC2    C8 2404   1.486   1.662   0.838 -0.3487 -0.2247  0.6047
  154TMC2    O1 2405   1.229   1.658   0.295  0.3546 -0.1458 -0.3547
  154TMC2    O2 2406   1.529   1.734   0.927  0.5883  0.1394  0.0489
  154TMC2    O5 2407   1.500   1.533   0.840 -0.1909 -0.1346 -0.5757
  154TMC2    H5 2408   1.451   1.474   0.779 -0.8685  2.3635 -2.4390
  155MPD2     C 2409   0.808   2.071   0.530 -0.4300 -0.0412  0.1357
  155MPD2    C1 2410   0.909   2.062   0.631 -0.6004 -0.0927 -0.5409
  155MPD2    C2 2411   0.895   2.144   0.741 -0.1802  0.1771  0.2214
  155MPD2    C3 2412   0.777   2.226   0.756 -0.6285 -0.0421  0.3128
  155MPD2    C4 2413   0.682   2.224   0.657  0.0917 -0.1715  0.0045
  155MPD2    C5 2414   0.698   2.146   0.544 -0.0308  0.3009  0.3111
  155MPD2     H 2415   0.973   2.155   0.815 -0.0083 -1.3525  0.2658
  155MPD2    H1 2416   0.590   2.280   0.671 -0.5433 -0.9965 -0.9198
  155MPD2    H2 2417   0.811   2.001   0.448  0.0159  0.9667 -0.7124
  155MPD2    H3 2418   0.627   2.142   0.462  0.8418 -0.7332 -0.3856
  155MPD2     N 2419   0.770   2.293   0.879  0.2445  0.4253  0.7976
  155MPD2    H5 2420   0.849   2.296   0.941  1.3215 -2.4587 -0.4365
  155MPD2    N1 2421   1.015   1.980   0.610  0.5756 -0.1099  0.4157
  155MPD2    H7 2422   1.017   1.936   0.519 -1.6458  1.4217 -0.3724
  156TMC2    C1 2423   0.815   3.751  12.231  0.3568  0.4895  0.5195
  156TMC2    C2 2424   0.949   3.777  12.221 -0.1863 -0.4885  0.4640
  156TMC2    C3 2425   1.015   3.726  12.113 -0.5230  0.6116  0.7747
  156TMC2    C4 2426   0.744   3.688  12.131 -0.1795 -1.0192 -0.2282
  156TMC2    C5 2427   0.805   3.668  12.013  0.1266 -0.4241  0.1767
  156TMC2    C6 2428   0.944   3.678  12.000  0.3489 -0.6941 -0.1157
  156TMC2     C 2429   0.726   3.826  12.314 -0.1702 -0.5500  0.8823
  156TMC2     O 2430   0.618   3.860  12.263 -0.2165  0.4424 -0.2734
  156TMC2     H 2431   1.003   3.819  12.306  0.0962 -0.0080  0.0519
  156TMC2    H1 2432   0.641   3.664  12.156 -0.1243 -0.2564  0.7089
  156TMC2    H2 2433   0.996   3.678  11.905  0.2552 -2.1849 -0.1583
  156TMC2    C7 2434   0.720   3.720  11.906 -0.1361  0.5624 -0.6216
  156TMC2    C8 2435   1.159   3.763  12.101  0.2239  0.7179 -0.5378
  156TMC2    O1 2436   0.769   3.797  11.826 -0.4664 -0.1316 -0.7250
  156TMC2    O2 2437   1.210   3.863  12.157 -0.3815 -0.2667 -0.4256
  156TMC2    O5 2438   1.214   3.657  12.035 -0.1773  0.5689  0.5847
  156TMC2    H5 2439   1.148   3.589  12.013  1.6338 -1.2723  0.8127
  157MPD2     C 2440   0.760   3.848  12.682 -0.3377  0.0078 -0.1867
  157MPD2    C1 2441   0.699   3.866  12.557  0.2618  0.4371  0.2279
  157MPD2    C2 2442   0.584   3.934  12.544 -0.4795  0.3933  0.3545
  157MPD2    C3 2443   0.518   3.979  12.653  0.1176 -0.3985  0.2037
  157MPD2    C4 2444   0.572   3.959  12.783  0.2063 -0.5922  0.0034
  157MPD2    C5 2445   0.697   3.895  12.793 -0.8107 -0.3982  0.0312
  157MPD2     H 2446   0.533   3.951  12.450  1.0827  0.5517 -0.4525
  157MPD2    H1 2447   0.517   3.991  12.871  2.9970 -1.3838  1.9986
  157MPD2    H2 2448   0.861   3.809  12.687  0.6590  2.7027  0.5073
  157MPD2    H3 2449   0.747   3.882  12.889 -2.3736 -2.1811  0.6075
  157MPD2     N 2450   0.395   4.041  12.623  0.0962  0.2711 -0.2600
  157MPD2    H5 2451   0.380   4.055  12.523  1.6998 -0.3487 -0.5806
  157MPD2    N1 2452   0.765   3.821  12.445 -0.1681 -0.5957 -0.1150
  157MPD2    H7 2453   0.845   3.764  12.471  1.5857  1.8984  0.0435
  158TMC2    C1 2454   4.707   2.983  13.433 -1.0187  0.1290  0.1356
  158TMC2    C2 2455   4.734   3.063  13.328 -0.2725  0.4520 -0.5804
  158TMC2    C3 2456   4.637   3.104  13.247 -0.6632  0.1419 -0.6759
  158TMC2    C4 2457   4.592   2.912  13.443 -0.7412 -0.0314  0.2316
  158TMC2    C5 2458   4.493   2.956  13.357 -0.1030 -0.4378 -0.2029
  158TMC2    C6 2459   4.511   3.058  13.261 -0.2540  0.7682 -0.1464
  158TMC2     C 2460   0.081   2.912  13.487  0.3086  0.1560 -0.0031
  158TMC2     O 2461   0.182   2.925  13.424  0.0757  0.1655  0.0155
  158TMC2     H 2462   0.085   3.114  13.308 -0.1139  0.3286 -0.1614
  158TMC2    H1 2463   4.578   2.837  13.520 -2.9167  1.7446  1.5819
  158TMC2    H2 2464   4.428   3.108  13.213 -1.6229  1.0330  2.4840
  158TMC2    C7 2465   4.360   2.905  13.376  0.0919 -0.1582  0.2033
  158TMC2    C8 2466   4.656   3.226  13.168 -0.1564 -0.5967  0.0535
  158TMC2    O1 2467   4.272   2.988  13.351 -0.1002 -0.3520  0.6302
  158TMC2    O2 2468   4.732   3.314  13.197  0.4832  0.1314 -0.1299
  158TMC2    O5 2469   4.586   3.216  13.053  0.0037 -0.6478  0.7643
  158TMC2    H5 2470   4.537   3.131  13.059  1.0066 -1.1628  1.6892
  159MPD2     C 2471   0.301   2.534  13.748 -0.4847  0.8524 -0.2349
  159MPD2    C1 2472   0.172   2.546  13.790 -0.5303 -0.3271 -0.0297
  159MPD2    C2 2473   0.091   2.641  13.736  0.1157 -0.9039  0.9596
  159MPD2    C3 2474   0.144   2.735  13.646  0.2192 -0.3729  0.1597
  159MPD2    C4 2475   0.282   2.736  13.617 -0.2864  0.2793 -1.1249
  159MPD2    C5 2476   0.355   2.625  13.662 -0.3714  0.3630 -0.3733
  159MPD2     H 2477   4.730   2.650  13.768  0.0168  2.3990 -0.2217
  159MPD2    H1 2478   0.327   2.812  13.554  1.4937  0.9164  0.9060
  159MPD2    H2 2479   0.363   2.452  13.784 -0.1035  0.5883 -1.4767
  159MPD2    H3 2480   0.458   2.627  13.628 -0.2936  2.7186 -0.0386
  159MPD2     N 2481   0.052   2.826  13.588 -0.3892 -0.3079 -0.1136
  159MPD2    H5 2482   4.696   2.829  13.612  0.0909  2.8537  1.4675
  159MPD2    N1 2483   0.127   2.448  13.884 -0.6059 -0.1455 -0.0654
  159MPD2    H7 2484   0.198   2.393  13.932 -0.2514 -0.7098 -1.2393
  160TMC2    C1 2485   4.502   0.815   1.213 -0.0035  0.1092 -0.2573
  160TMC2    C2 2486   4.513   0.676   1.218  0.1868  0.0036 -0.3501
  160TMC2    C3 2487   4.611   0.620   1.139 -0.3324 -0.6289  0.2759
  160TMC2    C4 2488   4.576   0.891   1.129  1.3154  0.5110 -0.0846
  160TMC2    C5 2489   4.669   0.820   1.051 -0.0016 -0.7478 -0.2644
  160TMC2    C6 2490   4.695   0.690   1.056 -0.1225 -0.2603  0.0313
  160TMC2     C 2491   4.381   0.870   1.266 -0.4739 -1.2818  0.2314
  160TMC2     O 2492   4.315   0.795   1.336 -0.3923  0.5431  0.1526
  160TMC2     H 2493   4.449   0.612   1.278  1.0241  1.3558  2.0231
  160TMC2    H1 2494   4.566   0.998   1.120  1.6882  0.6235  0.8524
  160TMC2    H2 2495   0.023   0.648   0.985  1.3002  3.3381 -0.6822
  160TMC2    C7 2496   4.715   0.886   0.934 -0.0440 -0.2778 -0.9418
  160TMC2    C8 2497   4.598   0.484   1.106  0.4891  0.0763  0.1711
  160TMC2    O1 2498   0.004   0.819   0.836 -0.2881 -0.0518 -0.5155
  160TMC2    O2 2499   4.500   0.421   1.142 -0.9403 -0.5403  0.3222
  160TMC2    O5 2500   4.721   0.438   1.071  0.2660  0.2433 -0.0309
  160TMC2    H5 2501   0.042   0.510   1.054  0.8722  0.0520  1.3555
  161MPD2     C 2502   4.147   1.013   1.358  0.0933 -1.2330  0.4036
  161MPD2    C1 2503   4.216   1.046   1.241 -0.2237 -0.0716  0.9658
  161MPD2    C2 2504   4.156   1.118   1.135 -0.5929  0.3776  0.6307
  161MPD2    C3 2505   4.019   1.161   1.150  0.1845 -0.3849  0.2290
  161MPD2    C4 2506   3.955   1.137   1.268  0.0249 -0.1631 -0.3891
  161MPD2    C5 2507   4.016   1.064   1.369 -0.2594 -0.4244  0.7489
  161MPD2     H 2508   4.206   1.131   1.040 -1.2616 -1.7546 -0.0129
  161MPD2    H1 2509   3.854   1.169   1.290 -0.0341  0.7471 -2.0393
  161MPD2    H2 2510   4.184   0.951   1.439 -0.1333 -0.3952  1.1539
  161MPD2    H3 2511   3.952   1.034   1.451 -0.3273  0.1096  0.8890
  161MPD2     N 2512   3.945   1.242   1.057  0.3963  0.0578 -0.2374
  161MPD2    H5 2513   3.846   1.244   1.078  0.2326  0.2092 -1.0577
  161MPD2    N1 2514   4.335   0.982   1.203  0.2003  0.1377 -1.7226
  161MPD2    H7 2515   4.369   1.017   1.114  1.6250 -0.8889 -1.5731
  162TMC2    C1 2516   2.250   2.685   1.197  0.0689  0.2946 -0.2411
  162TMC2    C2 2517   2.194   2.790   1.260  0.0957  0.3256  0.3391
  162TMC2    C3 2518   2.268   2.855   1.361 -0.1415 -0.4950 -1.0638
  162TMC2    C4 2519   2.375   2.637   1.226 -0.3761 -0.9088 -0.2114
  162TMC2    C5 2520   2.449   2.715   1.311 -0.2959 -0.5349 -0.0866
  162TMC2    C6 2521   2.397   2.818   1.384  0.4073 -0.1458  0.0994
  162TMC2     C 2522   2.190   2.629   1.082 -0.6595 -0.0078  0.1804
  162TMC2     O 2523   2.246   2.544   1.018  0.0431  0.1149  0.2381
  162TMC2     H 2524   2.094   2.829   1.240  0.2694 -0.2257 -1.6263
  162TMC2    H1 2525   2.422   2.555   1.174  0.3689 -0.5014 -0.1770
  162TMC2    H2 2526   2.463   2.883   1.440  2.2967 -0.0106 -2.3018
  162TMC2    C7 2527   2.578   2.674   1.365 -0.3035  0.6730 -0.1257
  162TMC2    C8 2528   2.211   2.973   1.430  0.5263 -0.2357  0.7747
  162TMC2    O1 2529   2.628   2.748   1.446  0.7069 -0.5081  0.0573
  162TMC2    O2 2530   2.120   3.036   1.384 -0.4132  0.1300 -0.2649
  162TMC2    O5 2531   2.242   2.975   1.561 -0.3484 -0.6636 -0.0959
  162TMC2    H5 2532   2.315   2.913   1.583 -0.3430 -0.0409  1.6503
  163MPD2     C 2533   1.847   2.515   0.744  0.0538 -0.2407 -0.2249
  163MPD2    C1 2534   1.976   2.542   0.718  0.2437  0.2318  0.0548
  163MPD2    C2 2535   2.052   2.587   0.825 -0.0735 -0.2650 -0.6257
  163MPD2    C3 2536   1.988   2.617   0.948  0.3816  1.1496 -0.0898
  163MPD2    C4 2537   1.855   2.607   0.969 -0.1429 -0.3366 -0.0152
  163MPD2    C5 2538   1.785   2.557   0.862 -0.2767 -0.1339 -0.0831
  163MPD2     H 2539   2.158   2.608   0.815 -0.3243  0.4296 -1.8754
  163MPD2    H1 2540   1.807   2.621   1.065  0.5456 -3.8204  0.8262
  163MPD2    H2 2541   1.789   2.472   0.663  0.4839 -2.0795  0.4406
  163MPD2    H3 2542   1.679   2.536   0.862 -0.6211  1.6444  1.1008
  163MPD2     N 2543   2.061   2.667   1.062 -0.1578 -0.7730 -0.2114
  163MPD2    H5 2544   2.008   2.720   1.131  0.0624 -1.5342  0.5482
  163MPD2    N1 2545   2.036   2.535   0.588  0.0264  0.8663 -0.2373
  163MPD2    H7 2546   1.967   2.515   0.516  0.7246  0.4784 -0.8030
  164TMC2    C1 2547   3.975   2.213  10.799  0.0971 -0.6150  0.4494
  164TMC2    C2 2548   3.984   2.306  10.692  0.2565 -0.9574 -0.2098
  164TMC2    C3 2549   3.898   2.408  10.693  0.1207  0.3703 -0.2338
  164TMC2    C4 2550   3.883   2.232  10.894  0.3427 -0.4560 -0.0820
  164TMC2    C5 2551   3.795   2.337  10.886 -0.5006  0.7727  0.7311
  164TMC2    C6 2552   3.799   2.427  10.788 -0.6000 -0.0949  0.0370
  164TMC2     C 2553   4.057   2.091  10.805  0.1212 -0.1712  0.1092
  164TMC2     O 2554   4.009   2.011  10.882  0.1112  0.2878  0.4121
  164TMC2     H 2555   4.053   2.300  10.608  0.8843  0.2285  0.2248
  164TMC2    H1 2556   3.874   2.161  10.975 -1.7041 -1.0180 -0.7990
  164TMC2    H2 2557   3.741   2.519  10.788 -1.6370 -0.7592  2.1832
  164TMC2    C7 2558   3.671   2.335  10.967 -0.0429 -0.6289  0.9317
  164TMC2    C8 2559   3.904   2.502  10.581  0.0584 -0.3037 -0.1861
  164TMC2    O1 2560   3.576   2.397  10.920 -0.2537 -1.0099 -0.1710
  164TMC2    O2 2561   3.992   2.516  10.495  0.1880 -0.7452  0.5293
  164TMC2    O5 2562   3.780   2.491  10.531 -0.2583  0.4819  0.0663
  164TMC2    H5 2563   3.728   2.442  10.598 -0.3885 -1.0988 -1.1960
  165TMC2    C1 2564   4.260   0.306   0.828 -0.6630 -0.4897  0.1901
  165TMC2    C2 2565   4.303   0.224   0.930  0.1874 -0.1022  0.2758
  165TMC2    C3 2566   4.427   0.195   0.951  0.0964 -0.4063 -1.0257
  165TMC2    C4 2567   4.352   0.356   0.746 -0.7184 -1.2002  1.0642
  165TMC2    C5 2568   4.483   0.341   0.776 -0.2497  0.2266 -0.8590
  165TMC2    C6 2569   4.527   0.267   0.878 -0.3811  0.2703  0.0317
  165TMC2     C 2570   4.127   0.306   0.777 -0.1131  0.7209  0.6523
  165TMC2     O 2571   4.091   0.193   0.743  0.6276 -0.3117  0.2440
  165TMC2     H 2572   4.232   0.157   0.977 -0.6576 -1.5871 -3.1170
  165TMC2    H1 2573   4.322   0.407   0.655 -0.4248 -3.1562 -0.1195
  165TMC2    H2 2574   4.632   0.267   0.906 -0.8209 -0.2087  1.7208
  165TMC2    C7 2575   4.587   0.408   0.699  0.0460  0.1281 -0.1911
  165TMC2    C8 2576   4.469   0.107   1.059 -0.3424  0.2226 -0.3004
  165TMC2    O1 2577   4.682   0.436   0.774  0.5428 -0.3140 -0.2919
  165TMC2    O2 2578   4.406   0.086   1.163 -0.2758  0.4485  0.3273
  165TMC2    O5 2579   4.593   0.070   1.031  0.4457  0.2649 -0.0347
  165TMC2    H5 2580   4.614   0.089   0.937  0.1191  0.6135 -0.0407
  166MPD2     C 2581   3.646   0.457   0.889  0.2830 -0.8301 -0.0783
  166MPD2    C1 2582   3.687   0.337   0.842 -0.3922  0.7990 -0.0226
  166MPD2    C2 2583   3.824   0.320   0.806  0.2651 -0.9466 -0.6118
  166MPD2    C3 2584   3.914   0.413   0.849  0.0573  0.4857 -0.4723
  166MPD2    C4 2585   3.871   0.522   0.915 -1.1866  0.3976 -0.2834
  166MPD2    C5 2586   3.732   0.548   0.933 -0.7150 -0.3567 -0.3011
  166MPD2     H 2587   3.859   0.227   0.764  2.4201 -0.9099  1.0796
  166MPD2    H1 2588   3.938   0.593   0.963  0.1112 -0.0817 -1.3970
  166MPD2    H2 2589   3.540   0.481   0.898  0.4907 -0.2267  0.6918
  166MPD2    H3 2590   3.694   0.635   0.985 -0.4043  0.1256 -0.8830
  166MPD2     N 2591   4.057   0.412   0.829 -0.2826 -0.4333 -0.2334
  166MPD2    H5 2592   4.110   0.481   0.881 -0.2737 -0.6751  0.0832
  166MPD2    N1 2593   3.585   0.246   0.831  0.0439  0.0941  0.2171
  166MPD2    H7 2594   3.498   0.277   0.872  0.7233  3.4077 -0.8496
  167TMC2    C1 2595   2.932   1.990  13.229  0.6453 -0.3374  0.5856
  167TMC2    C2 2596   2.847   2.003  13.334  0.9243 -0.1082 -0.4419
  167TMC2    C3 2597   2.827   1.892  13.414  0.0735 -0.2845  0.2245
  167TMC2    C4 2598   2.996   1.878  13.196  0.0783 -0.4835 -0.2227
  167TMC2    C5 2599   2.970   1.769  13.278 -1.0091  0.0954  0.4483
  167TMC2    C6 2600   2.886   1.771  13.383 -0.8316 -0.2645 -0.8503
  167TMC2     C 2601   2.950   2.112  13.154  0.3701 -0.1003 -0.5338
  167TMC2     O 2602   2.944   2.222  13.206 -0.2071 -0.1691  0.2143
  167TMC2     H 2603   2.806   2.102  13.355  0.4441 -0.2432 -0.7330
  167TMC2    H1 2604   3.069   1.864  13.117 -1.6280 -1.0413 -1.7048
  167TMC2    H2 2605   2.877   1.688  13.452 -1.2907  1.3493  1.0538
  167TMC2    C7 2606   3.008   1.636  13.236  0.0381  0.8473  0.3493
  167TMC2    C8 2607   2.726   1.896  13.514  0.0879  0.1515 -0.7503
  167TMC2    O1 2608   3.031   1.553  13.322  0.4638  0.4347  0.4234
  167TMC2    O2 2609   2.726   1.809  13.599  0.2102 -0.1016 -0.1698
  167TMC2    O5 2610   2.612   1.953  13.467 -0.2419 -0.3037 -0.4322
  167TMC2    H5 2611   2.621   2.025  13.401 -1.0173  0.2054  0.0189
  168MPD2     C 2612   3.061   2.304  12.938 -0.2444 -0.0256 -0.0254
  168MPD2    C1 2613   3.022   2.175  12.916 -0.0034 -0.2065 -0.4753
  168MPD2    C2 2614   3.032   2.134  12.782  0.7342  0.3283  0.9187
  168MPD2    C3 2615   3.074   2.213  12.679 -0.6496  0.3657 -0.6659
  168MPD2    C4 2616   3.104   2.345  12.710  0.3660  0.5692 -0.5536
  168MPD2    C5 2617   3.111   2.384  12.843 -0.3288  0.1811  0.2577
  168MPD2     H 2618   3.019   2.031  12.751 -0.8736  1.1567 -1.1790
  168MPD2    H1 2619   3.121   2.424  12.638  0.3374 -1.2114 -2.4809
  168MPD2    H2 2620   3.067   2.347  13.038  1.7821  0.4094 -0.3271
  168MPD2    H3 2621   3.144   2.485  12.864 -0.2495  0.3049 -0.4754
  168MPD2     N 2622   3.072   2.162  12.550 -0.3185  0.6887 -0.1128
  168MPD2    H5 2623   3.030   2.070  12.540 -0.2508  0.6227  0.2125
  168MPD2    N1 2624   2.977   2.086  13.015  0.1987  0.2541  0.0250
  168MPD2    H7 2625   2.966   1.989  12.985 -2.3718  0.5595  0.0540
  169MPD1     C 2626   0.463   2.324   9.031 -0.1138  0.1982  0.2639
  169MPD1    C1 2627   0.482   2.194   9.065 -0.0766 -0.1892 -0.4789
  169MPD1    C2 2628   0.538   2.165   9.189 -0.8859  0.0673  0.3673
  169MPD1    C3 2629   0.587   2.263   9.274 -0.6693  0.0986  0.1738
  169MPD1    C4 2630   0.569   2.395   9.233  0.3309 -0.0262  0.6296
  169MPD1    C5 2631   0.499   2.422   9.119 -0.1634  0.4360 -0.5990
  169MPD1     H 2632   0.566   2.063   9.213  0.1021  0.5381  1.2246
  169MPD1    H1 2633   0.609   2.482   9.284  0.6304  0.0964  0.1762
  169MPD1    H2 2634   0.415   2.369   8.945 -0.9282  1.5074  1.3882
  169MPD1    H3 2635   0.503   2.524   9.082  0.3060 -0.2391 -2.4066
  169MPD1     N 2636   0.667   2.226   9.387  0.4616 -0.2146  0.0976
  169MPD1    H5 2637   0.678   2.130   9.417 -0.1427 -0.6524 -1.0945
  169MPD1    N1 2638   0.437   2.091   8.983 -0.0452 -0.0841 -0.1079
  169MPD1    H6 2639   0.496   2.008   8.984 -1.1203 -0.8263  1.5606
  169MPD1    H7 2640   0.422   2.119   8.886  1.3351 -1.1527 -0.6462
  170MPD1     C 2641   3.805   4.167  13.023 -0.8033 -0.3820 -0.2719
  170MPD1    C1 2642   3.696   4.250  13.027  1.5346  0.1415 -0.1441
  170MPD1    C2 2643   3.691   4.357  13.108  0.0895 -0.3188 -0.2228
  170MPD1    C3 2644   3.797   4.386  13.191 -1.0603  0.1379 -0.2853
  170MPD1    C4 2645   3.907   4.304  13.189  0.0446 -0.1141 -0.0817
  170MPD1    C5 2646   3.904   4.194  13.107  0.2265  0.1480  0.2402
  170MPD1     H 2647   3.608   4.427  13.109 -2.0791 -2.8394 -2.7352
  170MPD1    H1 2648   3.997   4.330  13.243  1.3810 -1.7655 -1.5166
  170MPD1    H2 2649   3.821   4.080  12.960  0.3060 -0.6206  0.3510
  170MPD1    H3 2650   3.994   4.136  13.093  0.4480 -0.0170  2.2493
  170MPD1     N 2651   3.784   4.495  13.277  0.5560 -1.0274 -0.1653
  170MPD1    H5 2652   3.712   4.558  13.244 -0.7178 -1.8139  1.1115
  170MPD1    N1 2653   3.609   4.241  12.915 -0.0291 -0.0881  0.9759
  170MPD1    H6 2654   3.519   4.283  12.932 -0.9930 -0.8011 -2.4003
  170MPD1    H7 2655   3.608   4.145  12.879 -1.4701  0.0757  0.6034
  171MPD1     C 2656   1.492   1.542  15.478  0.0582  0.0924  0.0686
  171MPD1    C1 2657   1.416   1.425  15.449  0.4806 -0.4731  0.3925
  171MPD1    C2 2658   1.486   1.307  15.422  0.0590 -0.1679 -0.0847
  171MPD1    C3 2659   1.626   1.312  15.399  0.4866  0.0782  0.0025
  171MPD1    C4 2660   1.696   1.433  15.409  0.3833  0.5154 -0.8889
  171MPD1    C5 2661   1.631   1.543  15.458 -0.0872 -0.0011  0.2922
  171MPD1     H 2662   1.433   1.213  15.420 -0.6876  0.2521  0.1662
  171MPD1    H1 2663   1.804   1.438  15.410  0.3850 -0.3754  3.4559
  171MPD1    H2 2664   1.450   1.637  15.508 -0.1872  0.6845 -2.0914
  171MPD1    H3 2665   1.692   1.630  15.478  1.6328 -1.1089 -0.1292
  171MPD1     N 2666   1.706   1.201  15.379 -0.3696  0.0240  0.3282
  171MPD1    H5 2667   1.805   1.211  15.356 -0.4490 -1.2121 -0.5713
  171MPD1    N1 2668   1.273   1.424  15.467 -0.1204  0.4351 -0.0719
  171MPD1    H6 2669   1.241   1.333  15.434 -1.4705  0.9857 -0.2430
  171MPD1    H7 2670   1.227   1.499  15.416 -0.4833  0.5607  0.4422
  172MPD1     C 2671   1.045   1.640   0.899  0.5628 -0.2150 -0.2284
  172MPD1    C1 2672   1.098   1.521   0.866 -0.0380  0.3508  0.0272
  172MPD1    C2 2673   1.056   1.458   0.748  0.2577  0.6597 -0.2474
  172MPD1    C3 2674   0.963   1.522   0.660  0.2526 -0.1754 -0.0233
  172MPD1    C4 2675   0.898   1.635   0.703 -1.3885 -0.2354  0.2359
  172MPD1    C5 2676   0.940   1.688   0.826 -1.0767  1.2965 -0.3558
  172MPD1     H 2677   1.116   1.373   0.718 -0.3705 -0.0600  0.5275
  172MPD1    H1 2678   0.835   1.699   0.642  1.4534  0.7713 -1.6308
  172MPD1    H2 2679   1.073   1.701   0.984  1.3588  0.0617 -0.6821
  172MPD1    H3 2680   0.902   1.788   0.847  1.1140  1.4584  2.9520
  172MPD1     N 2681   0.937   1.469   0.526 -0.3323 -0.3562  0.3432
  172MPD1    H5 2682   0.888   1.528   0.460  1.2367 -1.5544 -1.9134
  172MPD1    N1 2683   1.206   1.467   0.943 -0.5132 -0.1975 -0.4750
  172MPD1    H6 2684   1.189   1.478   1.042 -2.0055 -1.5235 -0.5686
  172MPD1    H7 2685   1.210   1.366   0.931 -1.8985 -0.4000  0.7038
  173MPD1     C 2686   2.597   0.434  13.557 -0.3220  0.0762 -0.2301
  173MPD1    C1 2687   2.481   0.385  13.611  0.4809  0.6760 -0.1178
  173MPD1    C2 2688   2.487   0.304  13.718  0.2284  0.1547 -0.6281
  173MPD1    C3 2689   2.606   0.256  13.772  0.6004 -0.1842  0.5156
  173MPD1    C4 2690   2.713   0.275  13.698 -0.4496  0.0252 -0.0633
  173MPD1    C5 2691   2.705   0.368  13.589  0.0290 -0.9230  0.3076
  173MPD1     H 2692   2.393   0.280  13.766  0.9867  0.2965  0.9143
  173MPD1    H1 2693   2.806   0.223  13.719  0.5678  1.8909 -0.0041
  173MPD1    H2 2694   2.615   0.501  13.473  0.1139 -2.8954 -2.4729
  173MPD1    H3 2695   2.794   0.388  13.530 -1.9687 -1.4458 -2.8963
  173MPD1     N 2696   2.599   0.184  13.895 -0.1847 -0.7375  0.2205
  173MPD1    H5 2697   2.512   0.150  13.933 -0.4667  0.1639  0.3808
  173MPD1    N1 2698   2.358   0.444  13.583  0.1740 -0.0635  0.7278
  173MPD1    H6 2699   2.333   0.472  13.488  6.7992  1.3710 -0.5636
  173MPD1    H7 2700   2.285   0.376  13.606 -0.0985  0.8843  2.6523
  174MPD1     C 2701   3.265   4.518  14.561  1.0975  0.9358  0.3274
  174MPD1    C1 2702   3.139   4.536  14.620  0.1772  0.0046  0.1803
  174MPD1    C2 2703   3.031   4.568  14.539  0.3775 -0.0077  0.4216
  174MPD1    C3 2704   3.056   4.581  14.398 -0.1465  0.0323  0.0447
  174MPD1    C4 2705   3.181   4.574  14.347 -0.1963  0.4494 -0.0576
  174MPD1    C5 2706   3.286   4.541  14.432  0.3371  0.5478  0.5062
  174MPD1     H 2707   2.929   4.573  14.576 -0.0485  1.8477 -0.9558
  174MPD1    H1 2708   3.203   4.603  14.245  0.2914  0.3271  0.0128
  174MPD1    H2 2709   3.348   4.485  14.622  1.3244  1.1502  0.1356
  174MPD1    H3 2710   3.389   4.531  14.399  0.2719  0.9616  0.1705
  174MPD1     N 2711   2.952   4.620  14.312 -0.4989  0.8581 -0.0828
  174MPD1    H5 2712   2.980   4.661  14.223  0.2867 -0.2808 -0.3694
  174MPD1    N1 2713   3.110   4.498  14.750 -0.3206 -0.4099 -0.1615
  174MPD1    H6 2714   3.191   4.505  14.811 -1.3829 -1.1942  1.3310
  174MPD1    H7 2715   3.037   4.555  14.793 -1.2151 -0.7138 -1.2917
  175MPD1     C 2716   0.506   1.189  14.679  0.3268  0.1376 -0.0383
  175MPD1    C1 2717   0.580   1.092  14.745 -0.0543 -0.1767 -0.0193
  175MPD1    C2 2718   0.594   1.102  14.880 -0.2243 -0.2014  1.1078
  175MPD1    C3 2719   0.564   1.220  14.949 -0.5628 -0.4806  0.0158
  175MPD1    C4 2720   0.492   1.311  14.883  0.9298 -0.2423  0.7122
  175MPD1    C5 2721   0.472   1.297  14.752  0.2691 -0.5150 -0.3669
  175MPD1     H 2722   0.638   1.014  14.924  1.2455  0.0387  0.1360
  175MPD1    H1 2723   0.450   1.402  14.925  0.6005 -0.1441  0.1814
  175MPD1    H2 2724   0.503   1.197  14.571 -1.7489 -1.0017 -0.0638
  175MPD1    H3 2725   0.423   1.369  14.688  0.5261  1.1958  1.3961
  175MPD1     N 2726   0.580   1.236  15.087  0.4867  0.3002 -0.2199
  175MPD1    H5 2727   0.546   1.321  15.130  0.5573 -0.4788  1.4085
  175MPD1    N1 2728   0.601   0.964  14.691 -0.3035 -0.3810  0.0129
  175MPD1    H6 2729   0.682   0.922  14.736  0.0221  1.1837  0.8698
  175MPD1    H7 2730   0.613   0.967  14.590  0.9119  2.1334  0.2273
  176MPD1     C 2731   1.966   2.642   0.081  0.2126 -0.0222 -0.0586
  176MPD1    C1 2732   1.998   2.740   0.172 -0.4821 -0.3855  0.4467
  176MPD1    C2 2733   2.076   2.846   0.130  0.1860  0.4347 -0.6243
  176MPD1    C3 2734   2.128   2.855   0.000  0.3578  0.2853 -0.6295
  176MPD1    C4 2735   2.106   2.753  17.680  0.3022  0.1933 -0.0243
  176MPD1    C5 2736   2.026   2.653  17.721 -0.1931  0.0718  0.0968
  176MPD1     H 2737   2.098   2.928   0.198 -3.0474  0.5139  0.3338
  176MPD1    H1 2738   2.149   2.754  17.581  1.2061  3.5299  0.4060
  176MPD1    H2 2739   1.893   2.565   0.104  0.1188  0.5892  1.6598
  176MPD1    H3 2740   1.997   2.578  17.649  0.4969 -1.2021  1.1361
  176MPD1     N 2741   2.193   2.976  17.731  0.1628  0.0270 -0.1697
  176MPD1    H5 2742   2.202   3.034   0.048  2.9344  2.3895 -2.1492
  176MPD1    N1 2743   1.922   2.743   0.291  0.2890  0.5159  0.0833
  176MPD1    H6 2744   1.967   2.801   0.361  0.4713 -0.3938  0.7202
  176MPD1    H7 2745   1.902   2.658   0.344  2.9830 -0.6873 -0.7974
  177MPD1     C 2746   1.311   2.389  10.071 -0.5203  0.6351  0.4402
  177MPD1    C1 2747   1.202   2.429  10.145 -0.2512 -0.4115 -0.4469
  177MPD1    C2 2748   1.102   2.501  10.082 -0.1360  0.5807 -0.1427
  177MPD1    C3 2749   1.115   2.540   9.953 -0.1877  0.0667 -0.7565
  177MPD1    C4 2750   1.217   2.485   9.876 -1.0485 -0.2525 -0.1755
  177MPD1    C5 2751   1.316   2.410   9.935 -0.0042 -0.4098 -0.4840
  177MPD1     H 2752   1.013   2.527  10.139 -0.1292 -0.7008  0.4524
  177MPD1    H1 2753   1.233   2.504   9.770  1.3504  2.2147  0.6360
  177MPD1    H2 2754   1.390   2.340  10.126  0.0628  1.4940  0.3632
  177MPD1    H3 2755   1.394   2.371   9.870  2.0242 -0.4233  1.9385
  177MPD1     N 2756   1.019   2.626   9.899 -0.6392 -0.3544  0.2179
  177MPD1    H5 2757   0.936   2.649   9.953 -1.2742  2.3156 -1.9073
  177MPD1    N1 2758   1.202   2.405  10.286 -0.1154  0.1213 -0.3793
  177MPD1    H6 2759   1.108   2.393  10.323  0.1772 -1.4060 -0.1652
  177MPD1    H7 2760   1.267   2.331  10.313 -0.8247 -0.4538 -0.2639
  178MPD1     C 2761   3.434   4.669  17.116 -0.0033 -0.7621  0.4367
  178MPD1    C1 2762   3.414   4.654  17.248  0.4988  0.4048 -0.2100
  178MPD1    C2 2763   3.375   4.528  17.285 -0.2419  0.2858  0.4884
  178MPD1    C3 2764   3.387   4.411  17.210 -0.6683  0.6551 -0.0997
  178MPD1    C4 2765   3.428   4.433  17.077  0.5353 -0.0210 -0.3903
  178MPD1    C5 2766   3.452   4.563  17.034  0.4408  0.3055  0.2315
  178MPD1     H 2767   3.340   4.522  17.387  1.0880 -0.7110  0.8875
  178MPD1    H1 2768   3.458   4.359  17.003 -0.5558 -0.0795 -0.7694
  178MPD1    H2 2769   3.459   0.025  17.077 -1.0040 -0.5661  0.2991
  178MPD1    H3 2770   3.490   4.585  16.935 -0.3776 -0.2708 -0.2155
  178MPD1     N 2771   3.357   4.281  17.253  0.7785 -0.3706  0.4371
  178MPD1    H5 2772   3.360   4.209  17.181  0.6238 -0.7609  0.8204
  178MPD1    N1 2773   3.387   0.018  17.335  0.3282 -0.1449  0.4709
  178MPD1    H6 2774   3.434   0.098  17.295 -1.9787  0.8969 -0.1492
  178MPD1    H7 2775   3.415   4.738  17.431 -0.4160 -0.8703  0.5212
  179MPD1     C 2776   3.113   2.762  15.818 -0.0453  0.3809 -0.2569
  179MPD1    C1 2777   3.066   2.716  15.695  0.0672 -0.4336  0.4457
  179MPD1    C2 2778   3.010   2.591  15.684 -0.1829 -1.4176  0.2511
  179MPD1    C3 2779   3.021   2.498  15.789 -0.2236 -0.1440  0.4795
  179MPD1    C4 2780   3.087   2.538  15.903  0.2438 -0.3277  0.1157
  179MPD1    C5 2781   3.129   2.669  15.918  0.3460 -0.5398 -0.5812
  179MPD1     H 2782   2.967   2.556  15.591 -0.2459  0.6790 -0.5096
  179MPD1    H1 2783   3.094   2.478  15.993  0.0134 -0.4350  0.0629
  179MPD1    H2 2784   3.138   2.866  15.835 -0.3938  0.5401 -0.7152
  179MPD1    H3 2785   3.164   2.693  16.018  1.2385 -0.3453 -0.9337
  179MPD1     N 2786   2.964   2.367  15.787  0.0788 -0.6475  0.4705
  179MPD1    H5 2787   2.965   2.313  15.873 -0.1026 -1.6439 -0.1587
  179MPD1    N1 2788   3.046   2.804  15.586  0.1351 -0.4953 -0.8499
  179MPD1    H6 2789   3.102   2.888  15.578  1.4418 -1.2238  0.4982
  179MPD1    H7 2790   3.039   2.753  15.498 -0.2213 -4.4518  1.4601
  180MPD1     C 2791   2.766   3.114  15.377  0.3624 -0.4274 -0.4858
  180MPD1    C1 2792   2.795   3.014  15.285 -0.2961 -0.2272 -0.2324
  180MPD1    C2 2793   2.844   3.055  15.162 -0.4908 -0.3261  0.2353
  180MPD1    C3 2794   2.845   3.188  15.128 -0.5095  0.1818 -0.1042
  180MPD1    C4 2795   2.810   3.288  15.216  0.2703  0.6219  0.1120
  180MPD1    C5 2796   2.766   3.245  15.339 -0.0631 -0.0780  0.6444
  180MPD1     H 2797   2.867   2.982  15.086  0.3558 -1.1448  1.2798
  180MPD1    H1 2798   2.812   3.395  15.200  0.9155  0.3183 -1.8218
  180MPD1    H2 2799   2.733   3.089  15.477 -0.9879 -1.7649 -1.2768
  180MPD1    H3 2800   2.743   3.318  15.416  0.0785  0.7768 -0.1156
  180MPD1     N 2801   2.881   3.218  14.996 -0.3202 -0.4960 -0.3221
  180MPD1    H5 2802   2.903   3.139  14.936 -0.2376 -0.2106 -0.6672
  180MPD1    N1 2803   2.789   2.882  15.323  0.6377  0.1702 -0.4312
  180MPD1    H6 2804   2.805   2.867  15.423  2.0096 -3.0139 -1.0989
  180MPD1    H7 2805   2.867   2.834  15.278  0.0753 -0.6276 -0.5545
  181MPD1     C 2806   0.286   0.848   9.684 -0.1019 -0.0646 -0.2694
  181MPD1    C1 2807   0.251   0.729   9.744  0.1781  0.1839 -0.3455
  181MPD1    C2 2808   0.334   0.679   9.843  0.1674 -0.4684 -0.1743
  181MPD1    C3 2809   0.438   0.754   9.884  0.2577 -0.1160 -0.0346
  181MPD1    C4 2810   0.470   0.873   9.822  0.0445  0.4351  0.1066
  181MPD1    C5 2811   0.389   0.920   9.722  0.0655  0.1857 -0.0047
  181MPD1     H 2812   0.312   0.577   9.874 -0.8483 -0.9478 -2.4847
  181MPD1    H1 2813   0.562   0.925   9.842 -1.6196  3.1731  0.6502
  181MPD1    H2 2814   0.232   0.891   9.600  1.1646 -0.7029 -1.4115
  181MPD1    H3 2815   0.422   1.009   9.670  1.7943 -0.2678  0.3081
  181MPD1     N 2816   0.541   0.705   9.973 -0.2665 -0.1302 -0.0493
  181MPD1    H5 2817   0.624   0.762   9.984 -2.2176  2.8338 -0.5868
  181MPD1    N1 2818   0.133   0.657   9.706  0.0402  0.1149 -0.0650
  181MPD1    H6 2819   0.131   0.556   9.713  0.6831  0.1855  0.9843
  181MPD1    H7 2820   0.122   0.682   9.607  1.9708  2.2843  0.2817
  182MPD1     C 2821   0.862   3.828   1.042 -0.8965  0.0840 -0.9324
  182MPD1    C1 2822   0.905   3.948   1.093  0.1849  0.4174  0.4968
  182MPD1    C2 2823   0.891   4.066   1.021 -0.4125  0.5576  0.3016
  182MPD1    C3 2824   0.823   4.061   0.900 -0.6948  0.7941 -0.0250
  182MPD1    C4 2825   0.780   3.940   0.855  0.0200 -0.5601 -0.5084
  182MPD1    C5 2826   0.802   3.821   0.923 -0.2086  0.2209  0.7852
  182MPD1     H 2827   0.933   4.157   1.063 -3.9411  2.4463 -0.2732
  182MPD1    H1 2828   0.732   3.922   0.759  1.7240 -0.3180 -1.4098
  182MPD1    H2 2829   0.881   3.739   1.101  0.5821 -0.0277 -1.5865
  182MPD1    H3 2830   0.757   3.730   0.884 -1.0739  1.7573 -1.8137
  182MPD1     N 2831   0.783   4.175   0.827  0.3496  0.1653  0.4081
  182MPD1    H5 2832   0.724   4.167   0.745 -0.0176  3.5107  0.3494
  182MPD1    N1 2833   0.991   3.945   1.209 -0.1904 -0.7529  0.2015
  182MPD1    H6 2834   0.998   4.035   1.256  0.6476 -0.3256 -0.7350
  182MPD1    H7 2835   0.965   3.867   1.270 -0.8838 -2.1014 -1.8286
  183MPD1     C 2836   1.925   3.949   9.210  0.5838  0.0228 -0.0174
  183MPD1    C1 2837   1.850   3.911   9.323 -0.3622  0.0944  0.3171
  183MPD1    C2 2838   1.774   4.006   9.387 -0.3821  1.5044  0.0156
  183MPD1    C3 2839   1.790   4.140   9.346 -0.2334  0.5109  0.8243
  183MPD1    C4 2840   1.869   4.178   9.246  0.8773 -0.5490  0.1747
  183MPD1    C5 2841   1.933   4.081   9.179 -0.2012 -0.2429 -0.2960
  183MPD1     H 2842   1.717   3.980   9.476 -0.1158  0.1408 -0.2059
  183MPD1    H1 2843   1.878   4.283   9.219  1.3786 -0.4744  0.6307
  183MPD1    H2 2844   1.976   3.880   9.144  1.5061  1.3920 -0.7110
  183MPD1    H3 2845   1.985   4.115   9.090 -0.0313 -0.2240 -0.1886
  183MPD1     N 2846   1.726   4.237   9.425 -0.2389  0.1500  0.0087
  183MPD1    H5 2847   1.670   4.199   9.501 -1.1560  0.3964 -0.5378
  183MPD1    N1 2848   1.829   3.779   9.355  0.7569 -0.7548  0.0028
  183MPD1    H6 2849   1.909   3.716   9.351  0.9521 -0.5233  0.3061
  183MPD1    H7 2850   1.766   3.763   9.433 -1.0868  1.5861 -1.0290
  184MPD1     C 2851   0.414   2.091  10.595 -0.5006  0.2786  0.2900
  184MPD1    C1 2852   0.305   2.177  10.595  0.3982  0.5396  0.8151
  184MPD1    C2 2853   0.289   2.272  10.500 -0.5340 -0.1992  0.9401
  184MPD1    C3 2854   0.378   2.274  10.397 -0.8393 -0.2501 -0.1830
  184MPD1    C4 2855   0.485   2.187  10.391  1.1262 -0.4349 -0.4123
  184MPD1    C5 2856   0.502   2.101  10.490  0.8398 -0.6814  0.2556
  184MPD1     H 2857   0.216   2.352  10.504  0.5204  0.8928 -2.0454
  184MPD1    H1 2858   0.561   2.209  10.316  1.4198  0.4036  0.1286
  184MPD1    H2 2859   0.438   2.014  10.668 -0.9379 -0.3734 -0.2670
  184MPD1    H3 2860   0.582   2.028  10.492  1.8649  0.4405  0.4246
  184MPD1     N 2861   0.399   2.380  10.307  0.0413 -0.0341  0.0075
  184MPD1    H5 2862   0.486   2.366  10.258 -0.4087 -0.5745 -0.6382
  184MPD1    N1 2863   0.227   2.179  10.711 -0.1640  0.3705 -0.0212
  184MPD1    H6 2864   0.132   2.207  10.687 -0.8337 -2.3432 -0.5256
  184MPD1    H7 2865   0.231   2.091  10.762  2.4917 -0.2398 -1.2503
  185MPD1     C 2866   4.517   2.903   9.724  0.4391 -0.6836  0.3882
  185MPD1    C1 2867   4.612   2.996   9.754 -0.3073  0.9265  0.1898
  185MPD1    C2 2868   4.728   2.949   9.818 -0.0586  0.2273 -0.5199
  185MPD1    C3 2869   4.735   2.824   9.884 -0.2576 -0.1789 -0.2399
  185MPD1    C4 2870   4.624   2.744   9.866  0.7872  0.0028 -1.0163
  185MPD1    C5 2871   4.523   2.780   9.778  0.1127  0.0815 -0.5125
  185MPD1     H 2872   0.065   3.022   9.821 -1.6888  1.9369  1.1397
  185MPD1    H1 2873   4.623   2.644   9.906  0.3954  0.6405  0.5591
  185MPD1    H2 2874   4.428   2.933   9.671  1.2847  1.1003 -0.0241
  185MPD1    H3 2875   4.437   2.715   9.764 -0.3651  0.2624  1.5653
  185MPD1     N 2876   0.100   2.768   9.959  0.4624  0.3981 -0.1699
  185MPD1    H5 2877   0.090   2.669   9.978  0.2733  0.4869  0.1818
  185MPD1    N1 2878   4.601   3.120   9.699  0.1284 -0.0979 -0.3537
  185MPD1    H6 2879   4.512   3.168   9.710  0.1520 -0.1835  0.2269
  185MPD1    H7 2880   4.650   3.188   9.757  1.1377 -0.8508 -0.3337
  186MPD1     C 2881   3.230   1.750  16.044  0.2493  0.2176 -0.1580
  186MPD1    C1 2882   3.243   1.858  15.962  0.0479 -0.4604  0.1133
  186MPD1    C2 2883   3.224   1.988  16.010  0.6457  0.0750 -0.3283
  186MPD1    C3 2884   3.191   2.008  16.144 -1.1863  0.4443 -0.7313
  186MPD1    C4 2885   3.169   1.898  16.227 -0.7008  0.2484  0.0360
  186MPD1    C5 2886   3.196   1.778  16.176 -0.1689 -0.0180 -0.3797
  186MPD1     H 2887   3.231   2.067  15.936  1.5595  1.9249  1.7147
  186MPD1    H1 2888   3.138   1.917  16.329 -1.7896 -0.7182 -0.1061
  186MPD1    H2 2889   3.255   1.652  16.006  2.7859  0.9844 -0.4742
  186MPD1    H3 2890   3.178   1.698  16.247 -0.7534  1.0069  0.6114
  186MPD1     N 2891   3.178   2.129  16.206 -0.0087 -0.0090 -0.4516
  186MPD1    H5 2892   3.141   2.125  16.300 -0.0755  1.2311 -0.4283
  186MPD1    N1 2893   3.258   1.842  15.827  0.2941 -0.4730  0.6586
  186MPD1    H6 2894   3.334   1.779  15.801  2.2789  1.2628  2.1714
  186MPD1    H7 2895   3.273   1.920  15.764 -1.5459  0.3131  1.1924
  187MPD1     C 2896   2.809   4.122   0.393  0.1299  0.4403 -0.2329
  187MPD1    C1 2897   2.731   4.006   0.361 -0.0647 -0.3895 -0.4267
  187MPD1    C2 2898   2.720   3.963   0.230 -0.2934  0.4361 -0.1434
  187MPD1    C3 2899   2.794   4.030   0.137 -0.8159  0.4228 -0.3781
  187MPD1    C4 2900   2.863   4.149   0.165 -0.3573 -0.0233  0.3044
  187MPD1    C5 2901   2.866   4.199   0.288 -0.9340  0.1199 -0.0958
  187MPD1     H 2902   2.656   3.879   0.207  1.7463 -1.1107 -0.1935
  187MPD1    H1 2903   2.927   4.187   0.086  0.9991 -2.0421  0.4445
  187MPD1    H2 2904   2.810   4.159   0.496  0.2700 -5.1050  1.7491
  187MPD1    H3 2905   2.930   4.285   0.300 -0.5044  0.0642 -1.9652
  187MPD1     N 2906   2.786   3.996  17.760  0.2098  0.2405  0.0837
  187MPD1    H5 2907   2.838   4.059  17.699 -0.5721  2.3731  1.6363
  187MPD1    N1 2908   2.647   3.953   0.458  1.2565 -0.1930  0.4539
  187MPD1    H6 2909   2.661   3.980   0.555 -2.3584 -0.0999  0.9644
  187MPD1    H7 2910   2.618   3.855   0.451 -0.5054  0.2886  0.9245
  188MPD1     C 2911   2.784   3.930   9.722  0.5368 -0.1429 -0.0680
  188MPD1    C1 2912   2.861   3.923   9.830 -0.5392 -0.1987 -0.5412
  188MPD1    C2 2913   2.829   3.837   9.933  0.2894  0.4708 -0.0542
  188MPD1    C3 2914   2.705   3.770   9.941  0.0868 -0.7470 -0.3999
  188MPD1    C4 2915   2.624   3.784   9.836 -0.4404 -0.2135 -0.2479
  188MPD1    C5 2916   2.668   3.855   9.724 -0.0337  0.0552 -0.3051
  188MPD1     H 2917   2.901   3.832  10.013  0.6805 -2.9447 -0.5984
  188MPD1    H1 2918   2.528   3.735   9.844 -0.8566  1.0597  2.4829
  188MPD1    H2 2919   2.781   4.018   9.659 -0.9596 -0.0024  0.2019
  188MPD1    H3 2920   2.590   3.873   9.651 -0.1321 -1.2052 -0.5039
  188MPD1     N 2921   2.666   3.687  10.048 -1.0093  0.2834  0.1765
  188MPD1    H5 2922   2.577   3.637  10.048  0.3313 -2.0691  0.1342
  188MPD1    N1 2923   2.984   3.985   9.826  0.4447 -0.0394  0.1264
  188MPD1    H6 2924   3.002   4.006   9.924 -1.2098 -0.8181  0.6073
  188MPD1    H7 2925   3.056   3.918   9.799  0.8796  1.4357 -2.4129
  189MPD1     C 2926   4.594   1.334  17.699  0.1613 -0.2675 -0.3067
  189MPD1    C1 2927   4.469   1.370  17.743 -0.6407 -0.1396 -0.2014
  189MPD1    C2 2928   4.402   1.281   0.052  0.1297 -0.1338 -0.6459
  189MPD1    C3 2929   4.440   1.148   0.064  0.0144 -0.8488  0.0794
  189MPD1    C4 2930   4.560   1.108   0.015  0.1052  0.0851 -0.0730
  189MPD1    C5 2931   4.639   1.203  17.719  0.7913  0.0654  0.7366
  189MPD1     H 2932   4.307   1.318   0.090  0.6027  0.0054  0.4179
  189MPD1    H1 2933   4.594   1.006   0.030  0.2870 -0.0915 -1.6597
  189MPD1    H2 2934   4.666   1.402  17.655 -0.3795  1.0615  0.8525
  189MPD1    H3 2935   4.740   1.180  17.687  0.1150 -0.4342 -1.0085
  189MPD1     N 2936   4.353   1.065   0.135 -0.1652  0.2041 -0.1979
  189MPD1    H5 2937   4.275   1.107   0.185 -0.9592 -0.2298 -1.0751
  189MPD1    N1 2938   4.451   1.501  17.755 -0.1348 -0.4570 -0.6482
  189MPD1    H6 2939   4.492   1.542  17.671 -0.1672  2.2072  0.6410
  189MPD1    H7 2940   4.354   1.529  17.744  0.1639  0.2058 -1.5847
  190MPD1     C 2941   2.646   2.887  15.840 -0.3706  0.6690  0.1916
  190MPD1    C1 2942   2.750   2.898  15.749 -0.2691 -0.1112  0.4210
  190MPD1    C2 2943   2.815   3.016  15.752 -0.4692  0.1405  0.8598
  190MPD1    C3 2944   2.783   3.125  15.832 -0.3285 -0.2035  0.3836
  190MPD1    C4 2945   2.668   3.118  15.911  0.6330 -0.8121 -0.1518
  190MPD1    C5 2946   2.608   2.993  15.921 -0.4642 -0.4300 -0.1544
  190MPD1     H 2947   2.890   3.034  15.676 -0.1910  2.2858  1.6428
  190MPD1    H1 2948   2.631   3.195  15.978 -0.6301 -1.2380 -0.3679
  190MPD1    H2 2949   2.599   2.791  15.854 -0.8893  0.8228 -0.4949
  190MPD1    H3 2950   2.531   2.987  15.997  0.9771  0.8397  1.4179
  190MPD1     N 2951   2.874   3.236  15.827 -0.2744  0.2705 -0.2532
  190MPD1    H5 2952   2.965   3.234  15.783  0.0243 -1.2592  0.4535
  190MPD1    N1 2953   2.769   2.798  15.648  0.5609  0.2620 -0.6103
  190MPD1    H6 2954   2.868   2.792  15.628  1.0903  0.7109  1.8141
  190MPD1    H7 2955   2.740   2.706  15.680 -0.4959  0.2253 -1.6512
  191MPD1     C 2956   2.692   0.429  12.564 -0.7745  0.0816 -0.7506
  191MPD1    C1 2957   2.796   0.385  12.491 -0.7709 -0.0570  0.5455
  191MPD1    C2 2958   2.832   0.459  12.381 -0.2906 -0.1810 -0.0275
  191MPD1    C3 2959   2.766   0.574  12.341  0.3990 -0.2778  0.0884
  191MPD1    C4 2960   2.679   0.626  12.430  1.0620  0.7299 -0.8013
  191MPD1    C5 2961   2.643   0.554  12.540 -0.0154  0.3285  0.1966
  191MPD1     H 2962   2.907   0.412  12.318 -2.6631 -2.2181 -1.3563
  191MPD1    H1 2963   2.641   0.726  12.411  0.1575  0.9474  2.1809
  191MPD1    H2 2964   2.653   0.369  12.645  2.4459 -0.7545  0.1609
  191MPD1    H3 2965   2.564   0.600  12.599  0.6615  0.2318  1.1852
  191MPD1     N 2966   2.806   0.638  12.227  0.3575  0.2051 -0.1418
  191MPD1    H5 2967   2.881   0.589  12.180  0.6275 -0.5378  1.0692
  191MPD1    N1 2968   2.851   0.256  12.504 -0.2677  0.0775  0.4410
  191MPD1    H6 2969   2.952   0.261  12.491 -0.5095  2.7556 -0.4525
  191MPD1    H7 2970   2.829   0.218  12.596 -0.2698 -0.9816 -0.0035
  192MPD1     C 2971   2.676   1.296  11.337 -0.4128  0.0478 -0.6173
  192MPD1    C1 2972   2.600   1.276  11.447  0.7012 -0.4005  0.1182
  192MPD1    C2 2973   2.643   1.194  11.550 -0.3772  0.0494 -0.4854
  192MPD1    C3 2974   2.770   1.147  11.549  0.3474 -0.3682 -0.3115
  192MPD1    C4 2975   2.857   1.175  11.445  0.7178 -0.4592 -0.1697
  192MPD1    C5 2976   2.806   1.246  11.333 -0.5961 -0.0427  0.4556
  192MPD1     H 2977   2.565   1.178  11.624  0.0857  1.7053  0.3557
  192MPD1    H1 2978   2.960   1.141  11.440  0.6532 -0.9544  2.0308
  192MPD1    H2 2979   2.638   1.350  11.251 -0.2109  3.3023  1.3260
  192MPD1    H3 2980   2.870   1.280  11.252  1.6682  0.0235  2.2522
  192MPD1     N 2981   2.822   1.051  11.645  0.5018 -0.6475  0.0942
  192MPD1    H5 2982   2.915   1.015  11.627  1.3474  1.1936  0.8047
  192MPD1    N1 2983   2.470   1.332  11.453  0.4653  0.0701  0.1961
  192MPD1    H6 2984   2.465   1.403  11.380  2.1889 -2.0063 -1.9477
  192MPD1    H7 2985   2.434   1.368  11.541  2.3470  1.2309  0.4883
  193MPD1     C 2986   1.185   1.137  16.269  0.2135  0.8849  0.3898
  193MPD1    C1 2987   1.286   1.044  16.265  0.5396  0.3739  0.3736
  193MPD1    C2 2988   1.419   1.089  16.245 -0.1923 -0.1396  0.2087
  193MPD1    C3 2989   1.454   1.220  16.231 -0.2761 -0.5525  0.3650
  193MPD1    C4 2990   1.354   1.310  16.241 -0.1096 -0.1369  0.3098
  193MPD1    C5 2991   1.222   1.270  16.263  0.5271 -0.1094 -0.2387
  193MPD1     H 2992   1.498   1.015  16.244  2.4594  2.7121 -0.7922
  193MPD1    H1 2993   1.376   1.415  16.232  0.0684 -0.1040  1.1748
  193MPD1    H2 2994   1.080   1.111  16.280  0.1119  1.5954  1.1088
  193MPD1    H3 2995   1.148   1.349  16.260 -1.4235 -1.9105  0.4725
  193MPD1     N 2996   1.589   1.271  16.214  0.4618 -0.0417  0.0494
  193MPD1    H5 2997   1.597   1.372  16.211 -2.6017  0.2693  1.4828
  193MPD1    N1 2998   1.261   0.905  16.268  0.4497  0.2348 -0.2612
  193MPD1    H6 2999   1.164   0.889  16.294  0.3685 -1.1768 -1.4449
  193MPD1    H7 3000   1.322   0.858  16.335 -0.5323 -2.1217 -1.0334
  194MPD1     C 3001   4.032   2.959  17.112  0.1725 -0.6025 -0.5136
  194MPD1    C1 3002   4.085   2.968  16.986 -0.0555 -0.1622  0.5490
  194MPD1    C2 3003   4.145   2.865  16.928 -0.1595 -0.2930 -0.4706
  194MPD1    C3 3004   4.136   2.740  16.993  0.3169 -0.3774 -0.2399
  194MPD1    C4 3005   4.086   2.724  17.118 -0.4027 -0.7723  0.1451
  194MPD1    C5 3006   4.031   2.834  17.170  0.0394  0.1820  0.2823
  194MPD1     H 3007   4.201   2.876  16.836 -3.0274  2.9456 -1.8302
  194MPD1    H1 3008   4.067   2.624  17.158  0.9992 -1.5752 -1.2261
  194MPD1    H2 3009   3.972   3.036  17.159  1.2026 -0.5984  0.7859
  194MPD1    H3 3010   3.987   2.820  17.268  0.7735 -0.1839  0.5641
  194MPD1     N 3011   4.175   2.620  16.937  0.3398  0.3710 -0.6314
  194MPD1    H5 3012   4.177   2.543  17.003 -0.6196  0.2167 -0.7789
  194MPD1    N1 3013   4.113   3.098  16.929  0.0946 -0.1389  0.0812
  194MPD1    H6 3014   4.098   3.093  16.828 -1.7741 -2.7203  0.4734
  194MPD1    H7 3015   4.053   3.172  16.965 -0.0913 -0.7528  1.0321
  195MPD1     C 3016   2.558   0.302   0.015 -0.1640  0.4265 -0.3571
  195MPD1    C1 3017   2.451   0.277   0.092  1.0268 -0.0975  0.1362
  195MPD1    C2 3018   2.433   0.141   0.137  0.3343  0.4556 -0.1193
  195MPD1    C3 3019   2.525   0.041   0.117 -0.0146 -0.0268 -0.3208
  195MPD1    C4 3020   2.642   0.075   0.054 -0.0712 -0.2569 -0.3763
  195MPD1    C5 3021   2.658   0.204   0.006  0.1935 -0.1522 -0.0197
  195MPD1     H 3022   2.333   0.120   0.172  0.0384  0.8542 -0.7065
  195MPD1    H1 3023   2.729   0.010   0.046  0.8201  0.8626  0.1953
  195MPD1    H2 3024   2.572   0.406  17.752  0.4324  0.8352  1.3760
  195MPD1    H3 3025   2.758   0.225  17.737 -0.3321 -0.9544 -1.9729
  195MPD1     N 3026   2.502   4.649   0.143  0.1029  0.0515 -0.2159
  195MPD1    H5 3027   2.577   4.585   0.118 -0.0682  0.2320 -1.1940
  195MPD1    N1 3028   2.356   0.384   0.126  0.3459  0.0125  0.5191
  195MPD1    H6 3029   2.261   0.355   0.148  0.2938 -0.8663 -0.8306
  195MPD1    H7 3030   2.343   0.449   0.049  0.4625 -0.0231  0.4697
  196MPD1     C 3031   1.139   3.735  17.405 -0.7446  0.4502 -0.0500
  196MPD1    C1 3032   1.055   3.670  17.488  0.6872  1.1011  0.2305
  196MPD1    C2 3033   1.076   3.690  17.622  0.6625  0.5444  0.4783
  196MPD1    C3 3034   1.182   3.767  17.670 -0.0287  0.3006  0.7004
  196MPD1    C4 3035   1.279   3.820  17.584 -0.3800  0.3729  0.5843
  196MPD1    C5 3036   1.243   3.810  17.453 -0.1616 -0.2130 -0.4372
  196MPD1     H 3037   1.001   3.653  17.691  1.3346  0.1221  0.9759
  196MPD1    H1 3038   1.366   3.881  17.606 -0.2964  0.1495  0.8648
  196MPD1    H2 3039   1.131   3.722  17.297 -1.5984 -0.0728  0.0738
  196MPD1    H3 3040   1.296   3.859  17.373  1.2948 -1.0309  0.0336
  196MPD1     N 3041   1.208   3.788   0.038  0.1724 -0.4741  0.0242
  196MPD1    H5 3042   1.276   3.861   0.053  0.2728 -0.8216  1.3282
  196MPD1    N1 3043   0.943   3.603  17.436  0.3151  0.0912 -0.3260
  196MPD1    H6 3044   0.900   3.540  17.503  0.3946  0.4498  0.0636
  196MPD1    H7 3045   0.985   3.535  17.373 -0.6031  1.1388 -2.0689
  197MPD1     C 3046   0.402   0.895  17.106 -0.0771  0.3710 -0.3472
  197MPD1    C1 3047   0.533   0.918  17.162  0.1424 -0.0657  0.2658
  197MPD1    C2 3048   0.613   0.998  17.082 -0.2684 -0.3775  0.2801
  197MPD1    C3 3049   0.580   1.040  16.954 -0.3260 -0.0783  0.3456
  197MPD1    C4 3050   0.457   1.010  16.907  0.1941  0.0783 -0.1627
  197MPD1    C5 3051   0.373   0.945  16.985  0.3599  0.2705 -0.0189
  197MPD1     H 3052   0.714   1.013  17.117  0.1111  1.0740 -1.4049
  197MPD1    H1 3053   0.431   1.036  16.805  1.1402 -0.7952 -0.6303
  197MPD1    H2 3054   0.323   0.838  17.153 -0.1182  0.3944 -0.3881
  197MPD1    H3 3055   0.279   0.916  16.940 -0.3128  0.3678  1.3092
  197MPD1     N 3056   0.662   1.125  16.878 -0.4904  0.6612 -0.1236
  197MPD1    H5 3057   0.634   1.141  16.781 -0.0573 -1.1800 -0.5511
  197MPD1    N1 3058   0.567   0.882  17.297  0.3594  0.6067  0.1143
  197MPD1    H6 3059   0.666   0.865  17.317  0.4511 -0.7265 -1.4932
  197MPD1    H7 3060   0.516   0.798  17.325  2.1587 -0.3233  0.6176
  198MPD1     C 3061   2.287   4.665  15.477  0.1087  0.0289  0.5632
  198MPD1    C1 3062   2.316   0.059  15.474 -0.4125 -0.2255 -0.8312
  198MPD1    C2 3063   2.421   0.099  15.557  0.2812 -0.1331  0.2872
  198MPD1    C3 3064   2.481   0.013  15.652  0.8592 -0.1617  0.1250
  198MPD1    C4 3065   2.441   4.629  15.654  0.4933  0.7181  0.4362
  198MPD1    C5 3066   2.350   4.581  15.567  0.6628 -0.3211  0.0987
  198MPD1     H 3067   2.468   0.195  15.539 -4.1118  1.7634 -1.2161
  198MPD1    H1 3068   2.476   4.556  15.726 -2.1839 -0.6099  0.3656
  198MPD1    H2 3069   2.218   4.627  15.402 -0.4931  0.6782  0.7910
  198MPD1    H3 3070   2.318   4.477  15.566  0.5566 -0.2998  0.8689
  198MPD1     N 3071   2.599   0.053  15.717 -0.3782  0.8165 -0.3281
  198MPD1    H5 3072   2.627   0.150  15.709  1.1120  0.4904  0.8573
  198MPD1    N1 3073   2.264   0.135  15.371 -0.0863  0.0233  0.1944
  198MPD1    H6 3074   2.244   0.232  15.396  3.2518  1.0512 -1.0780
  198MPD1    H7 3075   2.178   0.098  15.331 -0.9190  0.8771  1.1999
  199MPD1     C 3076   0.508   0.713  10.452  0.0588  0.7347 -0.2211
  199MPD1    C1 3077   0.604   0.810  10.416 -0.3824  0.1354 -0.6009
  199MPD1    C2 3078   0.581   0.900  10.316  0.7590  0.5557  0.3916
  199MPD1    C3 3079   0.455   0.902  10.263  0.4462  0.0253  0.6680
  199MPD1    C4 3080   0.367   0.804  10.301 -0.2612 -0.3280  0.2681
  199MPD1    C5 3081   0.394   0.709  10.388  0.3305 -0.2301  0.0757
  199MPD1     H 3082   0.668   0.958  10.286  0.5337  1.5415  1.6814
  199MPD1    H1 3083   0.274   0.792  10.247  0.4119  1.2752 -1.2313
  199MPD1    H2 3084   0.533   0.641  10.529  1.0505  1.8378  0.5008
  199MPD1    H3 3085   0.323   0.631  10.413 -0.6292  0.8717  0.7877
  199MPD1     N 3086   0.418   0.996  10.168 -0.2190  0.1182  0.6949
  199MPD1    H5 3087   0.326   0.988  10.127  0.6803 -2.6896 -0.7955
  199MPD1    N1 3088   0.735   0.803  10.469 -0.4555  0.3025  0.0027
  199MPD1    H6 3089   0.792   0.885  10.451  1.1579 -0.9606 -0.6134
  199MPD1    H7 3090   0.744   0.789  10.570 -2.7924 -0.7752  0.0577
  200MPD1     C 3091   3.689   0.739  14.684  0.3473 -0.1320 -0.6779
  200MPD1    C1 3092   3.701   0.770  14.547 -0.4174 -0.5971 -0.1355
  200MPD1    C2 3093   3.828   0.786  14.496 -0.9752  0.0876 -0.1823
  200MPD1    C3 3094   3.939   0.738  14.564  0.0410  0.3741 -0.1751
  200MPD1    C4 3095   3.926   0.698  14.694  1.3438  0.1948 -0.1743
  200MPD1    C5 3096   3.801   0.710  14.753  0.5273  0.0707  0.1536
  200MPD1     H 3097   3.847   0.822  14.395 -0.3273  0.8402  0.2035
  200MPD1    H1 3098   3.991   0.649  14.766 -1.4846  0.2686  2.4443
  200MPD1    H2 3099   3.592   0.739  14.733  0.0920 -2.6175 -1.1993
  200MPD1    H3 3100   3.786   0.683  14.857  1.2027 -0.2054  0.1780
  200MPD1     N 3101   4.065   0.749  14.493 -0.2117 -0.2636 -0.1187
  200MPD1    H5 3102   4.069   0.793  14.402 -0.7342  1.3463  0.6404
  200MPD1    N1 3103   3.594   0.836  14.489  0.2471  0.0445  0.2266
  200MPD1    H6 3104   3.506   0.793  14.519  0.2133  0.2474  0.4100
  200MPD1    H7 3105   3.599   0.833  14.387 -0.5800 -1.1797  0.2129
  201MPD1     C 3106   1.987   3.724  13.083  0.4072 -0.4513 -0.5430
  201MPD1    C1 3107   1.997   3.605  13.157 -0.1470  0.9331 -0.0982
  201MPD1    C2 3108   2.036   3.612  13.286 -0.1880 -0.1203 -0.1006
  201MPD1    C3 3109   2.043   3.736  13.343  0.4596  0.2015  0.6723
  201MPD1    C4 3110   2.037   3.853  13.264 -0.0629  1.1382  0.2660
  201MPD1    C5 3111   2.010   3.850  13.132 -0.3430 -0.3274 -0.1217
  201MPD1     H 3112   2.038   3.518  13.341  3.3601 -0.0714 -0.1600
  201MPD1    H1 3113   2.051   3.953  13.304  0.3625  0.9808  0.5169
  201MPD1    H2 3114   1.983   3.699  12.977  2.8673 -1.3075 -0.4272
  201MPD1    H3 3115   2.015   3.937  13.069 -1.6482 -0.0730  0.1309
  201MPD1     N 3116   2.069   3.739  13.482 -0.1088  0.8154 -0.5758
  201MPD1    H5 3117   2.081   3.655  13.537 -0.9412  2.2312  1.7591
  201MPD1    N1 3118   2.011   3.481  13.094  0.0013 -0.0643  0.3639
  201MPD1    H6 3119   1.973   3.402  13.145 -0.7380 -0.4786 -0.8236
  201MPD1    H7 3120   1.972   3.490  13.000 -1.7343 -1.0174  0.9830
  202MPD1     C 3121   1.696   3.293   9.230 -0.4827 -0.0347  0.0040
  202MPD1    C1 3122   1.656   3.418   9.266 -0.0918  0.8151 -0.7545
  202MPD1    C2 3123   1.654   3.439   9.404 -0.3296  0.0828 -0.6097
  202MPD1    C3 3124   1.629   3.332   9.488 -0.5844  0.0583 -0.0647
  202MPD1    C4 3125   1.648   3.201   9.441 -0.1560 -0.6966  0.5336
  202MPD1    C5 3126   1.698   3.183   9.320 -0.1532 -0.4668  0.4395
  202MPD1     H 3127   1.640   3.544   9.423  0.3016  0.3291 -1.5283
  202MPD1    H1 3128   1.623   3.115   9.503 -1.1399 -2.3760 -2.2345
  202MPD1    H2 3129   1.698   3.261   9.127  0.2563  1.5385 -0.4715
  202MPD1    H3 3130   1.727   3.088   9.278 -0.2114  0.0150 -0.7030
  202MPD1     N 3131   1.597   3.343   9.626  0.2448 -0.7788  0.3595
  202MPD1    H5 3132   1.566   3.259   9.674 -0.0806 -0.6904  0.3010
  202MPD1    N1 3133   1.684   3.530   9.182 -0.3594  0.1682 -0.2747
  202MPD1    H6 3134   1.661   3.511   9.084 -1.4686  2.6686 -0.4954
  202MPD1    H7 3135   1.632   3.612   9.211 -0.4149 -0.0034  0.1112
  203MPD1     C 3136   0.207   0.230  12.703  0.0813 -0.2089 -0.8075
  203MPD1    C1 3137   0.282   0.170  12.605  0.2538  0.5332  0.1687
  203MPD1    C2 3138   0.344   0.053  12.639  0.3762  0.2582 -0.0682
  203MPD1    C3 3139   0.309   4.727  12.750  0.4900 -0.1395 -0.5942
  203MPD1    C4 3140   0.222   0.032  12.836  0.2098 -0.3824  0.2255
  203MPD1    C5 3141   0.170   0.162  12.814  0.2282  0.3021  0.0024
  203MPD1     H 3142   0.415   0.013  12.567 -2.1390  0.1030 -2.4288
  203MPD1    H1 3143   0.193   4.722  12.926  0.3457 -1.1545 -0.1801
  203MPD1    H2 3144   0.159   0.327  12.710 -1.2113 -0.7398 -2.2726
  203MPD1    H3 3145   0.110   0.206  12.893  0.1261 -1.3071  0.8326
  203MPD1     N 3146   0.386   4.612  12.786  0.6140  0.2016 -0.0251
  203MPD1    H5 3147   0.417   4.554  12.709 -2.0433  0.0447 -0.9801
  203MPD1    N1 3148   0.328   0.241  12.492  0.8631 -0.3751 -0.1409
  203MPD1    H6 3149   0.348   0.186  12.408 -2.3525  0.6005 -1.5522
  203MPD1    H7 3150   0.269   0.318  12.461  2.7065  1.0495 -0.1049
  204MPD1     C 3151   3.697   1.987  16.959 -0.6394 -0.1108 -1.1772
  204MPD1    C1 3152   3.695   1.872  16.886  0.2296 -0.1205 -0.3141
  204MPD1    C2 3153   3.788   1.776  16.917 -0.1958 -0.0549  1.2289
  204MPD1    C3 3154   3.873   1.790  17.026 -0.1836  0.6673 -0.0236
  204MPD1    C4 3155   3.861   1.900  17.100  0.1779  0.2271 -0.2111
  204MPD1    C5 3156   3.777   2.001  17.066 -0.2723  1.1187  0.3965
  204MPD1     H 3157   3.794   1.695  16.844  0.3251 -1.2704  2.6124
  204MPD1    H1 3158   3.932   1.905  17.182 -0.3332  0.8577  0.1949
  204MPD1    H2 3159   3.630   2.071  16.943 -1.5743 -0.9300 -1.5815
  204MPD1    H3 3160   3.789   2.090  17.127  2.6055  1.2310 -0.3480
  204MPD1     N 3161   3.986   1.707  17.028  0.1125 -0.5675 -0.0882
  204MPD1    H5 3162   4.004   1.657  16.941  1.2464  0.9086 -0.7032
  204MPD1    N1 3163   3.623   1.866  16.770 -0.5881  0.3044  0.5991
  204MPD1    H6 3164   3.539   1.925  16.766  1.8269  3.8425  1.7553
  204MPD1    H7 3165   3.585   1.772  16.761  4.4756 -1.6616  0.2407
  205MPD1     C 3166   4.148   0.071   0.178 -0.2879 -0.1077 -0.1579
  205MPD1    C1 3167   4.287   0.076   0.178  0.9760 -0.1449  0.1193
  205MPD1    C2 3168   4.348   0.183   0.130 -0.4440 -0.3818  0.4562
  205MPD1    C3 3169   4.272   0.281   0.054  0.2140  0.2839  0.5903
  205MPD1    C4 3170   4.134   0.273   0.044  0.8736  0.0003 -0.1473
  205MPD1    C5 3171   4.072   0.166   0.108  0.4111  0.3205 -0.1371
  205MPD1     H 3172   4.455   0.194   0.142 -0.7535  1.4638  1.3810
  205MPD1    H1 3173   4.081   0.346  17.749  0.6298  0.2854  0.4027
  205MPD1    H2 3174   4.103   4.724   0.221 -0.8114 -0.9304 -2.4134
  205MPD1    H3 3175   3.965   0.155   0.091 -0.0452  0.7309  2.3651
  205MPD1     N 3176   4.333   0.398   0.003  0.4777 -0.1923  0.1455
  205MPD1    H5 3177   4.260   0.453  17.723  0.5158  0.2322  0.5892
  205MPD1    N1 3178   4.352   4.720   0.259  0.3108 -0.0732  0.1831
  205MPD1    H6 3179   4.302   4.631   0.263 -1.1670  0.7638  0.4245
  205MPD1    H7 3180   4.450   4.702   0.238 -0.1030 -0.8903 -1.0584
  206MPD1     C 3181   4.640   2.585  17.309  0.0978  0.5342 -0.1703
  206MPD1    C1 3182   4.558   2.692  17.283  0.5703  0.1520 -0.4770
  206MPD1    C2 3183   4.547   2.741  17.153 -0.0899  0.6081 -0.3416
  206MPD1    C3 3184   4.616   2.679  17.044 -0.0570  0.0784 -0.6125
  206MPD1    C4 3185   4.687   2.561  17.067  0.5056  0.0097  0.3196
  206MPD1    C5 3186   4.704   2.528  17.201 -0.1516  0.1785 -0.0595
  206MPD1     H 3187   4.467   2.814  17.140  1.5870  2.5009 -0.0203
  206MPD1    H1 3188   4.741   2.507  16.990  0.0115  0.2061 -0.1594
  206MPD1    H2 3189   4.658   2.542  17.406 -0.1668 -0.6022 -0.6194
  206MPD1    H3 3190   0.023   2.439  17.209  1.0792  1.1124  1.0196
  206MPD1     N 3191   4.618   2.731  16.911 -0.2136  0.0482 -0.4758
  206MPD1    H5 3192   4.668   2.668  16.849 -1.5704 -1.2534 -0.2510
  206MPD1    N1 3193   4.477   2.743  17.394  0.2701 -0.3841 -0.1836
  206MPD1    H6 3194   4.530   2.729  17.479  0.2035  0.1114 -0.0615
  206MPD1    H7 3195   4.446   2.838  17.379  0.8944 -0.3550 -1.3118
  207MPD1     C 3196   3.596   4.654   9.429 -0.0934 -0.0304  0.4719
  207MPD1    C1 3197   3.677   0.019   9.398  0.5285 -0.0910 -0.4527
  207MPD1    C2 3198   3.695   0.126   9.485  0.5104 -0.3172  0.9007
  207MPD1    C3 3199   3.647   0.112   9.616  0.4203  0.3082 -0.1129
  207MPD1    C4 3200   3.586   4.738   9.654  0.2062 -0.1292  0.3934
  207MPD1    C5 3201   3.556   4.645   9.559  0.2522  0.4028  0.1277
  207MPD1     H 3202   3.751   0.214   9.456  0.3292 -0.4158  0.2565
  207MPD1    H1 3203   3.542   4.720   9.752  0.7571  0.1820  0.6994
  207MPD1    H2 3204   3.594   4.568   9.363  1.2949 -0.0464  0.4549
  207MPD1    H3 3205   3.512   4.554   9.596  1.5661 -0.9592 -1.6662
  207MPD1     N 3206   3.654   0.209   9.720  0.0429  0.1944  0.1039
  207MPD1    H5 3207   3.611   0.189   9.809 -0.6869  0.5813 -0.1631
  207MPD1    N1 3208   3.705   0.043   9.263  0.5339  0.3146  0.1357
  207MPD1    H6 3209   3.782   0.108   9.253 -1.0076  2.0865 -0.2518
  207MPD1    H7 3210   3.714   4.707   9.198 -1.2015  1.1711 -1.1449
  208MPD1     C 3211   4.725   3.788  17.013 -0.4499  0.1120 -0.1630
  208MPD1    C1 3212   4.705   3.913  16.948  0.2593  0.1275 -0.3545
  208MPD1    C2 3213   0.002   4.023  17.022 -0.2446  0.4789  0.4408
  208MPD1    C3 3214   0.066   4.017  17.148  0.2411  0.3483  0.4124
  208MPD1    C4 3215   0.093   3.893  17.198 -0.0573  0.0368  0.4713
  208MPD1    C5 3216   0.046   3.780  17.134  0.8413  0.6212 -0.1969
  208MPD1     H 3217   4.717   4.122  16.988  1.7926  1.6410  2.2417
  208MPD1    H1 3218   0.133   3.877  17.297 -2.4575  0.4462  1.4917
  208MPD1    H2 3219   4.699   3.692  16.969  1.9495 -0.6742  0.1349
  208MPD1    H3 3220   0.069   3.681  17.172  2.0551  1.1842  0.5135
  208MPD1     N 3221   0.086   4.132  17.226 -0.3675 -0.0228 -0.2552
  208MPD1    H5 3222   0.037   4.210  17.185  1.9389  0.1363 -2.7381
  208MPD1    N1 3223   4.633   3.933  16.826 -0.2700 -0.0336 -0.7563
  208MPD1    H6 3224   4.693   4.000  16.779  0.7122  1.3335  2.4040
  208MPD1    H7 3225   4.601   3.855  16.769 -0.3211  0.1334 -0.9551
  209MPD1     C 3226   3.324   0.288  11.415 -0.3956  0.3855  0.2911
  209MPD1    C1 3227   3.315   0.375  11.305 -0.5549 -0.7378  0.5366
  209MPD1    C2 3228   3.428   0.374  11.220  0.4577  0.6165 -0.3573
  209MPD1    C3 3229   3.528   0.277  11.237 -0.0537 -0.2928 -0.0817
  209MPD1    C4 3230   3.530   0.202  11.354  0.4054  0.5875  0.3285
  209MPD1    C5 3231   3.423   0.200  11.439 -0.4481  0.3628  0.0465
  209MPD1     H 3232   3.434   0.442  11.136 -1.8018 -0.9796 -1.8036
  209MPD1    H1 3233   3.617   0.147  11.388  0.9989  0.2730 -1.6944
  209MPD1    H2 3234   3.253   0.291  11.497 -0.6431 -0.8659  0.1192
  209MPD1    H3 3235   3.438   0.157  11.537  1.0314 -0.2486 -0.4368
  209MPD1     N 3236   3.640   0.268  11.146  0.7300 -0.3021  0.0782
  209MPD1    H5 3237   3.631   0.319  11.059 -1.1739 -0.9025 -0.0900
  209MPD1    N1 3238   3.212   0.474  11.285 -0.0939  0.4174  0.6771
  209MPD1    H6 3239   3.127   0.462  11.339 -1.6772  0.1400 -1.8620
  209MPD1    H7 3240   3.183   0.468  11.187  1.6567 -0.1417  0.1813
  210MPD1     C 3241   4.712   0.208  11.083 -0.0833 -0.0181 -0.6239
  210MPD1    C1 3242   4.623   0.231  11.186 -0.2747  0.2406  0.3264
  210MPD1    C2 3243   4.489   0.254  11.150 -0.1429 -0.0618 -0.0466
  210MPD1    C3 3244   4.445   0.247  11.020 -0.6205  0.2126 -0.0377
  210MPD1    C4 3245   4.541   0.239  10.922  0.3637 -0.0410 -0.3794
  210MPD1    C5 3246   4.676   0.225  10.951 -1.1780  0.0923 -0.6345
  210MPD1     H 3247   4.429   0.267  11.240  0.6827 -0.5710  0.5828
  210MPD1    H1 3248   4.513   0.245  10.817 -3.4053 -2.4798  0.4710
  210MPD1    H2 3249   0.076   0.189  11.095 -0.9446 -3.6359  1.2517
  210MPD1    H3 3250   0.001   0.208  10.868 -2.1482  1.7575 -1.7486
  210MPD1     N 3251   4.307   0.258  10.982  0.3376  0.6314 -0.4422
  210MPD1    H5 3252   4.283   0.256  10.883 -1.4899 -1.4512  0.0370
  210MPD1    N1 3253   4.667   0.219  11.323 -0.2450  0.4971  0.0689
  210MPD1    H6 3254   4.611   0.277  11.385  1.2066 -0.7351  2.5252
  210MPD1    H7 3255   0.025   0.220  11.341 -0.1771  1.6594 -0.3742
  211MPD1     C 3256   0.722   0.234  16.835  0.5522 -0.0813  0.2706
  211MPD1    C1 3257   0.693   0.301  16.718 -0.5172 -0.7591 -0.9137
  211MPD1    C2 3258   0.559   0.319  16.684  0.4508 -0.3071  0.1422
  211MPD1    C3 3259   0.458   0.264  16.758  0.7685  0.7724  0.0149
  211MPD1    C4 3260   0.489   0.195  16.869 -0.3436 -0.1260  0.0759
  211MPD1    C5 3261   0.619   0.183  16.907 -0.4172  0.4116  0.3510
  211MPD1     H 3262   0.539   0.378  16.595 -0.6930  0.5290  0.9484
  211MPD1    H1 3263   0.407   0.156  16.929  0.5821  1.7546  2.5510
  211MPD1    H2 3264   0.823   0.208  16.863  0.1761  0.2813  1.9685
  211MPD1    H3 3265   0.639   0.123  16.995 -0.7320 -0.8789 -0.4581
  211MPD1     N 3266   0.325   0.276  16.703  0.4353  0.1206 -0.2368
  211MPD1    H5 3267   0.320   0.335  16.621 -1.8535  0.4559  0.1241
  211MPD1    N1 3268   0.797   0.366  16.646 -0.5129  0.1455  0.5302
  211MPD1    H6 3269   0.767   0.358  16.549 -1.5033 -1.9007  0.9913
  211MPD1    H7 3270   0.892   0.329  16.653 -0.1517  1.9510  4.7579
  212MPD1     C 3271   4.021   3.283  16.568  0.6671 -0.5735  0.5010
  212MPD1    C1 3272   3.929   3.316  16.673  0.1360  0.8558 -0.2894
  212MPD1    C2 3273   3.855   3.209  16.727  0.3205 -0.6726 -0.1222
  212MPD1    C3 3274   3.882   3.075  16.705  0.3704 -0.3466  0.1104
  212MPD1    C4 3275   3.977   3.048  16.609 -0.3309 -0.0681  0.1051
  212MPD1    C5 3276   4.048   3.149  16.540  0.2136 -0.1888  0.5184
  212MPD1     H 3277   3.771   3.234  16.791  0.5110 -0.3929  0.0198
  212MPD1    H1 3278   3.999   2.946  16.580  0.4545  0.3714 -0.8205
  212MPD1    H2 3279   4.068   3.361  16.510 -0.2065 -2.0916 -2.2969
  212MPD1    H3 3280   4.125   3.127  16.468 -0.9518  1.7734 -1.3336
  212MPD1     N 3281   3.815   2.966  16.768 -0.6314  0.2086  0.2083
  212MPD1    H5 3282   3.841   2.872  16.739  4.8492  1.6617  0.4163
  212MPD1    N1 3283   3.898   3.451  16.698  0.6236 -0.1133 -0.0483
  212MPD1    H6 3284   3.975   3.513  16.674  0.6500 -0.2502 -0.3064
  212MPD1    H7 3285   3.882   3.460  16.798 -2.7585 -1.0996 -0.5273
  213MPD1     C 3286   2.483   3.208  15.630  0.5410  0.4446 -0.5484
  213MPD1    C1 3287   2.554   3.327  15.620  0.4248 -0.3946 -0.2078
  213MPD1    C2 3288   2.492   3.408  15.529 -0.1967  0.0930  0.4794
  213MPD1    C3 3289   2.403   3.363  15.430 -0.2220 -0.5273  0.6349
  213MPD1    C4 3290   2.371   3.231  15.418 -0.3435 -0.2068 -0.5715
  213MPD1    C5 3291   2.400   3.165  15.530 -0.1414  0.0917 -0.5485
  213MPD1     H 3292   2.507   3.515  15.530  0.3747  0.0301 -1.0055
  213MPD1    H1 3293   2.316   3.191  15.333  1.1228 -4.1813  0.3415
  213MPD1    H2 3294   2.504   3.144  15.715  1.1769 -1.7472 -2.3606
  213MPD1    H3 3295   2.368   3.063  15.544  2.5071 -0.5039  0.9631
  213MPD1     N 3296   2.355   3.462  15.345 -0.4508 -0.0138  0.6184
  213MPD1    H5 3297   2.385   3.555  15.372  1.6453 -1.3678  2.9300
  213MPD1    N1 3298   2.622   3.381  15.736 -0.4006  0.5309 -0.3817
  213MPD1    H6 3299   2.670   3.306  15.786  0.7721  1.3703 -0.2663
  213MPD1    H7 3300   2.691   3.449  15.705 -0.6387  0.1837 -1.6755
  214MPD1     C 3301   1.451   3.546  15.090 -0.3995  0.2035  0.3849
  214MPD1    C1 3302   1.488   3.675  15.065  0.0104 -0.0939  0.7246
  214MPD1    C2 3303   1.621   3.715  15.087  0.0778 -0.2950  0.3062
  214MPD1    C3 3304   1.714   3.622  15.130  0.0083 -0.0845 -0.0319
  214MPD1    C4 3305   1.671   3.492  15.162  0.0069  0.1300 -0.2726
  214MPD1    C5 3306   1.546   3.460  15.131 -0.4763 -0.5725 -0.1310
  214MPD1     H 3307   1.644   3.819  15.067 -0.8078  0.3946  2.9007
  214MPD1    H1 3308   1.727   3.417  15.216 -1.4361 -1.6743 -1.2967
  214MPD1    H2 3309   1.355   3.499  15.073 -0.0182 -0.7426  0.8809
  214MPD1    H3 3310   1.518   3.360  15.163 -1.6172 -0.3242 -0.3553
  214MPD1     N 3311   1.854   3.644  15.147 -0.7376  0.3539  0.1188
  214MPD1    H5 3312   1.903   3.559  15.172 -1.3348 -0.8010 -2.5951
  214MPD1    N1 3313   1.383   3.762  15.029 -0.3111  0.6476  0.2453
  214MPD1    H6 3314   1.415   3.839  14.969  1.0109  0.3874  0.6196
  214MPD1    H7 3315   1.318   3.713  14.968  3.4508 -1.4003 -2.1516
  215MPD1     C 3316   3.159   3.720  10.454 -0.0681  0.1809 -0.5818
  215MPD1    C1 3317   3.094   3.840  10.431 -0.5764 -0.6535  0.3612
  215MPD1    C2 3318   3.120   3.949  10.518 -0.1571 -0.0424  0.2500
  215MPD1    C3 3319   3.219   3.943  10.617  0.3339  0.5272  0.4039
  215MPD1    C4 3320   3.287   3.822  10.637  0.3756 -0.1952 -0.6145
  215MPD1    C5 3321   3.243   3.713  10.561 -0.1939  0.1855  0.7884
  215MPD1     H 3322   3.077   4.046  10.497  2.1403  1.1734  1.1979
  215MPD1    H1 3323   3.363   3.816  10.714 -0.3392 -1.0970  0.0169
  215MPD1    H2 3324   3.139   3.641  10.384  1.0755 -1.4308  0.9074
  215MPD1    H3 3325   3.285   3.615  10.582 -0.9802 -0.0434  1.3027
  215MPD1     N 3326   3.256   4.074  10.681  0.0283 -0.5911 -0.1116
  215MPD1    H5 3327   3.205   4.153  10.642 -0.7351 -1.7494 -1.4656
  215MPD1    N1 3328   3.029   3.868  10.314 -0.3466 -0.3421 -0.8220
  215MPD1    H6 3329   2.992   3.783  10.273  0.5533 -0.4147 -1.4774
  215MPD1    H7 3330   2.957   3.936  10.334 -0.0381  0.3441 -2.0395
  216MPD1     C 3331   3.010   2.358   0.441 -0.6092  0.0847 -0.4963
  216MPD1    C1 3332   3.077   2.469   0.404 -0.2621  0.6900  0.2076
  216MPD1    C2 3333   3.145   2.476   0.286 -0.1081 -0.1000  0.5123
  216MPD1    C3 3334   3.127   2.381   0.190 -0.3339 -1.0986 -0.1331
  216MPD1    C4 3335   3.059   2.267   0.232 -0.7069  0.7362 -0.3404
  216MPD1    C5 3336   3.005   2.250   0.354 -0.1506  0.3913  0.1945
  216MPD1     H 3337   3.226   2.548   0.284 -0.6317  0.5198  1.7027
  216MPD1    H1 3338   3.054   2.182   0.164  2.7008  0.0964  0.1930
  216MPD1    H2 3339   2.962   2.353   0.538 -1.3517 -0.9119 -0.9109
  216MPD1    H3 3340   2.949   2.161   0.379  0.1835 -0.0069 -0.4950
  216MPD1     N 3341   3.197   2.386   0.074  0.0333 -0.6858 -0.3861
  216MPD1    H5 3342   3.273   2.454   0.072  0.2990 -0.9048  2.5958
  216MPD1    N1 3343   3.089   2.565   0.505 -0.2877 -0.6890 -0.4534
  216MPD1    H6 3344   3.005   2.595   0.553 -1.5880  0.3995 -3.4481
  216MPD1    H7 3345   3.124   2.654   0.470 -1.1859  0.0990  0.6485
  217MPD1     C 3346   1.743   3.995   8.718 -0.2023  0.1816 -0.8826
  217MPD1    C1 3347   1.622   4.058   8.691  0.0238 -0.4919  0.3451
  217MPD1    C2 3348   1.523   4.036   8.785  0.3890 -0.7359 -0.0299
  217MPD1    C3 3349   1.539   3.963   8.898 -0.1668 -0.8935 -0.5256
  217MPD1    C4 3350   1.669   3.916   8.926  0.4861 -0.4726  0.2456
  217MPD1    C5 3351   1.765   3.928   8.838  0.4230  0.4757  0.4133
  217MPD1     H 3352   1.426   4.078   8.764 -0.4449 -1.5044  2.3471
  217MPD1    H1 3353   1.683   3.856   9.016  0.2815 -1.2586 -0.2446
  217MPD1    H2 3354   1.829   4.008   8.653  1.7105 -1.3245  1.3605
  217MPD1    H3 3355   1.864   3.897   8.869  0.0660 -0.7878  0.3195
  217MPD1     N 3356   1.444   3.943   9.004  0.1280  0.0618 -0.1305
  217MPD1    H5 3357   1.479   3.907   9.092 -0.7219 -0.0242  0.1676
  217MPD1    N1 3358   1.610   4.128   8.570  0.0078 -0.1759 -0.6953
  217MPD1    H6 3359   1.691   4.181   8.538  1.0966 -0.4715  1.6403
  217MPD1    H7 3360   1.536   4.198   8.571 -1.4163 -1.7579  3.7189
  218MPD1     C 3361   2.242   0.782  12.431 -0.2899 -0.2321 -0.2006
  218MPD1    C1 3362   2.307   0.744  12.315 -0.0446 -0.4692 -0.5623
  218MPD1    C2 3363   2.332   0.606  12.304 -0.2794  0.0018  0.1393
  218MPD1    C3 3364   2.315   0.514  12.402 -0.3839 -0.1697 -0.1008
  218MPD1    C4 3365   2.254   0.557  12.516 -0.2948  0.6516 -0.0516
  218MPD1    C5 3366   2.212   0.692  12.528  0.6968 -0.0383 -0.1901
  218MPD1     H 3367   2.360   0.577  12.204 -0.5437  1.6322 -0.4039
  218MPD1    H1 3368   2.238   0.495  12.603  0.3992  0.1082 -0.3044
  218MPD1    H2 3369   2.222   0.886  12.450  0.7648 -0.0285 -0.2158
  218MPD1    H3 3370   2.167   0.718  12.623 -1.3559  0.3668 -1.2624
  218MPD1     N 3371   2.366   0.376  12.380  0.2118  0.4493 -0.6052
  218MPD1    H5 3372   2.412   0.363  12.290  4.8546 -0.9770  1.9825
  218MPD1    N1 3373   2.352   0.844  12.226  1.3538  0.5514  0.2690
  218MPD1    H6 3374   2.378   0.809  12.134 -0.1920 -1.0831  0.4599
  218MPD1    H7 3375   2.303   0.933  12.217 -1.1132 -0.9224 -0.6944
  219MPD1     C 3376   3.226   0.130  12.029  0.0447 -0.2171 -0.1919
  219MPD1    C1 3377   3.107   0.084  11.973 -0.1682  0.0832  0.0989
  219MPD1    C2 3378   2.989   0.067  12.045  0.4225 -0.3741  0.2386
  219MPD1    C3 3379   2.995   0.086  12.182 -0.2405  0.2579 -0.1731
  219MPD1    C4 3380   3.105   0.137  12.237  0.1763  0.4151  0.0191
  219MPD1    C5 3381   3.222   0.164  12.163  0.3416  0.8303  0.2808
  219MPD1     H 3382   2.897   0.035  11.997  0.9458 -1.7593  0.1403
  219MPD1    H1 3383   3.108   0.158  12.344 -1.3495  0.4510  0.0563
  219MPD1    H2 3384   3.317   0.143  11.973  1.1603 -1.1869  1.4130
  219MPD1    H3 3385   3.301   0.205  12.225 -0.2798 -0.6530  2.0499
  219MPD1     N 3386   2.877   0.080  12.261 -0.2709  0.3409 -0.0918
  219MPD1    H5 3387   2.894   0.080  12.361 -1.0538  2.0492  0.0481
  219MPD1    N1 3388   3.105   0.077  11.833  0.1734 -0.0329 -0.0256
  219MPD1    H6 3389   3.199   0.088  11.795 -0.1960 -0.7307 -1.1361
  219MPD1    H7 3390   3.058   4.736  11.798  0.5310 -0.4198  0.4100
  220MPD1     C 3391   2.795   0.050   9.245  0.0556 -0.3076  0.4571
  220MPD1    C1 3392   2.831   0.145   9.338 -0.0204  0.3106  0.3963
  220MPD1    C2 3393   2.789   0.125   9.462 -0.4660 -0.5235  0.3134
  220MPD1    C3 3394   2.732   0.008   9.502  0.0323 -0.0995  0.3535
  220MPD1    C4 3395   2.695   4.649   9.408 -0.0161 -0.0863 -0.4331
  220MPD1    C5 3396   2.723   4.677   9.282  0.0725  0.8865 -0.0877
  220MPD1     H 3397   2.819   0.201   9.534 -1.1372 -1.1938  1.3047
  220MPD1    H1 3398   2.641   4.558   9.430 -1.9485  1.4806  1.3192
  220MPD1    H2 3399   2.816   0.064   9.139 -1.1523 -0.9809  0.1318
  220MPD1    H3 3400   2.702   4.596   9.213 -1.5751 -1.3509  3.0618
  220MPD1     N 3401   2.709   4.736   9.638  0.4433  0.0547 -0.2080
  220MPD1    H5 3402   2.732   0.070   9.700  2.6694  0.5115 -1.5773
  220MPD1    N1 3403   2.879   0.264   9.299  0.1946  0.3121 -0.2091
  220MPD1    H6 3404   2.912   0.265   9.202  0.5918 -1.4046 -0.0933
  220MPD1    H7 3405   2.960   0.296   9.352 -0.5312 -2.5841  2.6060
  221MPD1     C 3406   3.853   4.536  16.001  0.4537 -0.5205 -0.2321
  221MPD1    C1 3407   3.884   4.451  15.898  0.3356 -0.3116  0.9769
  221MPD1    C2 3408   3.969   4.350  15.915  0.2586  0.0796  0.1243
  221MPD1    C3 3409   4.024   4.331  16.037 -0.2659 -0.6456 -0.2938
  221MPD1    C4 3410   3.984   4.403  16.142  0.4601 -0.1022 -0.9572
  221MPD1    C5 3411   3.897   4.505  16.124 -0.5007  0.8850 -0.1135
  221MPD1     H 3412   4.009   4.284  15.839  1.1476 -0.5099  1.0871
  221MPD1    H1 3413   4.030   4.391  16.240 -2.1791  2.2066  0.5743
  221MPD1    H2 3414   3.782   4.616  15.985  0.8360  0.0260  0.8153
  221MPD1    H3 3415   3.872   4.570  16.207 -0.5507 -0.0083  0.5645
  221MPD1     N 3416   4.135   4.251  16.060  0.2208  0.6535 -0.2742
  221MPD1    H5 3417   4.179   4.266  16.150 -3.5697 -1.5692  1.9708
  221MPD1    N1 3418   3.842   4.480  15.767 -0.3967  0.2881 -0.3504
  221MPD1    H6 3419   3.762   4.542  15.768 -1.6547 -1.3339 -0.4843
  221MPD1    H7 3420   3.817   4.394  15.718  1.2034 -0.7268  0.5951
  222MPD1     C 3421   0.270   3.302   0.217  0.3833 -0.1874  1.2815
  222MPD1    C1 3422   0.263   3.374   0.335 -0.4577  0.1127  0.2999
  222MPD1    C2 3423   0.233   3.510   0.328  0.6398 -0.5966 -0.3079
  222MPD1    C3 3424   0.234   3.569   0.202  0.1626 -0.4319 -0.5123
  222MPD1    C4 3425   0.245   3.489   0.088 -0.6270  0.7589 -0.0132
  222MPD1    C5 3426   0.263   3.355   0.092 -0.3836  0.1531  0.1885
  222MPD1     H 3427   0.218   3.569   0.418  2.5676 -0.6582  0.0533
  222MPD1    H1 3428   0.233   3.543  17.760 -0.6539  0.0565 -0.4087
  222MPD1    H2 3429   0.271   3.194   0.226  1.3156 -0.1046  2.1998
  222MPD1    H3 3430   0.266   3.289   0.006 -0.4563 -0.3756  0.5977
  222MPD1     N 3431   0.191   3.705   0.182 -0.3430 -0.4178 -0.5842
  222MPD1    H5 3432   0.170   3.741   0.090  1.5216  1.2660 -0.3597
  222MPD1    N1 3433   0.238   3.304   0.455  0.2309  0.6430  0.8195
  222MPD1    H6 3434   0.300   3.224   0.461  2.1776  2.2803  2.4262
  222MPD1    H7 3435   0.262   3.362   0.535  2.0546 -1.2801  1.6594
  223MPD1     C 3436   0.296   4.550   0.790  0.5757 -0.0880 -0.0372
  223MPD1    C1 3437   0.327   4.416   0.817 -0.2046  0.1135  0.4639
  223MPD1    C2 3438   0.287   4.318   0.727 -0.4808  0.0413 -0.2073
  223MPD1    C3 3439   0.233   4.358   0.603 -0.2099  1.0437  0.6226
  223MPD1    C4 3440   0.238   4.492   0.572 -0.1421 -0.1878  0.3394
  223MPD1    C5 3441   0.263   4.589   0.660  0.7966  0.0515 -0.5067
  223MPD1     H 3442   0.306   4.215   0.754 -0.3402  0.4142  1.1121
  223MPD1    H1 3443   0.195   4.524   0.477 -1.9959  0.4057  1.3803
  223MPD1    H2 3444   0.315   4.625   0.866  0.8442  0.0569 -0.2482
  223MPD1    H3 3445   0.236   4.693   0.644 -0.5384 -0.5397 -2.1046
  223MPD1     N 3446   0.200   4.259   0.504  0.2629 -0.6681 -0.4144
  223MPD1    H5 3447   0.185   4.164   0.537 -1.4547 -0.1757  0.2284
  223MPD1    N1 3448   0.360   4.382   0.947  0.4050 -0.4226 -0.7935
  223MPD1    H6 3449   0.406   4.292   0.950  0.5554 -0.3572 -1.1878
  223MPD1    H7 3450   0.412   4.457   0.992 -1.6629  0.4838  0.1334
  224MPD1     C 3451   1.392   4.443   9.186 -0.2933 -0.1643 -0.2965
  224MPD1    C1 3452   1.417   4.323   9.237  0.0469 -0.4916  0.1711
  224MPD1    C2 3453   1.349   4.281   9.348  0.4528  0.1982 -0.0115
  224MPD1    C3 3454   1.258   4.366   9.413 -0.7289 -0.1387  0.3040
  224MPD1    C4 3455   1.228   4.483   9.352 -0.0288  0.1799  0.2652
  224MPD1    C5 3456   1.297   4.522   9.239  0.6735  0.4968 -0.2709
  224MPD1     H 3457   1.364   4.180   9.386  0.3288 -0.7965 -2.6125
  224MPD1    H1 3458   1.159   4.552   9.398  0.1532  0.6222 -0.1245
  224MPD1    H2 3459   1.434   4.471   9.090 -1.2046 -3.8268 -1.7634
  224MPD1    H3 3460   1.272   4.616   9.190 -0.7555  0.6802  0.8270
  224MPD1     N 3461   1.200   4.350   9.540 -0.3707  0.3490  0.0512
  224MPD1    H5 3462   1.150   4.431   9.575  1.2296  1.4457 -0.1810
  224MPD1    N1 3463   1.506   4.245   9.157 -0.0995 -0.1065  0.1720
  224MPD1    H6 3464   1.563   4.293   9.089  0.9815 -0.8308  0.5663
  224MPD1    H7 3465   1.546   4.163   9.202 -2.1723 -1.2668 -0.0899
  225MPD1     C 3466   1.659   0.715  13.150 -0.7696 -0.4066  0.1090
  225MPD1    C1 3467   1.792   0.726  13.126  0.0085 -0.7889  0.0466
  225MPD1    C2 3468   1.828   0.708  12.992 -0.5787 -0.7297  0.0104
  225MPD1    C3 3469   1.734   0.709  12.891  0.3249  0.5157  0.0523
  225MPD1    C4 3470   1.598   0.717  12.926 -1.0276  0.3576  0.2375
  225MPD1    C5 3471   1.562   0.711  13.055  0.2708 -0.3568 -1.0694
  225MPD1     H 3472   1.933   0.711  12.964 -0.6224  0.4637 -0.0163
  225MPD1    H1 3473   1.526   0.712  12.846  1.7640 -0.2025 -2.2333
  225MPD1    H2 3474   1.622   0.695  13.250 -0.6801  0.2310  0.2726
  225MPD1    H3 3475   1.461   0.686  13.084  0.5303 -1.3346 -1.0053
  225MPD1     N 3476   1.766   0.689  12.757  0.1320 -0.3263 -0.1293
  225MPD1    H5 3477   1.692   0.701  12.688 -1.8449 -3.4321  1.4817
  225MPD1    N1 3478   1.888   0.709  13.222  0.2118  0.3505  0.5746
  225MPD1    H6 3479   1.977   0.746  13.189 -0.9058 -0.1339 -2.9463
  225MPD1    H7 3480   1.867   0.767  13.303  1.2728  0.5914  0.6832
  226MPD1     C 3481   0.639   0.222   9.779  0.3502  0.2414 -0.2263
  226MPD1    C1 3482   0.764   0.174   9.779 -0.3907 -0.1656  0.8750
  226MPD1    C2 3483   0.867   0.269   9.752  0.4305  0.3455  0.2160
  226MPD1    C3 3484   0.849   0.406   9.765  0.0558 -0.0982  0.1472
  226MPD1    C4 3485   0.720   0.454   9.791  0.0950 -0.2301  0.6793
  226MPD1    C5 3486   0.618   0.362   9.786 -0.2559 -0.6074  0.5991
  226MPD1     H 3487   0.968   0.233   9.735  1.1066  2.4937 -0.2137
  226MPD1    H1 3488   0.692   0.557   9.807  0.1716 -0.3125  1.3419
  226MPD1    H2 3489   0.550   0.161   9.777 -0.0085  0.7670 -0.4364
  226MPD1    H3 3490   0.513   0.388   9.790 -0.1305 -0.3902  2.5146
  226MPD1     N 3491   0.962   0.488   9.756 -0.1981 -0.2785  0.0192
  226MPD1    H5 3492   1.049   0.437   9.756  0.7131  1.2765 -1.1680
  226MPD1    N1 3493   0.782   0.035   9.764  0.1559  0.3062  0.9867
  226MPD1    H6 3494   0.724   4.713   9.818 -1.1302 -1.1702 -2.1480
  226MPD1    H7 3495   0.876   0.015   9.798  0.0348 -0.2630  0.9811
  227MPD1     C 3496   1.069   1.464  10.081  0.7406  0.3172  0.6741
  227MPD1    C1 3497   0.990   1.363  10.138  0.6971 -0.3338  0.6301
  227MPD1    C2 3498   0.992   1.236  10.083  0.5616  0.4068 -0.0271
  227MPD1    C3 3499   1.083   1.203   9.981 -0.3393  0.5142  0.1190
  227MPD1    C4 3500   1.161   1.306   9.935 -0.3023  0.3246  0.6341
  227MPD1    C5 3501   1.158   1.433   9.987 -0.0065  0.4687 -0.3372
  227MPD1     H 3502   0.920   1.162  10.117  0.6127 -0.7002 -2.3218
  227MPD1    H1 3503   1.243   1.287   9.867 -1.1917  1.1650 -0.6720
  227MPD1    H2 3504   1.051   1.569  10.101 -0.5425 -0.2530  2.4907
  227MPD1    H3 3505   1.208   1.518   9.943  1.6926 -0.4639 -0.1985
  227MPD1     N 3506   1.097   1.070   9.926 -0.1051  0.0993 -0.7449
  227MPD1    H5 3507   1.037   1.002   9.971 -0.9599  1.1971 -0.2261
  227MPD1    N1 3508   0.901   1.406  10.243 -0.0816  0.2465 -0.2922
  227MPD1    H6 3509   0.940   1.491  10.283 -0.1935  0.2065 -0.0993
  227MPD1    H7 3510   0.875   1.336  10.313  2.3902 -0.1475  0.2080
  228MPD1     C 3511   3.819   3.499  12.091  0.3322 -0.1336 -0.3162
  228MPD1    C1 3512   3.700   3.563  12.074 -0.8775  0.6761  0.1228
  228MPD1    C2 3513   3.593   3.520  12.151 -0.8565  0.2511 -0.9356
  228MPD1    C3 3514   3.600   3.419  12.250 -0.1172 -0.6835  0.0076
  228MPD1    C4 3515   3.723   3.350  12.258  0.4287  0.0151 -0.4426
  228MPD1    C5 3516   3.829   3.394  12.185  0.3253 -0.0763  0.5661
  228MPD1     H 3517   3.497   3.569  12.135 -1.8267 -0.5240  2.5453
  228MPD1    H1 3518   3.740   3.270  12.329  1.4049 -0.7731 -1.5630
  228MPD1    H2 3519   3.904   3.525  12.028 -0.3188 -0.2531 -1.2532
  228MPD1    H3 3520   3.920   3.337  12.199  1.0285  1.3249  1.7064
  228MPD1     N 3521   3.485   3.392  12.314  0.0905 -0.1519  0.5246
  228MPD1    H5 3522   3.399   3.442  12.294  1.1915  1.8978  0.8771
  228MPD1    N1 3523   3.703   3.680  11.988  0.1697  0.2570  0.1696
  228MPD1    H6 3524   3.610   3.705  11.954  0.3040 -1.9951 -1.8623
  228MPD1    H7 3525   3.767   3.666  11.910  0.4709 -0.0588  0.4676
  229MPD1     C 3526   3.003   1.937  15.317  0.7416  0.1856 -0.0842
  229MPD1    C1 3527   3.025   1.873  15.193  0.0834  0.0449  0.8285
  229MPD1    C2 3528   3.102   1.756  15.192 -0.3555  0.2945  0.1973
  229MPD1    C3 3529   3.158   1.704  15.308 -0.2233  0.2235  0.0630
  229MPD1    C4 3530   3.145   1.783  15.417 -0.2042  0.2538  0.0859
  229MPD1    C5 3531   3.070   1.899  15.425 -0.8654 -0.2434  0.0795
  229MPD1     H 3532   3.130   1.710  15.098 -0.8623 -0.3508  0.3637
  229MPD1    H1 3533   3.193   1.753  15.509 -1.6477  0.7666  1.0093
  229MPD1    H2 3534   2.923   2.011  15.322  1.1578  0.6214  0.1023
  229MPD1    H3 3535   3.055   1.954  15.518  0.8768 -1.5602  1.1414
  229MPD1     N 3536   3.245   1.588  15.313  0.2460  0.2530 -0.0102
  229MPD1    H5 3537   3.310   1.582  15.391 -1.7264  2.7589  1.8414
  229MPD1    N1 3538   2.953   1.904  15.079 -0.0880  0.0038 -0.0497
  229MPD1    H6 3539   2.963   2.005  15.070 -0.7116  0.0797  0.1428
  229MPD1    H7 3540   3.009   1.894  14.994  0.0650  0.7695 -0.0388
  230MPD1     C 3541   3.999   1.255  15.822 -0.2019 -0.1727  0.4140
  230MPD1    C1 3542   4.019   1.185  15.712 -0.0422  0.3634  0.3402
  230MPD1    C2 3543   3.921   1.186  15.617  0.2028 -0.2928  0.3176
  230MPD1    C3 3544   3.811   1.272  15.620 -0.6721  0.0196  0.2444
  230MPD1    C4 3545   3.793   1.345  15.735  0.5243 -0.0518 -0.6531
  230MPD1    C5 3546   3.892   1.336  15.834 -0.3807 -0.6323 -0.0307
  230MPD1     H 3547   3.940   1.126  15.528  0.6509  0.9864 -0.4518
  230MPD1    H1 3548   3.712   1.414  15.757 -0.5218 -1.2579 -0.6735
  230MPD1    H2 3549   4.068   1.254  15.906 -0.8015 -0.1919  0.9062
  230MPD1    H3 3550   3.875   1.397  15.921  1.8479  0.1501 -0.1445
  230MPD1     N 3551   3.722   1.281  15.511  0.6109  0.1089 -0.0995
  230MPD1    H5 3552   3.755   1.236  15.426  1.5125 -1.9287  1.3455
  230MPD1    N1 3553   4.125   1.089  15.705 -0.3161  0.1954 -0.8223
  230MPD1    H6 3554   4.151   1.066  15.609 -1.6665 -0.2671 -1.0791
  230MPD1    H7 3555   4.207   1.123  15.755 -0.8903 -1.8707  1.5034
  231MPD1     C 3556   1.490   4.007  15.521 -0.0505 -0.8988  0.4851
  231MPD1    C1 3557   1.491   3.937  15.410 -0.1003  0.2087  0.3404
  231MPD1    C2 3558   1.547   4.001  15.303 -0.4093 -0.2805  0.2002
  231MPD1    C3 3559   1.604   4.124  15.309  0.3924  0.0768  0.2359
  231MPD1    C4 3560   1.612   4.187  15.433 -0.7870  0.7001 -0.3090
  231MPD1    C5 3561   1.548   4.128  15.539  0.0724  0.8675 -0.0416
  231MPD1     H 3562   1.547   3.949  15.208 -0.2694  0.5431 -0.2527
  231MPD1    H1 3563   1.647   4.289  15.435  0.2905  0.3536 -1.4379
  231MPD1    H2 3564   1.439   3.969  15.608 -1.3490  0.6632  0.4093
  231MPD1    H3 3565   1.534   4.185  15.631  2.8224  2.6995 -0.7721
  231MPD1     N 3566   1.668   4.173  15.194  0.1799 -0.8796  0.5151
  231MPD1    H5 3567   1.656   4.110  15.115 -0.6874 -3.1350  2.4185
  231MPD1    N1 3568   1.428   3.816  15.390 -0.0236  0.1554  0.0021
  231MPD1    H6 3569   1.476   3.768  15.314 -2.8726 -0.9376 -1.0727
  231MPD1    H7 3570   1.434   3.750  15.467  0.5636 -0.1635 -0.3122
  232MPD1     C 3571   3.300   1.356   0.112  0.0271 -0.5407 -0.2719
  232MPD1    C1 3572   3.244   1.475   0.152 -0.1228  0.9921 -0.4409
  232MPD1    C2 3573   3.110   1.481   0.180 -0.8312 -0.3027  0.2859
  232MPD1    C3 3574   3.027   1.364   0.175  0.0617  0.2349 -0.6098
  232MPD1    C4 3575   3.097   1.246   0.145 -0.5371 -0.1228 -0.4295
  232MPD1    C5 3576   3.227   1.241   0.110 -0.5062  0.1308 -0.8173
  232MPD1     H 3577   3.065   1.573   0.214 -0.6058  0.7664 -2.3064
  232MPD1    H1 3578   3.052   1.148   0.136  1.0342 -0.6430 -2.5709
  232MPD1    H2 3579   3.405   1.348   0.088  0.4419  0.9155  1.1401
  232MPD1    H3 3580   3.277   1.149   0.083  1.1826  1.2452 -1.5002
  232MPD1     N 3581   2.891   1.374   0.208 -0.7231  0.0712  0.4305
  232MPD1    H5 3582   2.865   1.459   0.255 -3.8730 -0.9292  0.4608
  232MPD1    N1 3583   3.327   1.578   0.192 -1.1488 -0.4694  0.9965
  232MPD1    H6 3584   3.423   1.544   0.183 -1.5655 -1.2961 -0.3880
  232MPD1    H7 3585   3.329   1.657   0.128  0.0893  0.1383  1.7911
  233MPD1     C 3586   4.706   0.891   1.464 -0.1173  0.0999 -0.1369
  233MPD1    C1 3587   4.623   0.803   1.531  0.2143  0.1297  0.5635
  233MPD1    C2 3588   4.642   0.672   1.529  0.2107 -1.0000  0.2977
  233MPD1    C3 3589   0.007   0.623   1.452 -0.2612 -0.1602 -0.2046
  233MPD1    C4 3590   0.089   0.707   1.381 -0.0135 -0.7132 -0.0377
  233MPD1    C5 3591   0.066   0.843   1.390  0.5286 -0.0716 -0.1648
  233MPD1     H 3592   4.582   0.610   1.594  0.2275 -0.9059  0.4019
  233MPD1    H1 3593   0.164   0.671   1.311 -0.5084  0.9862 -1.4231
  233MPD1    H2 3594   4.695   0.998   1.452  2.5676  0.3462 -0.5041
  233MPD1    H3 3595   0.116   0.917   1.329 -1.0276  0.2118 -1.1061
  233MPD1     N 3596   0.036   0.487   1.447  0.3566 -0.2133 -0.8468
  233MPD1    H5 3597   0.127   0.455   1.413  1.2940  0.0954  1.3813
  233MPD1    N1 3598   4.523   0.862   1.612 -0.2367 -0.2007  0.2762
  233MPD1    H6 3599   4.440   0.803   1.618 -1.1076  1.0482  0.5558
  233MPD1    H7 3600   4.490   0.950   1.573  0.1280 -0.8528 -1.5148
  234MPD1     C 3601   1.712   2.671  10.316  0.6902 -0.0657  0.2385
  234MPD1    C1 3602   1.710   2.785  10.393 -1.0086 -0.1256 -0.3324
  234MPD1    C2 3603   1.628   2.895  10.350 -0.2281 -0.4849  0.0324
  234MPD1    C3 3604   1.561   2.889  10.234  0.1471 -0.0528 -0.8496
  234MPD1    C4 3605   1.560   2.771  10.165 -0.3481  0.1265 -0.3456
  234MPD1    C5 3606   1.641   2.661  10.200  0.3288  0.0962 -0.4439
  234MPD1     H 3607   1.624   2.979  10.417  0.0038 -0.0041 -0.5527
  234MPD1    H1 3608   1.509   2.763  10.070 -2.2367 -0.1680  0.6856
  234MPD1    H2 3609   1.763   2.583  10.354  1.0441 -0.6608 -1.5972
  234MPD1    H3 3610   1.645   2.572  10.139 -0.2241  1.0172 -1.8222
  234MPD1     N 3611   1.479   3.001  10.199  0.1938 -0.0407  0.1960
  234MPD1    H5 3612   1.475   3.081  10.261 -2.0714 -0.0354  0.0156
  234MPD1    N1 3613   1.790   2.790  10.509 -0.1940 -0.1589  0.0585
  234MPD1    H6 3614   1.746   2.849  10.580  2.1641 -0.2556  1.6051
  234MPD1    H7 3615   1.821   2.699  10.542  0.1926  0.7566  2.2324
  235MPD1     C 3616   3.485   0.443  10.393 -0.3743 -1.0729  0.0675
  235MPD1    C1 3617   3.524   0.543  10.475 -0.5689 -0.8051  0.5246
  235MPD1    C2 3618   3.545   0.673  10.426  0.3075  0.5145  0.8590
  235MPD1    C3 3619   3.519   0.708  10.292  0.4647 -0.1909 -0.4183
  235MPD1    C4 3620   3.480   0.603  10.208 -0.0758  1.3164 -0.1990
  235MPD1    C5 3621   3.459   0.476  10.260  0.4923  0.2948 -0.0704
  235MPD1     H 3622   3.579   0.752  10.491  0.7823 -0.7997  2.2091
  235MPD1    H1 3623   3.462   0.611  10.101 -1.0718  0.5136 -0.0888
  235MPD1    H2 3624   3.467   0.338  10.413 -2.0642 -0.5181  1.5242
  235MPD1    H3 3625   3.433   0.390  10.200 -1.6365  0.2794  0.8811
  235MPD1     N 3626   3.527   0.836  10.248  0.7618  0.1692 -0.1581
  235MPD1    H5 3627   3.547   0.908  10.318 -0.7318  0.8434 -0.4256
  235MPD1    N1 3628   3.571   0.512  10.604  0.8415 -0.2567 -0.1308
  235MPD1    H6 3629   3.507   0.451  10.654 -0.9678  0.3558 -1.6723
  235MPD1    H7 3630   3.568   0.595  10.663  1.6430 -0.5802  0.3654
  236MPD1     C 3631   2.355   1.653   9.582  0.0553  0.2516  0.4049
  236MPD1    C1 3632   2.445   1.552   9.611 -0.6364  0.0536 -0.0392
  236MPD1    C2 3633   2.496   1.550   9.738  0.4130  0.1999 -0.2233
  236MPD1    C3 3634   2.479   1.654   9.831 -0.2299 -0.2799  0.4997
  236MPD1    C4 3635   2.386   1.752   9.797 -1.1106 -0.4687  0.0027
  236MPD1    C5 3636   2.315   1.738   9.681  0.3424  0.9999 -0.6288
  236MPD1     H 3637   2.557   1.462   9.754 -1.6335 -1.5086 -1.8621
  236MPD1    H1 3638   2.361   1.830   9.868 -0.4381  2.2472 -2.7413
  236MPD1    H2 3639   2.296   1.654   9.491  0.2039 -0.3216  0.3048
  236MPD1    H3 3640   2.231   1.805   9.668 -0.3477  0.1039 -0.8661
  236MPD1     N 3641   2.547   1.656   9.955 -0.4799 -0.6417 -0.4711
  236MPD1    H5 3642   2.524   1.731  10.020 -1.7217 -0.2141 -1.4043
  236MPD1    N1 3643   2.454   1.447   9.522  0.5410 -0.2390 -0.2376
  236MPD1    H6 3644   2.454   1.477   9.425 -1.1198  1.0945  0.1754
  236MPD1    H7 3645   2.548   1.408   9.531 -0.0395 -1.6823 -0.4043
  237MPD1     C 3646   2.119   0.527  14.640  0.1377 -0.1924 -0.2717
  237MPD1    C1 3647   2.033   0.532  14.531  0.3891 -0.6429  0.2829
  237MPD1    C2 3648   1.902   0.510  14.549  0.0630  0.1889  0.0333
  237MPD1    C3 3649   1.853   0.464  14.672  0.3594  0.3246 -0.1795
  237MPD1    C4 3650   1.944   0.449  14.776  0.5974 -0.4665 -0.6910
  237MPD1    C5 3651   2.073   0.480  14.761 -0.0566 -0.3178  0.0322
  237MPD1     H 3652   1.840   0.522  14.461 -0.2197 -1.4514  0.0077
  237MPD1    H1 3653   1.903   0.420  14.872  2.1473  0.1622  0.1609
  237MPD1    H2 3654   2.226   0.541  14.624  0.1003  0.5781  0.1931
  237MPD1    H3 3655   2.121   0.466  14.858  0.6524  0.9823 -0.1387
  237MPD1     N 3656   1.722   0.423  14.698 -0.3279 -0.2978  0.9136
  237MPD1    H5 3657   1.702   0.393  14.793 -1.7985 -3.8676 -0.5140
  237MPD1    N1 3658   2.081   0.559  14.398  0.5991  0.2068  0.1179
  237MPD1    H6 3659   2.011   0.610  14.345 -1.0102 -0.4659  1.5935
  237MPD1    H7 3660   2.152   0.631  14.402 -0.1914  1.2018 -3.7282
  238MPD1     C 3661   3.314   3.920  15.736 -0.7363 -0.7425  0.7784
  238MPD1    C1 3662   3.329   4.028  15.643 -0.4681 -1.1183 -0.4435
  238MPD1    C2 3663   3.259   4.011  15.526  0.0196  0.7212  0.1492
  238MPD1    C3 3664   3.179   3.894  15.510 -0.5352 -0.1176  0.4294
  238MPD1    C4 3665   3.155   3.803  15.611  0.0697 -0.4736 -0.4098
  238MPD1    C5 3666   3.218   3.827  15.731 -0.0577 -0.7314 -0.2194
  238MPD1     H 3667   3.285   4.080  15.447  0.0628 -0.2656 -0.7005
  238MPD1    H1 3668   3.088   3.718  15.605 -0.7775  0.1889 -0.3623
  238MPD1    H2 3669   3.373   3.915  15.827  0.1296 -0.2367  0.2513
  238MPD1    H3 3670   3.190   3.762  15.814  0.4911  0.9813  1.3169
  238MPD1     N 3671   3.121   3.854  15.389  0.0947  0.1114  0.1666
  238MPD1    H5 3672   3.052   3.780  15.388  0.8768 -0.5981 -2.3508
  238MPD1    N1 3673   3.433   4.123  15.653  0.3598  0.2670  0.4759
  238MPD1    H6 3674   3.426   4.205  15.593  1.9788  0.9247  1.1739
  238MPD1    H7 3675   3.476   4.137  15.745 -3.4010 -0.1052  2.2716
  239MPD1     C 3676   3.699   0.052  15.251 -0.5484 -0.1431  0.0954
  239MPD1    C1 3677   3.564   0.034  15.215  0.0265  0.1808 -0.8432
  239MPD1    C2 3678   3.531   0.029  15.080 -0.1312  1.0798  0.4513
  239MPD1    C3 3679   3.629   0.034  14.983  0.5953 -0.3759  0.1969
  239MPD1    C4 3680   3.762   0.045  15.023 -0.4725  0.3048  0.4386
  239MPD1    C5 3681   3.802   0.061  15.159 -0.0916 -0.4449 -0.5593
  239MPD1     H 3682   3.424   0.027  15.061  0.4349  3.0157 -2.9380
  239MPD1    H1 3683   3.842   0.052  14.950 -0.2291 -1.7792  0.5049
  239MPD1    H2 3684   3.723   0.058  15.356  0.2839 -1.2539 -0.0315
  239MPD1    H3 3685   3.906   0.078  15.187  0.2735 -2.7078 -0.5508
  239MPD1     N 3686   3.600   0.046  14.845 -0.6854 -0.1256 -0.3299
  239MPD1    H5 3687   3.671   0.080  14.780  0.5205  0.4123  1.2906
  239MPD1    N1 3688   3.470   0.050  15.320 -0.5539  0.2611 -0.1233
  239MPD1    H6 3689   3.379   0.006  15.309  0.2854 -1.6468  0.5244
  239MPD1    H7 3690   3.504   0.035  15.414  2.5587  2.0618 -0.9681
  240MPD1     C 3691   3.573   4.268  14.219 -0.2985  0.3327  0.9819
  240MPD1    C1 3692   3.566   4.217  14.348  0.5172 -0.2658  0.0155
  240MPD1    C2 3693   3.442   4.187  14.391 -1.0209 -0.0270  0.9389
  240MPD1    C3 3694   3.330   4.215  14.317  0.3483  0.4040 -0.8787
  240MPD1    C4 3695   3.341   4.272  14.188  0.2773 -0.1864 -0.9126
  240MPD1    C5 3696   3.468   4.299  14.140  1.0798  0.4069 -0.4270
  240MPD1     H 3697   3.438   4.150  14.493  1.9207 -0.4438  0.8980
  240MPD1    H1 3698   3.256   4.309  14.132 -0.1312 -0.1224 -0.2583
  240MPD1    H2 3699   3.677   4.278  14.191 -0.4813 -2.4208 -0.6696
  240MPD1    H3 3700   3.483   4.346  14.044  1.2282  3.2235  0.9850
  240MPD1     N 3701   3.209   4.190  14.388  0.2306 -0.2519 -0.5326
  240MPD1    H5 3702   3.215   4.172  14.488 -0.4403 -0.5367 -0.5401
  240MPD1    N1 3703   3.684   4.172  14.409  0.1750  0.0649 -0.7715
  240MPD1    H6 3704   3.675   4.163  14.510  5.2846  3.2137 -0.0402
  240MPD1    H7 3705   3.763   4.233  14.390  0.5645 -0.6660 -1.4908
  241MPD1     C 3706   2.940   4.230  15.320  0.6279  1.0827 -0.4599
  241MPD1    C1 3707   3.057   4.245  15.245 -0.6955 -0.6506 -0.7595
  241MPD1    C2 3708   3.043   4.233  15.108 -0.0810  0.8056 -0.4782
  241MPD1    C3 3709   2.926   4.195  15.043  0.1530 -0.4861 -0.1455
  241MPD1    C4 3710   2.816   4.182  15.119 -0.4442 -0.2369 -0.0822
  241MPD1    C5 3711   2.822   4.208  15.250 -0.8146 -0.7224  0.0576
  241MPD1     H 3712   3.129   4.255  15.045 -1.3919  3.7462 -1.2133
  241MPD1    H1 3713   2.717   4.163  15.078  0.0840 -0.8998 -1.0347
  241MPD1    H2 3714   2.930   4.250  15.426 -1.1035  0.2055 -0.4537
  241MPD1    H3 3715   2.729   4.227  15.304 -0.1840 -2.9466  1.9310
  241MPD1     N 3716   2.915   4.165  14.908  0.1177  0.3272 -0.0115
  241MPD1    H5 3717   2.824   4.153  14.864  0.0095 -1.5374  0.6955
  241MPD1    N1 3718   3.175   4.295  15.294  0.1056 -0.7745  0.3588
  241MPD1    H6 3719   3.248   4.251  15.238  2.2320  2.1170  0.8719
  241MPD1    H7 3720   3.172   4.277  15.394 -0.8089  3.5885  1.1016
  242MPD1     C 3721   2.462   2.448  15.906 -0.4226  1.2356  0.2577
  242MPD1    C1 3722   2.372   2.420  15.802  1.1655 -0.2125  0.3954
  242MPD1    C2 3723   2.432   2.396  15.675 -0.3382 -0.4303  0.0192
  242MPD1    C3 3724   2.560   2.433  15.644 -0.0260 -0.6885 -0.2324
  242MPD1    C4 3725   2.645   2.450  15.750  0.3343 -0.4298  0.8583
  242MPD1    C5 3726   2.595   2.467  15.875 -0.0778 -0.1995 -0.0955
  242MPD1     H 3727   2.366   2.366  15.594  0.6124 -0.2238 -0.8383
  242MPD1    H1 3728   2.747   2.481  15.733 -0.4202  1.1807 -0.7878
  242MPD1    H2 3729   2.436   2.461  16.010  0.8293 -2.0513  0.9612
  242MPD1    H3 3730   2.664   2.477  15.958 -1.0908  0.0283  0.7131
  242MPD1     N 3731   2.614   2.448  15.513  0.3645 -0.4945  0.2934
  242MPD1    H5 3732   2.711   2.478  15.510  0.1137  0.2357 -0.5033
  242MPD1    N1 3733   2.243   2.380  15.836 -0.1770 -0.2839 -0.8219
  242MPD1    H6 3734   2.196   2.430  15.911 -2.4209 -2.6065 -0.7051
  242MPD1    H7 3735   2.190   2.397  15.751 -0.8114  0.2589 -0.3128
  243MPD1     C 3736   2.653   1.310  17.629  0.3656 -0.4063  0.3422
  243MPD1    C1 3737   2.677   1.449  17.630 -0.1142 -0.3012 -0.3179
  243MPD1    C2 3738   2.809   1.498  17.614 -0.0129 -0.1496 -0.4229
  243MPD1    C3 3739   2.915   1.405  17.611  0.9282  0.2087 -0.7380
  243MPD1    C4 3740   2.880   1.274  17.632 -0.4205  0.7792 -0.6421
  243MPD1    C5 3741   2.753   1.224  17.649  0.0311  0.3874 -0.5702
  243MPD1     H 3742   2.828   1.605  17.619  0.5283 -0.3393  1.7760
  243MPD1    H1 3743   2.958   1.199  17.641 -0.9347  0.1875 -1.1347
  243MPD1    H2 3744   2.554   1.267  17.623  1.1383 -1.8625 -2.0242
  243MPD1    H3 3745   2.743   1.117  17.664  1.5331 -0.0605 -2.8626
  243MPD1     N 3746   3.046   1.466  17.598  0.0513  0.2391 -0.1432
  243MPD1    H5 3747   3.057   1.566  17.599  0.4853  0.1403  3.2872
  243MPD1    N1 3748   2.558   1.532  17.608  0.2315  0.1149  0.0544
  243MPD1    H6 3749   2.562   1.629  17.639  0.2894 -0.7574  2.7135
  243MPD1    H7 3750   2.466   1.492  17.626 -0.3786  1.7191  0.5603
  244MPD1     C 3751   3.591   2.203   0.179 -0.6956  0.2028  0.8355
  244MPD1    C1 3752   3.695   2.144   0.112 -0.3899 -0.4675 -0.3158
  244MPD1    C2 3753   3.662   2.033   0.033 -0.5050  0.7666 -0.1360
  244MPD1    C3 3754   3.534   1.987   0.008 -0.1978 -0.8218  0.6447
  244MPD1    C4 3755   3.429   2.060   0.058  0.4827 -0.0688 -0.2061
  244MPD1    C5 3756   3.461   2.156   0.150 -0.5817 -0.2219  0.3565
  244MPD1     H 3757   3.748   1.977  17.764 -0.6802 -0.2957  1.1459
  244MPD1    H1 3758   3.325   2.029   0.057  0.0211  1.4168  1.5823
  244MPD1    H2 3759   3.596   2.279   0.256  1.3459  0.6680  0.2463
  244MPD1    H3 3760   3.383   2.202   0.209  0.8101  0.8092  1.3933
  244MPD1     N 3761   3.519   1.869  17.697  0.1549 -0.1933  0.1898
  244MPD1    H5 3762   3.604   1.828  17.661 -0.2466  0.3907 -1.4184
  244MPD1    N1 3763   3.821   2.164   0.163  0.1825 -0.1313  0.2833
  244MPD1    H6 3764   3.841   2.264   0.172  2.4194 -0.5554  0.0627
  244MPD1    H7 3765   3.882   2.124   0.093 -0.9178 -0.2238 -0.6244
  245MPD1     C 3766   1.032   1.877  12.729 -0.3817 -0.3887  0.1687
  245MPD1    C1 3767   1.007   1.910  12.855  0.5700  0.1029  0.3750
  245MPD1    C2 3768   1.096   1.988  12.930  0.1109  0.1167 -0.5069
  245MPD1    C3 3769   1.215   2.037  12.876  0.4090 -0.4956 -0.7678
  245MPD1    C4 3770   1.242   2.004  12.740 -0.4878  0.1115  0.3039
  245MPD1    C5 3771   1.146   1.925  12.676  1.0050 -0.6948  0.2883
  245MPD1     H 3772   1.073   2.011  13.034  1.7235 -0.5118 -0.0170
  245MPD1    H1 3773   1.334   2.028  12.689 -1.4064 -0.7290 -1.7685
  245MPD1    H2 3774   0.967   1.812  12.671  0.0227 -0.9095  0.2987
  245MPD1    H3 3775   1.165   1.897  12.573 -1.8236 -1.7264  0.0405
  245MPD1     N 3776   1.309   2.113  12.954  0.4832 -0.0307 -0.3239
  245MPD1    H5 3777   1.284   2.110  13.052 -1.6487 -0.3907 -0.8701
  245MPD1    N1 3778   0.889   1.868  12.912 -0.0664 -0.2558 -0.4983
  245MPD1    H6 3779   0.813   1.845  12.848  0.9571 -1.5284 -1.2488
  245MPD1    H7 3780   0.864   1.920  12.996  0.5725 -0.1696 -0.3583
  246MPD1     C 3781   3.921   0.833   9.263 -0.8705  0.1642 -0.1225
  246MPD1    C1 3782   3.869   0.797   9.388 -0.8096 -0.3184  0.2406
  246MPD1    C2 3783   3.743   0.838   9.416 -0.1153 -0.2249  0.5004
  246MPD1    C3 3784   3.680   0.929   9.335  0.1033 -0.1779 -0.1285
  246MPD1    C4 3785   3.735   0.977   9.216 -0.1521 -0.4068  0.3774
  246MPD1    C5 3786   3.847   0.914   9.177  0.4321 -0.5478  0.6899
  246MPD1     H 3787   3.696   0.814   9.510 -2.4534 -1.3246 -0.9409
  246MPD1    H1 3788   3.676   1.038   9.148  0.3022  0.3543  0.6567
  246MPD1    H2 3789   4.021   0.813   9.226 -1.0627 -2.1222  0.6467
  246MPD1    H3 3790   3.897   0.953   9.089  1.8049 -2.4955  0.6007
  246MPD1     N 3791   3.546   0.968   9.368 -1.0134  0.4502  0.7008
  246MPD1    H5 3792   3.506   0.928   9.452 -0.8934  0.8983  0.9693
  246MPD1    N1 3793   3.938   0.701   9.463  0.0471  0.6123 -0.1358
  246MPD1    H6 3794   4.036   0.729   9.470  0.5764 -0.2191 -3.9776
  246MPD1    H7 3795   3.905   0.690   9.559 -0.6812  1.0670 -0.3400
  247MPD1     C 3796   1.017   2.558  16.706  0.1056  0.3756 -0.2784
  247MPD1    C1 3797   0.973   2.637  16.601 -0.0322 -0.0728 -0.4081
  247MPD1    C2 3798   0.905   2.580  16.493 -0.3775  0.6463 -0.2130
  247MPD1    C3 3799   0.896   2.443  16.489 -0.4478 -0.8759  0.1744
  247MPD1    C4 3800   0.957   2.365  16.588  0.0126  0.8077 -0.2867
  247MPD1    C5 3801   1.013   2.419  16.698  0.5519  0.8481  0.3041
  247MPD1     H 3802   0.854   2.640  16.418 -3.3447 -0.2308  1.0775
  247MPD1    H1 3803   0.971   2.258  16.578  0.0262  0.8009 -0.1917
  247MPD1    H2 3804   1.071   2.605  16.788 -0.5822 -0.2802  0.5522
  247MPD1    H3 3805   1.059   2.354  16.770  1.1886  2.1001  1.0329
  247MPD1     N 3806   0.850   2.369  16.378 -0.6208  0.3980  0.3623
  247MPD1    H5 3807   0.868   2.269  16.385  0.7269  0.6859  1.0605
  247MPD1    N1 3808   0.987   2.778  16.607  0.6381 -0.2613  0.3501
  247MPD1    H6 3809   0.977   2.824  16.516  1.5627 -0.2250  0.2687
  247MPD1    H7 3810   1.085   2.791  16.631  1.2222 -1.6108 -1.2957
  248MPD1     C 3811   1.291   1.142   0.135  0.0783  0.2978  0.3322
  248MPD1    C1 3812   1.320   1.122   0.267 -0.6867 -0.0405 -0.0053
  248MPD1    C2 3813   1.307   1.232   0.354 -0.4485 -0.1895  0.3585
  248MPD1    C3 3814   1.296   1.358   0.307  0.1499  0.0826 -0.7193
  248MPD1    C4 3815   1.268   1.379   0.175 -0.0845 -0.0082  0.2816
  248MPD1    C5 3816   1.255   1.271   0.093 -0.7413 -0.0537 -0.7009
  248MPD1     H 3817   1.333   1.233   0.459  0.5488  0.2741  0.1122
  248MPD1    H1 3818   1.245   1.479   0.140  0.2325  0.0069  0.1155
  248MPD1    H2 3819   1.280   1.060   0.066  1.0216 -0.2664  0.8512
  248MPD1    H3 3820   1.238   1.286  17.753 -1.2419  1.5451 -0.4008
  248MPD1     N 3821   1.311   1.460   0.404  0.3182 -0.5571 -0.1714
  248MPD1    H5 3822   1.330   1.433   0.500 -1.6597 -0.9608  0.1217
  248MPD1    N1 3823   1.336   0.987   0.309  0.2188  0.9862 -0.1181
  248MPD1    H6 3824   1.371   0.925   0.236  1.5960  1.2815  0.2987
  248MPD1    H7 3825   1.384   0.982   0.398 -0.1365 -2.4007 -0.1048
  249MPD1     C 3826   4.071   0.426   9.857 -0.3576  0.1569 -0.2717
  249MPD1    C1 3827   4.149   0.434   9.975  0.0677 -0.6172  0.0684
  249MPD1    C2 3828   4.218   0.547  10.004 -0.3884 -0.5852 -0.0274
  249MPD1    C3 3829   4.213   0.664   9.921  0.3459 -0.1451 -0.8482
  249MPD1    C4 3830   4.150   0.643   9.800  0.1234 -0.2583  0.0739
  249MPD1    C5 3831   4.079   0.533   9.769 -0.6405 -0.2474  0.4972
  249MPD1     H 3832   4.281   0.545  10.093 -0.0263  0.5209 -0.2492
  249MPD1    H1 3833   4.155   0.718   9.722  1.7922  1.2059  1.5917
  249MPD1    H2 3834   4.014   0.339   9.825  1.2681 -1.9245  2.5674
  249MPD1    H3 3835   4.038   0.532   9.669  0.3451 -1.1725  0.1166
  249MPD1     N 3836   4.272   0.786   9.960  0.1878 -0.7539 -0.1947
  249MPD1    H5 3837   4.316   0.794  10.051 -0.8081  1.0906  0.1110
  249MPD1    N1 3838   4.136   0.329  10.067  0.7139  0.4405  0.1035
  249MPD1    H6 3839   4.110   0.239  10.027 -0.9872  1.3553 -0.8738
  249MPD1    H7 3840   4.215   0.321  10.130  0.6103 -1.9073 -0.0776
  250MPD2     C 3841   4.236   0.985  12.995 -0.1243 -0.0227 -0.4874
  250MPD2    C1 3842   4.342   0.900  12.996  0.6069 -1.0007  0.4031
  250MPD2    C2 3843   4.322   0.767  12.969  0.2049 -0.0242 -0.5788
  250MPD2    C3 3844   4.190   0.723  12.917 -0.7549  0.1335  0.3845
  250MPD2    C4 3845   4.099   0.815  12.886  0.6030  1.0709 -0.9483
  250MPD2    C5 3846   4.117   0.945  12.935 -0.8341 -0.5995  0.3066
  250MPD2     H 3847   4.405   0.698  12.971  0.1387 -0.0581  1.1957
  250MPD2    H1 3848   4.011   0.786  12.829 -1.3093  0.6064  2.2423
  250MPD2    H2 3849   4.248   1.092  13.008 -1.1209 -0.0050  0.3088
  250MPD2    H3 3850   4.036   1.017  12.929  2.0900  2.6339 -1.0188
  250MPD2     N 3851   4.173   0.593  12.867 -0.1755 -0.0719  0.0340
  250MPD2    H5 3852   4.087   0.577  12.815  0.1014 -1.4747  0.0078
  250MPD2    N1 3853   4.461   0.961  13.036  0.9377 -0.3620  0.2135
  250MPD2    H7 3854   4.454   1.059  13.061 -0.1153 -0.6761  1.1566
  251TMC3    C1 3855   4.677   0.978  13.110 -0.7577  0.3822 -0.1693
  251TMC3    C2 3856   4.668   1.114  13.116 -0.1902  0.2386  0.1309
  251TMC3    C3 3857   0.027   1.186  13.162  0.3087 -0.1255  0.0885
  251TMC3    C4 3858   0.041   0.910  13.162  0.0241  0.0212 -0.2133
  251TMC3    C5 3859   0.144   0.990  13.208 -1.2699 -0.5998  0.3307
  251TMC3    C6 3860   0.140   1.130  13.202 -1.1449  0.2345  0.6431
  251TMC3     C 3861   4.579   0.894  13.052 -0.6106  0.5636 -0.2657
  251TMC3     O 3862   4.625   0.790  13.009  0.6054 -0.4034 -0.6689
  251TMC3     H 3863   4.595   1.164  13.055  0.1752 -0.3065 -0.7519
  251TMC3    H1 3864   0.055   0.803  13.161 -0.7064 -0.0787  0.7614
  251TMC3    H2 3865   0.207   1.196  13.256 -1.0740  1.3798 -0.8313
  251TMC3    C7 3866   0.231   0.923  13.299 -0.4042  0.5744 -0.1660
  251TMC3    C8 3867   0.008   1.329  13.183  0.4217 -0.3837 -0.2466
  251TMC3    O1 3868   0.186   0.813  13.341  0.0046  0.9870 -0.2222
  251TMC3    O2 3869   0.112   1.396  13.199 -0.4271  0.3670 -0.5203
  252TMC3    C1 3870   0.803   2.265   9.579  0.4045 -0.5971  1.1200
  252TMC3    C2 3871   0.784   2.333   9.708 -0.1010 -1.1875 -0.0305
  252TMC3    C3 3872   0.828   2.267   9.818  0.1548 -0.4860 -0.8190
  252TMC3    C4 3873   0.860   2.146   9.564  0.0994  0.5916  0.2799
  252TMC3    C5 3874   0.905   2.089   9.680 -0.2826  0.5512  0.1905
  252TMC3    C6 3875   0.891   2.143   9.804  0.2225 -0.3830 -0.3156
  252TMC3     C 3876   0.719   2.323   9.474 -0.1449  0.2956  0.3416
  252TMC3     O 3877   0.692   2.445   9.498  0.2553 -0.2673 -0.1009
  252TMC3     H 3878   0.732   2.428   9.710 -0.2570 -1.3119  1.3381
  252TMC3    H1 3879   0.874   2.087   9.474 -2.1790 -0.1143  0.3854
  252TMC3    H2 3880   0.915   2.076   9.886 -0.0536 -0.0131  0.0683
  252TMC3    C7 3881   0.948   1.952   9.669 -0.4760 -0.7379  0.1915
  252TMC3    C8 3882   0.823   2.336   9.944 -0.4223  0.3485 -1.5245
  252TMC3    O1 3883   1.026   1.931   9.580 -0.3684 -0.1916 -0.4310
  252TMC3    O2 3884   0.788   2.450   9.939  0.3215 -1.0328 -0.1966
  253MPD2     C 3885   1.287   0.482  15.630 -0.3306 -0.1780  0.9786
  253MPD2    C1 3886   1.186   0.422  15.557 -0.4948 -0.2003  0.0408
  253MPD2    C2 3887   1.088   0.343  15.632 -0.1575  0.0489 -0.1458
  253MPD2    C3 3888   1.091   0.346  15.771 -0.1140 -0.5814  0.0746
  253MPD2    C4 3889   1.196   0.407  15.836 -0.6703  0.1606  0.2215
  253MPD2    C5 3890   1.300   0.461  15.763 -0.5053 -0.4466 -0.2623
  253MPD2     H 3891   1.010   0.291  15.577 -0.0150 -2.3092  1.8963
  253MPD2    H1 3892   1.206   0.392  15.943  1.3683  1.2521  0.1699
  253MPD2    H2 3893   1.364   0.546  15.588  0.2266 -0.9940  0.7450
  253MPD2    H3 3894   1.385   0.510  15.808 -0.5296 -2.2464  1.7379
  253MPD2     N 3895   0.978   0.307  15.855 -0.2910  0.0433  0.0564
  253MPD2    H5 3896   0.988   0.307  15.956 -1.4527 -0.5744  0.1723
  253MPD2    N1 3897   1.162   0.437  15.417 -0.4058 -0.0053  0.2304
  253MPD2    H7 3898   1.080   0.396  15.374  0.7252 -0.9123 -1.0940
  254TMC3    C1 3899   0.752   0.338  15.910 -0.6364 -0.2967 -1.2165
  254TMC3    C2 3900   0.663   0.438  15.888 -0.5502  0.2696  0.7051
  254TMC3    C3 3901   0.606   0.495  15.995  0.2614  0.0912  1.1855
  254TMC3    C4 3902   0.787   0.295  16.041  0.3968  0.2064  0.3778
  254TMC3    C5 3903   0.726   0.358  16.146 -0.1905  0.1207 -0.2652
  254TMC3    C6 3904   0.627   0.452  16.125  0.2451 -0.1671 -0.1043
  254TMC3     C 3905   0.851   0.326  15.807  0.3823  0.1686  0.5492
  254TMC3     O 3906   0.816   0.354  15.689  0.3094 -0.7037  0.0730
  254TMC3     H 3907   0.636   0.473  15.789 -1.3984 -2.0473  0.1089
  254TMC3    H1 3908   0.867   0.225  16.061 -0.3187 -1.2438 -1.8598
  254TMC3    H2 3909   0.581   0.501  16.210 -0.1429 -0.0907 -0.3616
  254TMC3    C7 3910   0.716   0.291  16.272 -1.1592 -0.1546 -0.5816
  254TMC3    C8 3911   0.513   0.604  15.979  0.6308 -0.5180  0.5626
  254TMC3    O1 3912   0.605   0.296  16.334 -0.5729  0.1832 -0.1483
  254TMC3    O2 3913   0.447   0.620  16.079 -1.1174 -0.1320 -0.1633
  255MPD2     C 3914   4.041   3.742  10.351  0.4706 -0.2182 -0.0986
  255MPD2    C1 3915   4.118   3.842  10.306 -0.1302 -0.2628 -0.9001
  255MPD2    C2 3916   4.247   3.835  10.313  0.3086  0.2703 -0.0916
  255MPD2    C3 3917   4.298   3.720  10.366  0.2305 -0.3663  0.1491
  255MPD2    C4 3918   4.223   3.615  10.416 -0.4655 -0.6174  0.7974
  255MPD2    C5 3919   4.093   3.632  10.416 -0.2125  0.0850  0.2176
  255MPD2     H 3920   4.323   3.906  10.283 -0.8762  1.3965 -0.3833
  255MPD2    H1 3921   4.262   3.519  10.447  1.3014  0.2476  1.2403
  255MPD2    H2 3922   3.933   3.736  10.348  0.4540 -0.5307  1.1543
  255MPD2    H3 3923   4.031   3.545  10.433  0.2767 -0.1537  0.8105
  255MPD2     N 3924   4.441   3.712  10.357  0.4823 -0.4694 -0.0532
  255MPD2    H5 3925   4.484   3.797  10.320 -0.9322  0.9351  1.5156
  255MPD2    N1 3926   4.053   3.953  10.248 -0.4685 -0.2754 -0.0166
  255MPD2    H7 3927   3.955   3.950  10.220 -0.7172  0.4300  0.7425
  256TMC3    C1 3928   4.027   4.157  10.151  0.2556  0.1000  0.2445
  256TMC3    C2 3929   4.090   4.204  10.030  0.2836  0.3145  0.4928
  256TMC3    C3 3930   4.023   4.196   9.910 -0.8136  0.5152 -0.4804
  256TMC3    C4 3931   3.901   4.106  10.149  0.0792 -0.7212  0.3966
  256TMC3    C5 3932   3.841   4.092  10.030 -0.5291  0.6108  0.1890
  256TMC3    C6 3933   3.897   4.137   9.912  0.0585  0.2636  0.1235
  256TMC3     C 3934   4.117   4.067  10.222  0.0235  0.9110  0.3682
  256TMC3     O 3935   4.237   4.104  10.220 -0.1060 -0.2548  0.6347
  256TMC3     H 3936   4.190   4.244  10.030 -0.7388  2.8942  1.6214
  256TMC3    H1 3937   3.845   4.094  10.241 -3.5579  0.0546 -1.7284
  256TMC3    H2 3938   3.852   4.116   9.816  0.9165  0.6295 -0.3589
  256TMC3    C7 3939   3.755   3.981  10.030  0.0968 -0.2085  0.3822
  256TMC3    C8 3940   4.061   4.277   9.796 -0.4210 -0.3459  0.0752
  256TMC3    O1 3941   3.767   3.907  10.129  0.2157  0.4327 -0.7551
  256TMC3    O2 3942   3.978   4.329   9.722  0.3473 -0.1440  0.2777
  257MPD2     C 3943   3.440   0.479  12.996 -0.3591 -0.6942 -0.1940
  257MPD2    C1 3944   3.513   0.374  12.946 -0.0062  0.6436 -0.1173
  257MPD2    C2 3945   3.568   0.290  13.038  0.5839 -0.4777 -0.1256
  257MPD2    C3 3946   3.526   0.291  13.168  0.4960  0.0688  0.0751
  257MPD2    C4 3947   3.451   0.394  13.211  0.0158  0.1376 -0.4782
  257MPD2    C5 3948   3.394   0.480  13.123  0.0282  0.8424 -0.0985
  257MPD2     H 3949   3.640   0.211  13.014 -1.4762 -2.3021 -0.2938
  257MPD2    H1 3950   3.426   0.399  13.317  1.3597  0.8339 -0.1948
  257MPD2    H2 3951   3.390   0.550  12.930 -2.8487 -2.5249 -0.2911
  257MPD2    H3 3952   3.326   0.557  13.157 -1.7901 -0.6543 -0.3417
  257MPD2     N 3953   3.581   0.191  13.253 -0.5508  0.0019 -0.5896
  257MPD2    H5 3954   3.628   0.116  13.203 -0.1637  0.7979 -1.4342
  257MPD2    N1 3955   3.538   0.377  12.806 -0.2366 -0.3410  0.4123
  257MPD2    H7 3956   3.504   0.452  12.746 -0.5639 -1.9239 -1.3956
  258TMC3    C1 3957   3.656   0.072  13.451  0.6315  0.0464 -0.2358
  258TMC3    C2 3958   3.742   4.740  13.372 -0.5875  0.5167  0.9855
  258TMC3    C3 3959   3.834   4.660  13.432 -1.0716  0.1438  0.2460
  258TMC3    C4 3960   3.662   0.065  13.591 -0.0005 -0.1807  0.1638
  258TMC3    C5 3961   3.763   4.730  13.653 -0.1377  0.4912  0.6089
  258TMC3    C6 3962   3.845   4.652  13.572 -0.5869  0.0354  0.3768
  258TMC3     C 3963   3.570   0.181  13.394 -0.2252  0.1023 -0.4987
  258TMC3     O 3964   3.507   0.251  13.478  0.0843  0.8699 -0.0155
  258TMC3     H 3965   3.750   0.030  13.269 -0.6836  1.5337  1.2943
  258TMC3    H1 3966   3.584   0.109  13.652 -0.0222 -0.3946  0.2921
  258TMC3    H2 3967   3.916   4.581  13.613  0.0844  0.9758  0.8198
  258TMC3    C7 3968   3.743   4.696  13.796  0.4855 -0.3916 -0.3746
  258TMC3    C8 3969   3.870   4.534  13.372 -0.0678  0.8234  0.1018
  258TMC3    O1 3970   3.636   4.721  13.853 -0.1637  0.1621  0.0122
  258TMC3    O2 3971   3.981   4.490  13.405  0.2375 -0.8947 -0.0003
  259MPD2     C 3972   1.640   1.873   0.660 -0.1073 -0.4251  0.2706
  259MPD2    C1 3973   1.722   1.770   0.624  0.0397  0.0529 -0.1726
  259MPD2    C2 3974   1.734   1.744   0.488  0.2395 -0.6217  0.2939
  259MPD2    C3 3975   1.667   1.814   0.397 -0.0800  0.3302  0.1349
  259MPD2    C4 3976   1.571   1.912   0.436  0.4049  0.0481 -0.3321
  259MPD2    C5 3977   1.553   1.925   0.572  0.1269 -0.2724 -0.7123
  259MPD2     H 3978   1.815   1.678   0.458  1.5243  0.8186  0.6276
  259MPD2    H1 3979   1.525   1.986   0.372 -1.7512 -0.6119  0.4383
  259MPD2    H2 3980   1.621   1.905   0.761 -2.4575 -1.5157  0.1648
  259MPD2    H3 3981   1.487   1.999   0.615  0.0975  0.6305 -2.3041
  259MPD2     N 3982   1.707   1.793   0.264 -0.7313 -0.1609  0.3051
  259MPD2    H5 3983   1.770   1.715   0.248  0.0858  0.5079  0.2593
  259MPD2    N1 3984   1.798   1.709   0.731  0.2380  0.1351 -0.0522
  259MPD2    H7 3985   1.769   1.745   0.821  0.5520 -0.9410  0.4793
  260TMC3    C1 3986   1.750   1.856   0.043  0.8944 -0.7363  0.9434
  260TMC3    C2 3987   1.822   1.957  17.749  0.5095  0.1554  0.0095
  260TMC3    C3 3988   1.903   1.924  17.642  0.4098 -0.2255 -0.2768
  260TMC3    C4 3989   1.753   1.727   0.009  0.1735 -0.1949  0.1947
  260TMC3    C5 3990   1.829   1.698  17.670  0.1547 -0.2235  0.0667
  260TMC3    C6 3991   1.901   1.794  17.606  0.0163  0.2101  0.3941
  260TMC3     C 3992   1.689   1.893   0.169  0.0817  0.0151  0.1802
  260TMC3     O 3993   1.652   2.010   0.179  0.1775 -0.4472 -0.3762
  260TMC3     H 3994   1.818   2.056   0.025  3.2391 -0.4832  1.8508
  260TMC3    H1 3995   1.694   1.652   0.063 -0.4559  0.4828  0.4553
  260TMC3    H2 3996   1.933   1.765  17.507  0.5684  0.3850  0.5195
  260TMC3    C7 3997   1.818   1.566  17.601 -0.1738  0.3088 -0.1302
  260TMC3    C8 3998   2.036   1.963  17.676  0.2289 -0.2458  0.3407
  260TMC3    O1 3999   1.912   1.532  17.532 -0.0395  0.3418  0.1262
  260TMC3    O2 4000   2.056   2.070  17.723  0.1901 -0.1900 -0.1608
  261MPD2     C 4001   4.137   0.304  12.208  0.1092 -0.0675 -0.3865
  261MPD2    C1 4002   4.215   0.382  12.284 -0.6964  0.5848  0.0707
  261MPD2    C2 4003   4.301   0.472  12.219 -0.3049 -0.1890  0.2288
  261MPD2    C3 4004   4.320   0.480  12.083  0.8895 -0.3148 -0.3404
  261MPD2    C4 4005   4.249   0.391  12.007 -0.4990  0.0834  0.0069
  261MPD2    C5 4006   4.147   0.316  12.068 -0.5910 -0.0520 -0.1977
  261MPD2     H 4007   4.360   0.538  12.281  0.2656 -0.8824  0.4257
  261MPD2    H1 4008   4.257   0.379  11.899 -0.4955 -0.9133  0.1154
  261MPD2    H2 4009   4.076   0.231  12.258 -0.7059  0.3711 -0.7368
  261MPD2    H3 4010   4.087   0.247  12.011 -0.8076 -0.7619  0.8954
  261MPD2     N 4011   4.404   0.575  12.029 -0.5104 -0.6257  0.0886
  261MPD2    H5 4012   4.444   0.654  12.079 -1.9317 -0.4495  0.9469
  261MPD2    N1 4013   4.226   0.370  12.429  0.5562 -0.4084 -0.3514
  261MPD2    H7 4014   4.272   0.444  12.481  1.5354  0.3672 -2.3629
  262TMC3    C1 4015   4.534   0.680  11.868 -0.0268  0.0540  0.8819
  262TMC3    C2 4016   4.503   0.800  11.923 -0.2810 -0.2170 -0.0568
  262TMC3    C3 4017   4.566   0.914  11.878  0.6056  0.7225  0.2004
  262TMC3    C4 4018   4.630   0.672  11.774 -0.3775 -0.2052 -0.3708
  262TMC3    C5 4019   4.691   0.788  11.729  0.4272  0.5500  0.7001
  262TMC3    C6 4020   4.666   0.907  11.781 -0.1495  0.1332  0.5117
  262TMC3     C 4021   4.454   0.564  11.896  0.8716 -1.1182  0.4540
  262TMC3     O 4022   4.476   0.464  11.828  0.1839 -0.0468  0.2427
  262TMC3     H 4023   4.439   0.809  12.009 -0.9935  0.7686 -0.6792
  262TMC3    H1 4024   4.654   0.574  11.735 -0.8993 -0.5215  0.0838
  262TMC3    H2 4025   4.705   1.002  11.748 -2.7521  1.6773  1.9065
  262TMC3    C7 4026   0.020   0.767  11.597 -0.2393 -0.2351 -0.7619
  262TMC3    C8 4027   4.505   1.046  11.889 -0.2724 -0.3745  0.2498
  262TMC3    O1 4028   0.038   0.651  11.557 -0.3816 -0.4578  0.0727
  262TMC3    O2 4029   4.578   1.145  11.894 -0.5609 -0.0636  0.0152
  263MPD2     C 4030   0.683   4.107  11.437 -0.5525 -0.0077 -0.4695
  263MPD2    C1 4031   0.730   4.242  11.460 -0.2595 -0.1807  0.1810
  263MPD2    C2 4032   0.730   4.323  11.349  0.2085  0.3733 -0.8502
  263MPD2    C3 4033   0.707   4.273  11.219  0.3017 -0.1598 -0.7020
  263MPD2    C4 4034   0.683   4.134  11.196  0.1675 -1.0671  0.2187
  263MPD2    C5 4035   0.668   4.059  11.310  0.9215 -0.0392 -0.2126
  263MPD2     H 4036   0.756   4.425  11.372  0.4725  0.1225 -0.0238
  263MPD2    H1 4037   0.670   4.087  11.100  0.2631 -1.5560  0.4468
  263MPD2    H2 4038   0.666   4.038  11.519 -1.9851  0.0013 -0.7521
  263MPD2    H3 4039   0.649   3.953  11.296  1.0559  0.1945 -2.2550
  263MPD2     N 4040   0.723   4.360  11.110 -0.0419  0.0304  0.0934
  263MPD2    H5 4041   0.759   4.454  11.126  0.0395  0.3158 -1.7659
  263MPD2    N1 4042   0.766   4.291  11.589  0.1567  0.2431 -0.6424
  263MPD2    H7 4043   0.834   4.366  11.598 -0.6778  1.2003 -2.4807
  264TMC3    C1 4044   0.754   4.437  10.897 -0.5111 -0.0106  0.2766
  264TMC3    C2 4045   0.719   4.564  10.925  0.2489  0.0599 -0.7180
  264TMC3    C3 4046   0.716   4.656  10.819 -0.5283  0.1214 -0.3828
  264TMC3    C4 4047   0.802   4.395  10.776 -0.3427  0.3783  0.2951
  264TMC3    C5 4048   0.816   4.488  10.674  0.3837  0.4330  0.2869
  264TMC3    C6 4049   0.774   4.616  10.698 -0.1221 -0.4769  0.0727
  264TMC3     C 4050   0.713   4.325  10.978  0.1287  0.4849  0.0795
  264TMC3     O 4051   0.704   4.215  10.924 -0.0994 -0.2112  0.5365
  264TMC3     H 4052   0.660   4.585  11.013 -0.3999  2.7500 -1.7885
  264TMC3    H1 4053   0.829   4.293  10.753  1.7892  1.2040 -0.8156
  264TMC3    H2 4054   0.774   4.680  10.611 -1.9268 -1.1251 -0.3962
  264TMC3    C7 4055   0.951   4.492  10.618 -0.7605  0.1886 -0.2744
  264TMC3    C8 4056   0.762   0.048  10.845  1.0079  0.4621  0.3138
  264TMC3    O1 4057   0.987   4.396  10.553 -0.1345  0.3361  0.4028
  264TMC3    O2 4058   0.848   0.096  10.767  0.1558  0.4054 -0.8856
  265MPD2     C 4059   1.878   0.352  15.215 -0.1133  0.4343 -0.1165
  265MPD2    C1 4060   1.984   0.435  15.176  0.0733  0.1982 -0.3266
  265MPD2    C2 4061   2.099   0.373  15.123  0.4698  0.1559 -0.3017
  265MPD2    C3 4062   2.097   0.235  15.101 -0.9087  0.5218  0.7230
  265MPD2    C4 4063   1.999   0.159  15.165  0.0373  0.3270 -0.6397
  265MPD2    C5 4064   1.889   0.220  15.219 -0.2418 -0.3885 -0.1435
  265MPD2     H 4065   2.175   0.442  15.088 -0.8568  1.3224 -0.8763
  265MPD2    H1 4066   1.998   0.051  15.171  0.6653  0.4344  1.4901
  265MPD2    H2 4067   1.784   0.383  15.259  0.7516  2.6314  0.1381
  265MPD2    H3 4068   1.806   0.165  15.262  0.7667 -1.4375  0.4671
  265MPD2     N 4069   2.210   0.163  15.045  0.1556 -0.1885 -0.0250
  265MPD2    H5 4070   2.209   0.062  15.054 -0.9733 -0.3539 -2.0038
  265MPD2    N1 4071   1.971   0.574  15.183  0.7027 -0.7643 -0.7087
  265MPD2    H7 4072   2.060   0.620  15.167  1.4764 -2.9491 -2.6043
  266TMC3    C1 4073   1.879   0.770  15.271  0.4134 -0.2937 -0.0142
  266TMC3    C2 4074   1.981   0.791  15.358  0.1966  0.5662  0.0638
  266TMC3    C3 4075   1.978   0.901  15.433  0.1161  0.9731 -0.5228
  266TMC3    C4 4076   1.766   0.855  15.272  0.0905 -0.3757 -0.5664
  266TMC3    C5 4077   1.765   0.971  15.349  0.2614  0.1531 -0.4079
  266TMC3    C6 4078   1.876   0.993  15.436  0.1311  0.3694 -0.3554
  266TMC3     C 4079   1.853   0.641  15.218  0.0382 -0.0113 -0.4497
  266TMC3     O 4080   1.739   0.599  15.206  0.3615  0.1187 -0.0183
  266TMC3     H 4081   2.068   0.726  15.359 -1.3728 -1.5149  0.8026
  266TMC3    H1 4082   1.682   0.833  15.207  0.3044 -2.0416 -0.2998
  266TMC3    H2 4083   1.871   1.074  15.508  2.8113 -0.7220  1.0809
  266TMC3    C7 4084   1.658   1.074  15.354 -0.8009 -0.6954 -0.3291
  266TMC3    C8 4085   2.077   0.896  15.538  0.4582  0.0127 -0.0850
  266TMC3    O1 4086   1.549   1.035  15.311 -0.3377 -0.2080  0.1999
  266TMC3    O2 4087   2.127   0.787  15.561 -0.1300  0.4916 -0.1060
  267MPD2     C 4088   3.975   2.545   0.294 -0.7349  0.4034 -0.1646
  267MPD2    C1 4089   4.001   2.473   0.182 -0.4790  0.9572 -0.2909
  267MPD2    C2 4090   3.900   2.469   0.089 -0.1717 -0.0270  0.0460
  267MPD2    C3 4091   3.774   2.523   0.106 -0.1872  0.3505 -1.2238
  267MPD2    C4 4092   3.753   2.590   0.219  0.0696 -0.0391 -0.7237
  267MPD2    C5 4093   3.855   2.604   0.308 -0.4569 -0.5216  0.0615
  267MPD2     H 4094   3.917   2.403   0.004 -0.3140 -0.5220  0.3975
  267MPD2    H1 4095   3.662   2.641   0.247 -1.1225 -1.9485 -1.1287
  267MPD2    H2 4096   4.045   2.572   0.373  0.0481 -2.1635  0.0026
  267MPD2    H3 4097   3.834   2.669   0.392  1.8891  2.1479 -1.4286
  267MPD2     N 4098   3.659   2.492   0.027  0.6828 -0.2701  0.5143
  267MPD2    H5 4099   3.574   2.539   0.058  0.5463  0.0034 -0.2845
  267MPD2    N1 4100   4.133   2.414   0.166 -0.3854 -0.1169  0.1726
  267MPD2    H7 4101   4.197   2.423   0.245 -0.0033  1.7132 -0.3460
  268TMC3    C1 4102   4.310   2.290   0.081 -0.2941 -0.3395  0.5951
  268TMC3    C2 4103   4.394   2.284  17.739  0.0605  0.0160  0.2693
  268TMC3    C3 4104   4.524   2.225  17.754 -0.0924 -0.1722  0.0975
  268TMC3    C4 4105   4.350   2.269   0.211 -0.5887  0.8585 -0.7789
  268TMC3    C5 4106   4.484   2.240   0.222 -0.9303  0.2991  0.0481
  268TMC3    C6 4107   4.570   2.210   0.118 -0.4890 -0.1798  0.1216
  268TMC3     C 4108   4.183   2.351   0.056  0.1902 -0.2141 -0.6587
  268TMC3     O 4109   4.138   2.329  17.707  0.2916 -0.6822 -0.0309
  268TMC3     H 4110   4.349   2.290  17.641 -1.3943 -1.9804  0.8153
  268TMC3    H1 4111   4.287   2.287   0.296 -0.5101  2.4348 -1.0586
  268TMC3    H2 4112   4.672   2.173   0.127 -0.7096 -0.8889 -0.2870
  268TMC3    C7 4113   4.530   2.202   0.351  0.2720  0.1548  0.2926
  268TMC3    C8 4114   4.600   2.177  17.643  1.1534 -0.0776  0.1159
  268TMC3    O1 4115   4.643   2.154   0.344 -0.3301 -0.0819  0.2818
  268TMC3    O2 4116   4.715   2.140  17.667 -0.1654  0.0885  0.3722
  269MPD2     C 4117   0.210   0.988  15.392 -0.8086 -0.2779 -0.1313
  269MPD2    C1 4118   0.115   0.996  15.494 -0.3502  0.3788  0.1099
  269MPD2    C2 4119   0.071   1.115  15.541  0.2731 -0.0908  0.3559
  269MPD2    C3 4120   0.096   1.229  15.469  0.5091 -0.6548  0.0449
  269MPD2    C4 4121   0.190   1.216  15.365  0.2098  0.2747 -0.2190
  269MPD2    C5 4122   0.251   1.100  15.337 -0.3783  0.2823 -0.0286
  269MPD2     H 4123   0.008   1.117  15.629  3.0906 -1.0301  2.4110
  269MPD2    H1 4124   0.226   1.299  15.306 -1.4000  1.5491  0.5979
  269MPD2    H2 4125   0.262   0.896  15.370  1.1095  0.9056 -0.4889
  269MPD2    H3 4126   0.319   1.092  15.254 -0.1673  1.1642  0.0618
  269MPD2     N 4127   0.033   1.350  15.506 -0.1541  0.2247  0.2761
  269MPD2    H5 4128   4.716   1.345  15.588  1.5447 -1.2272  1.3979
  269MPD2    N1 4129   0.078   0.878  15.554  0.5711 -0.0964  0.6293
  269MPD2    H7 4130   0.128   0.796  15.521  0.3242  0.2801 -0.6913
  270TMC3    C1 4131   4.736   0.715  15.705 -0.5027  0.2415  0.1920
  270TMC3    C2 4132   4.624   0.651  15.750  0.6195 -0.1179 -0.3728
  270TMC3    C3 4133   4.630   0.520  15.803 -0.5028 -0.1340  0.2156
  270TMC3    C4 4134   0.116   0.660  15.739 -0.2785 -0.2884  0.3494
  270TMC3    C5 4135   0.111   0.540  15.810  0.2624  0.5233 -0.1306
  270TMC3    C6 4136   0.006   0.471  15.847 -0.0574  0.4988 -0.0739
  270TMC3     C 4137   4.725   0.851  15.654 -0.0369 -0.0414  0.6756
  270TMC3     O 4138   4.631   0.923  15.691 -0.2546  0.0771 -0.3555
  270TMC3     H 4139   4.535   0.675  15.693 -0.6732  0.9493  2.1166
  270TMC3    H1 4140   0.207   0.711  15.711 -1.8554  2.3962  0.1383
  270TMC3    H2 4141   0.011   0.364  15.865 -2.9200  0.4924  0.7220
  270TMC3    C7 4142   0.232   0.460  15.797 -0.8597 -0.6001 -0.3796
  270TMC3    C8 4143   4.580   0.421  15.711 -0.0712 -0.9140 -0.3634
  270TMC3    O1 4144   0.314   0.481  15.708 -0.0283 -0.2002 -0.3860
  270TMC3    O2 4145   4.660   0.337  15.671  0.6308 -0.1097  0.3213
  271MPD2     C 4146   3.912   0.587  14.105 -0.5943  0.9881  0.1393
  271MPD2    C1 4147   3.842   0.522  14.211 -0.0399 -0.3433 -0.4480
  271MPD2    C2 4148   3.707   0.502  14.197  0.3184 -0.2190 -0.2674
  271MPD2    C3 4149   3.645   0.551  14.085  0.4165  0.5260 -0.4892
  271MPD2    C4 4150   3.712   0.615  13.979  0.6312 -0.2198  0.0844
  271MPD2    C5 4151   3.846   0.636  13.994 -0.6514 -0.0362  0.2167
  271MPD2     H 4152   3.662   0.445  14.278 -1.5200 -0.0762 -1.1978
  271MPD2    H1 4153   3.667   0.646  13.886 -0.5557 -1.3251  0.3002
  271MPD2    H2 4154   4.018   0.607  14.110 -0.2213 -0.9112 -0.3020
  271MPD2    H3 4155   3.893   0.692  13.914 -1.1919 -1.4378 -1.0853
  271MPD2     N 4156   3.504   0.534  14.068  0.1681  0.1448 -0.1735
  271MPD2    H5 4157   3.456   0.541  13.979  1.3402 -1.6619 -0.9381
  271MPD2    N1 4158   3.915   0.454  14.316 -0.3038  0.0323  0.1611
  271MPD2    H7 4159   3.867   0.412  14.395 -0.4197 -1.8201 -0.9074
  272TMC3    C1 4160   4.091   0.360  14.439 -0.4346 -0.7671 -0.2069
  272TMC3    C2 4161   4.196   0.279  14.426 -0.2907  0.3965  0.1089
  272TMC3    C3 4162   4.241   0.206  14.531  0.1696  0.3444 -0.7861
  272TMC3    C4 4163   4.032   0.372  14.557 -0.1551 -1.0082 -0.9202
  272TMC3    C5 4164   4.088   0.313  14.665  0.8906  0.2415 -0.1187
  272TMC3    C6 4165   4.189   0.229  14.656 -0.1987 -0.1620 -0.1440
  272TMC3     C 4166   4.050   0.428  14.318  0.7847  0.0666 -0.0899
  272TMC3     O 4167   4.128   0.453  14.231  0.0609  0.0834 -0.0600
  272TMC3     H 4168   4.247   0.261  14.332  0.6475 -0.9429  0.8889
  272TMC3    H1 4169   3.959   0.451  14.571  1.3833  0.4973 -1.2495
  272TMC3    H2 4170   4.241   0.185  14.740  1.0792 -1.5729 -1.6862
  272TMC3    C7 4171   4.062   0.378  14.794 -0.1243 -0.3635 -0.1906
  272TMC3    C8 4172   4.349   0.113  14.503 -0.2232 -0.1186  0.6911
  272TMC3    O1 4173   3.947   0.406  14.823  0.2241 -0.6213  0.4661
  272TMC3    O2 4174   4.386   0.105  14.386 -0.3689  0.1010  0.3220
  273MPD2     C 4175   1.250   3.054  12.022 -0.2359 -0.4432 -0.5558
  273MPD2    C1 4176   1.382   3.077  11.990  0.4940 -0.3912 -0.5174
  273MPD2    C2 4177   1.409   3.130  11.864  0.2074 -0.8604  0.3170
  273MPD2    C3 4178   1.310   3.164  11.774 -0.1217 -0.7435  0.3919
  273MPD2    C4 4179   1.177   3.139  11.812 -0.1564  0.0314  0.0645
  273MPD2    C5 4180   1.147   3.083  11.934  0.1272  0.4812 -0.3179
  273MPD2     H 4181   1.513   3.147  11.839 -0.6265  1.0295 -1.8449
  273MPD2    H1 4182   1.097   3.170  11.745  1.1973  0.4185 -1.3748
  273MPD2    H2 4183   1.214   3.023  12.120  1.9739  0.0243  0.3973
  273MPD2    H3 4184   1.044   3.060  11.958  0.3147 -0.5590 -0.5092
  273MPD2     N 4185   1.330   3.223  11.651 -0.3934  0.2164  0.1611
  273MPD2    H5 4186   1.246   3.241  11.598  2.2300  1.7231 -3.5341
  273MPD2    N1 4187   1.483   3.062  12.088 -0.0615  0.6943 -0.4267
  273MPD2    H7 4188   1.457   3.071  12.185  0.1537  0.0996 -0.3104
  274TMC3    C1 4189   1.443   3.356  11.493  0.3089 -0.2337  0.6809
  274TMC3    C2 4190   1.354   3.342  11.390  0.2006  0.4957  0.7277
  274TMC3    C3 4191   1.359   3.435  11.291  0.4619 -0.1582  0.3213
  274TMC3    C4 4192   1.519   3.478  11.510 -0.4883  0.0811  0.2704
  274TMC3    C5 4193   1.502   3.570  11.414  0.2224  0.6834 -0.2155
  274TMC3    C6 4194   1.437   3.550  11.297  0.1719  0.5137  0.2997
  274TMC3     C 4195   1.451   3.279  11.612  0.5455  0.1365 -0.4039
  274TMC3     O 4196   1.558   3.273  11.669  0.3872 -0.4693 -0.3744
  274TMC3     H 4197   1.287   3.257  11.383  0.6206  0.4929 -2.9973
  274TMC3    H1 4198   1.558   3.502  11.608 -1.9205  0.1180  0.8333
  274TMC3    H2 4199   1.410   3.618  11.217 -0.6165 -1.8351 -1.4541
  274TMC3    C7 4200   1.443   3.687  11.480 -0.1731  0.7889  0.6639
  274TMC3    C8 4201   1.255   3.431  11.185 -0.5252 -0.2103 -0.3941
  274TMC3    O1 4202   1.369   3.670  11.577 -0.1927 -0.3644 -0.3652
  274TMC3    O2 4203   1.157   3.366  11.211 -0.2675 -0.0900 -0.1188
  275MPD2     C 4204   0.764   1.455  14.162  0.3453 -0.1833 -0.2592
  275MPD2    C1 4205   0.792   1.375  14.273 -0.3585 -0.0932 -0.6019
  275MPD2    C2 4206   0.731   1.251  14.285 -0.0867 -0.4792  0.3296
  275MPD2    C3 4207   0.636   1.206  14.190  0.7073 -0.4253 -0.1276
  275MPD2    C4 4208   0.614   1.279  14.077 -0.4294 -0.1266  0.7229
  275MPD2    C5 4209   0.681   1.401  14.063 -0.8085  0.5026  0.1612
  275MPD2     H 4210   0.754   1.191  14.372 -2.8937 -0.4058  1.1163
  275MPD2    H1 4211   0.535   1.250  14.009 -1.2337  0.7507  1.2788
  275MPD2    H2 4212   0.813   1.551  14.156  3.1342 -1.4471  2.3109
  275MPD2    H3 4213   0.668   1.454  13.970  0.5480  1.8279  0.7255
  275MPD2     N 4214   0.544   1.100  14.219 -0.4484 -0.6510 -0.2244
  275MPD2    H5 4215   0.463   1.096  14.158 -1.7372 -1.1789  1.5382
  275MPD2    N1 4216   0.857   1.429  14.388  0.3336 -0.6581  0.3234
  275MPD2    H7 4217   0.859   1.531  14.388  1.8852 -0.6859 -1.0981
  276TMC3    C1 4218   0.913   1.453  14.613  0.0694  0.0992  0.1393
  276TMC3    C2 4219   0.878   1.405  14.738  0.2485 -0.2831 -0.9551
  276TMC3    C3 4220   0.854   1.493  14.832  0.0126 -0.2093  0.1421
  276TMC3    C4 4221   0.939   1.585  14.591  0.2234  0.2548  0.0415
  276TMC3    C5 4222   0.917   1.672  14.694  0.2498  0.8850  0.0545
  276TMC3    C6 4223   0.876   1.628  14.815  0.5974 -0.3951  0.6171
  276TMC3     C 4224   0.900   1.362  14.500  0.1750  0.2430 -0.3618
  276TMC3     O 4225   0.892   1.242  14.527 -0.2028 -0.2542 -0.5254
  276TMC3     H 4226   0.839   1.304  14.749 -0.9315  0.4364  1.2668
  276TMC3    H1 4227   0.979   1.617  14.496 -0.5535 -0.6590 -0.5893
  276TMC3    H2 4228   0.876   1.695  14.901  0.9660 -0.0715  0.3638
  276TMC3    C7 4229   0.971   1.805  14.698 -0.1029  0.7462 -0.3992
  276TMC3    C8 4230   0.871   1.451  14.958 -0.5705  0.0162 -0.9233
  276TMC3    O1 4231   0.922   1.881  14.783 -0.1474  0.3261  0.3626
  276TMC3    O2 4232   0.824   1.525  15.050  0.4002  0.2840 -0.5997
  277MPD2     C 4233   3.060   0.403  12.924 -0.4731 -0.1920  0.6891
  277MPD2    C1 4234   2.936   0.444  12.952 -0.1818 -0.3585 -0.1649
  277MPD2    C2 4235   2.865   0.382  13.055 -0.2519  0.1384 -0.2661
  277MPD2    C3 4236   2.919   0.274  13.123  0.4027 -0.4125  0.8447
  277MPD2    C4 4237   3.042   0.225  13.087  0.0249 -0.6884 -0.2625
  277MPD2    C5 4238   3.107   0.295  12.991  0.3149  0.8368  0.4095
  277MPD2     H 4239   2.771   0.418  13.094  0.4918  0.8732  0.8825
  277MPD2    H1 4240   3.090   0.140  13.134 -0.0766 -1.7405 -2.0425
  277MPD2    H2 4241   3.119   0.459  12.852 -1.5619 -0.9280 -0.7800
  277MPD2    H3 4242   3.206   0.255  12.969 -0.1422  0.1843 -0.4710
  277MPD2     N 4243   2.836   0.217  13.225  0.3567 -0.5454 -0.0146
  277MPD2    H5 4244   2.741   0.254  13.234  0.1674 -1.5968  2.3854
  277MPD2    N1 4245   2.882   0.554  12.877  0.0715  0.0285  0.2861
  277MPD2    H7 4246   2.939   0.607  12.811  1.2191 -1.0776  0.4111
  278TMC3    C1 4247   2.752   0.062  13.375  0.5640 -0.6335  0.0404
  278TMC3    C2 4248   2.771   4.728  13.493 -0.1948  0.5840  0.2180
  278TMC3    C3 4249   2.660   4.675  13.558  0.3910 -0.6938 -0.3170
  278TMC3    C4 4250   2.624   0.088  13.329  0.3837  0.0178  0.2733
  278TMC3    C5 4251   2.519   0.053  13.418 -0.0857 -0.0222  0.0551
  278TMC3    C6 4252   2.530   4.713  13.526 -0.4054  0.5222 -0.2670
  278TMC3     C 4253   2.869   0.115  13.307  0.6068  0.2333 -0.3982
  278TMC3     O 4254   2.983   0.069  13.332  0.6876  0.0616  0.1311
  278TMC3     H 4255   2.870   4.697  13.525  0.1046  1.4081  0.1109
  278TMC3    H1 4256   2.605   0.143  13.238  1.8629  0.4272  0.2276
  278TMC3    H2 4257   2.451   4.678  13.590 -0.2382  1.6452  0.5479
  278TMC3    C7 4258   2.387   0.106  13.392  0.0935  0.2020  0.0303
  278TMC3    C8 4259   2.690   4.581  13.668  0.4300 -0.3764 -0.8234
  278TMC3    O1 4260   2.361   0.132  13.272 -0.4946  0.0811 -0.0477
  278TMC3    O2 4261   2.790   4.601  13.733 -0.0061 -0.3394 -0.8574
  279MPD2     C 4262   1.082   0.765   0.243 -0.1344  0.4346 -0.1860
  279MPD2    C1 4263   1.009   0.826   0.141  0.4112  0.3175  0.6207
  279MPD2    C2 4264   1.003   0.760   0.017  0.0023 -0.1700  0.2018
  279MPD2    C3 4265   1.046   0.628   0.002 -0.2323  0.2077 -0.8531
  279MPD2    C4 4266   1.105   0.565   0.113  0.3719 -0.4979  0.0793
  279MPD2    C5 4267   1.123   0.637   0.225 -0.4332 -0.1250  0.1739
  279MPD2     H 4268   0.944   0.805  17.704 -1.9916 -0.5363  1.4636
  279MPD2    H1 4269   1.129   0.460   0.121  0.9902 -0.5518 -2.5648
  279MPD2    H2 4270   1.093   0.816   0.338 -2.3596  1.7656 -0.6408
  279MPD2    H3 4271   1.172   0.597   0.313  1.0567 -2.2529 -1.6294
  279MPD2     N 4272   1.019   0.564  17.645 -0.2030 -0.0443 -0.3710
  279MPD2    H5 4273   0.992   0.618  17.564 -0.2065  0.6391  0.0843
  279MPD2    N1 4274   0.974   0.963   0.168 -0.5689 -0.3849 -0.2386
  279MPD2    H7 4275   1.008   0.995   0.257 -0.1310  0.7013 -0.8057
  280TMC3    C1 4276   0.906   1.194   0.150 -0.7347 -0.7118 -0.9050
  280TMC3    C2 4277   0.934   1.206   0.284 -0.3620  0.3201 -0.2203
  280TMC3    C3 4278   0.930   1.335   0.340  1.3645  0.3016  0.0492
  280TMC3    C4 4279   0.859   1.290   0.072  0.4412  0.1393  0.8124
  280TMC3    C5 4280   0.861   1.416   0.129  0.6753  0.1747 -0.0981
  280TMC3    C6 4281   0.899   1.440   0.260 -0.4617 -0.2015  0.4311
  280TMC3     C 4282   0.910   1.059   0.087  0.1307  0.1625  0.1313
  280TMC3     O 4283   0.887   1.033  17.739  0.2014 -0.3872 -0.1635
  280TMC3     H 4284   0.975   1.132   0.352 -0.2038 -1.1638 -1.9365
  280TMC3    H1 4285   0.848   1.262  17.734  0.4287 -0.5659  0.9997
  280TMC3    H2 4286   0.917   1.543   0.286  0.1651 -0.5238  1.2540
  280TMC3    C7 4287   0.821   1.532   0.048 -0.4272  0.0183  0.1013
  280TMC3    C8 4288   0.980   1.351   0.471 -0.2010  0.3558  0.2184
  280TMC3    O1 4289   0.834   1.644   0.091  0.1963 -0.9265 -0.0321
  280TMC3    O2 4290   1.025   1.253   0.525 -0.3576  0.2859  0.5646
  281TMC3    C1 4291   0.088   0.702  13.631 -0.5326 -0.0646  0.3042
  281TMC3    C2 4292   0.222   0.710  13.656  0.3794  0.2982 -0.6534
  281TMC3    C3 4293   0.295   0.602  13.611  0.4183  1.1309  0.6719
  281TMC3    C4 4294   0.020   0.593  13.593 -0.1545  0.4198 -0.0507
  281TMC3    C5 4295   0.091   0.485  13.570  1.1996  0.1317 -0.4694
  281TMC3    C6 4296   0.231   0.492  13.569  0.2351  0.6329  0.3183
  281TMC3     C 4297   0.011   0.823  13.602  0.3380  0.0540  0.2325
  281TMC3     O 4298   4.631   0.810  13.578 -0.2519 -0.0058  0.6051
  281TMC3     H 4299   0.282   0.787  13.705  0.4369  0.9886 -1.8190
  281TMC3    H1 4300   4.654   0.592  13.591 -0.1127  1.1751 -2.2520
  281TMC3    H2 4301   0.291   0.408  13.534 -1.4986 -0.9780  1.2146
  281TMC3    C7 4302   0.039   0.364  13.616  0.4566  0.0303  0.5074
  281TMC3    C8 4303   0.427   0.572  13.667  0.2000  0.3056 -0.0133
  281TMC3    O1 4304   4.667   0.342  13.589  0.0251  0.8636  0.1851
  281TMC3    O2 4305   0.433   0.468  13.722  0.1814  0.3756  0.3277
  282MPD2     C 4306   2.285   2.119  14.874 -0.6796  0.3729  0.1709
  282MPD2    C1 4307   2.154   2.163  14.880 -0.0663 -0.0430 -0.1843
  282MPD2    C2 4308   2.074   2.143  14.771 -0.3866  0.6605  0.2108
  282MPD2    C3 4309   2.124   2.081  14.661 -0.6319  0.3301  0.6839
  282MPD2    C4 4310   2.250   2.024  14.657  0.0250  0.0437  0.3116
  282MPD2    C5 4311   2.330   2.053  14.765  0.4617  0.4226  0.1139
  282MPD2     H 4312   1.972   2.178  14.777 -0.7694 -0.1278 -1.8617
  282MPD2    H1 4313   2.300   1.982  14.571  1.0410  2.0636 -0.0937
  282MPD2    H2 4314   2.356   2.141  14.953 -0.6351 -0.5580  0.3913
  282MPD2    H3 4315   2.434   2.023  14.757  1.0730  2.6949 -0.5000
  282MPD2     N 4316   2.039   2.067  14.554 -0.8110 -0.0419  0.0476
  282MPD2    H5 4317   1.949   2.114  14.556 -2.5765 -3.4431 -0.0144
  282MPD2    N1 4318   2.106   2.218  15.001  0.4922  0.6226 -0.1316
  282MPD2    H7 4319   2.175   2.221  15.075 -0.0333 -1.9581  0.4762
  283TMC3    C1 4320   1.955   2.249  15.191  0.5110 -0.0201  0.4063
  283TMC3    C2 4321   2.035   2.323  15.271 -0.0455 -0.1836  0.2903
  283TMC3    C3 4322   1.992   2.351  15.396 -0.4980  0.0823 -0.6151
  283TMC3    C4 4323   1.854   2.179  15.247 -0.2163  0.7227  0.1876
  283TMC3    C5 4324   1.833   2.185  15.381  0.2993 -0.2510  0.0398
  283TMC3    C6 4325   1.893   2.283  15.456 -0.4341 -0.0220  0.1959
  283TMC3     C 4326   1.972   2.239  15.042  0.0726  0.5742 -0.2830
  283TMC3     O 4327   1.867   2.235  14.974  0.0153 -0.3444 -0.4542
  283TMC3     H 4328   2.118   2.378  15.229  0.8447  0.3535  2.7428
  283TMC3    H1 4329   1.786   2.137  15.175 -0.4286 -0.8636  1.3138
  283TMC3    H2 4330   1.866   2.296  15.560 -0.6968 -0.0923  0.1376
  283TMC3    C7 4331   1.727   2.108  15.436 -0.8495 -0.3254 -0.9015
  283TMC3    C8 4332   2.076   2.447  15.479 -0.2847 -0.0030  0.6814
  283TMC3    O1 4333   1.681   2.134  15.549 -0.0653 -0.1555  0.6856
  283TMC3    O2 4334   2.096   2.443  15.599 -0.0997  0.4889  0.4030
  284MPD2     C 4335   0.596   1.457  11.365  0.1145  0.1739 -0.4515
  284MPD2    C1 4336   0.702   1.382  11.414 -0.6824  0.4867  0.6038
  284MPD2    C2 4337   0.671   1.269  11.494 -0.5158 -0.3089 -0.1791
  284MPD2    C3 4338   0.539   1.239  11.527  0.1352  0.4365  0.5522
  284MPD2    C4 4339   0.438   1.318  11.475  0.2303 -0.5261  0.9801
  284MPD2    C5 4340   0.462   1.421  11.390 -0.2593  0.3290  0.8549
  284MPD2     H 4341   0.746   1.200  11.529 -1.9382 -1.6162  0.2934
  284MPD2    H1 4342   0.335   1.289  11.494 -0.2701  0.5518 -0.1123
  284MPD2    H2 4343   0.600   1.536  11.291 -2.6455  0.4189 -0.3737
  284MPD2    H3 4344   0.385   1.486  11.349 -2.6701 -2.4899  0.9185
  284MPD2     N 4345   0.519   1.125  11.604  0.4370  0.1730 -0.2466
  284MPD2    H5 4346   0.600   1.064  11.610  1.8726  2.3311  2.0260
  284MPD2    N1 4347   0.839   1.398  11.379  0.8497  0.4516  0.0105
  284MPD2    H7 4348   0.904   1.338  11.427  0.9207 -0.7996 -1.6633
  285TMC3    C1 4349   1.028   1.486  11.283  0.0253  0.0480 -0.1980
  285TMC3    C2 4350   1.093   1.370  11.280  0.1229 -0.2634  0.2097
  285TMC3    C3 4351   1.232   1.362  11.281 -0.2785 -0.1186  0.9276
  285TMC3    C4 4352   1.097   1.595  11.317 -0.1353  0.1201  0.1223
  285TMC3    C5 4353   1.227   1.589  11.336  0.1860 -0.7020 -0.6531
  285TMC3    C6 4354   1.307   1.477  11.317  0.4073 -1.0578 -0.2919
  285TMC3     C 4355   0.881   1.493  11.294  0.2783 -0.5045 -0.2260
  285TMC3     O 4356   0.830   1.602  11.263  0.1725  0.2933  0.0067
  285TMC3     H 4357   1.033   1.279  11.275 -0.7793  0.4745 -2.7910
  285TMC3    H1 4358   1.037   1.682  11.336  0.1809  0.0901  1.2726
  285TMC3    H2 4359   1.410   1.470  11.349 -0.4664 -0.0239  2.8142
  285TMC3    C7 4360   1.294   1.703  11.388 -0.5752 -1.1520  0.2337
  285TMC3    C8 4361   1.301   1.242  11.250 -0.0701  1.0853 -0.2315
  285TMC3    O1 4362   1.414   1.708  11.365  0.1665  0.0221  0.1200
  285TMC3    O2 4363   1.242   1.137  11.254  0.3323 -0.2736 -0.0448
  286MPD2     C 4364   0.744   0.477   1.057  0.1874 -0.1892 -1.0941
  286MPD2    C1 4365   0.758   0.447   0.920  0.3992 -0.1670 -0.5414
  286MPD2    C2 4366   0.816   0.328   0.891  0.5885  0.0815  0.1471
  286MPD2    C3 4367   0.877   0.252   0.986 -0.0226 -0.7206 -0.4905
  286MPD2    C4 4368   0.862   0.270   1.117 -0.6221 -1.0474 -0.5247
  286MPD2    C5 4369   0.798   0.393   1.152 -0.0808  0.8486 -0.5229
  286MPD2     H 4370   0.814   0.290   0.789 -0.2553  1.3203 -0.2921
  286MPD2    H1 4371   0.909   0.201   1.187 -0.5450  0.4542  0.9043
  286MPD2    H2 4372   0.708   0.571   1.098 -2.4013 -1.9720  0.6694
  286MPD2    H3 4373   0.786   0.410   1.258 -0.9012  0.2739 -0.5260
  286MPD2     N 4374   0.956   0.141   0.944 -0.1904 -0.0591 -0.3996
  286MPD2    H5 4375   0.992   0.079   1.016  0.0110 -0.4419 -0.8344
  286MPD2    N1 4376   0.706   0.528   0.815 -0.2316  0.1356  0.4670
  286MPD2    H7 4377   0.700   0.490   0.722 -1.0419  0.1383  0.5111
  287TMC3    C1 4378   1.068   4.729   0.808  0.2162 -1.0364  0.2551
  287TMC3    C2 4379   1.047   4.641   0.703 -0.4993  0.6483  0.0689
  287TMC3    C3 4380   1.126   4.534   0.695  0.4118  0.6462 -0.3209
  287TMC3    C4 4381   1.165   4.712   0.902 -0.0734  0.0934 -0.3230
  287TMC3    C5 4382   1.247   4.604   0.886  0.5515 -0.1187  1.0044
  287TMC3    C6 4383   1.226   4.507   0.787 -0.0925  0.1390  0.2849
  287TMC3     C 4384   0.979   0.102   0.816 -0.1822  0.2928 -0.3017
  287TMC3     O 4385   0.922   0.120   0.709  0.5243 -0.6555 -0.3026
  287TMC3     H 4386   0.962   4.657   0.639 -0.3037  0.1436 -0.3168
  287TMC3    H1 4387   1.171   0.052   0.972 -0.7114 -0.6451  0.6058
  287TMC3    H2 4388   1.299   4.432   0.760  1.2318  1.8352 -0.8324
  287TMC3    C7 4389   1.364   4.600   0.980 -0.5971  0.5244 -0.3480
  287TMC3    C8 4390   1.084   4.429   0.609 -0.1119  0.1702  0.6240
  287TMC3    O1 4391   1.386   4.685   1.060  0.3964 -0.0100 -0.9308
  287TMC3    O2 4392   1.105   4.316   0.653  0.4053  0.3677 -0.0993
  288TMC3    C1 4393   2.728   4.674  14.260  0.7935 -0.0520 -0.2413
  288TMC3    C2 4394   2.593   4.663  14.283 -0.3183  0.1250  0.3158
  288TMC3    C3 4395   2.511   0.010  14.231 -0.7964  0.1694 -0.0587
  288TMC3    C4 4396   2.776   0.023  14.163 -0.0119  0.3000  0.1936
  288TMC3    C5 4397   2.685   0.098  14.097  0.2292  0.4299  0.5510
  288TMC3    C6 4398   2.546   0.104  14.135 -0.4707  0.3911 -0.5780
  288TMC3     C 4399   2.819   4.599  14.344  0.4969  0.0610  0.4135
  288TMC3     O 4400   2.776   4.524  14.427 -0.2378  0.1952  0.0095
  288TMC3     H 4401   2.560   4.594  14.360  1.2135 -1.9650 -0.8888
  288TMC3    H1 4402   2.880   0.033  14.134 -0.5107 -1.0924 -2.0555
  288TMC3    H2 4403   2.481   0.186  14.110  2.3577  2.3820 -1.3776
  288TMC3    C7 4404   2.713   0.162  13.973  0.0981  0.1307 -0.3299
  288TMC3    C8 4405   2.416   0.064  14.324  0.1552  0.5762 -0.2617
  288TMC3    O1 4406   2.826   0.201  13.956 -0.1567 -0.0224  0.0312
  288TMC3    O2 4407   2.432   0.181  14.353  0.6116 -0.4301  0.7664
  289MPD2     C 4408   2.652   3.629  14.639  0.0046 -0.2276 -0.0823
  289MPD2    C1 4409   2.629   3.736  14.557  0.1604 -0.3456 -0.7919
  289MPD2    C2 4410   2.520   3.728  14.476 -0.3130 -0.8272  0.2129
  289MPD2    C3 4411   2.434   3.617  14.463  0.1370 -0.0999  0.2972
  289MPD2    C4 4412   2.457   3.511  14.547 -0.0392  0.4451  0.6058
  289MPD2    C5 4413   2.572   3.515  14.633  1.0335  0.0168  0.3147
  289MPD2     H 4414   2.514   3.804  14.400  1.0343  1.2746  2.2265
  289MPD2    H1 4415   2.403   3.417  14.540 -2.1501  1.8622 -2.1226
  289MPD2    H2 4416   2.730   3.639  14.713 -1.2207  3.2035  0.7231
  289MPD2    H3 4417   2.601   3.424  14.684  1.8938 -1.2718 -2.4817
  289MPD2     N 4418   2.318   3.618  14.380 -0.1667 -0.1416 -0.1292
  289MPD2    H5 4419   2.273   3.528  14.367  2.0950 -1.0696 -1.4680
  289MPD2    N1 4420   2.729   3.843  14.565  0.1639  0.2295  0.5779
  289MPD2    H7 4421   2.801   3.824  14.634  2.3771  0.9908 -1.5656
  290TMC3    C1 4422   2.121   3.714  14.266 -0.2755 -0.4921 -0.1824
  290TMC3    C2 4423   2.087   3.827  14.194 -0.7686 -0.4468  0.4493
  290TMC3    C3 4424   1.960   3.816  14.135 -0.1650 -0.2111  0.1754
  290TMC3    C4 4425   2.048   3.596  14.273 -0.4359  0.3044  0.0983
  290TMC3    C5 4426   1.926   3.599  14.212  0.5486 -0.5737  0.3288
  290TMC3    C6 4427   1.898   3.698  14.119  0.2206 -0.0902 -0.1449
  290TMC3     C 4428   2.246   3.731  14.342  0.5022  0.0986 -0.1894
  290TMC3     O 4429   2.276   3.846  14.363  0.3152 -0.3184  0.2191
  290TMC3     H 4430   2.130   3.927  14.202  0.9792 -1.0659 -1.1229
  290TMC3    H1 4431   2.069   3.511  14.337 -1.0954 -0.1219 -0.2541
  290TMC3    H2 4432   1.798   3.688  14.078 -0.8799  3.6491  1.6077
  290TMC3    C7 4433   1.817   3.520  14.262  0.2559 -0.2450 -0.1148
  290TMC3    C8 4434   1.928   3.917  14.036 -0.1129 -0.0601 -0.7523
  290TMC3    O1 4435   1.708   3.574  14.274 -0.5907  0.0238 -0.5130
  290TMC3    O2 4436   1.881   3.874  13.930 -0.1101 -0.4441 -0.3307
  291MPD2     C 4437   1.724   4.069   0.420  0.3474  0.4532 -0.0804
  291MPD2    C1 4438   1.837   3.999   0.457 -0.0168 -0.2208 -0.1492
  291MPD2    C2 4439   1.961   4.059   0.446  0.4387  0.3089  0.1198
  291MPD2    C3 4440   1.970   4.192   0.405 -0.6902  0.8170  0.3893
  291MPD2    C4 4441   1.862   4.259   0.373  0.1765 -0.1139  0.8753
  291MPD2    C5 4442   1.737   4.202   0.385 -0.5754 -0.2641 -0.3669
  291MPD2     H 4443   2.047   4.005   0.484  0.1183 -0.3518 -0.0910
  291MPD2    H1 4444   1.880   4.359   0.334  1.1329  0.1408  1.9650
  291MPD2    H2 4445   1.622   4.032   0.426 -0.1522  1.5915 -1.5980
  291MPD2    H3 4446   1.648   4.261   0.369 -0.2929  0.4103  0.5346
  291MPD2     N 4447   2.100   4.255   0.380  0.7299 -0.7691 -0.4820
  291MPD2    H5 4448   2.104   4.347   0.337  1.6135 -0.5386  0.1064
  291MPD2    N1 4449   1.833   3.864   0.494  0.0688 -0.0183 -0.2915
  291MPD2    H7 4450   1.916   3.815   0.526 -0.3636 -2.5522 -2.9349
  292TMC3    C1 4451   1.759   3.643   0.484 -0.7539 -0.4751 -0.3915
  292TMC3    C2 4452   1.835   3.609   0.593 -0.5150 -0.0793  0.1309
  292TMC3    C3 4453   1.880   3.479   0.618  0.1754 -0.4277  0.6036
  292TMC3    C4 4454   1.731   3.547   0.400  0.0625 -0.5379 -0.1284
  292TMC3    C5 4455   1.767   3.413   0.423  0.0090 -0.1420  0.4602
  292TMC3    C6 4456   1.850   3.383   0.528 -0.6114  0.5759  0.9855
  292TMC3     C 4457   1.732   3.779   0.446  0.5189  0.6077 -1.1242
  292TMC3     O 4458   1.630   3.806   0.379 -0.2144  0.6300  0.4167
  292TMC3     H 4459   1.851   3.681   0.672 -2.5899 -1.8892  2.2142
  292TMC3    H1 4460   1.671   3.574   0.314  0.6945 -0.1171 -0.4394
  292TMC3    H2 4461   1.880   3.283   0.555 -0.8525  0.2358  0.0190
  292TMC3    C7 4462   1.703   3.307   0.355 -0.0289  0.2248 -0.4818
  292TMC3    C8 4463   1.910   3.452   0.755 -0.7471 -0.2461  0.0555
  292TMC3    O1 4464   1.761   3.202   0.336  0.3277 -0.2532  0.5526
  292TMC3    O2 4465   1.868   3.529   0.834 -0.6285 -0.1689  0.2064
  293MPD2     C 4466   4.031   4.593  12.929  0.2611  0.1837  0.4307
  293MPD2    C1 4467   3.957   4.705  12.916  0.8616 -0.1130 -0.2370
  293MPD2    C2 4468   3.954   0.059  13.015  0.1558  0.9239  0.7203
  293MPD2    C3 4469   4.030   0.039  13.127 -0.1217  0.1688  0.3200
  293MPD2    C4 4470   4.089   4.660  13.146  0.6328  0.2250 -0.3415
  293MPD2    C5 4471   4.101   4.578  13.043 -0.4320  0.1350  1.0519
  293MPD2     H 4472   3.910   0.154  12.987  3.1083  2.2973  0.7051
  293MPD2    H1 4473   4.145   4.629  13.233  0.3644  0.5595 -0.0547
  293MPD2    H2 4474   4.040   4.515  12.853 -0.2347  1.9442 -1.4272
  293MPD2    H3 4475   4.173   4.498  13.056  0.6508  0.9005 -0.2383
  293MPD2     N 4476   4.021   0.120  13.245  0.0447  0.0209 -0.1145
  293MPD2    H5 4477   4.078   0.106  13.328  2.1190 -0.1179 -1.5668
  293MPD2    N1 4478   3.886   4.737  12.801 -0.0434 -0.1871 -0.3514
  293MPD2    H7 4479   3.829   0.079  12.803 -0.1771 -0.2594 -0.9335
  294TMC3    C1 4480   3.824   4.734  12.577  0.3576  0.0649 -0.2710
  294TMC3    C2 4481   3.691   0.017  12.604 -0.0688 -0.2505  0.4869
  294TMC3    C3 4482   3.610   0.037  12.493 -0.0102  0.4440 -0.4654
  294TMC3    C4 4483   3.869   4.740  12.450  0.5212 -0.3742  0.2981
  294TMC3    C5 4484   3.785   0.021  12.349  0.2766  0.1359  0.6179
  294TMC3    C6 4485   3.654   0.049  12.364 -0.0173  0.2539  0.1571
  294TMC3     C 4486   3.912   4.673  12.681  0.1704 -0.0822 -0.0374
  294TMC3     O 4487   4.011   4.621  12.642  0.4847  0.0302  0.3825
  294TMC3     H 4488   3.643   4.732  12.697  1.7271 -2.3074  0.8041
  294TMC3    H1 4489   3.975   4.731  12.432  0.7587  1.0637  1.0064
  294TMC3    H2 4490   3.592   0.071  12.278 -0.8209  0.7557  0.8667
  294TMC3    C7 4491   3.855   0.057  12.228 -0.6214  0.0023  0.1812
  294TMC3    C8 4492   3.473   4.741  12.501  0.3943  0.9496  0.5400
  294TMC3    O1 4493   3.804   0.157  12.179 -0.7646 -0.7054  0.3232
  294TMC3    O2 4494   3.415   0.044  12.598  0.2094 -0.1715  0.9063
  295MPD2     C 4495   3.862   4.502   0.269  0.4695 -0.6955  0.9381
  295MPD2    C1 4496   3.877   4.405   0.175  0.4247  0.4267  0.5435
  295MPD2    C2 4497   3.851   4.275   0.213  0.2260  0.0346 -0.2665
  295MPD2    C3 4498   3.826   4.234   0.345 -0.0871 -0.8744  0.6090
  295MPD2    C4 4499   3.803   4.335   0.436 -0.6003 -0.1183  0.7195
  295MPD2    C5 4500   3.824   4.470   0.395 -0.5347  0.3840  0.4412
  295MPD2     H 4501   3.869   4.198   0.138 -1.1264 -0.4244 -0.1178
  295MPD2    H1 4502   3.781   4.322   0.541 -1.6731  2.4580  0.8249
  295MPD2    H2 4503   3.882   4.603   0.237 -2.1816 -0.2969  0.5500
  295MPD2    H3 4504   3.799   4.546   0.469  0.2191 -0.2924  1.3918
  295MPD2     N 4505   3.796   4.104   0.387  0.6908 -0.0879  0.8268
  295MPD2    H5 4506   3.780   4.094   0.487  1.3507  1.1162  1.0546
  295MPD2    N1 4507   3.921   4.437   0.042 -0.8380  0.1656  0.6813
  295MPD2    H7 4508   3.950   4.534   0.035  0.6168 -0.3823 -0.9477
  296TMC3    C1 4509   3.760   3.883   0.377  0.0564  1.2813 -0.0010
  296TMC3    C2 4510   3.661   3.898   0.469  0.3661  0.0238 -0.1345
  296TMC3    C3 4511   3.630   3.797   0.544 -0.1572  0.3536 -0.0340
  296TMC3    C4 4512   3.805   3.759   0.343  0.3825  0.1235  0.3887
  296TMC3    C5 4513   3.764   3.650   0.413  0.3954 -0.3697 -0.8615
  296TMC3    C6 4514   3.682   3.671   0.520 -0.6652 -0.1256  0.4259
  296TMC3     C 4515   3.805   3.996   0.309  0.2557  0.4189 -0.1390
  296TMC3     O 4516   3.841   3.980   0.197 -0.3148  0.4173  0.1407
  296TMC3     H 4517   3.617   3.997   0.480  0.2545 -0.2331  1.6112
  296TMC3    H1 4518   3.883   3.756   0.268 -1.1117  0.1773 -1.1697
  296TMC3    H2 4519   3.647   3.591   0.584  0.6897 -0.8945  0.1930
  296TMC3    C7 4520   3.827   3.528   0.380 -1.0338  0.3689 -0.4429
  296TMC3    C8 4521   3.525   3.808   0.639  0.6600  0.2188 -1.0592
  296TMC3    O1 4522   3.863   3.505   0.267 -0.3332 -0.2225 -0.1651
  296TMC3    O2 4523   3.463   3.709   0.674  0.1705  0.4074 -0.1528
  297MPD2     C 4524   1.019   0.978  15.806  0.3948 -0.3347 -0.8530
  297MPD2    C1 4525   1.008   1.103  15.742 -0.2667 -0.0955 -0.2638
  297MPD2    C2 4526   1.109   1.197  15.758 -0.1830  0.4095 -0.1761
  297MPD2    C3 4527   1.232   1.156  15.806  0.6754 -0.2722  0.7870
  297MPD2    C4 4528   1.241   1.033  15.876  0.0860 -0.0236 -0.6950
  297MPD2    C5 4529   1.140   0.943  15.871 -0.1104  0.6767 -0.2424
  297MPD2     H 4530   1.097   1.302  15.733 -0.0333  0.4564 -0.0523
  297MPD2    H1 4531   1.337   0.998  15.914  0.5164 -0.1731 -1.9117
  297MPD2    H2 4532   0.938   0.908  15.823 -2.8781  4.0607  1.6868
  297MPD2    H3 4533   1.142   0.860  15.940 -1.4620  1.1583  0.3726
  297MPD2     N 4534   1.347   1.246  15.802  0.0766  0.3716  0.3858
  297MPD2    H5 4535   1.337   1.341  15.767  1.5846  0.7849  1.0656
  297MPD2    N1 4536   0.894   1.148  15.673 -0.1284  0.8077  0.4344
  297MPD2    H7 4537   0.903   1.243  15.640  1.1334 -0.3828 -2.5627
  298TMC3    C1 4538   0.713   1.138  15.535  0.3844  0.1095  0.5301
  298TMC3    C2 4539   0.698   1.096  15.407  0.3530  0.2139 -0.8319
  298TMC3    C3 4540   0.630   1.178  15.320 -0.0318  0.7634 -0.2194
  298TMC3    C4 4541   0.657   1.255  15.580  0.4780  0.8681 -0.3807
  298TMC3    C5 4542   0.585   1.329  15.489 -0.3910 -0.4123 -0.4107
  298TMC3    C6 4543   0.568   1.295  15.357 -0.2447 -0.2629 -0.8685
  298TMC3     C 4544   0.805   1.058  15.620  0.3661  0.5815 -0.1336
  298TMC3     O 4545   0.811   0.936  15.600 -0.4167  0.4385 -0.4894
  298TMC3     H 4546   0.740   1.003  15.369 -1.1763  0.3711 -2.9485
  298TMC3    H1 4547   0.667   1.287  15.683  2.1044 -0.2472 -0.2000
  298TMC3    H2 4548   0.499   1.354  15.298 -0.0462 -0.2932 -1.1336
  298TMC3    C7 4549   0.502   1.428  15.554 -1.0302 -0.3425 -0.2472
  298TMC3    C8 4550   0.632   1.141  15.177 -0.4568  0.3020 -0.2874
  298TMC3    O1 4551   0.495   1.421  15.674 -0.1977 -0.1267 -0.1207
  298TMC3    O2 4552   0.670   1.030  15.151  0.3046 -1.1140 -0.0160
  299MPD2     C 4553   2.943   4.655  10.758  1.1133  0.4306 -0.2579
  299MPD2    C1 4554   2.907   4.736  10.651 -0.6341 -0.0500 -0.6442
  299MPD2    C2 4555   2.785   4.710  10.590  0.5435 -0.2445 -0.0800
  299MPD2    C3 4556   2.702   4.608  10.636  0.2992 -0.0147 -0.2671
  299MPD2    C4 4557   2.751   4.521  10.732 -0.0357 -0.2946  0.0635
  299MPD2    C5 4558   2.874   4.542  10.789  0.7266  0.1084 -0.6005
  299MPD2     H 4559   2.755   0.024  10.503  1.5642 -0.5468 -0.6266
  299MPD2    H1 4560   2.688   4.439  10.764 -1.6779  1.1949  0.6301
  299MPD2    H2 4561   3.034   4.682  10.811  1.4700 -0.6264 -0.3259
  299MPD2    H3 4562   2.906   4.473  10.866 -2.0434 -0.2388  0.2537
  299MPD2     N 4563   2.564   4.602  10.591 -0.1258  0.6558 -0.2835
  299MPD2    H5 4564   2.503   4.532  10.632  1.0220  0.3849  0.9505
  299MPD2    N1 4565   2.993   0.102  10.620  0.0028  0.3138 -0.0344
  299MPD2    H7 4566   3.081   0.108  10.669 -0.1091  1.5242  0.0066
  300TMC3    C1 4567   2.360   4.665  10.478  1.0613 -1.0294  0.1037
  300TMC3    C2 4568   2.312   4.740  10.374 -0.2062 -0.6054  0.2327
  300TMC3    C3 4569   2.180   0.033  10.366 -0.7363  0.3523 -0.2201
  300TMC3    C4 4570   2.278   4.631  10.583  0.3608  0.0827 -0.3492
  300TMC3    C5 4571   2.149   4.686  10.583 -0.0360 -0.4083 -0.3184
  300TMC3    C6 4572   2.098   0.007  10.473  0.3760 -0.0867  0.1523
  300TMC3     C 4573   2.507   4.668  10.487  0.2716  0.0921  0.8214
  300TMC3     O 4574   2.568   4.731  10.404  0.0541  0.0001 -0.7154
  300TMC3     H 4575   2.368   0.016  10.284 -1.6637 -0.6890 -0.6907
  300TMC3    H1 4576   2.311   4.565  10.663  0.9112  0.0785 -0.5750
  300TMC3    H2 4577   1.993   0.034  10.466  0.0958 -0.8468  1.3783
  300TMC3    C7 4578   2.066   4.641  10.690  0.0123 -0.1969 -0.7697
  300TMC3    C8 4579   2.152   0.135  10.275  0.5214 -0.4290 -0.6371
  300TMC3    O1 4580   2.101   4.542  10.755 -0.6346 -0.2416  0.9305
  300TMC3    O2 4581   2.218   0.144  10.173 -0.1263  0.2595 -0.1896
  301MPD2     C 4582   4.038   2.157   0.718  0.8616 -0.1609 -0.2719
  301MPD2    C1 4583   3.923   2.111   0.665 -0.1414  0.0059 -0.1235
  301MPD2    C2 4584   3.894   1.975   0.666 -0.4898 -0.5456 -0.2088
  301MPD2    C3 4585   3.975   1.889   0.737 -0.1643  0.4696  0.7401
  301MPD2    C4 4586   4.096   1.943   0.785  0.0521  0.2453 -0.3132
  301MPD2    C5 4587   4.133   2.074   0.775 -0.5031  0.0543  0.2044
  301MPD2     H 4588   3.802   1.945   0.618 -0.4151 -0.4612 -0.4057
  301MPD2    H1 4589   4.174   1.882   0.829  1.2987  1.6636 -0.5524
  301MPD2    H2 4590   4.060   2.263   0.724 -0.4525 -0.0301  2.5725
  301MPD2    H3 4591   4.225   2.115   0.814  0.8695 -1.8610 -1.0294
  301MPD2     N 4592   3.942   1.748   0.748 -0.0599  0.0705 -0.7559
  301MPD2    H5 4593   4.008   1.698   0.807 -0.7313 -0.7913 -0.7301
  301MPD2    N1 4594   3.822   2.182   0.596 -0.0266 -0.1119 -0.0015
  301MPD2    H7 4595   3.752   2.130   0.544 -1.0394 -0.4548  1.7052
  302TMC3    C1 4596   3.812   1.534   0.728  0.3185  0.2421  0.3518
  302TMC3    C2 4597   3.922   1.467   0.786  0.5585 -0.3569  0.1866
  302TMC3    C3 4598   3.899   1.346   0.843 -0.1341  0.1553 -0.7640
  302TMC3    C4 4599   3.687   1.485   0.724 -0.4393  0.4772 -0.3868
  302TMC3    C5 4600   3.673   1.369   0.792 -0.2473  0.1550  0.9027
  302TMC3    C6 4601   3.774   1.299   0.854  0.4986  0.4435 -0.4364
  302TMC3     C 4602   3.819   1.684   0.720  0.4777 -0.3032 -0.1912
  302TMC3     O 4603   3.720   1.737   0.673 -0.7190 -0.4246 -0.4003
  302TMC3     H 4604   4.019   1.514   0.797 -0.8367  1.9416  2.7549
  302TMC3    H1 4605   3.604   1.525   0.667  2.3137  2.1880 -3.2376
  302TMC3    H2 4606   3.755   1.193   0.867  0.0515  0.5932  0.1470
  302TMC3    C7 4607   3.567   1.294   0.729 -0.2188 -0.6938 -0.1302
  302TMC3    C8 4608   3.997   1.296   0.937 -0.3269 -0.2149 -0.4478
  302TMC3    O1 4609   3.587   1.174   0.708  0.0661  0.1987  0.1193
  302TMC3    O2 4610   4.115   1.309   0.904 -0.0510  0.1320  0.0138
  303MPD2     C 4611   0.338   0.104  10.179  0.4029  0.5825 -0.3373
  303MPD2    C1 4612   0.209   0.107  10.238 -0.2025 -0.3740  0.3025
  303MPD2    C2 4613   0.105   0.166  10.168  0.2841  0.4742  0.7172
  303MPD2    C3 4614   0.132   0.231  10.053  0.1403 -0.2699  0.0856
  303MPD2    C4 4615   0.261   0.243  10.006 -0.0741  0.9312  0.7148
  303MPD2    C5 4616   0.363   0.176  10.066  0.0053 -0.3919 -0.2734
  303MPD2     H 4617   4.742   0.154  10.191  0.5364  0.9648  2.1191
  303MPD2    H1 4618   0.274   0.292   9.910 -0.3221  1.7796  1.1076
  303MPD2    H2 4619   0.422   0.063  10.234  1.0471  2.4666  0.0919
  303MPD2    H3 4620   0.461   0.178  10.018  0.5713 -0.8453  0.8645
  303MPD2     N 4621   0.032   0.291   9.964 -0.3068 -0.4935  0.2953
  303MPD2    H5 4622   0.065   0.351   9.889 -0.8450  0.0347  0.4739
  303MPD2    N1 4623   0.194   0.039  10.355  0.2928  0.0554  0.2348
  303MPD2    H7 4624   0.270   4.731  10.401  2.9396  3.1423 -0.7591
  304TMC3    C1 4625   0.078   4.675  10.533  0.6164  0.2184  0.9995
  304TMC3    C2 4626   0.032   4.710  10.655 -0.4479  0.5653  0.1278
  304TMC3    C3 4627   4.715   4.621  10.741 -0.4493  0.0206  0.1174
  304TMC3    C4 4628   0.059   4.552  10.484  0.4764  0.8923 -0.1685
  304TMC3    C5 4629   4.737   4.467  10.560 -0.1516  0.0345 -0.2131
  304TMC3    C6 4630   4.702   4.496  10.688  0.4563 -0.4287 -0.1000
  304TMC3     C 4631   0.080   0.036  10.432  0.2174  0.7032  0.0800
  304TMC3     O 4632   4.721   0.100  10.416  0.2127  0.4099  0.7579
  304TMC3     H 4633   0.038   0.074  10.673 -0.7803  0.4208  1.1041
  304TMC3    H1 4634   0.070   4.540  10.376  0.9553 -0.0711 -0.0134
  304TMC3    H2 4635   4.627   4.431  10.731 -0.6711 -0.0616 -1.5011
  304TMC3    C7 4636   4.655   4.372  10.494  0.5545 -0.3748  0.1756
  304TMC3    C8 4637   4.582   4.676  10.762  0.1408 -0.6267  0.3640
  304TMC3    O1 4638   4.611   4.396  10.381 -0.1659  0.1418 -0.3010
  304TMC3    O2 4639   4.528   4.732  10.666  0.0677  0.0277 -0.0512
  305MPD2     C 4640   1.949   2.146  13.755 -0.7829  0.2355 -0.0430
  305MPD2    C1 4641   2.073   2.089  13.783 -0.2709 -0.5776  0.2277
  305MPD2    C2 4642   2.123   1.994  13.694 -0.1219  0.0394  0.4548
  305MPD2    C3 4643   2.054   1.956  13.580 -0.6757 -0.4384  0.3490
  305MPD2    C4 4644   1.926   2.005  13.561 -1.5759 -0.4120 -0.1661
  305MPD2    C5 4645   1.880   2.094  13.647 -0.2400 -0.3562 -0.2852
  305MPD2     H 4646   2.216   1.941  13.713 -0.7684 -1.2012  0.1511
  305MPD2    H1 4647   1.874   1.957  13.479  1.3009 -0.5861 -1.8950
  305MPD2    H2 4648   1.912   2.215  13.830 -0.7446 -0.1476  0.3239
  305MPD2    H3 4649   1.774   2.115  13.632 -0.0214  1.1764  0.3117
  305MPD2     N 4650   2.113   1.873  13.478 -0.0844 -0.2108 -0.4419
  305MPD2    H5 4651   2.050   1.829  13.412 -0.3308 -1.9184  0.9314
  305MPD2    N1 4652   2.125   2.116  13.913  0.0181 -0.6242  0.3843
  305MPD2    H7 4653   2.094   2.203  13.957 -0.0657 -0.3276 -0.2573
  306TMC3    C1 4654   2.268   2.075  14.103  0.5029  0.2184  0.3263
  306TMC3    C2 4655   2.353   1.990  14.163  0.6200 -0.7460  0.7826
  306TMC3    C3 4656   2.410   2.027  14.280  0.0387 -0.5034  0.1718
  306TMC3    C4 4657   2.212   2.183  14.167 -1.1192 -0.0324 -0.3275
  306TMC3    C5 4658   2.269   2.215  14.281 -0.5930 -0.2470 -0.4042
  306TMC3    C6 4659   2.365   2.140  14.341 -0.0160  0.0857  0.6131
  306TMC3     C 4660   2.221   2.030  13.973  0.1617  0.1545 -0.3677
  306TMC3     O 4661   2.247   1.912  13.948  0.2618 -0.5430  0.3474
  306TMC3     H 4662   2.394   1.898  14.122  0.2036 -1.4623  1.9653
  306TMC3    H1 4663   2.133   2.237  14.115 -1.9792 -1.8629 -0.9533
  306TMC3    H2 4664   2.392   2.149  14.445 -0.5935  0.5637  0.7181
  306TMC3    C7 4665   2.221   2.324  14.354 -0.3806  0.2995 -0.2528
  306TMC3    C8 4666   2.517   1.952  14.344 -0.4045 -0.4417  0.7018
  306TMC3    O1 4667   2.105   2.356  14.330  0.0279  0.7694  0.1856
  306TMC3    O2 4668   2.538   1.837  14.303 -0.6752  0.0518 -0.4532
  307MPD2     C 4669   0.403   1.315  17.686 -0.0535  0.1118  1.1740
  307MPD2    C1 4670   0.284   1.382  17.697  0.5487  0.6577 -1.1554
  307MPD2    C2 4671   0.197   1.350   0.035 -0.6151  0.6148  0.5366
  307MPD2    C3 4672   0.220   1.245   0.123 -0.2432 -0.0758 -0.3610
  307MPD2    C4 4673   0.340   1.178   0.110  0.3713 -0.2783  0.4014
  307MPD2    C5 4674   0.428   1.211   0.008 -1.0061 -0.1572  0.4403
  307MPD2     H 4675   0.098   1.393   0.022 -0.2134  1.4188  0.1754
  307MPD2    H1 4676   0.371   1.118   0.194  1.8019 -0.5866 -0.3481
  307MPD2    H2 4677   0.468   1.341  17.603 -1.4477 -0.8498 -0.2147
  307MPD2    H3 4678   0.517   1.150  17.766  0.7434  2.6024 -1.1520
  307MPD2     N 4679   0.120   1.211   0.213  0.7421 -0.1431 -0.4716
  307MPD2    H5 4680   0.038   1.271   0.212  1.0247  0.2333 -0.9963
  307MPD2    N1 4681   0.230   1.471  17.600  0.4011  0.5343 -0.4855
  307MPD2    H7 4682   0.133   1.501  17.603  0.2109 -0.2616  1.1585
  308TMC3    C1 4683   4.605   0.990   0.522 -0.0785  0.4880 -0.1711
  308TMC3    C2 4684   4.544   1.106   0.557 -0.0081 -0.1102  0.5156
  308TMC3    C3 4685   4.610   1.222   0.526 -0.1689 -0.1666  0.0119
  308TMC3    C4 4686   4.708   0.985   0.436 -0.1950  0.3589 -0.1385
  308TMC3    C5 4687   0.009   1.107   0.384  0.2385  0.5576  0.1334
  308TMC3    C6 4688   4.704   1.227   0.425  0.7298 -0.0614 -0.1738
  308TMC3     C 4689   4.530   0.869   0.559 -0.2861 -0.0828  0.5520
  308TMC3     O 4690   4.453   0.894   0.655 -0.3630 -0.5585 -0.2620
  308TMC3     H 4691   4.459   1.112   0.624  0.7424 -2.8254  1.6787
  308TMC3    H1 4692   4.739   0.885   0.408 -0.1308 -0.3489  2.4666
  308TMC3    H2 4693   0.014   1.318   0.399 -0.0534  0.2776 -0.5563
  308TMC3    C7 4694   0.127   1.113   0.305  0.8734  0.5492  0.4617
  308TMC3    C8 4695   4.606   1.325   0.624  0.3627 -0.0980 -0.4040
  308TMC3    O1 4696   0.195   1.010   0.309  0.1711  0.0255 -0.2070
  308TMC3    O2 4697   4.580   1.291   0.738  0.5219  0.8498 -0.2485
  309MPD2     C 4698   3.902   1.081  17.290 -0.1691  0.2002 -0.9529
  309MPD2    C1 4699   3.815   1.074  17.189  0.6485  0.0009 -0.5773
  309MPD2    C2 4700   3.676   1.052  17.212 -1.0024 -0.0908  0.3731
  309MPD2    C3 4701   3.625   1.046  17.343  0.1205  0.1561 -0.2867
  309MPD2    C4 4702   3.721   1.059  17.448  0.4160  0.1369  0.0611
  309MPD2    C5 4703   3.852   1.067  17.418  0.1221 -0.6467  0.2547
  309MPD2     H 4704   3.605   1.039  17.131 -0.5568 -1.4734  0.2055
  309MPD2    H1 4705   3.690   1.043  17.551  1.8734 -3.5504 -0.0808
  309MPD2    H2 4706   4.008   1.101  17.284 -0.3443  1.6191  0.6291
  309MPD2    H3 4707   3.918   1.068  17.504  0.2935  1.0252  0.1190
  309MPD2     N 4708   3.487   1.029  17.374  0.4605  0.2255  0.4670
  309MPD2    H5 4709   3.462   1.028  17.472 -2.6174  2.8779 -0.2838
  309MPD2    N1 4710   3.871   1.084  17.052  0.4151 -0.1511  0.1532
  309MPD2    H7 4711   3.814   1.062  16.972 -0.0751 -0.9262  0.7118
  310TMC3    C1 4712   4.017   1.102  16.876  0.1277  0.0595  0.0808
  310TMC3    C2 4713   3.916   1.119  16.782  0.1470  1.0042 -0.1067
  310TMC3    C3 4714   3.950   1.101  16.653  0.1441 -0.3854 -0.4917
  310TMC3    C4 4715   4.145   1.084  16.843 -0.7904 -0.4438 -0.5460
  310TMC3    C5 4716   4.178   1.077  16.712  0.4204  0.3344  0.4547
  310TMC3    C6 4717   4.084   1.101  16.609  0.6365  0.3460  0.3642
  310TMC3     C 4718   4.004   1.110  17.021 -0.4216 -0.0450  0.4863
  310TMC3     O 4719   4.100   1.144  17.088 -0.3112  0.2432 -0.0529
  310TMC3     H 4720   3.811   1.134  16.803 -0.1927  0.0450 -1.0784
  310TMC3    H1 4721   4.221   1.060  16.916  0.1829  0.1733 -1.3568
  310TMC3    H2 4722   4.104   1.075  16.506 -1.1813  2.3953 -0.4987
  310TMC3    C7 4723   4.290   0.991  16.683  0.1750  0.1962 -0.0574
  310TMC3    C8 4724   3.849   1.141  16.556  0.0459  0.5382  0.3089
  310TMC3    O1 4725   4.349   0.938  16.776 -0.0220 -0.0411  0.7047
  310TMC3    O2 4726   3.727   1.119  16.563 -0.7477 -0.1530 -0.0436
  311MPD2     C 4727   1.597   1.812  12.480  0.6449  0.2453  0.3558
  311MPD2    C1 4728   1.661   1.931  12.514 -0.6304  0.0992 -0.3418
  311MPD2    C2 4729   1.590   2.050  12.495  0.2381  0.8627  0.4802
  311MPD2    C3 4730   1.464   2.042  12.444  0.2900 -0.0818  0.2482
  311MPD2    C4 4731   1.401   1.930  12.405  0.1935  0.2515 -0.2552
  311MPD2    C5 4732   1.474   1.812  12.420 -0.1546 -0.8797  0.3621
  311MPD2     H 4733   1.631   2.140  12.538  1.0573  0.7667 -0.1148
  311MPD2    H1 4734   1.301   1.926  12.363  0.7346 -0.2754 -1.5074
  311MPD2    H2 4735   1.647   1.716  12.482  0.5222  0.2135  1.9521
  311MPD2    H3 4736   1.440   1.720  12.374  1.6881 -0.7526 -1.2420
  311MPD2     N 4737   1.391   2.170  12.446  0.7899  0.0000 -0.2327
  311MPD2    H5 4738   1.436   2.255  12.478 -0.8648  0.3901  1.0157
  311MPD2    N1 4739   1.790   1.942  12.550  0.3270 -0.4312  0.1804
  311MPD2    H7 4740   1.821   2.038  12.559  0.8004 -0.4843 -0.8604
  312TMC3    C1 4741   1.203   2.306  12.459 -0.3227 -0.3599 -0.0413
  312TMC3    C2 4742   1.078   2.338  12.406  0.1146  0.8470 -0.2421
  312TMC3    C3 4743   1.003   2.430  12.469 -0.2858  0.3086 -0.1547
  312TMC3    C4 4744   1.248   2.357  12.576  0.4153  0.0029 -0.7018
  312TMC3    C5 4745   1.176   2.458  12.626 -0.0667 -0.2948 -0.1826
  312TMC3    C6 4746   1.058   2.508  12.571  0.3279  0.3200  0.1966
  312TMC3     C 4747   1.258   2.189  12.410  0.0375  0.8496  0.8913
  312TMC3     O 4748   1.187   2.102  12.355 -0.6766 -0.5197  0.1464
  312TMC3     H 4749   1.031   2.284  12.324 -2.4059  1.0054  1.0991
  312TMC3    H1 4750   1.341   2.323  12.621  0.5210  2.0441  0.6127
  312TMC3    H2 4751   1.003   2.588  12.620  2.0815  2.7395 -1.8192
  312TMC3    C7 4752   1.225   2.529  12.740 -0.1402  0.4567  0.8255
  312TMC3    C8 4753   0.865   2.393  12.474  0.6371  0.2992  0.2557
  312TMC3    O1 4754   1.265   2.643  12.730 -0.0094  0.1269  0.5313
  312TMC3    O2 4755   0.843   2.271  12.459 -0.2211  0.1736  0.0788
  313MPD2     C 4756   1.525   0.435  10.622  0.1436  0.0055  0.4453
  313MPD2    C1 4757   1.564   0.555  10.570  0.3210  0.1505 -0.4635
  313MPD2    C2 4758   1.657   0.553  10.464 -0.1163  0.1732  0.0729
  313MPD2    C3 4759   1.712   0.429  10.416  0.0635 -0.6363 -0.2585
  313MPD2    C4 4760   1.672   0.314  10.479  0.3703  0.6485 -0.4575
  313MPD2    C5 4761   1.588   0.321  10.581  0.0322 -0.1555 -0.0734
  313MPD2     H 4762   1.688   0.647  10.421 -2.1379  0.6116 -0.4530
  313MPD2    H1 4763   1.731   0.227  10.455  1.3471  0.9391  0.8749
  313MPD2    H2 4764   1.454   0.424  10.704  1.3191  0.6459  1.5459
  313MPD2    H3 4765   1.565   0.228  10.633 -0.9895 -0.4082 -0.9628
  313MPD2     N 4766   1.790   0.409  10.301  0.3019 -0.1666  0.2943
  313MPD2    H5 4767   1.791   0.315  10.264  0.1486 -0.0085 -0.1059
  313MPD2    N1 4768   1.529   0.682  10.618 -0.9650 -0.2797  0.7305
  313MPD2    H7 4769   1.580   0.755  10.569 -2.1820  0.3720  0.4204
  314TMC3    C1 4770   1.436   0.836  10.761  0.3229  0.5409  0.3665
  314TMC3    C2 4771   1.537   0.921  10.731 -0.0942 -0.9423 -0.0048
  314TMC3    C3 4772   1.528   1.044  10.769 -0.6343  0.3965 -0.4357
  314TMC3    C4 4773   1.322   0.879  10.830  0.3831 -0.1270  0.2306
  314TMC3    C5 4774   1.317   1.006  10.870  0.3977 -0.6224 -0.2005
  314TMC3    C6 4775   1.421   1.092  10.840 -0.5379 -0.2129 -0.2512
  314TMC3     C 4776   1.433   0.696  10.712  0.6785 -0.0741 -0.8078
  314TMC3     O 4777   1.353   0.620  10.767 -0.5835  0.5413 -0.5160
  314TMC3     H 4778   1.633   0.900  10.687  1.4976  4.1461  1.0805
  314TMC3    H1 4779   1.229   0.824  10.823  0.4418  0.1088 -2.5221
  314TMC3    H2 4780   1.422   1.188  10.891 -3.5361 -0.3371  0.0744
  314TMC3    C7 4781   1.189   1.059  10.902 -0.0550  0.0175 -0.1891
  314TMC3    C8 4782   1.641   1.129  10.779  0.3879  0.3035  0.1712
  314TMC3    O1 4783   1.107   0.983  10.949  0.3997 -0.5295 -0.2331
  314TMC3    O2 4784   1.616   1.250  10.807 -0.6315 -0.3623  0.1935
  315MPD2     C 4785   0.074   0.963  17.571 -0.3803  1.1087 -0.1108
  315MPD2    C1 4786   0.207   0.962  17.567  0.2382 -0.4286 -1.3073
  315MPD2    C2 4787   0.273   1.039  17.469  0.1137  0.2035 -0.3708
  315MPD2    C3 4788   0.202   1.106  17.368  0.2636  0.4920 -0.2965
  315MPD2    C4 4789   0.063   1.100  17.372 -0.2344  1.1606 -0.2590
  315MPD2    C5 4790   0.004   1.033  17.473  0.1966 -0.1689  0.3007
  315MPD2     H 4791   0.381   1.044  17.458 -0.3351  1.9941 -4.1061
  315MPD2    H1 4792   0.007   1.149  17.294  1.9481 -0.6373 -2.9667
  315MPD2    H2 4793   0.019   0.920  17.654  0.4279  1.1602  0.4540
  315MPD2    H3 4794   4.639   1.027  17.478  0.0854 -1.3476 -4.0667
  315MPD2     N 4795   0.278   1.173  17.267 -0.6350  0.4996 -0.0781
  315MPD2    H5 4796   0.379   1.177  17.277 -0.4679  0.3007 -1.5592
  315MPD2    N1 4797   0.289   0.893  17.661 -0.6266 -0.0462  0.3152
  315MPD2    H7 4798   0.388   0.918  17.661 -0.7398  0.3799 -1.6620
  316TMC3    C1 4799   0.325   1.284  17.061  0.2914  0.2627 -0.0472
  316TMC3    C2 4800   0.422   1.357  17.123  0.9909 -0.0994 -0.0384
  316TMC3    C3 4801   0.504   1.437  17.045  0.5906  0.2451  0.1769
  316TMC3    C4 4802   0.295   1.312  16.928 -0.8712  0.6100  0.5656
  316TMC3    C5 4803   0.380   1.392  16.858 -0.4273 -0.0192 -0.5546
  316TMC3    C6 4804   0.485   1.453  16.911  0.0181 -0.9237  0.8854
  316TMC3     C 4805   0.225   1.218  17.143 -0.0995 -0.1906  0.3096
  316TMC3     O 4806   0.119   1.192  17.088 -0.3870  0.0022 -0.2728
  316TMC3     H 4807   0.435   1.361  17.231 -0.6093  0.0848  0.1362
  316TMC3    H1 4808   0.220   1.251  16.879 -3.4359  2.0672  2.6249
  316TMC3    H2 4809   0.554   1.506  16.846  0.5814 -1.4527  1.0548
  316TMC3    C7 4810   0.407   1.346  16.717 -0.2370  0.8947  0.2526
  316TMC3    C8 4811   0.613   1.514  17.110  1.0584 -0.1597  0.5177
  316TMC3    O1 4812   0.522   1.324  16.695  0.8249  0.3367 -0.4666
  316TMC3    O2 4813   0.643   1.614  17.051 -0.3906  1.1300  0.3025
  317MPD2     C 4814   2.543   4.157  12.858  0.5124 -0.2710  0.1282
  317MPD2    C1 4815   2.542   4.029  12.807 -0.4187  0.0013  0.6577
  317MPD2    C2 4816   2.612   3.930  12.863  0.1568 -0.1242 -0.8804
  317MPD2    C3 4817   2.661   3.946  12.989  0.0184  0.5706  0.4019
  317MPD2    C4 4818   2.656   4.070  13.052 -0.1258  0.2110  0.3202
  317MPD2    C5 4819   2.597   4.176  12.983  0.2137  0.4576  0.1034
  317MPD2     H 4820   2.615   3.828  12.826  0.3945 -0.7886  1.0096
  317MPD2    H1 4821   2.702   4.084  13.149  0.6744 -0.6827  0.0793
  317MPD2    H2 4822   2.476   4.235  12.824  1.5177  1.2424  1.6002
  317MPD2    H3 4823   2.580   4.269  13.036 -2.1509 -0.1863  0.4593
  317MPD2     N 4824   2.722   3.830  13.046 -0.0593 -0.0517 -0.0388
  317MPD2    H5 4825   2.749   3.752  12.987 -0.4834 -0.6640  0.5662
  317MPD2    N1 4826   2.490   3.993  12.677 -0.4881  0.3837 -0.1578
  317MPD2    H7 4827   2.519   3.905  12.635  1.9922  1.6842 -1.1557
  318TMC3    C1 4828   2.856   3.704  13.193 -0.1735 -0.3661 -0.1950
  318TMC3    C2 4829   2.890   3.622  13.083  0.3741 -0.5393 -0.0486
  318TMC3    C3 4830   2.948   3.501  13.112 -0.3176 -0.4840  0.2777
  318TMC3    C4 4831   2.900   3.680  13.318  0.3364 -0.3636  0.7385
  318TMC3    C5 4832   2.963   3.558  13.335  0.1935 -0.1767  0.0030
  318TMC3    C6 4833   2.975   3.461  13.238 -0.5141  0.1832 -0.1593
  318TMC3     C 4834   2.763   3.824  13.175  0.7501  0.0698 -0.1018
  318TMC3     O 4835   2.736   3.886  13.273 -0.4078  0.2724  0.0627
  318TMC3     H 4836   2.845   3.618  12.985  0.6475 -1.3867 -0.1393
  318TMC3    H1 4837   2.888   3.754  13.396  2.8347  0.0877  0.7061
  318TMC3    H2 4838   3.013   3.361  13.255  1.5971  0.8203 -1.2237
  318TMC3    C7 4839   3.018   3.523  13.467  0.8374  0.7890  0.3397
  318TMC3    C8 4840   2.887   3.405  13.031 -0.4073 -0.3769 -0.2028
  318TMC3    O1 4841   2.962   3.574  13.566  0.3277  0.3409 -0.2184
  318TMC3    O2 4842   2.913   3.411  12.913 -0.1007 -0.4605  0.0130
  319MPD2     C 4843   2.753   0.802  16.653  0.3148 -0.6175  0.9843
  319MPD2    C1 4844   2.777   0.663  16.665  0.2375  0.1071 -0.0263
  319MPD2    C2 4845   2.725   0.580  16.561 -0.0684  0.6241  0.7510
  319MPD2    C3 4846   2.637   0.631  16.468 -0.4554  0.0627 -0.0112
  319MPD2    C4 4847   2.604   0.764  16.468  0.2902  0.2085 -0.2792
  319MPD2    C5 4848   2.662   0.846  16.562 -0.3519 -0.4340 -0.0415
  319MPD2     H 4849   2.758   0.478  16.552 -0.7879  0.7372 -2.9599
  319MPD2    H1 4850   2.526   0.808  16.406  1.2757 -0.7721 -2.2211
  319MPD2    H2 4851   2.781   0.876  16.728 -0.4934 -0.0719  0.7466
  319MPD2    H3 4852   2.648   0.953  16.555 -0.9046 -0.5232 -0.2652
  319MPD2     N 4853   2.580   0.547  16.367 -0.8130  0.3343  0.1016
  319MPD2    H5 4854   2.522   0.590  16.296 -2.3091  0.5645  1.4578
  319MPD2    N1 4855   2.856   0.605  16.768  0.1391  0.4203 -0.1917
  319MPD2    H7 4856   2.886   0.511  16.747 -0.7868  0.1366 -0.2256
  320TMC3    C1 4857   2.505   0.362  16.252  0.1736  0.3424  0.4339
  320TMC3    C2 4858   2.511   0.424  16.129  0.2419  0.6184 -0.3529
  320TMC3    C3 4859   2.467   0.348  16.024 -0.1770 -0.6008 -0.0042
  320TMC3    C4 4860   2.471   0.234  16.263 -0.9850 -0.7775 -0.3784
  320TMC3    C5 4861   2.441   0.161  16.158  0.4550  0.1349  0.1556
  320TMC3    C6 4862   2.440   0.212  16.038 -0.1410 -0.1731 -0.0334
  320TMC3     C 4863   2.585   0.411  16.360  0.3817  0.3044  0.2720
  320TMC3     O 4864   2.632   0.326  16.438  0.0245 -0.1412 -0.0121
  320TMC3     H 4865   2.504   0.531  16.116 -0.7418  0.4639 -1.0791
  320TMC3    H1 4866   2.464   0.195  16.364  0.4814 -1.5057 -0.5523
  320TMC3    H2 4867   2.416   0.146  15.956  0.8562  0.1765 -0.6050
  320TMC3    C7 4868   2.508   0.032  16.160 -0.5127 -0.0325 -0.0814
  320TMC3    C8 4869   2.455   0.415  15.895  0.4507  0.9985  0.4775
  320TMC3    O1 4870   2.462   4.672  16.116 -0.2000  0.6364  0.4568
  320TMC3    O2 4871   2.536   0.503  15.875  0.3567  0.0620 -0.0104
  321TMC3    C1 4872   2.959   0.582  16.971  0.3760 -0.5093 -0.0715
  321TMC3    C2 4873   3.053   0.502  16.915 -0.9328  0.3961 -0.2093
  321TMC3    C3 4874   3.136   0.427  16.998  0.2853  0.4619 -0.4454
  321TMC3    C4 4875   2.948   0.596  17.110 -0.1165  0.2435  0.6225
  321TMC3    C5 4876   3.034   0.519  17.180 -0.2232 -0.6839  0.5780
  321TMC3    C6 4877   3.126   0.428  17.129  0.1233  0.0785 -0.0172
  321TMC3     C 4878   2.876   0.664  16.890 -0.7038 -0.2381 -0.0552
  321TMC3     O 4879   2.828   0.766  16.941 -0.2574  0.2218 -0.7351
  321TMC3     H 4880   3.082   0.515  16.812 -1.1392  1.8933 -0.0820
  321TMC3    H1 4881   2.879   0.668  17.152  0.0049 -0.2666  1.6867
  321TMC3    H2 4882   3.174   0.361  17.199 -0.3778 -0.6648 -0.3937
  321TMC3    C7 4883   3.084   0.563  17.304 -0.6490 -0.1897 -0.2752
  321TMC3    C8 4884   3.276   0.457  16.946  0.6802 -0.3394 -0.6301
  321TMC3    O1 4885   3.020   0.586  17.404 -0.0484 -0.3702  0.1135
  321TMC3    O2 4886   3.292   0.579  16.940  0.2224 -0.2571  0.4534
  322MPD2     C 4887   2.607   1.616  13.308  0.0191  0.4401  0.4730
  322MPD2    C1 4888   2.550   1.527  13.397 -0.7144 -0.0028  0.1385
  322MPD2    C2 4889   2.530   1.397  13.352  0.5146  0.7720 -0.3678
  322MPD2    C3 4890   2.577   1.351  13.228 -0.1053 -0.0467  0.3113
  322MPD2    C4 4891   2.639   1.443  13.142 -0.0926  0.0754  0.0388
  322MPD2    C5 4892   2.643   1.577  13.179  0.5414 -1.1835 -0.9035
  322MPD2     H 4893   2.490   1.323  13.421 -0.3464  1.5729 -0.0037
  322MPD2    H1 4894   2.670   1.420  13.041 -0.3667 -1.2052  0.2495
  322MPD2    H2 4895   2.613   1.718  13.345  1.1440  0.5191  0.0703
  322MPD2    H3 4896   2.675   1.659  13.117  1.1317 -0.3309  0.5400
  322MPD2     N 4897   2.570   1.210  13.200  0.3546  0.1034  0.0963
  322MPD2    H5 4898   2.533   1.153  13.276  0.4893  0.0211  0.0988
  322MPD2    N1 4899   2.526   1.579  13.524 -0.0492 -0.6641  0.2313
  322MPD2    H7 4900   2.561   1.672  13.540 -1.7993  0.5573 -3.0493
  323TMC3    C1 4901   2.467   1.577  13.753  0.2247  0.3787  0.0219
  323TMC3    C2 4902   2.483   1.712  13.754 -0.9805 -0.1073  0.0168
  323TMC3    C3 4903   2.523   1.769  13.873  0.2434  0.3518  0.0932
  323TMC3    C4 4904   2.469   1.504  13.870 -0.2271  0.4694  0.4021
  323TMC3    C5 4905   2.506   1.562  13.989  0.3722 -0.5367  0.2736
  323TMC3    C6 4906   2.535   1.696  13.990  1.5429 -0.0673  0.3624
  323TMC3     C 4907   2.474   1.506  13.626 -0.3992  0.5377  0.7714
  323TMC3     O 4908   2.439   1.392  13.627 -0.1867 -0.1988  0.4305
  323TMC3     H 4909   2.496   1.777  13.669  0.1011  1.1167  1.1217
  323TMC3    H1 4910   2.440   1.400  13.861 -1.3624  0.4110  4.9265
  323TMC3    H2 4911   2.573   1.734  14.085  0.2305 -0.7588  1.1652
  323TMC3    C7 4912   2.533   1.476  14.104 -0.5729 -0.2607  0.0317
  323TMC3    C8 4913   2.576   1.907  13.871 -0.0407 -0.2304  0.4935
  323TMC3    O1 4914   2.519   1.359  14.079  0.0557  0.3643  0.2719
  323TMC3    O2 4915   2.662   1.929  13.954 -0.4865 -0.1109 -0.5239
  324MPD2     C 4916   4.329   2.684  14.208 -0.1513 -1.5297 -0.5936
  324MPD2    C1 4917   4.393   2.778  14.286 -0.2111  0.1195 -0.0839
  324MPD2    C2 4918   4.314   2.857  14.372  0.2254  0.1289  0.2961
  324MPD2    C3 4919   4.178   2.851  14.357  0.3877  0.8216  0.0715
  324MPD2    C4 4920   4.120   2.753  14.281  0.0309 -0.2480 -0.0290
  324MPD2    C5 4921   4.197   2.667  14.211  0.3939  0.6646  0.1335
  324MPD2     H 4922   4.354   2.924  14.448  0.1392 -1.0526  1.3862
  324MPD2    H1 4923   4.015   2.729  14.269 -0.3468  1.6166 -0.5131
  324MPD2    H2 4924   4.384   2.605  14.157  0.9017 -0.9705 -0.3218
  324MPD2    H3 4925   4.152   2.588  14.152 -0.7124  0.9596  0.5954
  324MPD2     N 4926   4.086   2.923  14.439 -0.3100  0.4819  0.4410
  324MPD2    H5 4927   3.989   2.893  14.434  0.0392 -0.4529 -0.7461
  324MPD2    N1 4928   4.535   2.778  14.302  0.0754 -0.4901  0.0545
  324MPD2    H7 4929   4.571   2.849  14.366  1.1022 -1.6505  0.7702
  325TMC3    C1 4930   3.995   3.077  14.594  0.2519  0.2553 -0.0515
  325TMC3    C2 4931   3.904   2.982  14.638  0.3928 -0.2588 -0.1332
  325TMC3    C3 4932   3.771   3.010  14.661 -0.0405 -0.0656 -0.2036
  325TMC3    C4 4933   3.950   3.201  14.563  0.2489 -0.2722  0.2716
  325TMC3    C5 4934   3.816   3.229  14.585  0.6882 -0.0097 -0.0754
  325TMC3    C6 4935   3.722   3.134  14.635  0.8446 -0.6591  0.1404
  325TMC3     C 4936   4.111   3.035  14.508 -0.1391  0.0680 -0.2461
  325TMC3     O 4937   4.194   3.121  14.503  0.3519 -0.4586 -0.0089
  325TMC3     H 4938   3.947   2.884  14.651  0.4063 -0.3478 -0.8456
  325TMC3    H1 4939   4.019   3.282  14.545 -0.0033 -0.2304 -0.5055
  325TMC3    H2 4940   3.614   3.147  14.642  0.9115 -1.2330  2.0508
  325TMC3    C7 4941   3.769   3.338  14.504 -0.3835  0.1423  0.2696
  325TMC3    C8 4942   3.688   2.908  14.617  0.3872  0.5327  0.5206
  325TMC3    O1 4943   3.849   3.388  14.427 -0.0378 -0.4336 -0.1868
  325TMC3    O2 4944   3.712   2.865  14.506  0.0977 -0.0174 -0.3637
  326MPD2     C 4945   0.537   3.569  11.314  0.2104 -0.1661  0.3893
  326MPD2    C1 4946   0.622   3.586  11.209 -0.6727  0.1224  0.1090
  326MPD2    C2 4947   0.741   3.655  11.227  0.0335 -0.1192 -0.8999
  326MPD2    C3 4948   0.782   3.709  11.346  0.0727 -0.5684 -0.6524
  326MPD2    C4 4949   0.692   3.699  11.447 -0.0015  0.5374 -0.1613
  326MPD2    C5 4950   0.573   3.633  11.433 -0.5175 -0.3799 -0.2735
  326MPD2     H 4951   0.800   3.665  11.137  0.8729 -1.2123 -0.4691
  326MPD2    H1 4952   0.718   3.739  11.544 -1.8426  0.4895  0.3545
  326MPD2    H2 4953   0.436   3.531  11.311  0.4311 -0.8341  1.1872
  326MPD2    H3 4954   0.511   3.617  11.520 -0.4066 -1.8205 -0.4675
  326MPD2     N 4955   0.905   3.777  11.362 -0.2513 -0.2918  0.1975
  326MPD2    H5 4956   0.935   3.818  11.450 -0.8502 -1.4388  0.9268
  326MPD2    N1 4957   0.598   3.542  11.078  0.6657 -0.3189 -0.0478
  326MPD2    H7 4958   0.670   3.556  11.007 -2.4929 -0.8913 -3.3527
  327TMC3    C1 4959   0.516   3.413  10.905 -0.6865 -0.5648 -0.2853
  327TMC3    C2 4960   0.424   3.444  10.809  0.1690  0.0281 -0.2615
  327TMC3    C3 4961   0.463   3.425  10.673  0.4804 -0.3618 -0.1570
  327TMC3    C4 4962   0.646   3.371  10.888  0.4040 -0.0703  0.1273
  327TMC3    C5 4963   0.685   3.355  10.754 -0.2499 -0.2862  0.3744
  327TMC3    C6 4964   0.591   3.375  10.653 -0.2821 -0.1631 -0.1608
  327TMC3     C 4965   0.490   3.472  11.036 -0.2817 -0.4020 -0.1367
  327TMC3     O 4966   0.381   3.457  11.089  0.1404 -0.1925  0.6692
  327TMC3     H 4967   0.336   3.501  10.834 -0.9510 -0.6344 -2.6625
  327TMC3    H1 4968   0.706   3.334  10.970 -1.3511  0.6597  1.7609
  327TMC3    H2 4969   0.629   3.364  10.552  0.9841  1.7114  0.1303
  327TMC3    C7 4970   0.827   3.339  10.719 -0.3824  0.3342  0.3839
  327TMC3    C8 4971   0.428   3.537  10.588 -0.3025 -0.2767  0.3487
  327TMC3    O1 4972   0.853   3.321  10.601 -0.4335  0.2118  0.1297
  327TMC3    O2 4973   0.363   3.629  10.641  0.7524  0.0755 -0.8845
  328MPD2     C 4974   2.774   3.607  17.359  0.2647  0.8137  0.0564
  328MPD2    C1 4975   2.668   3.524  17.341 -0.3105 -0.2108 -0.0512
  328MPD2    C2 4976   2.589   3.557  17.237 -0.2743 -0.7186 -0.3627
  328MPD2    C3 4977   2.618   3.660  17.152  0.7174 -0.1726 -0.1571
  328MPD2    C4 4978   2.727   3.737  17.169  0.6579  0.3352  0.5012
  328MPD2    C5 4979   2.801   3.708  17.274  0.6077 -0.4290  0.4518
  328MPD2     H 4980   2.501   3.493  17.227 -1.7655  1.1784  0.6510
  328MPD2    H1 4981   2.740   3.832  17.119  2.0345  0.9680  2.0700
  328MPD2    H2 4982   2.836   3.603  17.448 -1.0518  3.1043  1.0843
  328MPD2    H3 4983   2.876   3.783  17.298 -0.9899  1.3590 -0.1148
  328MPD2     N 4984   2.526   3.706  17.055 -0.5016 -0.2023 -0.8930
  328MPD2    H5 4985   2.543   3.795  17.011  0.5593  1.7328  3.4433
  328MPD2    N1 4986   2.640   3.421  17.429 -0.0541 -0.4194 -0.3063
  328MPD2    H7 4987   2.705   3.407  17.506 -0.0657  1.1462 -0.0071
  329TMC3    C1 4988   2.508   3.270  17.550 -0.2440  0.1357 -0.4596
  329TMC3    C2 4989   2.485   3.361  17.657 -1.0445  0.1260  0.8015
  329TMC3    C3 4990   2.380   3.338  17.742 -0.1715 -0.6934  0.3843
  329TMC3    C4 4991   2.431   3.159  17.535 -0.1154  0.7259  0.0697
  329TMC3    C5 4992   2.337   3.136  17.640  0.6327 -0.9552  0.0138
  329TMC3    C6 4993   2.310   3.221  17.743 -0.2265 -0.0495 -0.4845
  329TMC3     C 4994   2.539   3.328  17.421  0.2857  0.1725  0.0109
  329TMC3     O 4995   2.470   3.295  17.325  0.1531  0.0949 -0.7204
  329TMC3     H 4996   2.535   3.457  17.659 -1.1823  0.2552 -2.2871
  329TMC3    H1 4997   2.435   3.100  17.445 -0.6110  1.0094 -0.1356
  329TMC3    H2 4998   2.227   3.204   0.044  1.1848 -1.1809  0.9602
  329TMC3    C7 4999   2.261   3.007  17.618  0.1067  0.2638  0.5936
  329TMC3    C8 5000   2.291   3.451  17.741  0.7048  0.0409  0.9966
  329TMC3    O1 5001   2.299   2.931  17.527 -0.3114  0.2397 -0.1561
  329TMC3    O2 5002   2.186   3.441  17.679  0.0765 -0.2212 -0.7848
  330TMC3    C1 5003   0.839   2.963   9.629  0.3219  0.3011 -0.2702
  330TMC3    C2 5004   0.711   2.932   9.664  0.2340 -0.8571  0.3430
  330TMC3    C3 5005   0.689   2.816   9.736  0.6861 -0.2845 -0.0795
  330TMC3    C4 5006   0.946   2.891   9.680 -0.1909 -0.6609  0.0397
  330TMC3    C5 5007   0.924   2.789   9.757 -0.6495  0.0198 -0.4044
  330TMC3    C6 5008   0.796   2.745   9.781 -0.4501 -0.1938  0.1182
  330TMC3     C 5009   0.867   3.075   9.537  0.0277 -0.4801 -0.5523
  330TMC3     O 5010   0.973   3.064   9.475 -0.4030 -0.3810  0.2743
  330TMC3     H 5011   0.625   2.976   9.614  1.6064  0.0486 -1.2297
  330TMC3    H1 5012   1.043   2.919   9.640  0.7559 -2.5728  1.0136
  330TMC3    H2 5013   0.787   2.642   9.813 -0.9498 -0.1051  0.2550
  330TMC3    C7 5014   1.034   2.699   9.786  0.1184 -0.2186  0.3556
  330TMC3    C8 5015   0.557   2.751   9.722  0.2041 -0.3137  0.1529
  330TMC3    O1 5016   1.131   2.707   9.711 -0.1458 -0.1346 -0.2196
  330TMC3    O2 5017   0.475   2.812   9.659  0.3634  0.3129 -0.2642
  331MPD2     C 5018   3.818   2.300  12.779  0.1767  0.0317 -0.0718
  331MPD2    C1 5019   3.772   2.231  12.667  0.2433 -0.0780 -0.5255
  331MPD2    C2 5020   3.793   2.099  12.670  0.3203  0.3802  0.3245
  331MPD2    C3 5021   3.880   2.031  12.762 -0.0512  0.4066 -0.1217
  331MPD2    C4 5022   3.932   2.111  12.864  0.9726  0.7038  0.0056
  331MPD2    C5 5023   3.897   2.242  12.872 -0.2499  0.6353 -0.1291
  331MPD2     H 5024   3.773   2.044  12.579 -0.2537 -1.4926  1.5816
  331MPD2    H1 5025   3.998   2.069  12.939 -2.0830 -0.9010  1.8361
  331MPD2    H2 5026   3.805   2.407  12.787  0.5124  0.0390  0.3780
  331MPD2    H3 5027   3.925   2.295  12.962 -3.0370  3.0564 -0.6855
  331MPD2     N 5028   3.911   1.891  12.752 -0.1988  0.1154 -0.3234
  331MPD2    H5 5029   3.855   1.840  12.685  0.6515 -0.6691 -0.4368
  331MPD2    N1 5030   3.728   2.302  12.552 -0.1816 -0.2923 -0.3402
  331MPD2    H7 5031   3.721   2.403  12.559 -0.3238 -0.1534 -2.4330
  332TMC3    C1 5032   4.018   1.681  12.773  0.1689 -0.5050 -0.9193
  332TMC3    C2 5033   3.924   1.631  12.686 -0.0956  0.7379 -0.4345
  332TMC3    C3 5034   3.930   1.503  12.647 -0.2852 -0.2885 -0.2727
  332TMC3    C4 5035   4.115   1.602  12.826 -0.1019  0.0750  0.3970
  332TMC3    C5 5036   4.129   1.478  12.768 -0.1669 -0.0959 -0.2434
  332TMC3    C6 5037   4.036   1.426  12.679  0.2076  0.5411  0.3352
  332TMC3     C 5038   3.998   1.812  12.824 -0.1885 -0.0203  0.2529
  332TMC3     O 5039   4.077   1.852  12.910 -0.1736 -0.2292 -0.1468
  332TMC3     H 5040   3.837   1.682  12.647 -2.1734 -1.3993  1.3923
  332TMC3    H1 5041   4.181   1.632  12.907  0.2280  0.6342 -0.0717
  332TMC3    H2 5042   4.075   1.336  12.632 -0.9370  1.2398 -1.9362
  332TMC3    C7 5043   4.258   1.410  12.780 -0.0526 -0.1346  0.0233
  332TMC3    C8 5044   3.849   1.476  12.524 -0.2670  0.2137  0.1387
  332TMC3    O1 5045   4.259   1.292  12.758  0.0110  0.4575  0.3873
  332TMC3    O2 5046   3.794   1.571  12.468 -0.1312 -0.1774  0.0032
  333MPD2     C 5047   4.011   1.757  11.356  0.4275  0.1772 -0.0656
  333MPD2    C1 5048   4.127   1.694  11.400  0.3347 -0.2544  0.1409
  333MPD2    C2 5049   4.129   1.560  11.425 -0.5782 -0.4783  0.1412
  333MPD2    C3 5050   4.012   1.488  11.411  0.1259  0.2836 -0.0477
  333MPD2    C4 5051   3.900   1.544  11.349  0.4273  0.0510 -0.2605
  333MPD2    C5 5052   3.903   1.679  11.317  0.2572  0.2954  0.4800
  333MPD2     H 5053   4.216   1.511  11.467 -1.5578 -1.6497  0.7816
  333MPD2    H1 5054   3.814   1.484  11.320  0.2309 -0.7042  1.9418
  333MPD2    H2 5055   4.008   1.865  11.342 -1.1216 -0.0164 -1.2336
  333MPD2    H3 5056   3.817   1.725  11.269  0.6919 -1.2910 -1.8377
  333MPD2     N 5057   4.013   1.352  11.449 -0.2399 -0.0702  0.0496
  333MPD2    H5 5058   4.103   1.316  11.479  0.4452  2.0500  0.5489
  333MPD2    N1 5059   4.245   1.773  11.423  0.5335  0.4386 -0.0525
  333MPD2    H7 5060   4.231   1.871  11.400  0.0799  0.4415  0.2376
  334TMC3    C1 5061   4.471   1.843  11.469  0.1027  0.9220  0.0787
  334TMC3    C2 5062   4.588   1.833  11.537  0.7198  0.5824 -0.7282
  334TMC3    C3 5063   4.685   1.921  11.524  0.3519 -0.3061  0.2168
  334TMC3    C4 5064   4.468   1.942  11.371  0.2714 -0.4394  0.0223
  334TMC3    C5 5065   4.576   2.032  11.352 -0.0296 -0.1534  0.2847
  334TMC3    C6 5066   4.684   2.027  11.438  0.4397 -0.0512  0.1409
  334TMC3     C 5067   4.369   1.737  11.477 -0.0032 -0.8458 -0.1713
  334TMC3     O 5068   4.401   1.625  11.518 -0.8092  0.4909  0.4848
  334TMC3     H 5069   4.614   1.756  11.608 -0.1392 -0.3303 -1.4130
  334TMC3    H1 5070   4.378   1.940  11.310 -0.1801 -1.9683  0.7281
  334TMC3    H2 5071   0.018   2.104  11.435  1.5678 -1.1099  1.5072
  334TMC3    C7 5072   4.583   2.131  11.248 -0.4184  0.5682  0.1847
  334TMC3    C8 5073   0.064   1.880  11.577  0.4163 -0.4888 -0.1704
  334TMC3    O1 5074   4.675   2.211  11.254 -0.4666  0.0420 -0.2709
  334TMC3    O2 5075   0.060   1.849  11.695  0.1018 -0.4358  0.4014
  335TMC3    C1 5076   3.275   4.117  17.389  0.4702 -0.5147 -0.4564
  335TMC3    C2 5077   3.243   4.061  17.270 -0.1669 -0.1113  1.0156
  335TMC3    C3 5078   3.266   3.931  17.240  0.0638  0.0241 -0.7213
  335TMC3    C4 5079   3.344   4.038  17.480 -0.1180 -0.0406 -0.4884
  335TMC3    C5 5080   3.372   3.907  17.445 -0.3090  0.3852  0.0880
  335TMC3    C6 5081   3.337   3.856  17.324  0.6493 -0.8338 -0.0837
  335TMC3     C 5082   3.305   4.257  17.382  0.3424  0.0713  0.3426
  335TMC3     O 5083   3.298   4.320  17.489 -0.1036 -0.4711  0.6740
  335TMC3     H 5084   3.171   4.095  17.197 -1.1770 -2.2675  0.9933
  335TMC3    H1 5085   3.400   4.084  17.561  2.8258 -3.3147 -0.6727
  335TMC3    H2 5086   3.366   3.752  17.311  0.1946 -1.2542  2.3072
  335TMC3    C7 5087   3.460   3.837  17.531  0.0780 -0.2215  0.3695
  335TMC3    C8 5088   3.190   3.862  17.142 -1.4156 -0.5157 -0.0776
  335TMC3    O1 5089   3.450   3.838  17.653 -0.5463 -0.2705  0.3346
  335TMC3    O2 5090   3.145   3.935  17.055 -0.0645  0.3412 -0.6430
  336MPD2     C 5091   2.759   1.787  16.214 -0.4855 -0.1893 -0.6757
  336MPD2    C1 5092   2.836   1.733  16.116 -0.1711 -0.9383 -0.8097
  336MPD2    C2 5093   2.878   1.603  16.129 -0.2235  0.4177  0.4111
  336MPD2    C3 5094   2.852   1.532  16.250  0.3194  0.1362 -0.0187
  336MPD2    C4 5095   2.767   1.587  16.346  0.2071 -0.5837  0.2737
  336MPD2    C5 5096   2.719   1.713  16.322  0.7903  0.6274  1.2182
  336MPD2     H 5097   2.938   1.568  16.046  1.4616 -1.5317  2.4328
  336MPD2    H1 5098   2.740   1.534  16.436  2.3055 -0.3903  1.0065
  336MPD2    H2 5099   2.723   1.889  16.217  0.3593  0.2067 -4.0457
  336MPD2    H3 5100   2.661   1.755  16.404 -0.5818  1.2148 -0.0496
  336MPD2     N 5101   2.902   1.404  16.270  0.7852 -0.0901  0.3392
  336MPD2    H5 5102   2.860   1.346  16.342  0.7378 -0.3625  0.0910
  336MPD2    N1 5103   2.864   1.803  15.993 -0.2559  0.0358  0.3038
  336MPD2    H7 5104   2.900   1.748  15.916 -1.0624  1.7607 -1.3012
  337TMC3    C1 5105   2.869   1.978  15.838 -1.3671 -0.1813  0.0227
  337TMC3    C2 5106   2.769   1.924  15.760  0.0306 -0.4943 -0.3819
  337TMC3    C3 5107   2.724   1.996  15.656 -0.4845 -0.2266 -0.5091
  337TMC3    C4 5108   2.923   2.103  15.817  0.5306  0.3010  0.9641
  337TMC3    C5 5109   2.880   2.169  15.705  0.0523  0.2684 -0.0998
  337TMC3    C6 5110   2.782   2.122  15.621  0.4678 -0.1364  0.3927
  337TMC3     C 5111   2.860   1.937  15.979 -0.1823 -0.2576  0.1118
  337TMC3     O 5112   2.825   2.021  16.057  0.5632 -0.0234  0.5649
  337TMC3     H 5113   2.711   1.838  15.789  1.0257 -0.6630  1.0947
  337TMC3    H1 5114   3.004   2.134  15.883  1.6715  1.0646 -0.7878
  337TMC3    H2 5115   2.729   2.189  15.554  1.0064  1.6968  1.7790
  337TMC3    C7 5116   2.923   2.299  15.675  0.6517  0.2827  0.2700
  337TMC3    C8 5117   2.580   1.994  15.655 -0.5016  0.3983  0.4155
  337TMC3    O1 5118   2.903   2.339  15.565  0.3237 -0.4567 -0.7619
  337TMC3    O2 5119   2.523   2.002  15.763 -0.1295  0.0087  0.1559
  338MPD2     C 5120   3.647   0.930   1.072  0.3831 -0.3997  0.1911
  338MPD2    C1 5121   3.558   0.935   0.966  0.6787  0.7493  0.2985
  338MPD2    C2 5122   3.425   0.950   0.987  0.0370  0.5867  0.6370
  338MPD2    C3 5123   3.387   0.975   1.118  0.3768  0.0403 -0.8616
  338MPD2    C4 5124   3.467   0.953   1.223 -0.1542  0.2758  0.1658
  338MPD2    C5 5125   3.597   0.937   1.197  0.2474 -0.0503 -0.7521
  338MPD2     H 5126   3.355   0.955   0.904  1.1603 -3.7673 -0.5575
  338MPD2    H1 5127   3.426   0.973   1.321 -0.0479  1.1022  0.0484
  338MPD2    H2 5128   3.754   0.918   1.061  0.3841 -1.1603  1.0855
  338MPD2    H3 5129   3.658   0.925   1.286 -2.2329  1.5684  1.1694
  338MPD2     N 5130   3.247   0.986   1.136  0.3004  0.4201  0.0249
  338MPD2    H5 5131   3.193   1.017   1.055  1.8654  2.9441 -0.0775
  338MPD2    N1 5132   3.594   0.901   0.834 -0.1003  0.1359 -0.2793
  338MPD2    H7 5133   3.517   0.894   0.768 -1.0200  0.9578  0.7021
  339TMC3    C1 5134   3.030   0.989   1.236  0.2019  0.1481 -0.5020
  339TMC3    C2 5135   2.957   1.009   1.351  0.5171 -0.3695  0.4512
  339TMC3    C3 5136   2.825   1.037   1.338 -0.5537 -0.4325 -0.1903
  339TMC3    C4 5137   2.968   0.975   1.111 -0.4376  0.1815  0.0360
  339TMC3    C5 5138   2.829   0.991   1.108 -0.3423 -0.4172  0.3657
  339TMC3    C6 5139   2.757   1.026   1.219  0.1370  0.1210  1.3761
  339TMC3     C 5140   3.176   0.985   1.257 -0.2382 -0.3412  0.1164
  339TMC3     O 5141   3.213   0.971   1.371 -0.3066  0.2961 -0.3301
  339TMC3     H 5142   3.001   1.021   1.449  1.6444 -1.7897  0.1348
  339TMC3    H1 5143   3.016   0.942   1.020 -0.6654 -1.0767  0.3785
  339TMC3    H2 5144   2.652   1.055   1.220  0.5497  1.6221  1.4602
  339TMC3    C7 5145   2.760   0.982   0.981 -0.0151  0.6085 -0.1241
  339TMC3    C8 5146   2.772   1.106   1.448 -0.2438  0.1046 -0.1767
  339TMC3    O1 5147   2.825   0.985   0.877 -0.0854 -0.2292 -0.1286
  339TMC3    O2 5148   2.845   1.182   1.511  0.3322  0.0952  0.2989
  340MPD2     C 5149   3.597   3.565   9.762 -0.7896  0.2023 -0.2429
  340MPD2    C1 5150   3.647   3.576   9.890 -0.3142  0.2055  0.5697
  340MPD2    C2 5151   3.669   3.703   9.943 -0.1848 -0.1272  0.6709
  340MPD2    C3 5152   3.665   3.816   9.858  0.8515  0.2595 -0.2688
  340MPD2    C4 5153   3.613   3.806   9.734 -0.0380 -0.0720 -0.3631
  340MPD2    C5 5154   3.583   3.684   9.680 -0.2001  0.5672  0.3887
  340MPD2     H 5155   3.706   3.715  10.045 -0.2501  1.1583  0.5411
  340MPD2    H1 5156   3.592   3.892   9.671  0.4597 -0.5016 -1.1171
  340MPD2    H2 5157   3.573   3.470   9.715 -2.5537  1.1403 -1.2427
  340MPD2    H3 5158   3.544   3.670   9.580  0.0219 -0.5146  0.4478
  340MPD2     N 5159   3.702   3.950   9.903  0.6069  0.0120 -0.3204
  340MPD2    H5 5160   3.703   4.024   9.834  1.1839 -1.2355 -1.6579
  340MPD2    N1 5161   3.651   3.461   9.969  0.2268  0.5889  0.0523
  340MPD2    H7 5162   3.621   3.375   9.923  1.3032  0.6726 -0.8142
  341TMC3    C1 5163   3.698   3.318  10.153  0.7033  0.1815 -0.0619
  341TMC3    C2 5164   3.603   3.231  10.105  0.0415 -0.4348  0.5170
  341TMC3    C3 5165   3.602   3.101  10.164  0.3606  0.4020  0.1155
  341TMC3    C4 5166   3.777   3.291  10.259 -0.6635  0.0230  0.0935
  341TMC3    C5 5167   3.761   3.172  10.329  0.5578  0.0362  0.0486
  341TMC3    C6 5168   3.675   3.074  10.281 -1.1871 -0.1955 -0.6373
  341TMC3     C 5169   3.708   3.448  10.092  0.8783  0.0967  0.1588
  341TMC3     O 5170   3.768   3.526  10.164 -0.3659 -0.2764  0.2057
  341TMC3     H 5171   3.536   3.251  10.022 -1.2013 -1.1644  1.3369
  341TMC3    H1 5172   3.844   3.362  10.305  0.7329 -0.5146 -1.1271
  341TMC3    H2 5173   3.684   2.973  10.319  0.6418  0.8118  1.6090
  341TMC3    C7 5174   3.836   3.149  10.450 -0.7341  0.3452  0.6641
  341TMC3    C8 5175   3.557   2.974  10.100  0.1948 -0.1469 -0.1835
  341TMC3    O1 5176   3.952   3.187  10.463 -0.0413 -0.9557  0.4453
  341TMC3    O2 5177   3.545   2.879  10.177  0.1582 -0.4377  0.3580
  342MPD2     C 5178   1.077   2.034  17.526 -0.0883 -0.5038  0.2591
  342MPD2    C1 5179   1.159   2.075  17.427 -0.0495 -0.3121 -0.2650
  342MPD2    C2 5180   1.229   2.193  17.437 -0.0447  0.2834 -0.5730
  342MPD2    C3 5181   1.214   2.277  17.543 -0.4132  0.5623 -0.2006
  342MPD2    C4 5182   1.136   2.235  17.648  0.1578  0.2736  0.9209
  342MPD2    C5 5183   1.077   2.109  17.643 -0.6623  0.5654 -0.3930
  342MPD2     H 5184   1.295   2.215  17.353  0.8280 -0.0528  0.0214
  342MPD2    H1 5185   1.124   2.291  17.740  2.0891  1.5040  0.4265
  342MPD2    H2 5186   1.006   1.953  17.538 -1.5949  0.6313 -0.9899
  342MPD2    H3 5187   1.009   2.069  17.717 -0.2197 -0.1468 -0.3726
  342MPD2     N 5188   1.272   2.406  17.560  0.0841 -0.2710  0.3850
  342MPD2    H5 5189   1.258   2.455  17.648  1.3270 -1.3983  1.2250
  342MPD2    N1 5190   1.189   1.995  17.317  0.7315  0.2790  0.0936
  342MPD2    H7 5191   1.253   2.026  17.245 -1.5464 -0.0394 -2.0548
  343TMC3    C1 5192   1.206   1.789  17.197 -0.1825  0.1875  0.1593
  343TMC3    C2 5193   1.324   1.837  17.140  0.1277  0.3611  0.0386
  343TMC3    C3 5194   1.397   1.744  17.069 -0.7469 -0.1665  0.1870
  343TMC3    C4 5195   1.161   1.661  17.169 -0.3032  0.2074  0.4561
  343TMC3    C5 5196   1.235   1.570  17.096 -0.3531  0.4530  1.0438
  343TMC3    C6 5197   1.357   1.612  17.049  0.3882  0.4111 -0.0757
  343TMC3     C 5198   1.135   1.871  17.292  0.4147 -0.2921 -0.3083
  343TMC3     O 5199   1.055   1.809  17.362  0.2280  0.3233 -0.0353
  343TMC3     H 5200   1.369   1.933  17.165 -0.6520  1.4529 -2.8175
  343TMC3    H1 5201   1.065   1.628  17.207 -0.4770  0.2334  0.0473
  343TMC3    H2 5202   1.417   1.535  17.001 -0.8865 -2.3959  2.8242
  343TMC3    C7 5203   1.173   1.452  17.033 -0.3060  0.6845  0.0529
  343TMC3    C8 5204   1.508   1.806  16.999 -0.2467  0.5301  0.0451
  343TMC3    O1 5205   1.079   1.396  17.085  0.2568 -0.2616 -0.2334
  343TMC3    O2 5206   1.537   1.922  17.020  0.1299 -0.2367  0.2254
  344MPD2     C 5207   3.068   0.796  10.104 -0.4626 -0.2352  0.7537
  344MPD2    C1 5208   3.148   0.811  10.215  0.3761 -0.7467  0.7014
  344MPD2    C2 5209   3.204   0.943  10.246  0.4076 -0.2961  0.0824
  344MPD2    C3 5210   3.172   1.055  10.166 -0.6005 -1.0042  0.5180
  344MPD2    C4 5211   3.109   1.030  10.047  1.2406 -0.8427  0.6548
  344MPD2    C5 5212   3.056   0.902  10.021 -0.6242  0.1853  0.7020
  344MPD2     H 5213   3.262   0.950  10.337  1.0002 -0.1657 -0.3066
  344MPD2    H1 5214   3.089   1.114   9.982 -0.5191 -0.8162  1.2255
  344MPD2    H2 5215   3.000   0.714  10.083  0.2472 -0.5608 -0.2975
  344MPD2    H3 5216   2.998   0.893   9.930  1.0602  1.0996 -0.4674
  344MPD2     N 5217   3.207   1.185  10.209 -0.0866 -0.1270 -0.0936
  344MPD2    H5 5218   3.188   1.259  10.142 -0.3443  0.6821  0.8659
  344MPD2    N1 5219   3.161   0.710  10.312 -0.5958 -0.1393 -0.1010
  344MPD2    H7 5220   3.208   0.742  10.396 -0.0715 -0.2269 -0.3622
  345TMC3    C1 5221   3.309   1.363  10.333 -0.6935 -0.4194 -0.5439
  345TMC3    C2 5222   3.386   1.407  10.445 -0.1602  0.0762  0.0402
  345TMC3    C3 5223   3.419   1.539  10.448 -0.2680  0.5403 -0.4193
  345TMC3    C4 5224   3.256   1.450  10.234  0.2846  0.7800 -0.0332
  345TMC3    C5 5225   3.284   1.580  10.251  0.0020 -0.0003  1.0896
  345TMC3    C6 5226   3.370   1.622  10.350 -0.1229 -0.4272  0.1634
  345TMC3     C 5227   3.278   1.219  10.327 -0.1563 -0.3774  0.0159
  345TMC3     O 5228   3.330   1.156  10.421 -0.3685  0.3594  0.3823
  345TMC3     H 5229   3.421   1.341  10.525 -1.0422  0.0644  0.4136
  345TMC3    H1 5230   3.170   1.417  10.176 -0.8860  1.1973  1.4803
  345TMC3    H2 5231   3.388   1.729  10.351 -0.5054 -0.3576 -0.2752
  345TMC3    C7 5232   3.194   1.689  10.207  0.5032  0.0147  0.5027
  345TMC3    C8 5233   3.460   1.589  10.574 -0.1671 -0.4640 -0.5989
  345TMC3    O1 5234   3.194   1.784  10.281  0.2625 -0.4453 -0.4286
  345TMC3    O2 5235   3.504   1.511  10.659 -0.1085  0.8142  0.5390
  346MPD2     C 5236   2.786   2.878  14.089 -0.3290 -0.3517  0.2729
  346MPD2    C1 5237   2.830   3.001  14.053  0.5625 -0.5785 -0.3424
  346MPD2    C2 5238   2.865   3.093  14.151 -0.6769  0.1919 -0.0077
  346MPD2    C3 5239   2.846   3.066  14.287 -0.1731 -0.3806 -0.2085
  346MPD2    C4 5240   2.795   2.939  14.316  0.9774 -0.1158 -0.0966
  346MPD2    C5 5241   2.771   2.844  14.218  0.6427 -0.4272  0.0770
  346MPD2     H 5242   2.892   3.193  14.119 -3.1346  0.4042 -1.4931
  346MPD2    H1 5243   2.770   2.907  14.417  3.6523 -0.7319  0.3734
  346MPD2    H2 5244   2.754   2.810  14.012 -1.9379  0.0467  0.5747
  346MPD2    H3 5245   2.736   2.746  14.249  0.2718  0.4919  2.6124
  346MPD2     N 5246   2.865   3.159  14.387 -0.4239  0.0455 -0.2557
  346MPD2    H5 5247   2.885   3.253  14.356 -2.8950 -0.3813 -3.1173
  346MPD2    N1 5248   2.846   3.040  13.914  0.0243  0.0688 -0.0126
  346MPD2    H7 5249   2.863   3.138  13.894 -2.2362  0.1751 -1.3788
  347TMC3    C1 5250   2.908   3.237  14.605 -0.0215 -0.1233  0.4844
  347TMC3    C2 5251   2.996   3.328  14.548  0.0976 -0.1237  0.3034
  347TMC3    C3 5252   3.009   3.446  14.617  0.3029 -0.2070 -0.1551
  347TMC3    C4 5253   2.850   3.251  14.728 -0.5077  0.1358 -0.0218
  347TMC3    C5 5254   2.887   3.359  14.802  0.4100  0.9673 -0.4952
  347TMC3    C6 5255   2.964   3.453  14.745  0.0785 -0.2180  0.3479
  347TMC3     C 5256   2.854   3.137  14.524  0.2649 -0.0888  0.6843
  347TMC3     O 5257   2.810   3.044  14.587  0.6191  0.1348 -0.1830
  347TMC3     H 5258   3.040   3.308  14.451 -1.7725  1.1304 -0.8200
  347TMC3    H1 5259   2.770   3.189  14.767 -2.4877  2.7215  0.0818
  347TMC3    H2 5260   2.976   3.549  14.795  1.3484  0.4892 -1.3161
  347TMC3    C7 5261   2.887   3.346  14.946 -0.1960 -0.1547  0.0069
  347TMC3    C8 5262   3.145   3.488  14.604 -0.2963 -0.8474 -0.4458
  347TMC3    O1 5263   2.888   3.451  15.009  0.5905 -0.4122 -0.0603
  347TMC3    O2 5264   3.208   3.494  14.712 -0.4156 -0.1121 -0.5984
  348MPD2     C 5265   1.903   2.538  12.288 -0.0761  0.5090  0.1240
  348MPD2    C1 5266   1.966   2.511  12.168  0.4313 -0.2301 -0.9472
  348MPD2    C2 5267   1.907   2.559  12.045 -0.1339  0.3011  0.0366
  348MPD2    C3 5268   1.789   2.633  12.048  0.2883  0.1564 -0.3416
  348MPD2    C4 5269   1.733   2.656  12.170  0.0922 -0.3968  0.5752
  348MPD2    C5 5270   1.789   2.607  12.288  0.3728 -0.1341  1.0520
  348MPD2     H 5271   1.954   2.529  11.952  0.3795  0.0177  0.3833
  348MPD2    H1 5272   1.647   2.720  12.186 -0.3881 -0.4323 -1.8093
  348MPD2    H2 5273   1.958   2.528  12.381  1.2999  0.6918 -0.6739
  348MPD2    H3 5274   1.741   2.636  12.381 -1.8966 -0.8326  0.1068
  348MPD2     N 5275   1.731   2.681  11.924  0.2053 -0.3487  0.4267
  348MPD2    H5 5276   1.780   2.691  11.836  2.1508  0.8058  1.6530
  348MPD2    N1 5277   2.076   2.428  12.161 -0.1426  0.2433  0.1660
  348MPD2    H7 5278   2.099   2.418  12.063 -1.6764 -2.0232  0.0160
  349TMC3    C1 5279   2.219   2.262  12.219 -0.0577  0.1376 -0.1482
  349TMC3    C2 5280   2.183   2.137  12.255 -0.3514  0.0210  0.0131
  349TMC3    C3 5281   2.188   2.036  12.161  0.3639  0.0966  0.8249
  349TMC3    C4 5282   2.283   2.291  12.103 -1.4098 -0.0426  0.2794
  349TMC3    C5 5283   2.308   2.180  12.023 -0.3599  0.1860  0.4338
  349TMC3    C6 5284   2.264   2.052  12.044  0.1128  0.8910 -0.2117
  349TMC3     C 5285   2.131   2.361  12.266  0.7534 -0.5362  0.0122
  349TMC3     O 5286   2.102   2.349  12.386 -0.2608 -0.1801 -0.1073
  349TMC3     H 5287   2.130   2.121  12.348  0.2302  0.1665  0.3702
  349TMC3    H1 5288   2.323   2.392  12.093  0.2374 -0.6414  0.9149
  349TMC3    H2 5289   2.291   1.977  11.970  3.2065 -0.1433  1.9393
  349TMC3    C7 5290   2.360   2.217  11.883 -0.5078 -0.1557  0.0781
  349TMC3    C8 5291   2.121   1.910  12.202  0.3882  0.4015  0.5680
  349TMC3    O1 5292   2.423   2.322  11.875  0.3149  0.4606 -0.4169
  349TMC3    O2 5293   2.034   1.925  12.284  0.1719 -0.2933 -0.0476
  350MPD2     C 5294   1.240   0.891  10.162  0.5322  0.4638 -0.7247
  350MPD2    C1 5295   1.239   0.752  10.149  0.7495 -0.1377  0.2924
  350MPD2    C2 5296   1.346   0.691  10.104 -0.2165 -0.7870 -0.1056
  350MPD2    C3 5297   1.464   0.756  10.077  0.3152  0.0076  0.2232
  350MPD2    C4 5298   1.478   0.886  10.119 -0.5217  0.1782  0.0441
  350MPD2    C5 5299   1.361   0.951  10.153 -0.0967  0.0431 -1.2763
  350MPD2     H 5300   1.346   0.585  10.079  0.6845 -0.8653  0.2107
  350MPD2    H1 5301   1.568   0.944  10.108 -0.2099 -0.0323  1.5309
  350MPD2    H2 5302   1.151   0.941  10.199  1.6630  1.5390  0.5700
  350MPD2    H3 5303   1.376   1.055  10.182 -0.4853 -1.1980  3.2045
  350MPD2     N 5304   1.570   0.681  10.017 -0.4866  0.1747  0.5550
  350MPD2    H5 5305   1.536   0.587  10.000  2.4847 -1.0054  1.1588
  350MPD2    N1 5306   1.123   0.671  10.166 -0.1759 -0.2927  0.1969
  350MPD2    H7 5307   1.137   0.571  10.174  0.4480 -0.2441 -0.2812
  351TMC3    C1 5308   0.891   0.621  10.129 -0.8235 -0.3415  0.2922
  351TMC3    C2 5309   0.921   0.486  10.133  0.0751 -0.0122 -0.2329
  351TMC3    C3 5310   0.821   0.394  10.121  0.0005  0.0262 -0.5127
  351TMC3    C4 5311   0.763   0.661  10.124  0.3186  0.0171  0.3377
  351TMC3    C5 5312   0.665   0.559  10.117  0.2953 -0.4066  0.9429
  351TMC3    C6 5313   0.689   0.427  10.120 -0.1278  0.7580  0.3585
  351TMC3     C 5314   0.997   0.720  10.145 -0.2033 -0.5801  0.5199
  351TMC3     O 5315   0.955   0.833  10.123  0.0775  0.1934  0.4530
  351TMC3     H 5316   1.018   0.439  10.132 -0.3394 -0.8613 -0.3065
  351TMC3    H1 5317   0.729   0.762  10.143  0.9037  0.3776 -0.5264
  351TMC3    H2 5318   0.615   0.351  10.097  1.5206 -0.4249 -1.0782
  351TMC3    C7 5319   0.539   0.594  10.054  0.5418  0.3443 -0.3127
  351TMC3    C8 5320   0.849   0.255  10.101 -0.3073  0.1363 -0.6212
  351TMC3    O1 5321   0.450   0.510  10.071 -0.4296  0.2561 -0.8635
  351TMC3    O2 5322   0.956   0.226  10.055  0.0736 -0.4273 -0.1274
  352MPD2     C 5323   3.321   3.024   0.847  0.4379  0.0085  0.2883
  352MPD2    C1 5324   3.279   2.895   0.866  0.1453  0.2136  0.2542
  352MPD2    C2 5325   3.339   2.794   0.790 -0.1102  0.8032 -0.2633
  352MPD2    C3 5326   3.437   2.817   0.694  0.3953  0.4183 -0.7927
  352MPD2    C4 5327   3.480   2.951   0.683  0.0961  0.2583 -0.4789
  352MPD2    C5 5328   3.424   3.049   0.764  0.2817 -0.1087  0.1007
  352MPD2     H 5329   3.290   2.698   0.800  0.2017  0.7947  1.1644
  352MPD2    H1 5330   3.556   2.981   0.612  0.4705  1.4944  0.4382
  352MPD2    H2 5331   3.293   3.106   0.913 -2.5419 -0.5752 -0.2517
  352MPD2    H3 5332   3.449   3.154   0.754  1.2961 -0.3400  0.1656
  352MPD2     N 5333   3.491   2.721   0.605  0.3253  0.4965  0.3725
  352MPD2    H5 5334   3.559   2.753   0.537 -1.0471  0.5218 -0.9743
  352MPD2    N1 5335   3.176   2.870   0.963  0.2046 -0.1460  0.0500
  352MPD2    H7 5336   3.126   2.948   1.007 -0.2505 -0.9757  1.0056
  353TMC3    C1 5337   3.510   2.505   0.515  0.4475  0.1411 -0.3376
  353TMC3    C2 5338   3.641   2.468   0.538 -0.2831 -0.7149  1.0820
  353TMC3    C3 5339   3.671   2.338   0.571 -0.5625  0.2794  0.3673
  353TMC3    C4 5340   3.417   2.405   0.512 -0.7472 -0.6575  0.6753
  353TMC3    C5 5341   3.448   2.274   0.551  0.5550 -0.0945 -0.2435
  353TMC3    C6 5342   3.578   2.241   0.577 -0.2369  0.5608 -0.2796
  353TMC3     C 5343   3.468   2.586   0.622 -0.5571 -0.0625  0.2733
  353TMC3     O 5344   3.407   2.518   0.707  0.9919  0.4413 -0.4309
  353TMC3     H 5345   3.712   2.548   0.558 -2.3447  1.0426  1.4254
  353TMC3    H1 5346   3.315   2.434   0.493 -0.4641 -0.4173 -0.4847
  353TMC3    H2 5347   3.594   2.141   0.615  0.6159  0.8994  0.2526
  353TMC3    C7 5348   3.345   2.196   0.600  0.2167 -0.4361 -0.8627
  353TMC3    C8 5349   3.799   2.313   0.610 -0.4710 -0.1084  0.0225
  353TMC3    O1 5350   3.342   2.075   0.576 -0.2835 -0.4889  0.7442
  353TMC3    O2 5351   3.867   2.409   0.653  0.0091 -0.3809  0.1731
  354TMC3    C1 5352   0.743   3.461  13.636  0.1986 -0.0744 -0.0428
  354TMC3    C2 5353   0.668   3.550  13.565 -0.2490  1.0230 -0.3725
  354TMC3    C3 5354   0.733   3.618  13.473 -0.0421 -0.5749  0.1024
  354TMC3    C4 5355   0.878   3.439  13.619 -1.2764  0.6949  0.4804
  354TMC3    C5 5356   0.944   3.522  13.524 -0.5868 -0.6264  0.2140
  354TMC3    C6 5357   0.867   3.607  13.448  0.1613 -0.4315 -0.4044
  354TMC3     C 5358   0.663   3.379  13.725 -0.0084  0.2391  0.8680
  354TMC3     O 5359   0.541   3.389  13.711  0.4034 -0.0792  0.1184
  354TMC3     H 5360   0.560   3.543  13.563 -0.1332 -1.2247  0.8812
  354TMC3    H1 5361   0.945   3.384  13.686 -2.1348  0.0894  0.8490
  354TMC3    H2 5362   0.902   3.667  13.365  1.9779  0.2425  0.8471
  354TMC3    C7 5363   1.082   3.566  13.553  0.2815  0.3329 -0.3201
  354TMC3    C8 5364   0.675   3.739  13.419  0.2732 -0.1496  0.6252
  354TMC3    O1 5365   1.135   3.518  13.653 -0.1414  0.3756 -0.3120
  354TMC3    O2 5366   0.748   3.815  13.354 -0.8444  0.3281  0.1951
  355MPD2     C 5367   0.932   4.482  12.147  0.1554  0.2985 -0.4875
  355MPD2    C1 5368   0.943   4.514  12.015 -0.2286 -0.6128  0.0319
  355MPD2    C2 5369   1.062   4.478  11.952  0.3984 -0.2751  0.2600
  355MPD2    C3 5370   1.166   4.414  12.017 -0.4844 -0.3946 -0.2798
  355MPD2    C4 5371   1.147   4.377  12.151 -0.3880 -0.4156  0.5178
  355MPD2    C5 5372   1.027   4.411  12.212 -0.4212  0.4035  0.6829
  355MPD2     H 5373   1.070   4.511  11.849 -0.7627  2.4864  1.0601
  355MPD2    H1 5374   1.224   4.327  12.208  0.6979 -0.3795 -0.9337
  355MPD2    H2 5375   0.843   4.500  12.206  0.0855  0.0168 -0.5103
  355MPD2    H3 5376   1.008   4.384  12.316  0.0614 -1.1821  0.3623
  355MPD2     N 5377   1.290   4.381  11.961 -0.2412  0.3854 -0.1523
  355MPD2    H5 5378   1.355   4.328  12.017 -0.4760  0.6297  0.3528
  355MPD2    N1 5379   0.840   4.586  11.945 -0.1777 -0.2074  0.0759
  355MPD2    H7 5380   0.786   4.650  12.003  1.2121 -2.0887  3.4342
  356TMC3    C1 5381   1.463   4.424  11.813 -0.0626  0.1333 -0.1144
  356TMC3    C2 5382   1.503   4.503  11.708 -0.1074  0.1010 -0.6729
  356TMC3    C3 5383   1.626   4.558  11.709  0.0636  0.5873  0.7793
  356TMC3    C4 5384   1.545   4.417  11.929 -0.3778 -0.0110 -0.7936
  356TMC3    C5 5385   1.664   4.484  11.926  0.2951 -0.3703 -0.6733
  356TMC3    C6 5386   1.710   4.551  11.816 -0.3347  0.0999  0.0700
  356TMC3     C 5387   1.327   4.413  11.834 -0.2598  0.1738  0.2477
  356TMC3     O 5388   1.249   4.437  11.741  0.1312  0.1974 -0.3068
  356TMC3     H 5389   1.424   4.523  11.636 -0.8526  0.2381  0.1893
  356TMC3    H1 5390   1.522   4.379  12.028  3.2301  0.1228  0.1277
  356TMC3    H2 5391   1.810   4.593  11.809 -0.2886 -0.2883 -1.4889
  356TMC3    C7 5392   1.740   4.481  12.048  0.5767 -0.0295 -0.4588
  356TMC3    C8 5393   1.655   4.629  11.582  0.9459  0.1425 -0.2834
  356TMC3    O1 5394   1.737   4.373  12.111 -0.1417  0.1823  0.2940
  356TMC3    O2 5395   1.598   4.588  11.482 -0.3928  0.9865  0.0210
  357MPD2     C 5396   0.410   0.281   0.715  0.3444  0.1094  0.4173
  357MPD2    C1 5397   0.442   0.170   0.790  0.2072 -0.4329 -0.3248
  357MPD2    C2 5398   0.371   0.147   0.908 -0.0344  0.0949 -0.5032
  357MPD2    C3 5399   0.263   0.229   0.939 -0.1609  0.1680  0.1466
  357MPD2    C4 5400   0.240   0.342   0.862 -0.7141 -0.3566  0.3760
  357MPD2    C5 5401   0.307   0.371   0.747  0.1325  0.4693  0.1971
  357MPD2     H 5402   0.391   0.056   0.963  0.9399  0.9950  0.6425
  357MPD2    H1 5403   0.167   0.417   0.891 -0.6056  0.8487 -2.4331
  357MPD2    H2 5404   0.463   0.296   0.622 -2.0422  0.5614 -0.8642
  357MPD2    H3 5405   0.317   0.471   0.707  0.1161 -0.0284 -1.0306
  357MPD2     N 5406   0.186   0.210   1.058 -0.6477 -0.2319 -0.2019
  357MPD2    H5 5407   0.112   0.274   1.085 -0.8457 -0.7171  0.4109
  357MPD2    N1 5408   0.533   0.070   0.744  0.3915 -0.4965  0.2385
  357MPD2    H7 5409   0.573   0.085   0.652 -2.3203  1.1061 -0.6462
  358TMC3    C1 5410   0.670   4.616   0.735 -0.7461  0.7382  0.5733
  358TMC3    C2 5411   0.612   4.585   0.613 -0.4502 -0.0546 -0.0692
  358TMC3    C3 5412   0.633   4.456   0.563 -0.1838 -0.0249  0.2962
  358TMC3    C4 5413   0.741   4.526   0.806 -0.0596 -0.2131  0.2314
  358TMC3    C5 5414   0.779   4.403   0.749  0.1210 -0.0212  0.3901
  358TMC3    C6 5415   0.706   4.366   0.639 -0.0536 -0.1385 -0.0901
  358TMC3     C 5416   0.590   4.709   0.819 -0.1818 -0.6712 -0.3382
  358TMC3     O 5417   0.583   4.683   0.936  0.3656  0.5877  0.0585
  358TMC3     H 5418   0.543   4.649   0.560  0.6409  1.1397 -0.0338
  358TMC3    H1 5419   0.763   4.549   0.910  1.8880  0.8431 -0.4199
  358TMC3    H2 5420   0.741   4.280   0.583  0.1499  0.3635 -0.7427
  358TMC3    C7 5421   0.829   4.303   0.846 -0.0691  0.0286 -0.2051
  358TMC3    C8 5422   0.578   4.419   0.431  0.1653 -0.2017 -0.1450
  358TMC3    O1 5423   0.895   4.346   0.940  0.3678 -0.2553  0.4740
  358TMC3    O2 5424   0.540   4.510   0.363 -0.2827  0.3000 -0.4803
  359MPD2     C 5425   1.536   3.375  12.690  0.6171  0.2592 -0.2758
  359MPD2    C1 5426   1.511   3.270  12.616  0.2585 -0.2106 -0.5792
  359MPD2    C2 5427   1.393   3.199  12.645  0.0787 -0.1951  0.0343
  359MPD2    C3 5428   1.318   3.220  12.757 -0.5716  0.3661  0.0454
  359MPD2    C4 5429   1.360   3.323  12.843 -1.0562  0.3536 -0.3874
  359MPD2    C5 5430   1.468   3.400  12.805  0.7915 -0.8237 -0.0190
  359MPD2     H 5431   1.385   3.108  12.586  0.9080 -1.6979  2.2136
  359MPD2    H1 5432   1.295   3.339  12.927 -1.1244 -1.3543 -0.1021
  359MPD2    H2 5433   1.628   3.431  12.673  2.2201 -2.1131  0.5903
  359MPD2    H3 5434   1.509   3.471  12.875  0.5611  0.1508 -0.8818
  359MPD2     N 5435   1.201   3.143  12.783  0.5981 -0.0611 -0.0876
  359MPD2    H5 5436   1.162   3.104  12.697  3.3299 -1.6534 -0.6023
  359MPD2    N1 5437   1.591   3.223  12.509  0.0550 -0.3520 -0.2212
  359MPD2    H7 5438   1.542   3.164  12.442 -3.5169  3.1645 -0.7552
  360TMC3    C1 5439   1.764   3.196  12.365 -0.4873  0.2634  0.3593
  360TMC3    C2 5440   1.883   3.127  12.378 -0.3467  0.2644  0.2224
  360TMC3    C3 5441   1.902   3.018  12.293  0.8324 -0.1423 -0.2183
  360TMC3    C4 5442   1.662   3.161  12.284  0.3651 -0.7469 -0.7597
  360TMC3    C5 5443   1.687   3.056  12.196  0.3237  0.1969 -0.1501
  360TMC3    C6 5444   1.801   2.986  12.204  0.0106  0.6551 -0.5179
  360TMC3     C 5445   1.719   3.258  12.484 -0.2689  0.1930  0.4188
  360TMC3     O 5446   1.795   3.308  12.567  0.5301  0.0118  0.0392
  360TMC3     H 5447   1.937   3.135  12.471  1.2698 -0.8617 -0.6156
  360TMC3    H1 5448   1.577   3.225  12.268 -0.1527 -0.9741  1.0497
  360TMC3    H2 5449   1.818   2.897  12.144  1.3047  0.5790 -0.0529
  360TMC3    C7 5450   1.622   3.058  12.075  0.5555  0.0274  0.2646
  360TMC3    C8 5451   1.986   2.913  12.347 -0.3320 -0.2211 -0.1089
  360TMC3    O1 5452   1.685   3.052  11.971 -0.6397  0.0188  0.2153
  360TMC3    O2 5453   2.011   2.919  12.465 -0.1006 -0.1831  0.0436
  361MPD2     C 5454   2.815   2.226  16.451  0.6418 -0.7867 -0.7119
  361MPD2    C1 5455   2.760   2.290  16.561 -0.1582 -0.0349  0.5137
  361MPD2    C2 5456   2.717   2.209  16.664 -0.1465 -0.5997  0.3694
  361MPD2    C3 5457   2.715   2.069  16.655  0.5522  0.4482 -0.6816
  361MPD2    C4 5458   2.765   2.012  16.538  1.0095  0.5370  0.2779
  361MPD2    C5 5459   2.817   2.093  16.438 -0.1781 -0.1468  0.0376
  361MPD2     H 5460   2.677   2.260  16.751 -1.2821 -0.3028 -0.3285
  361MPD2    H1 5461   2.751   1.906  16.522  1.5815  0.1863  2.1562
  361MPD2    H2 5462   2.834   2.280  16.359  0.1703  0.3548 -0.1390
  361MPD2    H3 5463   2.853   2.054  16.343 -0.3172 -1.6821  0.6156
  361MPD2     N 5464   2.669   1.981  16.763  0.1073  0.2622 -0.1103
  361MPD2    H5 5465   2.683   1.881  16.761 -2.2221 -0.0719 -0.0041
  361MPD2    N1 5466   2.725   2.432  16.578  0.5442  0.2129  0.3075
  361MPD2    H7 5467   2.670   2.441  16.663 -1.7018  1.7268 -1.3025
  362TMC3    C1 5468   2.682   2.659  16.533  0.1753 -1.1450 -0.6181
  362TMC3    C2 5469   2.645   2.666  16.661  0.6291 -0.2785 -0.1178
  362TMC3    C3 5470   2.556   2.768  16.696  0.0403  0.7053 -0.1888
  362TMC3    C4 5471   2.624   2.731  16.438  0.2527 -0.0582  0.6701
  362TMC3    C5 5472   2.536   2.830  16.472 -0.3702 -0.3079  0.5510
  362TMC3    C6 5473   2.506   2.852  16.604 -0.0216 -0.1910  1.1286
  362TMC3     C 5474   2.748   2.535  16.491  0.3170  0.1361  0.3948
  362TMC3     O 5475   2.803   2.527  16.377  0.3088  0.0882  0.1910
  362TMC3     H 5476   2.679   2.604  16.743 -1.2497  0.6274  1.3466
  362TMC3    H1 5477   2.668   2.726  16.338 -0.9926  1.9849  0.0335
  362TMC3    H2 5478   2.430   2.928  16.622  2.0712  1.7975  1.4783
  362TMC3    C7 5479   2.442   2.881  16.370  0.2672  0.9238  0.5427
  362TMC3    C8 5480   2.524   2.779  16.840 -0.2634  0.2307 -0.0996
  362TMC3    O1 5481   2.388   2.986  16.404 -0.1837  0.6279 -0.0590
  362TMC3    O2 5482   2.601   2.735  16.921 -0.2489 -0.4193  0.3302
  363TMC3    C1 5483   1.659   4.433   9.525  0.8437  0.2573  0.1169
  363TMC3    C2 5484   1.655   4.367   9.645  0.1801  0.8626  0.5372
  363TMC3    C3 5485   1.581   4.419   9.748 -0.3486  0.1021  0.4925
  363TMC3    C4 5486   1.611   4.562   9.511  0.6812  0.0299 -0.2706
  363TMC3    C5 5487   1.553   4.618   9.617  0.9714  0.4270  0.2171
  363TMC3    C6 5488   1.526   4.544   9.732  0.6644  0.3951 -0.2140
  363TMC3     C 5489   1.729   4.374   9.407  0.1958  0.1738  0.4494
  363TMC3     O 5490   1.766   4.446   9.320 -0.2964 -0.1604 -0.1527
  363TMC3     H 5491   1.702   4.270   9.650 -0.3632  0.5542 -0.2945
  363TMC3    H1 5492   1.630   4.611   9.417  0.5820  0.7570  0.0889
  363TMC3    H2 5493   1.469   4.596   9.808  2.6400  1.3567  0.6051
  363TMC3    C7 5494   1.529   0.020   9.608  0.1923  0.2723 -0.7634
  363TMC3    C8 5495   1.560   4.362   9.886  0.2412  0.3999  0.4866
  363TMC3    O1 5496   1.424   0.051   9.667 -0.7910 -0.3158  0.8116
  363TMC3    O2 5497   1.523   4.433   9.980  0.5133 -0.4915  0.0572
  364MPD2     C 5498   0.464   3.779  10.146  1.1541 -0.1893 -0.4066
  364MPD2    C1 5499   0.421   3.833  10.264 -0.4956  0.0865  0.1134
  364MPD2    C2 5500   0.417   3.743  10.371  0.6376 -0.0506 -0.1106
  364MPD2    C3 5501   0.473   3.616  10.358  0.2753  0.3058 -0.4475
  364MPD2    C4 5502   0.513   3.572  10.234 -0.5831 -0.5458  0.6385
  364MPD2    C5 5503   0.507   3.649  10.122  0.1115 -0.0794  0.6807
  364MPD2     H 5504   0.383   3.785  10.465 -3.9673 -3.4508 -0.2714
  364MPD2    H1 5505   0.551   3.473  10.211 -0.5559 -0.0641 -1.4359
  364MPD2    H2 5506   0.459   3.839  10.055  0.8507 -1.8352 -1.4681
  364MPD2    H3 5507   0.543   3.619  10.024  0.6468  0.0076  0.8487
  364MPD2     N 5508   0.490   3.532  10.466  0.0748 -0.6790  0.4046
  364MPD2    H5 5509   0.532   3.443  10.444 -1.8990 -1.6094  0.4067
  364MPD2    N1 5510   0.385   3.973  10.260 -0.1009 -0.0066  0.1187
  364MPD2    H7 5511   0.376   4.019  10.171 -2.1154  2.1469  1.4376
  365TMC3    C1 5512   0.390   4.196  10.330 -0.6505 -0.8791 -0.1038
  365TMC3    C2 5513   0.426   4.228  10.196 -0.4936  0.0028  0.0048
  365TMC3    C3 5514   0.457   4.357  10.174  1.0574 -0.0034 -0.0111
  365TMC3    C4 5515   0.379   4.289  10.433 -0.1014  0.7704 -0.4108
  365TMC3    C5 5516   0.416   4.414  10.403  0.1747 -0.2414 -0.5516
  365TMC3    C6 5517   0.445   4.453  10.278  0.0577 -0.0827  0.5954
  365TMC3     C 5518   0.382   4.056  10.369  0.0880 -0.4045 -0.1119
  365TMC3     O 5519   0.388   4.031  10.489 -0.1062 -0.8150  0.3205
  365TMC3     H 5520   0.399   4.163  10.114 -0.5203 -1.7038  1.3667
  365TMC3    H1 5521   0.339   4.256  10.528 -0.0739  0.1970 -0.5996
  365TMC3    H2 5522   0.469   4.557  10.258 -1.4410  0.2563  0.5335
  365TMC3    C7 5523   0.406   4.514  10.507 -0.3419 -0.1655 -0.1452
  365TMC3    C8 5524   0.503   4.399  10.048  0.5957  0.2603 -0.5217
  365TMC3    O1 5525   0.389   4.624  10.459  0.2521  0.1914 -0.1170
  365TMC3    O2 5526   0.494   4.521  10.024 -0.2485  0.0190 -0.0863
  366MPD2     C 5527   2.599   0.476  15.250 -0.0398  0.6096  0.2521
  366MPD2    C1 5528   2.708   0.492  15.172 -0.5185  0.8475  0.6163
  366MPD2    C2 5529   2.812   0.403  15.197 -0.5570  0.0975 -0.6541
  366MPD2    C3 5530   2.823   0.318  15.305  0.8489  0.8724  0.2644
  366MPD2    C4 5531   2.711   0.302  15.388  0.4465  0.4018 -0.2666
  366MPD2    C5 5532   2.605   0.377  15.350 -0.1214 -1.0850 -0.0905
  366MPD2     H 5533   2.901   0.421  15.138  0.1425  1.7256  0.8834
  366MPD2    H1 5534   2.704   0.222  15.460  0.7775  0.3962 -0.2409
  366MPD2    H2 5535   2.509   0.534  15.235 -0.8380 -0.6042  0.3737
  366MPD2    H3 5536   2.510   0.363  15.401 -1.2679  1.0613 -1.5874
  366MPD2     N 5537   2.946   0.271  15.336  0.6366 -0.7946 -0.4336
  366MPD2    H5 5538   3.027   0.295  15.279  0.4216 -0.8681 -0.7704
  366MPD2    N1 5539   2.724   0.602  15.077  0.0941  0.1386  0.4822
  366MPD2    H7 5540   2.819   0.624  15.050  0.0310 -0.9086 -0.5656
  367TMC3    C1 5541   2.684   0.830  15.023 -0.4571 -0.3066 -0.4807
  367TMC3    C2 5542   2.795   0.874  15.092 -0.5007  0.2610 -0.0079
  367TMC3    C3 5543   2.829   1.001  15.088  0.3204  0.2189 -0.3902
  367TMC3    C4 5544   2.603   0.919  14.972  0.0009  0.5922 -0.0792
  367TMC3    C5 5545   2.645   1.051  14.973 -0.4595 -0.6261  0.2694
  367TMC3    C6 5546   2.758   1.101  15.024 -0.1268 -0.3598  0.1547
  367TMC3     C 5547   2.630   0.701  15.066  0.1087  0.5217 -0.0145
  367TMC3     O 5548   2.509   0.688  15.073 -0.2759 -0.0991  0.0719
  367TMC3     H 5549   2.858   0.803  15.144  0.3987  0.2074 -1.1816
  367TMC3    H1 5550   2.508   0.885  14.933  0.0694 -0.6491  0.8409
  367TMC3    H2 5551   2.774   1.208  15.028  1.1806 -0.5747  0.7535
  367TMC3    C7 5552   2.554   1.148  14.919  0.4176  0.4273 -0.1275
  367TMC3    C8 5553   2.927   1.036  15.190  0.3471 -0.1196  0.3901
  367TMC3    O1 5554   2.556   1.256  14.975  0.3839  0.7095  0.3476
  367TMC3    O2 5555   2.999   0.947  15.235  0.1889 -0.1242  0.1975
  368MPD2     C 5556   4.283   2.191  13.274 -0.0713  0.0221  0.7280
  368MPD2    C1 5557   4.268   2.326  13.245  0.2893  0.6841 -0.1544
  368MPD2    C2 5558   4.383   2.411  13.234 -0.2778 -0.1910  0.4509
  368MPD2    C3 5559   4.509   2.355  13.253 -0.3776 -0.1620  0.2491
  368MPD2    C4 5560   4.516   2.220  13.274 -0.3340 -0.7538  0.0213
  368MPD2    C5 5561   4.410   2.138  13.284 -0.1570 -0.5347 -0.4347
  368MPD2     H 5562   4.376   2.519  13.223 -0.6216 -0.2111  0.4651
  368MPD2    H1 5563   4.615   2.178  13.285  0.0728  0.5774  1.4885
  368MPD2    H2 5564   4.202   2.122  13.291 -1.6852  1.6860 -0.2398
  368MPD2    H3 5565   4.436   2.039  13.318  0.4294 -0.7990 -1.6737
  368MPD2     N 5566   4.624   2.435  13.259 -0.0934  0.3073 -0.2558
  368MPD2    H5 5567   4.713   2.387  13.249 -0.3829 -0.1195 -0.7914
  368MPD2    N1 5568   4.133   2.371  13.224 -0.0370 -0.1234  0.0933
  368MPD2    H7 5569   4.062   2.302  13.244  1.2353 -1.2491  0.7347
  369TMC3    C1 5570   3.945   2.490  13.149  0.4885  0.5339  0.4061
  369TMC3    C2 5571   3.913   2.562  13.039 -0.3742  0.2625  0.1644
  369TMC3    C3 5572   3.801   2.639  13.038  0.1592 -0.7167  0.2636
  369TMC3    C4 5573   3.862   2.488  13.260  0.0783 -0.2211  0.2871
  369TMC3    C5 5574   3.746   2.557  13.259  0.1484 -0.4287 -0.9787
  369TMC3    C6 5575   3.720   2.644  13.149  0.3958  0.1609  1.4540
  369TMC3     C 5576   4.089   2.493  13.174  0.3933 -1.0855  0.1108
  369TMC3     O 5577   4.156   2.583  13.119 -0.1420 -0.3939 -0.3092
  369TMC3     H 5578   3.969   2.554  12.946  0.4496 -2.8957  0.9310
  369TMC3    H1 5579   3.895   2.437  13.350  3.8943  1.5424 -0.1148
  369TMC3    H2 5580   3.632   2.706  13.157  0.2070 -0.3361  3.2394
  369TMC3    C7 5581   3.670   2.577  13.384  0.1095 -0.2749 -0.0392
  369TMC3    C8 5582   3.788   2.722  12.923 -0.4746  0.2943 -0.0543
  369TMC3    O1 5583   3.689   2.494  13.471 -0.2644 -0.4094 -0.4370
  369TMC3    O2 5584   3.818   2.666  12.819  0.3832 -0.3156  0.4077
  370TMC3    C1 5585   3.391   3.315  16.327  0.3278 -0.4314  0.2688
  370TMC3    C2 5586   3.345   3.242  16.432 -0.3462 -0.5300  0.1398
  370TMC3    C3 5587   3.279   3.121  16.402 -0.0205 -0.3646  0.2461
  370TMC3    C4 5588   3.381   3.272  16.197  0.0365  0.3161  0.6027
  370TMC3    C5 5589   3.320   3.148  16.177 -0.9448 -0.3308 -0.5673
  370TMC3    C6 5590   3.279   3.065  16.278  1.2420 -0.4697 -0.0350
  370TMC3     C 5591   3.518   3.389  16.354  0.5459 -0.0688 -0.6868
  370TMC3     O 5592   3.585   3.343  16.447 -0.2610 -0.0908 -0.5430
  370TMC3     H 5593   3.351   3.280  16.533  3.7971  0.3427 -0.4387
  370TMC3    H1 5594   3.418   3.332  16.115 -0.7973  1.6287  1.1856
  370TMC3    H2 5595   3.229   2.970  16.261  0.6990 -0.3102  0.6975
  370TMC3    C7 5596   3.354   3.095  16.046  0.4573 -0.1082  0.1589
  370TMC3    C8 5597   3.246   3.030  16.513 -1.0337  0.7290 -0.7508
  370TMC3    O1 5598   3.342   3.171  15.949 -0.1083  0.4204  0.1689
  370TMC3    O2 5599   3.250   2.910  16.487  0.1090  0.4699 -0.3595
  371TMC3    C1 5600   4.682   1.568  15.482 -0.1882 -0.9317  0.5160
  371TMC3    C2 5601   4.595   1.539  15.584 -0.1927 -0.3767  0.5925
  371TMC3    C3 5602   4.521   1.649  15.628  0.7774 -0.1394  0.2322
  371TMC3    C4 5603   4.695   1.696  15.434  0.0916 -0.0233 -0.2001
  371TMC3    C5 5604   4.614   1.800  15.483 -0.0873  0.1279 -0.3555
  371TMC3    C6 5605   4.532   1.781  15.590  0.8511  0.0012 -0.4364
  371TMC3     C 5606   0.031   1.469  15.434  0.3617 -0.1805  0.2248
  371TMC3     O 5607   0.098   1.501  15.333 -0.2318  0.5954 -0.3607
  371TMC3     H 5608   4.588   1.440  15.628 -1.3905  0.5695  2.5047
  371TMC3    H1 5609   0.016   1.712  15.348  1.1411 -1.4237  0.3135
  371TMC3    H2 5610   4.495   1.869  15.640  3.1453  0.0556  1.1676
  371TMC3    C7 5611   4.625   1.933  15.427  0.3205 -0.0176  0.2317
  371TMC3    C8 5612   4.435   1.627  15.744  0.1905 -0.1121  0.0699
  371TMC3    O1 5613   4.587   2.028  15.493  0.2519  0.2424 -0.3296
  371TMC3    O2 5614   4.456   1.520  15.804 -0.4824 -1.0323 -0.1365
  372MPD2     C 5615   4.116   2.782  13.471 -0.1095  0.2196  1.0149
  372MPD2    C1 5616   4.237   2.714  13.466 -0.7655 -0.7731  0.1921
  372MPD2    C2 5617   4.235   2.582  13.510 -0.2119 -0.4624 -0.0671
  372MPD2    C3 5618   4.122   2.520  13.546 -0.2347 -0.5200 -0.1986
  372MPD2    C4 5619   4.001   2.589  13.548  0.4829  0.0199  0.2318
  372MPD2    C5 5620   4.002   2.720  13.499  0.4561 -0.0133 -0.2904
  372MPD2     H 5621   4.330   2.532  13.522  1.5352  2.4710 -1.5050
  372MPD2    H1 5622   3.905   2.541  13.559  0.0449  0.7910 -0.2309
  372MPD2    H2 5623   4.112   2.888  13.447  1.6440 -0.4399 -2.2845
  372MPD2    H3 5624   3.909   2.776  13.497 -0.3426 -1.3107  0.1017
  372MPD2     N 5625   4.128   2.390  13.599 -0.4080 -0.0665 -0.0250
  372MPD2    H5 5626   4.219   2.350  13.620  0.4210  1.4600 -0.7073
  372MPD2    N1 5627   4.358   2.777  13.427 -0.2963 -0.1415  0.1580
  372MPD2    H7 5628   4.445   2.726  13.421  1.3238  2.2927  3.0927
  373TMC3    C1 5629   4.065   2.172  13.668 -0.3325 -0.6211 -0.4361
  373TMC3    C2 5630   3.991   2.097  13.757  0.5064  0.4712 -0.4923
  373TMC3    C3 5631   4.038   1.968  13.774  0.3468  0.5308 -0.0864
  373TMC3    C4 5632   4.179   2.131  13.597 -0.1957  0.0729  0.4013
  373TMC3    C5 5633   4.207   1.995  13.613  0.7439 -0.0433  0.1078
  373TMC3    C6 5634   4.142   1.914  13.700  0.1391  0.2604 -0.0911
  373TMC3     C 5635   4.019   2.309  13.639 -0.0638  0.4450 -0.2319
  373TMC3     O 5636   3.900   2.336  13.651  0.0893  0.0225 -0.3345
  373TMC3     H 5637   3.902   2.134  13.805 -0.6635 -2.0112 -0.7441
  373TMC3    H1 5638   4.225   2.196  13.524  0.2005 -1.3989 -0.6499
  373TMC3    H2 5639   4.178   1.812  13.712 -0.4982  0.3125  2.2888
  373TMC3    C7 5640   4.352   1.961  13.609  0.1485  0.5352 -0.1795
  373TMC3    C8 5641   3.971   1.874  13.855  0.2647  0.7746  0.2642
  373TMC3    O1 5642   4.382   1.847  13.634 -0.0238  0.2241 -0.2783
  373TMC3    O2 5643   3.944   1.763  13.812 -0.1990 -0.5017  0.0202
  374TMC3    C1 5644   0.364   2.570  10.190 -0.2108  0.1495 -0.6873
  374TMC3    C2 5645   0.490   2.620  10.211  0.4504 -0.5904 -0.7853
  374TMC3    C3 5646   0.518   2.748  10.171 -0.1362 -0.0291  0.2097
  374TMC3    C4 5647   0.273   2.643  10.124  0.8836 -0.0469  0.0116
  374TMC3    C5 5648   0.313   2.759  10.069 -0.1739 -0.3838 -0.4608
  374TMC3    C6 5649   0.426   2.821  10.094  0.4628  0.4978 -0.4353
  374TMC3     C 5650   0.306   2.477  10.282  0.1629 -0.5208  0.0581
  374TMC3     O 5651   0.191   2.505  10.317  0.0751 -0.1246  0.1028
  374TMC3     H 5652   0.565   2.566  10.268  0.2082  0.3173  0.3939
  374TMC3    H1 5653   0.178   2.595  10.103  1.7347 -1.0133 -1.7132
  374TMC3    H2 5654   0.445   2.921  10.059 -0.8614  1.8752  2.7203
  374TMC3    C7 5655   0.213   2.831   9.991  0.0631  0.0118 -0.1132
  374TMC3    C8 5656   0.657   2.787  10.139 -0.4488 -0.0038  0.0882
  374TMC3    O1 5657   0.240   2.949   9.958 -0.0978 -0.0976  0.0758
  374TMC3    O2 5658   0.677   2.863  10.047 -0.2406 -0.1415  0.0326
  375MPD2     C 5659   0.082   3.387  17.211 -0.6320  0.8674  0.6714
  375MPD2    C1 5660   0.001   3.392  17.101 -0.4965  0.0405  0.4002
  375MPD2    C2 5661   0.047   3.330  16.981 -0.0975 -0.5032  0.1018
  375MPD2    C3 5662   0.170   3.265  16.980 -0.1316  0.4842 -0.1317
  375MPD2    C4 5663   0.244   3.265  17.094 -0.1160  0.1920  1.0097
  375MPD2    C5 5664   0.204   3.329  17.209 -0.5881 -0.4208 -0.2178
  375MPD2     H 5665   4.733   3.339  16.889 -0.4246 -0.8786  0.2678
  375MPD2    H1 5666   0.334   3.204  17.101  0.1332  0.7762  2.9920
  375MPD2    H2 5667   0.047   3.431  17.303 -2.0108 -0.1030  0.6224
  375MPD2    H3 5668   0.260   3.320  17.301 -2.2188 -3.1509  0.5401
  375MPD2     N 5669   0.237   3.208  16.864 -0.1617 -0.2023 -0.3632
  375MPD2    H5 5670   0.325   3.158  16.873 -0.9684 -1.6612 -0.6074
  375MPD2    N1 5671   4.617   3.448  17.098 -0.9625 -0.2811  0.0291
  375MPD2    H7 5672   4.577   3.458  17.005  0.5766 -0.3454 -0.6255
  376TMC3    C1 5673   0.280   3.166  16.635  0.3168  0.5016 -0.4019
  376TMC3    C2 5674   0.416   3.155  16.660 -0.3501 -0.5175 -0.2259
  376TMC3    C3 5675   0.496   3.141  16.547  0.2019 -0.0250  0.2593
  376TMC3    C4 5676   0.228   3.166  16.505 -0.1268 -0.0671  0.3725
  376TMC3    C5 5677   0.314   3.149  16.402 -0.7233 -0.5748  0.4164
  376TMC3    C6 5678   0.452   3.145  16.418 -0.3859 -0.3108 -0.0094
  376TMC3     C 5679   0.191   3.208  16.742 -0.3782  0.0300  0.6975
  376TMC3     O 5680   0.099   3.278  16.702  0.3423 -0.2128 -0.4602
  376TMC3     H 5681   0.466   3.166  16.755  0.5426  3.0913 -1.1186
  376TMC3    H1 5682   0.124   3.190  16.490  0.6357  2.4775 -0.7664
  376TMC3    H2 5683   0.519   3.134  16.334 -1.7606 -3.2704 -0.7023
  376TMC3    C7 5684   0.259   3.177  16.266  0.1656 -0.2360  0.3086
  376TMC3    C8 5685   0.640   3.117  16.572  0.5128  0.2303  0.7520
  376TMC3    O1 5686   0.168   3.261  16.268 -0.1112  0.1820  0.8536
  376TMC3    O2 5687   0.659   3.067  16.683 -0.1164 -0.6370 -0.1211
  377MPD2     C 5688   3.462   2.871  12.779  0.8243  0.6415 -0.2576
  377MPD2    C1 5689   3.353   2.867  12.696  0.6550  0.3482  0.2613
  377MPD2    C2 5690   3.230   2.818  12.734 -0.4683 -0.7180  0.2346
  377MPD2    C3 5691   3.211   2.790  12.870  0.1283 -0.1376  0.4276
  377MPD2    C4 5692   3.317   2.801  12.953  0.9905 -1.2217  0.9322
  377MPD2    C5 5693   3.441   2.842  12.914  0.2328  0.0150 -0.3907
  377MPD2     H 5694   3.142   2.817  12.671 -1.4551 -0.8748  1.6058
  377MPD2    H1 5695   3.300   2.792  13.059 -0.0559  0.3985  0.9046
  377MPD2    H2 5696   3.561   2.908  12.752  0.5982  2.4764  1.4240
  377MPD2    H3 5697   3.523   2.854  12.983 -0.8760  1.6991  0.6378
  377MPD2     N 5698   3.083   2.756  12.934 -0.4724 -1.0867 -0.0057
  377MPD2    H5 5699   3.084   2.748  13.035  0.9859  1.5587  0.1843
  377MPD2    N1 5700   3.384   2.890  12.563  0.1353 -0.4883 -0.6555
  377MPD2    H7 5701   3.479   2.916  12.539  0.6542 -1.4254  0.4205
  378TMC3    C1 5702   3.493   3.022  12.172 -0.4092 -0.6281  0.3268
  378TMC3    C2 5703   3.391   3.013  12.262  0.1700  0.2738 -0.6989
  378TMC3    C3 5704   3.393   2.896  12.338 -0.5690  0.6798 -0.0746
  378TMC3    C4 5705   3.583   2.912  12.154 -0.4164  0.0924  0.1644
  378TMC3    C5 5706   3.580   2.802  12.236  0.3365  0.4631  0.4348
  378TMC3    C6 5707   3.484   2.791  12.330  0.4420 -0.0770 -0.5204
  378TMC3     C 5708   3.485   3.131  12.071  0.4177 -0.4556  0.5448
  378TMC3     O 5709   3.382   3.193  12.072 -0.6285  0.0601 -0.2560
  378TMC3     H 5710   3.317   3.093  12.257  3.3906  3.3084  0.5098
  378TMC3    H1 5711   3.651   2.925  12.071  0.5440  1.1831  1.1227
  378TMC3    H2 5712   3.466   2.700  12.386 -1.6882  1.2415  0.9676
  378TMC3    C7 5713   3.698   2.734  12.259  0.0103 -0.7789  0.3615
  378TMC3    C8 5714   3.302   2.889  12.454 -0.4581 -0.3893 -0.6080
  378TMC3    O1 5715   3.710   2.691  12.372 -0.3026  0.3134  0.3416
  378TMC3    O2 5716   3.191   2.937  12.443 -0.2646  0.0143 -0.1708
  379MPD2     C 5717   3.736   1.408  16.123  0.3293  0.1888  0.3264
  379MPD2    C1 5718   3.723   1.271  16.152  0.0435 -0.3986 -0.1940
  379MPD2    C2 5719   3.771   1.218  16.275  0.0608 -0.0160  0.4647
  379MPD2    C3 5720   3.843   1.293  16.361  0.7362 -0.5094 -0.4294
  379MPD2    C4 5721   3.878   1.422  16.325 -0.6413  0.0089 -0.2009
  379MPD2    C5 5722   3.810   1.480  16.219 -0.1938  0.1737 -0.2261
  379MPD2     H 5723   3.741   1.117  16.302  1.4201 -0.9429 -1.4537
  379MPD2    H1 5724   3.935   1.473  16.402  1.0081 -1.1825 -0.6459
  379MPD2    H2 5725   3.692   1.455  16.036 -2.1725  0.3604  1.6965
  379MPD2    H3 5726   3.830   1.585  16.200 -1.6386  0.0587 -2.2523
  379MPD2     N 5727   3.905   1.234  16.475 -0.1467  0.3233  0.1207
  379MPD2    H5 5728   3.970   1.300  16.516 -0.8632  0.9153  0.3032
  379MPD2    N1 5729   3.654   1.198  16.043 -0.1505  0.6850  0.0955
  379MPD2    H7 5730   3.614   1.249  15.964  0.6353  3.5627  1.5334
  380TMC3    C1 5731   3.594   1.035  15.897 -0.4512  0.3520  0.2515
  380TMC3    C2 5732   3.667   0.963  15.807  0.9363  0.1221  0.3842
  380TMC3    C3 5733   3.609   0.930  15.690  0.1913  0.0675  0.0916
  380TMC3    C4 5734   3.464   1.072  15.873  0.4155  0.6855 -0.5486
  380TMC3    C5 5735   3.412   1.036  15.751  0.1898  0.0182  0.6576
  380TMC3    C6 5736   3.485   0.967  15.658 -0.2916 -0.6753  0.0992
  380TMC3     C 5737   3.658   1.061  16.026  0.1959 -0.3430  0.4169
  380TMC3     O 5738   3.723   0.975  16.088  0.3620  0.3979 -0.2298
  380TMC3     H 5739   3.767   0.938  15.841  1.1821 -1.2873 -1.3535
  380TMC3    H1 5740   3.411   1.126  15.950 -1.1059 -0.9761 -0.4504
  380TMC3    H2 5741   3.441   0.948  15.560  1.6205  0.8149 -1.0451
  380TMC3    C7 5742   3.313   1.132  15.709  0.5108  0.7785 -0.5604
  380TMC3    C8 5743   3.709   0.899  15.592 -0.2870 -0.9198  0.0821
  380TMC3    O1 5744   3.306   1.233  15.779  0.7363  0.1946  0.0864
  380TMC3    O2 5745   3.819   0.870  15.638  0.3711 -0.0340  0.6325
  381TMC3    C1 5746   3.188   2.366  16.239 -0.4542 -0.1515  0.0135
  381TMC3    C2 5747   3.273   2.471  16.218  0.5516  0.0928  0.6705
  381TMC3    C3 5748   3.304   2.540  16.335 -1.0244  0.6962 -0.3846
  381TMC3    C4 5749   3.131   2.342  16.360  0.2637  0.2047 -0.2184
  381TMC3    C5 5750   3.154   2.433  16.461  0.7179  0.4061  0.1553
  381TMC3    C6 5751   3.243   2.531  16.452 -0.6975  0.3002 -0.3846
  381TMC3     C 5752   3.217   2.249  16.151 -0.4763  0.0455  0.0826
  381TMC3     O 5753   3.247   2.278  16.034  0.3888  0.1711  0.1938
  381TMC3     H 5754   3.336   2.477  16.130 -1.1440  0.3271 -0.5117
  381TMC3    H1 5755   3.051   2.272  16.381  1.4673 -1.4915 -1.2126
  381TMC3    H2 5756   3.270   2.586  16.541 -2.9872  2.1700 -0.8669
  381TMC3    C7 5757   3.104   2.394  16.583 -0.0154 -0.4172 -0.3000
  381TMC3    C8 5758   3.441   2.586  16.338  0.0856 -0.3113  0.3014
  381TMC3    O1 5759   3.129   2.278  16.614  0.7433  0.0071  0.0839
  381TMC3    O2 5760   3.516   2.541  16.254 -0.4450  0.0057  0.5712
  382MPD2     C 5761   2.976   4.576  17.103  0.1339  0.0031  0.0952
  382MPD2    C1 5762   2.871   4.599  17.181 -0.2619 -0.1863 -0.7410
  382MPD2    C2 5763   2.807   4.493  17.241  0.0682 -0.1042  0.9964
  382MPD2    C3 5764   2.863   4.367  17.239 -0.4778  0.1271  1.3219
  382MPD2    C4 5765   2.983   4.349  17.181 -0.7345  0.5307 -0.1565
  382MPD2    C5 5766   3.039   4.452  17.110  0.1340  0.3267  0.0132
  382MPD2     H 5767   2.713   4.511  17.292 -0.4058  0.3723 -0.0568
  382MPD2    H1 5768   3.034   4.254  17.171 -2.7250 -0.7878  2.3619
  382MPD2    H2 5769   3.024   4.660  17.055  3.3962 -0.5400  2.4154
  382MPD2    H3 5770   3.138   4.444  17.067  0.2177  1.4211 -0.0181
  382MPD2     N 5771   2.787   4.262  17.296  0.2241 -0.4060  0.1869
  382MPD2    H5 5772   2.695   4.288  17.331 -1.2185 -4.0245 -0.8641
  382MPD2    N1 5773   2.815   4.722  17.196 -0.1486 -0.8024 -0.1898
  382MPD2    H7 5774   2.727   4.720  17.246 -0.4110 -2.3054 -0.6896
  383TMC3    C1 5775   2.746   4.055  17.398 -0.0482 -0.6129 -0.0115
  383TMC3    C2 5776   2.620   4.051  17.340  0.4163  0.1412  0.6759
  383TMC3    C3 5777   2.546   3.955  17.400 -0.0672 -0.6077  0.0358
  383TMC3    C4 5778   2.798   3.994  17.507 -0.1513 -0.9717  0.1767
  383TMC3    C5 5779   2.714   3.903  17.561  0.2303 -0.7162  0.4439
  383TMC3    C6 5780   2.586   3.883  17.510 -0.5575 -0.3176 -0.0374
  383TMC3     C 5781   2.839   4.133  17.324 -0.3289  0.4317 -0.3922
  383TMC3     O 5782   2.950   4.086  17.309  0.3157  0.0732 -0.3310
  383TMC3     H 5783   2.594   4.094  17.244 -1.0097 -0.0216  0.9777
  383TMC3    H1 5784   2.898   4.015  17.543 -0.7825 -1.9942  2.5003
  383TMC3    H2 5785   2.511   3.826  17.564 -1.8117  0.4308 -0.9961
  383TMC3    C7 5786   2.716   3.891  17.703  0.8176  0.0654  0.1386
  383TMC3    C8 5787   2.412   3.934  17.340 -0.2914  0.5754 -0.3242
  383TMC3    O1 5788   2.673   3.789  17.759  0.0549  0.3926 -0.5326
  383TMC3    O2 5789   2.364   4.014  17.262 -0.5519  0.4712 -0.4438
  384MPD2     C 5790   0.125   1.013  12.149  0.0847  0.2989  0.5966
  384MPD2    C1 5791   0.089   0.929  12.244 -0.3456  0.6351  0.0415
  384MPD2    C2 5792   0.118   0.794  12.231 -0.7322 -0.0738  0.1436
  384MPD2    C3 5793   0.154   0.746  12.102  0.7037 -0.0954 -0.5128
  384MPD2    C4 5794   0.167   0.832  12.001 -0.5947  0.1169 -0.6025
  384MPD2    C5 5795   0.162   0.974  12.025 -0.4077  0.3433 -0.4434
  384MPD2     H 5796   0.109   0.724  12.313 -0.1049 -1.7689 -1.2292
  384MPD2    H1 5797   0.187   0.797  11.901 -0.0719 -1.4720  0.0670
  384MPD2    H2 5798   0.108   1.118  12.169 -4.2285 -0.1706 -0.6262
  384MPD2    H3 5799   0.183   1.053  11.954  0.4364 -0.2902 -0.8966
  384MPD2     N 5800   0.145   0.607  12.087 -0.6711 -0.0340  0.1831
  384MPD2    H5 5801   0.117   0.554  12.169 -2.9680  0.5085 -0.2576
  384MPD2    N1 5802   0.026   0.966  12.368  0.0527  0.1913  0.0171
  384MPD2    H7 5803   0.024   0.894  12.439 -1.3299  0.6669  0.4620
  385TMC3    C1 5804   0.122   0.399  11.996  0.1602 -0.9841 -0.5279
  385TMC3    C2 5805   0.219   0.301  12.019 -0.1684  0.5954  0.2165
  385TMC3    C3 5806   0.202   0.221  12.127 -0.0925  0.0312  0.2530
  385TMC3    C4 5807   0.009   0.400  12.072  0.0355 -0.4406  0.6403
  385TMC3    C5 5808   0.005   0.330  12.189 -0.2937 -0.7549  0.3423
  385TMC3    C6 5809   0.095   0.239  12.219  0.0397  0.2223  0.0803
  385TMC3     C 5810   0.174   0.532  11.976  0.7759 -0.4157  0.3722
  385TMC3     O 5811   0.221   0.566  11.869 -0.1593 -0.0482 -0.8708
  385TMC3     H 5812   0.308   0.297  11.958 -1.0301 -2.0430 -0.8799
  385TMC3    H1 5813   4.678   0.476  12.049 -0.6530 -1.8171 -1.7547
  385TMC3    H2 5814   0.102   0.194  12.317 -3.4822  2.5187  1.3861
  385TMC3    C7 5815   4.689   0.405  12.297  0.2705 -0.5514 -0.3186
  385TMC3    C8 5816   0.287   0.105  12.152 -0.4853 -0.1101  0.0853
  385TMC3    O1 5817   4.669   0.525  12.279  0.2843 -0.1746 -0.2917
  385TMC3    O2 5818   0.322   0.083  12.270  0.4221 -0.7474  0.4831
  386TMC3    C1 5819   0.238   2.161  11.932  0.2678  0.4494  0.4102
  386TMC3    C2 5820   0.254   2.173  11.799 -0.7303 -0.4280 -0.1054
  386TMC3    C3 5821   0.192   2.276  11.727 -0.1504  0.3995 -0.6356
  386TMC3    C4 5822   0.159   2.245  12.004  0.1951  0.0953  1.2272
  386TMC3    C5 5823   0.096   2.345  11.935 -0.2960 -0.1754 -0.8807
  386TMC3    C6 5824   0.101   2.354  11.795  0.1565  0.3112  0.4493
  386TMC3     C 5825   0.268   2.035  11.995  0.0910  0.0462 -0.4658
  386TMC3     O 5826   0.183   1.991  12.075 -0.2474  0.8186 -0.6912
  386TMC3     H 5827   0.320   2.110  11.740 -1.2913 -0.9606 -0.1632
  386TMC3    H1 5828   0.130   2.217  12.105 -0.7881 -0.5475  0.7694
  386TMC3    H2 5829   0.041   2.426  11.741 -0.3280  0.6516  1.4442
  386TMC3    C7 5830   0.019   2.446  12.002  0.4119  0.3445  0.0265
  386TMC3    C8 5831   0.227   2.302  11.592  0.0356  0.1439  1.0983
  386TMC3    O1 5832   4.666   2.491  11.946  0.2422 -0.0281 -0.3517
  386TMC3    O2 5833   0.134   2.335  11.518  0.1950  0.3255 -0.1196
  387MPD2     C 5834   2.317   3.032  10.064 -0.2514 -0.6988  0.1814
  387MPD2    C1 5835   2.413   3.012  10.164 -1.0559 -0.6907 -0.1298
  387MPD2    C2 5836   2.456   2.883  10.194  0.4207 -0.2027  0.3135
  387MPD2    C3 5837   2.413   2.781  10.124  0.5048  0.3151 -0.3327
  387MPD2    C4 5838   2.325   2.792  10.022  0.2093 -0.5702 -0.1253
  387MPD2    C5 5839   2.276   2.919   9.999  0.0146 -0.5822 -0.2056
  387MPD2     H 5840   2.534   2.878  10.269  0.6233  1.7343  0.2518
  387MPD2    H1 5841   2.287   2.713   9.958  0.5700 -1.1076  0.3223
  387MPD2    H2 5842   2.280   3.128  10.031 -1.6284 -0.8473  1.3091
  387MPD2    H3 5843   2.204   2.921   9.917 -0.5885  1.9709  0.3907
  387MPD2     N 5844   2.498   2.667  10.151 -0.3245 -0.0650 -0.1579
  387MPD2    H5 5845   2.569   2.677  10.222  0.2806  0.2929 -0.8143
  387MPD2    N1 5846   2.472   3.124  10.228  0.4225  0.4542 -0.1485
  387MPD2    H7 5847   2.539   3.105  10.302  0.6538 -0.5190 -0.6115
  388TMC3    C1 5848   2.567   3.333  10.248 -0.2793  0.0011  0.6650
  388TMC3    C2 5849   2.574   3.463  10.199 -0.2661 -0.3255  0.1503
  388TMC3    C3 5850   2.698   3.525  10.220 -0.3962  0.0786 -0.4721
  388TMC3    C4 5851   2.676   3.271  10.303  0.2136 -0.4208 -0.7978
  388TMC3    C5 5852   2.789   3.342  10.324  0.2245 -0.2712 -0.0005
  388TMC3    C6 5853   2.803   3.475  10.295 -0.4884  0.6018  0.3408
  388TMC3     C 5854   2.462   3.253  10.188 -0.4069  0.1185 -0.4966
  388TMC3     O 5855   2.397   3.306  10.096  0.0210  0.2233  0.2555
  388TMC3     H 5856   2.485   3.507  10.155  1.4901  2.2802 -0.8092
  388TMC3    H1 5857   2.667   3.165  10.324 -1.8846  0.1437  1.1428
  388TMC3    H2 5858   2.900   3.524  10.300 -0.1715 -0.1635  1.8178
  388TMC3    C7 5859   2.920   3.275  10.332 -0.7549  0.3557  0.2213
  388TMC3    C8 5860   2.741   3.659  10.159 -0.2031  0.2089  0.0653
  388TMC3    O1 5861   3.020   3.344  10.330  0.5341  0.0799 -0.2315
  388TMC3    O2 5862   2.855   3.698  10.192 -0.3037  0.1754 -0.0548
  389MPD2     C 5863   2.177   1.220  11.276 -0.3857 -0.3982  0.0085
  389MPD2    C1 5864   2.117   1.099  11.232  0.3840 -0.4390  0.6521
  389MPD2    C2 5865   2.012   1.054  11.304  0.2574 -0.2824  0.2002
  389MPD2    C3 5866   1.952   1.128  11.395  0.8337 -0.5036 -0.0755
  389MPD2    C4 5867   2.006   1.250  11.424  0.9746  0.4372 -0.3381
  389MPD2    C5 5868   2.119   1.295  11.369  0.5634 -0.0987  0.1947
  389MPD2     H 5869   1.981   0.953  11.281  0.7535  0.3005 -3.0840
  389MPD2    H1 5870   1.961   1.321  11.492  2.6674  0.2709  0.9537
  389MPD2    H2 5871   2.272   1.263  11.244 -0.1736 -1.5206 -0.8924
  389MPD2    H3 5872   2.157   1.388  11.411 -0.1414  1.2176 -2.0507
  389MPD2     N 5873   1.833   1.103  11.465  0.3222  0.4401 -0.1479
  389MPD2    H5 5874   1.788   1.179  11.516 -0.0972  0.8685 -1.1526
  389MPD2    N1 5875   2.182   1.023  11.129 -0.0070 -1.0129 -0.2130
  389MPD2    H7 5876   2.266   1.063  11.088  0.4065 -1.6814 -0.0138
  390TMC3    C1 5877   1.638   0.976  11.507  0.0089 -0.1085 -0.0220
  390TMC3    C2 5878   1.576   0.851  11.500  0.7856  0.1168 -0.0332
  390TMC3    C3 5879   1.443   0.849  11.538 -0.1619  0.8974  0.1586
  390TMC3    C4 5880   1.572   1.098  11.540 -0.4462  0.2100  0.0461
  390TMC3    C5 5881   1.444   1.085  11.576 -0.4012 -0.5118 -0.3670
  390TMC3    C6 5882   1.375   0.963  11.567 -0.3867 -0.4206 -0.1856
  390TMC3     C 5883   1.774   0.978  11.465  0.8528 -0.2561 -0.3506
  390TMC3     O 5884   1.815   0.873  11.421 -0.3860  0.0868 -0.1700
  390TMC3     H 5885   1.627   0.759  11.472 -0.9738 -1.0107  0.4265
  390TMC3    H1 5886   1.615   1.197  11.552 -1.3015  0.5484  0.3924
  390TMC3    H2 5887   1.267   0.953  11.560 -0.5076  0.7061  0.1239
  390TMC3    C7 5888   1.364   1.198  11.603 -0.4255 -1.1207 -0.1514
  390TMC3    C8 5889   1.370   0.725  11.569 -0.9269 -0.0103  0.3736
  390TMC3    O1 5890   1.403   1.314  11.587 -0.0298 -0.2045 -0.4699
  390TMC3    O2 5891   1.247   0.730  11.569 -0.3622 -0.7358  0.0034
  391MPD2     C 5892   1.157   2.530  11.537 -0.0792 -0.5957  0.4405
  391MPD2    C1 5893   1.230   2.639  11.496 -0.3605  0.0546 -1.0175
  391MPD2    C2 5894   1.251   2.653  11.359  0.0143  0.0919 -0.7594
  391MPD2    C3 5895   1.205   2.568  11.265 -0.5830 -0.0664  0.1644
  391MPD2    C4 5896   1.130   2.463  11.305  0.1471 -0.4750 -0.0358
  391MPD2    C5 5897   1.104   2.440  11.440  0.0411  0.5075 -0.4034
  391MPD2     H 5898   1.328   2.723  11.329  0.8411 -1.6268 -2.6504
  391MPD2    H1 5899   1.095   2.389  11.234 -0.3929  1.5518 -1.8956
  391MPD2    H2 5900   1.134   2.501  11.639 -4.0684 -1.9219 -0.8283
  391MPD2    H3 5901   1.050   2.352  11.474  0.9231  0.7212  1.5511
  391MPD2     N 5902   1.249   2.598  11.140  0.0327  0.5756 -0.1961
  391MPD2    H5 5903   1.304   2.682  11.126 -0.7072  1.2171  0.7408
  391MPD2    N1 5904   1.286   2.728  11.585  0.3079  0.1642 -0.0442
  391MPD2    H7 5905   1.302   2.699  11.681  1.6048  2.9194  0.5667
  392TMC3    C1 5906   1.274   2.594  10.910  0.2959 -0.2396  0.7659
  392TMC3    C2 5907   1.202   2.575  10.796  0.2851  1.0459  0.7325
  392TMC3    C3 5908   1.242   2.628  10.673 -0.1384  0.1394 -0.7167
  392TMC3    C4 5909   1.382   2.672  10.913 -0.3552 -0.0562 -0.5203
  392TMC3    C5 5910   1.405   2.734  10.795 -0.6481 -0.6695  0.4387
  392TMC3    C6 5911   1.351   2.720  10.671 -0.7548 -0.3237  0.0649
  392TMC3     C 5912   1.219   2.534  11.027 -0.0365 -0.3992 -0.5677
  392TMC3     O 5913   1.134   2.446  11.002 -0.3666  0.5745  0.4168
  392TMC3     H 5914   1.113   2.514  10.791  0.7157  0.5456 -0.8510
  392TMC3    H1 5915   1.439   2.693  11.003  0.5924 -0.6222 -0.9802
  392TMC3    H2 5916   1.375   2.779  10.584  0.0359 -0.5526  0.1244
  392TMC3    C7 5917   1.505   2.840  10.810 -0.8403 -0.4676 -0.0008
  392TMC3    C8 5918   1.135   2.641  10.573  0.2522  0.7091  0.8426
  392TMC3    O1 5919   1.602   2.821  10.881 -0.1014 -0.2568 -0.2577
  392TMC3    O2 5920   1.021   2.608  10.606 -0.0077 -0.0738 -0.0310
  393TMC3    C1 5921   1.060   0.469  10.611 -0.4829  0.0160 -0.3473
  393TMC3    C2 5922   0.937   0.423  10.636 -0.1127  0.0937  0.2072
  393TMC3    C3 5923   0.888   0.335  10.542 -0.7710  0.4228 -0.1258
  393TMC3    C4 5924   1.137   0.451  10.498 -0.1388  0.3016  0.5605
  393TMC3    C5 5925   1.088   0.355  10.420 -0.1850 -0.0121  0.4260
  393TMC3    C6 5926   0.964   0.293  10.437  0.2023  0.1450  1.0322
  393TMC3     C 5927   1.060   0.605  10.647 -0.5267  0.5745  0.3944
  393TMC3     O 5928   0.989   0.645  10.737  0.0878  0.2130 -0.0525
  393TMC3     H 5929   0.889   0.451  10.729 -1.0139  1.1266 -0.5679
  393TMC3    H1 5930   1.241   0.481  10.491 -0.1205  0.0643 -0.1597
  393TMC3    H2 5931   0.923   0.217  10.372 -0.7309  0.2161  1.5322
  393TMC3    C7 5932   1.180   0.322  10.311  0.3471 -0.0495  0.6586
  393TMC3    C8 5933   0.752   0.330  10.522 -0.1727  0.5580  0.3175
  393TMC3    O1 5934   1.245   0.422  10.269 -0.2228 -0.8729 -0.0314
  393TMC3    O2 5935   0.699   0.296  10.416  0.3479 -0.0160 -0.2561
  394TMC3    C1 5936   2.219   0.856  10.957 -0.5193 -0.2226  0.4559
  394TMC3    C2 5937   2.158   0.759  10.874  1.0716 -0.7743 -0.0630
  394TMC3    C3 5938   2.230   0.738  10.759 -0.4935 -0.2069 -0.3951
  394TMC3    C4 5939   2.335   0.922  10.927  0.0257  0.1128  0.1456
  394TMC3    C5 5940   2.399   0.888  10.810 -0.3921  0.2525 -0.1697
  394TMC3    C6 5941   2.352   0.790  10.727 -0.6214 -0.0340  0.3264
  394TMC3     C 5942   2.132   0.909  11.068  0.1025  0.1409 -0.7629
  394TMC3     O 5943   2.037   0.836  11.083  0.2878  0.3125 -0.7793
  394TMC3     H 5944   2.056   0.722  10.883  0.6499  0.7469  1.5426
  394TMC3    H1 5945   2.381   0.999  10.989 -0.6779 -0.2766  1.1448
  394TMC3    H2 5946   2.396   0.757  10.633  1.1663 -1.0566  1.5112
  394TMC3    C7 5947   2.520   0.967  10.768  0.5527  0.0098  0.4149
  394TMC3    C8 5948   2.152   0.658  10.669 -0.4246  0.1692  0.3621
  394TMC3    O1 5949   2.567   1.055  10.834  0.2082  0.0009 -0.1988
  394TMC3    O2 5950   2.083   0.567  10.711 -0.4193  0.4025 -0.0336
  395TMC3    C1 5951   1.419   3.218  14.836  0.1963  0.5154  0.0190
  395TMC3    C2 5952   1.301   3.196  14.773  0.2992 -0.0109 -0.4782
  395TMC3    C3 5953   1.242   3.294  14.700 -0.1407  0.4021  0.0894
  395TMC3    C4 5954   1.492   3.331  14.823  0.4596 -0.2452  0.2005
  395TMC3    C5 5955   1.436   3.426  14.739 -0.7458  0.1444 -0.2262
  395TMC3    C6 5956   1.312   3.418  14.681  0.2256  0.4592 -0.1191
  395TMC3     C 5957   1.470   3.112  14.929 -0.2283  0.2545  0.5473
  395TMC3     O 5958   1.548   3.150  15.016 -0.0457  0.1868 -0.6526
  395TMC3     H 5959   1.246   3.104  14.794 -0.1192  0.3188 -0.1361
  395TMC3    H1 5960   1.580   3.341  14.886  1.3518 -1.2694 -0.9061
  395TMC3    H2 5961   1.273   3.498  14.619 -1.0246  0.0432  0.1304
  395TMC3    C7 5962   1.516   3.546  14.733 -0.3754 -0.3124  0.5045
  395TMC3    C8 5963   1.108   3.286  14.657 -0.1353  0.0235 -0.3195
  395TMC3    O1 5964   1.464   3.653  14.700 -0.0590 -0.3160 -0.5117
  395TMC3    O2 5965   1.038   3.390  14.644 -0.2975 -0.7367  0.0948
  396MPD2     C 5966   0.081   3.848  16.584 -0.6073  0.2872  0.2264
  396MPD2    C1 5967   0.179   3.846  16.687 -0.1882 -0.5517 -0.3287
  396MPD2    C2 5968   0.238   3.966  16.729 -0.2362  0.1586  0.0057
  396MPD2    C3 5969   0.195   4.085  16.669 -0.3394 -0.2244  0.4170
  396MPD2    C4 5970   0.092   4.080  16.580 -0.4724 -0.0362  0.2966
  396MPD2    C5 5971   0.030   3.964  16.541  0.2855  0.1437  0.4443
  396MPD2     H 5972   0.308   3.978  16.811  0.1697  0.0115 -0.3190
  396MPD2    H1 5973   0.041   4.168  16.542 -0.9865 -0.3209  0.3296
  396MPD2    H2 5974   0.040   3.759  16.538  0.6117  0.7735 -1.8194
  396MPD2    H3 5975   4.678   3.971  16.487 -0.7673  0.6944  2.3527
  396MPD2     N 5976   0.260   4.206  16.707  0.4133  0.2560 -0.4075
  396MPD2    H5 5977   0.350   4.194  16.753  0.3068  0.1948 -0.2188
  396MPD2    N1 5978   0.220   3.724  16.734  0.1060  0.0041  0.3746
  396MPD2    H7 5979   0.184   3.647  16.679 -0.7973  0.5003  0.2649
  397TMC3    C1 5980   0.349   3.571  16.862 -0.0104 -0.1544  0.3122
  397TMC3    C2 5981   0.404   3.514  16.751 -0.4814  0.1754 -0.5947
  397TMC3    C3 5982   0.528   3.454  16.759 -0.7412 -0.2910  0.2419
  397TMC3    C4 5983   0.413   3.558  16.985  0.1201  0.4711  0.2909
  397TMC3    C5 5984   0.531   3.486  16.989  0.8919 -0.7061  0.1099
  397TMC3    C6 5985   0.585   3.433  16.881  0.3218 -0.5798 -0.6917
  397TMC3     C 5986   0.314   3.707  16.832  0.4848  0.2227 -0.4814
  397TMC3     O 5987   0.361   3.797  16.901 -0.3586  0.0994 -0.3845
  397TMC3     H 5988   0.390   3.561  16.654  2.1055  1.2122 -0.4453
  397TMC3    H1 5989   0.372   3.595  17.079  0.1652  0.1014  0.4572
  397TMC3    H2 5990   0.678   3.378  16.893 -0.6031 -2.3609 -1.6816
  397TMC3    C7 5991   0.576   3.428  17.121 -0.5681 -0.3078 -0.3945
  397TMC3    C8 5992   0.622   3.476  16.652 -0.5301  0.4320  0.3363
  397TMC3    O1 5993   0.620   3.314  17.113  0.2102  0.5002  0.1057
  397TMC3    O2 5994   0.574   3.504  16.542 -0.1496  0.1993 -0.2260
  398MPD2     C 5995   3.754   1.232   0.428  0.3439  0.1719 -0.0577
  398MPD2    C1 5996   3.892   1.233   0.411  0.3856  0.2388  0.7246
  398MPD2    C2 5997   3.961   1.356   0.400 -0.2794  0.3056 -0.6624
  398MPD2    C3 5998   3.888   1.473   0.402 -0.0100 -0.0823 -0.4732
  398MPD2    C4 5999   3.750   1.480   0.412  0.5660 -0.1520  0.3914
  398MPD2    C5 6000   3.690   1.357   0.432  0.7792 -0.5182 -0.2130
  398MPD2     H 6001   4.069   1.361   0.390 -0.3168  0.7695 -0.8424
  398MPD2    H1 6002   3.691   1.570   0.416  0.4228 -0.0457 -3.6750
  398MPD2    H2 6003   3.705   1.136   0.443 -0.4770  0.7646  1.0501
  398MPD2    H3 6004   3.583   1.362   0.449  0.4577 -0.1464 -2.4019
  398MPD2     N 6005   3.963   1.591   0.387  0.4530  0.0293 -0.0918
  398MPD2    H5 6006   4.063   1.581   0.397  0.4960  0.6079  0.0562
  398MPD2    N1 6007   3.974   1.123   0.385 -0.0758  0.0699 -0.1030
  398MPD2    H7 6008   4.072   1.139   0.405  0.1382  0.6878 -1.6512
  399TMC3    C1 6009   4.028   0.912   0.292  0.6630 -0.6814  0.1641
  399TMC3    C2 6010   4.155   0.957   0.267 -0.1990  0.4089  0.3759
  399TMC3    C3 6011   4.247   0.876   0.201 -0.7675 -0.3148 -0.2541
  399TMC3    C4 6012   3.979   0.805   0.214 -0.6543  0.0664 -0.6090
  399TMC3    C5 6013   4.074   0.730   0.148  0.1360  0.4897 -0.3833
  399TMC3    C6 6014   4.208   0.765   0.138 -0.3936 -0.1228 -0.1947
  399TMC3     C 6015   3.928   1.002   0.341  0.0717 -0.2249 -0.5392
  399TMC3     O 6016   3.811   0.962   0.329  0.3223  0.6931 -0.1439
  399TMC3     H 6017   4.194   1.028   0.339 -0.8962  2.4522 -1.2718
  399TMC3    H1 6018   3.879   0.772   0.237 -1.1114  2.5570  1.0704
  399TMC3    H2 6019   4.282   0.694   0.104 -2.0971 -1.3611 -1.2823
  399TMC3    C7 6020   4.027   0.632   0.048  0.3665 -0.2525  0.3157
  399TMC3    C8 6021   4.362   0.931   0.140 -0.3841 -0.1117 -0.6334
  399TMC3    O1 6022   4.100   0.600  17.722  0.2112  0.2765 -0.3800
  399TMC3    O2 6023   4.445   0.852   0.091  0.5763 -0.2209 -0.4658
  400TMC3    C1 6024   2.335   3.735  16.927  0.5239 -0.8506 -0.2891
  400TMC3    C2 6025   2.244   3.676  16.846 -0.2405  0.4115 -0.6361
  400TMC3    C3 6026   2.157   3.763  16.790 -0.1738  0.0361 -0.1712
  400TMC3    C4 6027   2.348   3.865  16.953 -0.1221  0.0500 -0.2700
  400TMC3    C5 6028   2.269   3.949  16.879 -0.4320  0.6489  0.4621
  400TMC3    C6 6029   2.166   3.899  16.811  0.1084  0.3802  0.8568
  400TMC3     C 6030   2.408   3.644  17.010  0.2212  0.5501 -0.2664
  400TMC3     O 6031   2.378   3.526  17.019  0.1725 -0.3598  1.1255
  400TMC3     H 6032   2.226   3.569  16.851 -0.6442  0.5147  0.2496
  400TMC3    H1 6033   2.404   3.900  17.039 -2.8696  1.5968  0.8948
  400TMC3    H2 6034   2.097   3.970  16.767  1.9343 -0.6536 -3.6429
  400TMC3    C7 6035   2.254   4.092  16.908  0.0050  0.1127  0.6156
  400TMC3    C8 6036   2.043   3.716  16.733  0.6312 -0.7479  0.7789
  400TMC3    O1 6037   2.156   4.153  16.870 -0.2245  0.4740  0.0601
  400TMC3    O2 6038   1.939   3.776  16.766 -0.1067  1.3127 -0.0744
  401MPD2     C 6039   1.145   3.164   1.160 -0.4891 -0.5121  0.1395
  401MPD2    C1 6040   1.198   3.058   1.229 -0.2025 -1.3682 -0.5675
  401MPD2    C2 6041   1.130   2.942   1.228 -0.2110 -0.4958  0.0957
  401MPD2    C3 6042   1.006   2.928   1.173 -0.2269  0.5940 -0.3040
  401MPD2    C4 6043   0.951   3.039   1.111 -0.0861 -0.2863  0.5814
  401MPD2    C5 6044   1.022   3.151   1.100  0.3847 -0.0881  0.0071
  401MPD2     H 6045   1.175   2.858   1.279 -2.2184  0.0109  2.7120
  401MPD2    H1 6046   0.851   3.047   1.069 -0.3881 -2.3208  0.9255
  401MPD2    H2 6047   1.196   3.258   1.142  0.9775 -1.5395 -1.0554
  401MPD2    H3 6048   0.971   3.231   1.049 -0.4775 -2.3705 -2.6982
  401MPD2     N 6049   0.929   2.806   1.199  0.2832 -0.4522 -0.1441
  401MPD2    H5 6050   0.971   2.726   1.245  0.4639  0.1593  0.7462
  401MPD2    N1 6051   1.326   3.064   1.299 -0.0390 -0.6579 -0.2828
  401MPD2    H7 6052   1.346   2.979   1.350 -3.2214 -1.4666 -0.3816
  402TMC3    C1 6053   0.782   2.632   1.142  0.0089  0.1353  0.2685
  402TMC3    C2 6054   0.813   2.553   1.252 -0.0502  0.2401  0.2867
  402TMC3    C3 6055   0.783   2.416   1.253 -0.4214 -0.9271  0.3364
  402TMC3    C4 6056   0.715   2.580   1.035  0.7090  0.0796 -0.3745
  402TMC3    C5 6057   0.693   2.445   1.042  0.3049  1.0897 -1.2435
  402TMC3    C6 6058   0.728   2.362   1.145 -0.1339 -0.3821  0.1070
  402TMC3     C 6059   0.811   2.778   1.137 -0.5385  0.0225  0.6740
  402TMC3     O 6060   0.743   2.846   1.062  0.3461  0.2645 -0.4464
  402TMC3     H 6061   0.869   2.603   1.330 -0.8566  0.7474  0.5316
  402TMC3    H1 6062   0.688   2.643   0.951  0.6317 -1.7792 -1.7146
  402TMC3    H2 6063   0.719   2.256   1.124  2.0130 -0.8868  1.7335
  402TMC3    C7 6064   0.673   2.382   0.918  0.2314  0.1167 -0.4516
  402TMC3    C8 6065   0.823   2.327   1.362  0.2884 -0.5155 -0.6389
  402TMC3    O1 6066   0.582   2.428   0.847  0.5120  0.8728 -0.0118
  402TMC3    O2 6067   0.839   2.208   1.335  0.0138  0.0627 -0.3406
  403MPD2     C 6068   3.904   0.883  13.536  0.2508  0.8815 -0.0483
  403MPD2    C1 6069   3.978   0.786  13.595  0.1894  0.2727 -0.2269
  403MPD2    C2 6070   4.100   0.828  13.647 -0.1620 -0.2382  0.0643
  403MPD2    C3 6071   4.146   0.963  13.642  0.7047  0.0462 -0.2664
  403MPD2    C4 6072   4.066   1.055  13.573 -0.4499  0.2183  0.2407
  403MPD2    C5 6073   3.944   1.011  13.528 -0.4916  0.2357  0.1640
  403MPD2     H 6074   4.155   0.753  13.703  0.8589  0.7125  0.3215
  403MPD2    H1 6075   4.090   1.161  13.577  1.7484 -0.2385 -0.9730
  403MPD2    H2 6076   3.799   0.879  13.508  0.8924  0.5029 -2.3726
  403MPD2    H3 6077   3.863   1.080  13.506 -0.2414 -0.0867 -1.7357
  403MPD2     N 6078   4.265   0.993  13.700  0.7379 -0.0387  0.3666
  403MPD2    H5 6079   4.309   0.923  13.759  1.3721  3.3891  3.9677
  403MPD2    N1 6080   3.936   0.652  13.591  0.0252  0.9857 -0.1973
  403MPD2    H7 6081   3.990   0.586  13.644 -0.4913 -0.0598 -0.9764
  404TMC3    C1 6082   3.847   0.460  13.515 -0.5324 -0.3262  0.4213
  404TMC3    C2 6083   3.902   0.403  13.627  0.0701  0.0733 -0.0366
  404TMC3    C3 6084   3.958   0.277  13.615 -0.1270  0.2466 -0.0777
  404TMC3    C4 6085   3.855   0.403  13.388  0.0562  0.1800 -0.4094
  404TMC3    C5 6086   3.929   0.285  13.386 -0.1139  0.0623 -0.0973
  404TMC3    C6 6087   3.985   0.220  13.496  0.5102  0.5754 -0.4686
  404TMC3     C 6088   3.846   0.603  13.501  0.4426 -0.8290  0.6407
  404TMC3     O 6089   3.805   0.658  13.398 -0.4242 -0.2154  0.2015
  404TMC3     H 6090   3.905   0.450  13.724  2.3531 -0.4793  0.1649
  404TMC3    H1 6091   3.812   0.449  13.299 -2.6089 -2.2859 -0.3946
  404TMC3    H2 6092   4.041   0.128  13.489  1.6977  1.2620 -0.0262
  404TMC3    C7 6093   3.950   0.238  13.251 -0.2361 -1.3349 -0.8613
  404TMC3    C8 6094   4.020   0.211  13.724  0.2261 -0.0895  0.6188
  404TMC3    O1 6095   3.901   0.300  13.156 -0.2922 -0.1858 -0.2594
  404TMC3    O2 6096   4.122   0.146  13.712 -0.2255 -0.2256  0.6388
  405MPD2     C 6097   4.500   1.230  14.788  0.2549  0.2883  0.2189
  405MPD2    C1 6098   4.465   1.197  14.662 -0.9099 -0.3141 -0.0583
  405MPD2    C2 6099   4.400   1.297  14.586 -0.2739  0.2656  0.3662
  405MPD2    C3 6100   4.375   1.427  14.635 -0.2800 -0.2593 -0.3377
  405MPD2    C4 6101   4.421   1.464  14.764 -0.2800  0.2839 -0.3102
  405MPD2    C5 6102   4.475   1.362  14.838  0.4679  0.1818 -0.1345
  405MPD2     H 6103   4.359   1.288  14.486  1.4793 -0.1926 -0.3125
  405MPD2    H1 6104   4.403   1.561  14.809  0.6920  0.0551  0.5787
  405MPD2    H2 6105   4.560   1.172  14.856 -0.2389 -0.0032  0.4046
  405MPD2    H3 6106   4.512   1.390  14.936 -0.2737  0.6359  0.0087
  405MPD2     N 6107   4.297   1.516  14.551  0.1924  0.3310 -0.0383
  405MPD2    H5 6108   4.244   1.472  14.478 -1.7677  3.0603 -0.2769
  405MPD2    N1 6109   4.482   1.065  14.615 -0.5695  0.5498 -0.1717
  405MPD2    H7 6110   4.512   0.999  14.686 -0.9454  0.9294  0.3383
  406TMC3    C1 6111   4.023   1.807  14.401 -0.1117 -0.1393 -0.1835
  406TMC3    C2 6112   4.018   1.738  14.281  0.1200 -0.0742 -0.3794
  406TMC3    C3 6113   4.124   1.664  14.248 -0.2119  0.9446  0.4871
  406TMC3    C4 6114   4.132   1.802  14.480 -0.5914 -0.4781  0.6858
  406TMC3    C5 6115   4.230   1.717  14.455  0.7128  0.3053 -0.3155
  406TMC3    C6 6116   4.230   1.654  14.334 -0.3934 -0.2608  0.2911
  406TMC3     C 6117   3.900   1.869  14.452  0.5263  0.2708 -0.1338
  406TMC3     O 6118   3.911   1.966  14.522  0.1741  0.0269 -0.2290
  406TMC3     H 6119   3.928   1.729  14.221  1.1998  1.0900 -2.1677
  406TMC3    H1 6120   4.129   1.854  14.575  0.8944 -0.0108  0.4776
  406TMC3    H2 6121   4.319   1.595  14.317  0.4381  1.7358 -2.2844
  406TMC3    C7 6122   4.305   1.655  14.557  0.4272  0.0577 -0.6311
  406TMC3    C8 6123   4.113   1.567  14.142  0.3619 -0.7658 -0.3042
  406TMC3    O1 6124   4.379   1.728  14.622 -0.1206 -0.2617  0.9943
  406TMC3    O2 6125   4.036   1.585  14.053  0.5670 -0.1366  0.0391
  407MPD2     C 6126   2.167   2.115   9.735 -0.3984 -0.2212 -0.0763
  407MPD2    C1 6127   2.279   2.144   9.809 -0.7165 -0.1200 -0.3823
  407MPD2    C2 6128   2.269   2.226   9.921 -0.0522 -0.5755  0.1149
  407MPD2    C3 6129   2.149   2.283   9.954 -0.0063 -0.7814  0.2528
  407MPD2    C4 6130   2.045   2.261   9.870  0.5415  0.6212 -0.2388
  407MPD2    C5 6131   2.054   2.173   9.767  0.6232  0.2303 -0.4600
  407MPD2     H 6132   2.361   2.245   9.975 -0.0551  0.3779 -0.2095
  407MPD2    H1 6133   1.950   2.308   9.892  0.1046 -0.6508  0.5346
  407MPD2    H2 6134   2.173   2.049   9.649 -0.5497  0.0885 -0.3198
  407MPD2    H3 6135   1.969   2.148   9.705  0.4414  1.6578 -0.7830
  407MPD2     N 6136   2.130   2.376  10.057  0.2998  0.1268 -0.1900
  407MPD2    H5 6137   2.035   2.411  10.069 -0.6761 -2.5567 -0.0852
  407MPD2    N1 6138   2.403   2.097   9.774 -0.1775  0.3402 -0.1642
  407MPD2    H7 6139   2.482   2.114   9.836  0.5805 -2.0030 -0.5091
  408TMC3    C1 6140   2.581   2.029   9.649 -0.6639  0.4762  0.1290
  408TMC3    C2 6141   2.660   2.143   9.673  0.5909 -0.0612  0.3508
  408TMC3    C3 6142   2.787   2.154   9.624  0.0133  1.0475 -0.5647
  408TMC3    C4 6143   2.628   1.922   9.577 -0.1725 -0.3026  0.1477
  408TMC3    C5 6144   2.753   1.944   9.522  0.2079 -1.0768 -0.1121
  408TMC3    C6 6145   2.841   2.056   9.548  0.5497  0.5576 -0.2424
  408TMC3     C 6146   2.434   2.035   9.657  0.5881 -0.4666  0.5211
  408TMC3     O 6147   2.375   2.019   9.552  0.0838  0.1616 -0.0690
  408TMC3     H 6148   2.628   2.217   9.745 -0.4584 -0.3503  0.1798
  408TMC3    H1 6149   2.574   1.828   9.571  1.6139 -1.3907  0.9543
  408TMC3    H2 6150   2.948   2.057   9.531  0.4988 -0.7931 -0.6077
  408TMC3    C7 6151   2.807   1.827   9.459  0.1596  0.4232  0.1429
  408TMC3    C8 6152   2.875   2.268   9.671 -0.6328  0.5526 -0.0650
  408TMC3    O1 6153   2.754   1.716   9.474 -0.9852 -0.1821 -0.6130
  408TMC3    O2 6154   2.998   2.260   9.657  0.5540  0.1769 -0.1593
  409MPD2     C 6155   1.474   3.313  16.737  0.0624 -0.7120 -0.5705
  409MPD2    C1 6156   1.508   3.326  16.872 -0.6315 -0.1063  0.2340
  409MPD2    C2 6157   1.504   3.455  16.924  0.0946 -0.4696 -0.5081
  409MPD2    C3 6158   1.486   3.569  16.843 -0.6605  0.4887  0.1798
  409MPD2    C4 6159   1.457   3.552  16.711  0.0652 -0.2641  0.4302
  409MPD2    C5 6160   1.448   3.425  16.661  0.5638 -0.4334 -0.1453
  409MPD2     H 6161   1.533   3.466  17.027 -0.2519 -2.3964 -0.2113
  409MPD2    H1 6162   1.440   3.632  16.639 -1.6982 -0.7437  0.3213
  409MPD2    H2 6163   1.465   3.218  16.687  0.2767 -1.4502  0.7910
  409MPD2    H3 6164   1.422   3.418  16.556 -0.0221  0.1388 -0.0376
  409MPD2     N 6165   1.481   3.702  16.889  0.8468  0.3144 -0.4321
  409MPD2    H5 6166   1.491   3.776  16.820 -3.0921 -0.0096 -1.3609
  409MPD2    N1 6167   1.517   3.219  16.957  0.5792  0.2613 -0.1536
  409MPD2    H7 6168   1.536   3.252  17.052  0.1417 -3.3702  1.1916
  410TMC3    C1 6169   1.580   3.871  17.016  0.1797 -0.5141 -0.1009
  410TMC3    C2 6170   1.694   3.875  17.088 -0.5987 -0.1522  0.2498
  410TMC3    C3 6171   1.806   3.919  17.019  0.5827  0.4603  0.4062
  410TMC3    C4 6172   1.567   3.930  16.891  0.2932  0.5801 -0.7891
  410TMC3    C5 6173   1.682   3.983  16.837 -0.6014  0.2441  0.5109
  410TMC3    C6 6174   1.804   3.982  16.900 -0.0687  0.4915  0.5986
  410TMC3     C 6175   1.518   3.740  17.020 -0.5453  0.2170  0.7189
  410TMC3     O 6176   1.540   3.671  17.122 -0.3270  0.2740  0.1803
  410TMC3     H 6177   1.707   3.842  17.190  0.6491  1.4995  0.6084
  410TMC3    H1 6178   1.468   3.936  16.846 -0.0825 -0.2922 -0.0886
  410TMC3    H2 6179   1.897   4.014  16.854 -1.0733  3.2750  0.5311
  410TMC3    C7 6180   1.692   3.962  16.697 -0.9521  0.4357 -0.1294
  410TMC3    C8 6181   1.930   3.904  17.090  0.3812  0.0887  0.2977
  410TMC3    O1 6182   1.612   3.882  16.652  0.0545  0.0896  0.4519
  410TMC3    O2 6183   1.989   4.007  17.121 -0.4452  0.4160  0.0803
  411MPD2     C 6184   1.859   4.117  14.385  0.1314 -0.1601  0.4333
  411MPD2    C1 6185   1.739   4.160  14.348  0.0259  0.5301 -0.1654
  411MPD2    C2 6186   1.633   4.067  14.359  0.0546  0.0078 -0.0969
  411MPD2    C3 6187   1.650   3.934  14.384  0.5705  0.3368  0.0783
  411MPD2    C4 6188   1.779   3.891  14.407  0.5457  0.5327  0.8332
  411MPD2    C5 6189   1.876   3.987  14.420 -0.2482  0.7662 -0.8836
  411MPD2     H 6190   1.529   4.100  14.359 -0.6517 -2.2278 -1.3689
  411MPD2    H1 6191   1.810   3.789  14.428 -2.0493 -0.3377  0.4059
  411MPD2    H2 6192   1.942   4.183  14.409 -0.8619  0.4546  2.2175
  411MPD2    H3 6193   1.975   3.953  14.449 -1.0602 -0.1688  0.8586
  411MPD2     N 6194   1.553   3.837  14.398  0.5415  0.6223 -0.0776
  411MPD2    H5 6195   1.581   3.740  14.386 -0.7489  0.1693  0.6435
  411MPD2    N1 6196   1.719   4.302  14.311 -0.0653  0.5052  0.3457
  411MPD2    H7 6197   1.788   4.374  14.329 -0.4248  0.6113  1.2762
  412TMC3    C1 6198   1.328   3.750  14.441 -1.1168 -0.1010  0.5021
  412TMC3    C2 6199   1.205   3.775  14.499 -0.1815 -0.6295  0.3658
  412TMC3    C3 6200   1.113   3.677  14.489 -0.4695  0.8601  0.5953
  412TMC3    C4 6201   1.348   3.651  14.349 -0.4978  0.1069  0.6737
  412TMC3    C5 6202   1.241   3.576  14.325 -0.6275 -0.4855  0.0080
  412TMC3    C6 6203   1.128   3.571  14.400  0.2662 -0.7404  0.4561
  412TMC3     C 6204   1.418   3.866  14.436 -0.0928 -0.3423 -0.0348
  412TMC3     O 6205   1.365   3.971  14.474 -0.1071  0.2274  0.1648
  412TMC3     H 6206   1.195   3.869  14.552 -1.4953 -0.2959 -0.5029
  412TMC3    H1 6207   1.434   3.657  14.284 -1.0331  0.6937  0.0160
  412TMC3    H2 6208   1.049   3.500  14.381 -1.4810  1.4063 -0.3359
  412TMC3    C7 6209   1.201   3.563  14.186 -0.3831  0.0022 -0.3613
  412TMC3    C8 6210   0.976   3.719  14.520  0.0703  0.2553  0.2011
  412TMC3    O1 6211   1.103   3.497  14.158  0.3302  0.2242 -0.7749
  412TMC3    O2 6212   0.950   3.836  14.520 -0.2684  0.2608 -0.2044
  413MPD2     C 6213   3.220   2.401  15.403  0.4476  0.3290 -0.3917
  413MPD2    C1 6214   3.156   2.317  15.313  1.0412  0.1787 -0.1777
  413MPD2    C2 6215   3.213   2.200  15.273  0.2643  0.2273 -0.5936
  413MPD2    C3 6216   3.333   2.156  15.313 -0.0783 -0.0060  0.1655
  413MPD2    C4 6217   3.386   2.232  15.413 -0.4776  0.9091 -0.2512
  413MPD2    C5 6218   3.337   2.354  15.453  0.4263  0.8496  0.4513
  413MPD2     H 6219   3.164   2.139  15.198  1.0596 -0.4584 -0.5575
  413MPD2    H1 6220   3.479   2.206  15.462 -1.6187  0.3796  1.6247
  413MPD2    H2 6221   3.185   2.498  15.436  3.1460  0.6043  1.6719
  413MPD2    H3 6222   3.390   2.409  15.530  2.0088  0.9000 -0.6669
  413MPD2     N 6223   3.398   2.049  15.243 -0.0242  0.0297  0.6567
  413MPD2    H5 6224   3.350   2.008  15.163  0.6745 -2.3959  1.4870
  413MPD2    N1 6225   3.024   2.354  15.270  0.1222 -0.2397 -0.3616
  413MPD2    H7 6226   2.988   2.443  15.303  0.9128  1.2947 -3.6492
  414TMC3    C1 6227   3.560   1.890  15.203 -1.1730 -0.3841 -0.4488
  414TMC3    C2 6228   3.656   1.814  15.255 -0.1146 -0.3566 -0.3447
  414TMC3    C3 6229   3.683   1.695  15.201 -0.2153  0.2718  0.3240
  414TMC3    C4 6230   3.504   1.866  15.082 -0.6912  0.3361 -0.4903
  414TMC3    C5 6231   3.546   1.752  15.017 -0.2229 -0.0902  0.4443
  414TMC3    C6 6232   3.625   1.657  15.085  0.2060  0.0933  0.4642
  414TMC3     C 6233   3.523   2.008  15.273  0.1096 -0.1081  0.2471
  414TMC3     O 6234   3.596   2.042  15.366 -0.1289 -0.1569  0.1367
  414TMC3     H 6235   3.691   1.834  15.355  0.0344 -1.4705 -0.1718
  414TMC3    H1 6236   3.444   1.936  15.025 -0.5370 -0.2985 -1.4216
  414TMC3    H2 6237   3.651   1.561  15.040 -1.7797  0.2730 -1.0674
  414TMC3    C7 6238   3.497   1.730  14.883  0.0303 -0.1112 -0.3779
  414TMC3    C8 6239   3.793   1.616  15.248  0.2480  0.0869  0.2032
  414TMC3    O1 6240   3.380   1.755  14.863 -0.0311  0.7589 -0.5609
  414TMC3    O2 6241   3.821   1.509  15.196 -0.3203 -0.0198  0.2876
  415TMC3    C1 6242   4.574   0.306   9.848 -0.1868  0.1131 -0.0847
  415TMC3    C2 6243   4.576   0.442   9.812 -0.0346 -0.1888  0.5300
  415TMC3    C3 6244   4.505   0.478   9.699 -1.2476 -0.2275 -0.0817
  415TMC3    C4 6245   4.478   0.224   9.800 -0.1793  0.2238 -0.3113
  415TMC3    C5 6246   4.401   0.265   9.698  0.0153 -0.0078  0.4347
  415TMC3    C6 6247   4.414   0.388   9.644  0.0694  0.9303 -0.1645
  415TMC3     C 6248   4.641   0.265   9.967 -0.8610  0.0953  0.2060
  415TMC3     O 6249   4.577   0.191  10.044 -0.2420 -0.6535 -0.0755
  415TMC3     H 6250   4.649   0.514   9.846  0.4313 -0.0145 -0.8317
  415TMC3    H1 6251   4.482   0.120   9.830 -0.6862  0.5442  0.8610
  415TMC3    H2 6252   4.346   0.423   9.567 -2.5938 -1.1109  1.2414
  415TMC3    C7 6253   4.277   0.197   9.684 -0.3410  0.3384  0.0799
  415TMC3    C8 6254   4.500   0.616   9.658 -0.3952  0.3696  0.0096
  415TMC3    O1 6255   4.201   0.214   9.587  0.4687 -0.1253  0.3086
  415TMC3    O2 6256   4.436   0.635   9.554 -0.2420  0.1092  0.3535
  416MPD2     C 6257   1.375   4.191  11.540 -0.1176 -0.9116  0.0175
  416MPD2    C1 6258   1.316   4.090  11.609  0.6312  0.0559  0.2706
  416MPD2    C2 6259   1.341   3.961  11.572  0.1946  0.3501 -0.2401
  416MPD2    C3 6260   1.434   3.931  11.469 -0.7009  0.9706 -0.1969
  416MPD2    C4 6261   1.482   4.038  11.397  0.0544 -0.6782 -0.3506
  416MPD2    C5 6262   1.452   4.164  11.430 -0.5597 -0.0017 -0.2094
  416MPD2     H 6263   1.280   3.887  11.624  0.5108  0.5576  0.4244
  416MPD2    H1 6264   1.540   4.022  11.307  0.8789  0.4319 -0.0151
  416MPD2    H2 6265   1.350   4.296  11.554  0.7203 -0.7728  0.4734
  416MPD2    H3 6266   1.509   4.241  11.380  0.2293 -0.0103  0.6718
  416MPD2     N 6267   1.468   3.804  11.419 -0.1046  0.1324  0.0381
  416MPD2    H5 6268   1.527   3.802  11.336 -0.1469 -2.4644  0.0532
  416MPD2    N1 6269   1.212   4.127  11.697  0.3719  0.2670  0.1306
  416MPD2    H7 6270   1.193   4.226  11.688 -1.0134 -0.1036 -1.1368
  417TMC3    C1 6271   1.041   4.136  11.857  0.1275 -0.2680 -0.4572
  417TMC3    C2 6272   1.011   4.099  11.979  0.6791 -0.1583 -0.2616
  417TMC3    C3 6273   0.888   4.133  12.017 -0.2939 -0.3477 -0.0123
  417TMC3    C4 6274   0.963   4.208  11.769  0.3667  0.1607  0.2367
  417TMC3    C5 6275   0.829   4.226  11.813 -0.4625  0.2142 -0.6424
  417TMC3    C6 6276   0.792   4.179  11.935  0.1807  0.8271 -0.5453
  417TMC3     C 6277   1.139   4.052  11.787 -0.0708  0.1201  0.7436
  417TMC3     O 6278   1.141   3.933  11.824  0.8435 -0.5351  0.1970
  417TMC3     H 6279   1.075   4.030  12.031 -0.1663  1.0254  2.3360
  417TMC3    H1 6280   1.000   4.250  11.676  0.6693 -0.4963  0.0588
  417TMC3    H2 6281   0.691   4.190  11.973 -0.2184  0.1054 -1.4131
  417TMC3    C7 6282   0.732   4.219  11.703  0.5734  0.3746  0.1166
  417TMC3    C8 6283   0.867   4.145  12.162 -0.3632 -0.0823  0.0486
  417TMC3    O1 6284   0.619   4.175  11.729  0.2403 -0.2483 -0.7028
  417TMC3    O2 6285   0.758   4.179  12.207 -0.0014 -0.0405  0.2465
  418TMC3    C1 6286   4.117   1.911   0.156 -0.2318 -0.4342  0.5429
  418TMC3    C2 6287   4.003   1.864   0.217  0.2235  0.6120  0.4367
  418TMC3    C3 6288   4.013   1.817   0.345 -0.4268 -0.6043 -0.4092
  418TMC3    C4 6289   4.235   1.928   0.232 -0.2029 -0.1700 -0.6206
  418TMC3    C5 6290   4.232   1.890   0.366  0.5923 -0.9131 -0.2834
  418TMC3    C6 6291   4.125   1.829   0.418  0.1671 -0.6768 -0.2948
  418TMC3     C 6292   4.112   1.928   0.012  0.1498  0.5903 -0.1158
  418TMC3     O 6293   4.015   1.978  17.721  0.0473  0.3377  0.9338
  418TMC3     H 6294   3.909   1.857   0.164 -0.4115  1.7042  1.4326
  418TMC3    H1 6295   4.325   1.973   0.190 -0.0164  2.1642  2.2810
  418TMC3    H2 6296   4.139   1.774   0.510 -1.8249 -0.8839 -0.1118
  418TMC3    C7 6297   4.367   1.866   0.416  0.3440 -0.7179 -0.3765
  418TMC3    C8 6298   3.915   1.718   0.377  0.8546 -0.3224  0.0421
  418TMC3    O1 6299   4.460   1.847   0.340 -0.2187 -0.0519  0.1144
  418TMC3    O2 6300   3.800   1.757   0.350  0.0737 -0.2382 -0.0062
  419MPD2     C 6301   3.208   3.667  12.641 -0.2094  0.9641 -0.0590
  419MPD2    C1 6302   3.155   3.790  12.598  0.8611 -0.2546  0.3223
  419MPD2    C2 6303   3.100   3.879  12.689 -0.1782 -0.4998 -0.2738
  419MPD2    C3 6304   3.115   3.859  12.825 -0.1091 -0.6244  0.0688
  419MPD2    C4 6305   3.182   3.743  12.869  0.2410 -0.4824 -0.0233
  419MPD2    C5 6306   3.216   3.646  12.774 -0.3107 -0.3016 -0.1238
  419MPD2     H 6307   3.069   3.981  12.670  1.8450 -0.1041 -1.3890
  419MPD2    H1 6308   3.191   3.720  12.974 -0.7416  2.7558  0.7913
  419MPD2    H2 6309   3.248   3.602  12.564 -0.6847 -0.8525  1.2376
  419MPD2    H3 6310   3.272   3.562  12.812  0.4530 -0.1459 -0.8982
  419MPD2     N 6311   3.083   3.965  12.912 -0.4828  0.1008  0.3124
  419MPD2    H5 6312   3.037   4.046  12.871  3.2419  2.4103  0.6470
  419MPD2    N1 6313   3.155   3.827  12.462 -0.7105  0.5529  0.2411
  419MPD2    H7 6314   3.099   3.909  12.441  1.7265  2.0245 -0.5121
  420TMC3    C1 6315   3.064   4.087  13.113  0.3070  0.0657  0.3592
  420TMC3    C2 6316   3.042   4.204  13.038 -0.4045 -0.3204 -0.1544
  420TMC3    C3 6317   3.005   4.317  13.101 -0.3421 -0.5044  0.6722
  420TMC3    C4 6318   3.052   4.082  13.245  0.5616  0.7754  0.1998
  420TMC3    C5 6319   3.038   4.205  13.301  0.5944 -1.0582 -0.8122
  420TMC3    C6 6320   2.999   4.319  13.229  0.4964  0.6354 -0.1033
  420TMC3     C 6321   3.080   3.961  13.048 -0.0101  0.1330  0.4694
  420TMC3     O 6322   3.099   3.861  13.117 -0.7231  0.2785  0.3780
  420TMC3     H 6323   3.030   4.200  12.931 -0.0298  1.3358 -0.2500
  420TMC3    H1 6324   3.058   3.992  13.306 -0.0419  1.0261  0.6296
  420TMC3    H2 6325   2.972   4.411  13.279  0.4207  0.0018  1.0268
  420TMC3    C7 6326   3.021   4.210  13.443 -0.2198  0.1523  0.2708
  420TMC3    C8 6327   2.920   4.406  13.026  0.8565 -0.6933  0.1188
  420TMC3    O1 6328   3.013   4.097  13.494 -0.4045 -0.7448  0.2062
  420TMC3    O2 6329   2.967   4.455  12.921 -0.1704  0.2059  0.0917
  421TMC3    C1 6330   4.446   1.123  13.783 -0.0245 -0.3713 -0.9423
  421TMC3    C2 6331   4.478   1.246  13.835  0.0909 -0.6410 -0.0801
  421TMC3    C3 6332   4.571   1.254  13.932  0.5979 -0.2303  0.7955
  421TMC3    C4 6333   4.508   1.012  13.824 -0.6592 -0.7027 -0.0689
  421TMC3    C5 6334   4.610   1.025  13.914 -0.5239  0.9804  0.1329
  421TMC3    C6 6335   4.642   1.145  13.974  0.2840 -0.2800 -0.1167
  421TMC3     C 6336   4.327   1.113  13.693 -0.5208 -0.0103  0.6054
  421TMC3     O 6337   4.309   1.210  13.621 -0.0581 -0.7211  0.3795
  421TMC3     H 6338   4.424   1.333  13.799  0.8813  0.1897  0.7494
  421TMC3    H1 6339   4.499   0.924  13.761 -0.0730  1.5393 -3.2803
  421TMC3    H2 6340   4.704   1.144  14.064 -0.2502 -1.3461  0.2444
  421TMC3    C7 6341   4.707   0.921  13.939  0.2201 -0.4768 -0.8153
  421TMC3    C8 6342   4.572   1.370  14.024  0.1304 -0.3237 -0.4309
  421TMC3    O1 6343   0.070   0.953  13.995  0.2027  0.5352 -0.6000
  421TMC3    O2 6344   4.662   1.361  14.111 -0.2453 -0.5754  0.6847
  422TMC3    C1 6345   2.226   1.945  12.593  0.1335 -0.2349  0.1031
  422TMC3    C2 6346   2.219   2.042  12.684 -0.0526  0.4554  0.1009
  422TMC3    C3 6347   2.098   2.078  12.738  0.1266 -0.1685  0.1549
  422TMC3    C4 6348   2.117   1.865  12.568 -0.3229 -0.1844 -0.1756
  422TMC3    C5 6349   1.999   1.901  12.623  0.8628 -0.1221 -0.0691
  422TMC3    C6 6350   1.981   2.016  12.697  0.4338  0.1398  0.6525
  422TMC3     C 6351   2.344   1.943  12.508  0.0865 -0.2336 -0.4183
  422TMC3     O 6352   2.410   2.047  12.488 -0.2422  0.3108 -0.7896
  422TMC3     H 6353   2.304   2.104  12.710  1.8834 -1.7692 -0.9192
  422TMC3    H1 6354   2.117   1.783  12.497 -0.6338  0.0596 -0.4547
  422TMC3    H2 6355   1.889   2.039  12.750  0.8475  0.9208  1.0367
  422TMC3    C7 6356   1.878   1.842  12.568 -0.6048  0.5950 -0.0654
  422TMC3    C8 6357   2.098   2.164  12.855 -0.5290  0.4285 -0.1308
  422TMC3    O1 6358   1.871   1.725  12.531 -0.2568 -0.2257 -0.1992
  422TMC3    O2 6359   2.194   2.230  12.882 -0.3969  0.2780  0.2926
  423MPD2     C 6360   2.558   2.498   0.719 -0.0815 -0.1595 -0.1437
  423MPD2    C1 6361   2.674   2.569   0.700 -0.0571 -0.5336 -0.3883
  423MPD2    C2 6362   2.719   2.593   0.573  0.1354 -0.1317  1.0970
  423MPD2    C3 6363   2.660   2.527   0.469  0.2119 -0.1788  0.2230
  423MPD2    C4 6364   2.559   2.441   0.495  0.1311 -1.0478  0.0491
  423MPD2    C5 6365   2.495   2.434   0.617 -0.3514 -0.0541 -0.2290
  423MPD2     H 6366   2.805   2.654   0.550 -0.1416  0.5560  1.8685
  423MPD2    H1 6367   2.517   2.398   0.405 -1.0401  1.8405 -0.8023
  423MPD2    H2 6368   2.508   2.487   0.814 -0.7598  0.4914 -0.4206
  423MPD2    H3 6369   2.409   2.370   0.634 -0.6719  0.5255  0.3215
  423MPD2     N 6370   2.699   2.539   0.336  0.4775  0.3468  0.3476
  423MPD2    H5 6371   2.661   2.467   0.275  1.5383  0.8337 -0.8835
  423MPD2    N1 6372   2.733   2.635   0.807  0.0705  0.0157  0.3814
  423MPD2    H7 6373   2.821   2.683   0.791  1.3681 -2.0784  1.2900
  424TMC3    C1 6374   2.795   2.701   1.023 -0.6087 -0.1927  0.5018
  424TMC3    C2 6375   2.926   2.673   1.007  0.1253 -0.3128  0.3737
  424TMC3    C3 6376   3.023   2.736   1.078 -0.2726 -0.3533 -0.5102
  424TMC3    C4 6377   2.754   2.801   1.105  0.4997  0.3197  0.9266
  424TMC3    C5 6378   2.859   2.866   1.178 -0.2882  0.3656  0.4824
  424TMC3    C6 6379   2.991   2.840   1.166 -0.7546  0.4574  0.3841
  424TMC3     C 6380   2.697   2.626   0.943  0.0329  0.1471 -0.4677
  424TMC3     O 6381   2.589   2.606   0.994 -0.6895  0.8515 -0.3667
  424TMC3     H 6382   2.957   2.598   0.935 -3.2813 -1.2468 -0.0912
  424TMC3    H1 6383   2.647   2.817   1.116 -0.1531 -1.8270 -2.0687
  424TMC3    H2 6384   3.063   2.902   1.217 -0.9047 -0.3716  1.6183
  424TMC3    C7 6385   2.817   2.950   1.293 -0.3595 -0.4692 -0.2678
  424TMC3    C8 6386   3.142   2.746   1.003 -0.3682 -0.1899  0.5050
  424TMC3    O1 6387   2.897   2.972   1.385 -0.0443  0.4159 -0.0292
  424TMC3    O2 6388   3.178   2.636   0.962 -0.4600  0.4236  0.1260
  425MPD2     C 6389   2.191   2.499  17.256 -0.3666  0.0211  0.2649
  425MPD2    C1 6390   2.097   2.404  17.245 -0.0685 -0.4650 -0.6502
  425MPD2    C2 6391   1.976   2.432  17.309 -0.1774  0.0263 -0.2908
  425MPD2    C3 6392   1.953   2.557  17.365  0.5041 -0.1776  0.1212
  425MPD2    C4 6393   2.052   2.648  17.363  0.1098  0.1361  0.2502
  425MPD2    C5 6394   2.173   2.620  17.313  0.1305  0.4160  0.4421
  425MPD2     H 6395   1.891   2.366  17.296 -0.7626  0.4732  1.2591
  425MPD2    H1 6396   2.026   2.749  17.396 -1.9087 -0.6783  1.1851
  425MPD2    H2 6397   2.295   2.494  17.226 -0.9828  0.5268 -1.9823
  425MPD2    H3 6398   2.256   2.689  17.324  1.6405 -1.1363 -1.3169
  425MPD2     N 6399   1.828   2.585  17.416  0.0296 -0.3386 -0.6036
  425MPD2    H5 6400   1.771   2.504  17.440 -0.3754 -0.0633 -0.6555
  425MPD2    N1 6401   2.121   2.285  17.169  0.1550 -0.4522  0.7542
  425MPD2    H7 6402   2.214   2.279  17.128 -0.2464 -1.2532 -0.0471
  426TMC3    C1 6403   2.083   2.054  17.096 -0.4319  0.0681  0.8407
  426TMC3    C2 6404   2.121   2.054  16.967  0.1989 -0.7700  0.2270
  426TMC3    C3 6405   2.131   1.931  16.900  0.1152 -0.0330 -0.6378
  426TMC3    C4 6406   2.055   1.941  17.166 -0.0861 -0.2677 -0.3411
  426TMC3    C5 6407   2.044   1.832  17.092 -0.6796 -0.2778  0.3258
  426TMC3    C6 6408   2.093   1.815  16.966 -0.4122  0.0683 -0.1961
  426TMC3     C 6409   2.037   2.172  17.166  0.3863 -1.0009 -0.4979
  426TMC3     O 6410   1.942   2.149  17.238 -0.1539 -0.4485 -0.5003
  426TMC3     H 6411   2.127   2.151  16.919 -0.1601 -2.0204 -2.3504
  426TMC3    H1 6412   2.043   1.943  17.274  0.2004 -2.8250 -0.2529
  426TMC3    H2 6413   2.088   1.718  16.918 -0.8668  1.1605 -2.3582
  426TMC3    C7 6414   1.925   1.754  17.121  1.2933 -0.4527 -0.4580
  426TMC3    C8 6415   2.184   1.913  16.763  0.1464 -0.3190 -0.1799
  426TMC3    O1 6416   1.915   1.641  17.083 -0.3664  0.4192 -0.1741
  426TMC3    O2 6417   2.192   1.796  16.722  0.1378  0.5495  0.0539
  427MPD2     C 6418   0.152   3.821  15.141 -0.0592 -0.0596 -0.5385
  427MPD2    C1 6419   0.265   3.894  15.178 -0.7337 -0.2312  0.2142
  427MPD2    C2 6420   0.260   4.033  15.185 -0.2885 -0.1005  0.4541
  427MPD2    C3 6421   0.141   4.096  15.163  0.5727 -1.1798  0.0913
  427MPD2    C4 6422   0.034   4.027  15.118 -0.3718 -1.0762  0.8228
  427MPD2    C5 6423   0.032   3.884  15.103  0.3270 -0.1106  0.4389
  427MPD2     H 6424   0.355   4.084  15.201  1.0251 -2.2866 -0.3768
  427MPD2    H1 6425   4.681   4.073  15.093 -0.2123 -0.1634  1.9062
  427MPD2    H2 6426   0.150   3.713  15.131 -0.5143 -0.2672  1.7395
  427MPD2    H3 6427   4.688   3.827  15.070  2.5117 -2.6898 -0.8509
  427MPD2     N 6428   0.130   4.235  15.168 -0.0336  0.1635  0.3067
  427MPD2    H5 6429   0.044   4.278  15.137  0.5982  1.6203  0.5762
  427MPD2    N1 6430   0.390   3.830  15.194  0.0087 -0.3163 -0.2493
  427MPD2    H7 6431   0.471   3.890  15.208 -0.9493  0.6050  1.3134
  428TMC3    C1 6432   0.550   3.657  15.223  0.7496  0.2871 -0.2245
  428TMC3    C2 6433   0.573   3.545  15.304 -0.1320  0.4462  0.0473
  428TMC3    C3 6434   0.709   3.516  15.321 -0.4471 -0.1008  0.2740
  428TMC3    C4 6435   0.649   3.713  15.149  0.3719 -0.6695  0.4169
  428TMC3    C5 6436   0.777   3.663  15.154 -0.3692  0.0150 -0.2213
  428TMC3    C6 6437   0.803   3.569  15.248 -0.1325  0.6530 -0.5188
  428TMC3     C 6438   0.404   3.695  15.210  0.0397  0.0445  0.1471
  428TMC3     O 6439   0.322   3.609  15.220  0.0655 -0.2541 -0.7123
  428TMC3     H 6440   0.500   3.481  15.354  1.0409 -2.5935 -2.1046
  428TMC3    H1 6441   0.629   3.796  15.081  1.9841 -0.3664  0.3196
  428TMC3    H2 6442   0.907   3.539  15.253 -0.2143  0.1643 -1.9989
  428TMC3    C7 6443   0.883   3.761  15.134  0.0034  0.0021  0.5661
  428TMC3    C8 6444   0.751   3.412  15.413  0.1693 -0.1679 -0.9213
  428TMC3    O1 6445   0.978   3.754  15.205  0.0930  0.1084  0.3009
  428TMC3    O2 6446   0.832   3.337  15.356 -0.0760 -0.6222  0.0989
  429MPD2     C 6447   1.487   4.218  17.757  0.1350  0.8379  0.0836
  429MPD2    C1 6448   1.618   4.183  17.759 -0.4023  0.2445  0.2053
  429MPD2    C2 6449   1.705   4.272  17.696  0.3921 -0.0520 -0.6191
  429MPD2    C3 6450   1.660   4.384  17.638  0.6734  0.1730  0.0594
  429MPD2    C4 6451   1.526   4.416  17.635  0.5916 -0.8796 -0.0949
  429MPD2    C5 6452   1.436   4.328  17.690  0.2103  0.2031 -0.1822
  429MPD2     H 6453   1.809   4.243  17.683  0.6703  0.5107  0.3111
  429MPD2    H1 6454   1.481   4.506  17.596 -1.1833 -0.3728  3.1319
  429MPD2    H2 6455   1.412   4.165   0.049  0.4177 -1.2187 -1.4033
  429MPD2    H3 6456   1.331   4.357  17.689  0.5893  1.5461 -0.8017
  429MPD2     N 6457   1.752   4.476  17.588  0.2233  1.2102 -0.5363
  429MPD2    H5 6458   1.849   4.450  17.601  0.3034  1.2698 -1.0251
  429MPD2    N1 6459   1.667   4.057   0.038 -0.4068  0.2740  0.1571
  429MPD2    H7 6460   1.765   4.040   0.018 -0.0847  0.2539  1.7669
  430TMC3    C1 6461   1.854   4.639  17.452 -0.6647  0.2296 -0.1518
  430TMC3    C2 6462   1.847   0.026  17.405 -0.5119 -0.8450 -0.0250
  430TMC3    C3 6463   1.929   0.065  17.305  0.1357  0.0162  0.2952
  430TMC3    C4 6464   1.942   4.549  17.412  0.0081  0.1125  0.3385
  430TMC3    C5 6465   2.027   4.592  17.307  0.1098  0.4791 -0.2490
  430TMC3    C6 6466   2.024   4.722  17.250 -0.0794 -0.2180  0.1240
  430TMC3     C 6467   1.731   4.600  17.528  0.1517 -0.5974 -0.1256
  430TMC3     O 6468   1.626   4.667  17.518  0.5104  0.0010  0.2409
  430TMC3     H 6469   1.765   0.090  17.435 -0.2418 -1.3735  1.8670
  430TMC3    H1 6470   1.951   4.446  17.444  0.2218  0.0757  0.1614
  430TMC3    H2 6471   2.069   0.001  17.154 -0.5859  0.3060  0.0094
  430TMC3    C7 6472   2.111   4.490  17.246 -0.3977  0.2852  0.3398
  430TMC3    C8 6473   1.892   0.187  17.230 -0.1542  0.2230  0.1992
  430TMC3    O1 6474   2.065   4.376  17.249 -0.3454 -0.2871 -0.8204
  430TMC3    O2 6475   1.838   0.273  17.296  0.0011 -1.0581 -0.4090
  431MPD2     C 6476   3.196   4.636  12.474 -0.0809 -0.7475 -0.6995
  431MPD2    C1 6477   3.306   4.586  12.401  0.3628  0.5741 -0.1090
  431MPD2    C2 6478   3.300   4.469  12.328 -1.1104 -0.0235  0.4260
  431MPD2    C3 6479   3.184   4.393  12.330 -0.3113  0.1993 -0.1453
  431MPD2    C4 6480   3.080   4.431  12.408  0.9026 -0.3050  0.6449
  431MPD2    C5 6481   3.085   4.556  12.470 -0.0754  0.2161 -0.1815
  431MPD2     H 6482   3.387   4.431  12.277 -1.6157  0.1063 -0.5418
  431MPD2    H1 6483   3.000   4.359  12.419 -0.9558  1.3356 -2.0509
  431MPD2    H2 6484   3.197   4.728  12.531  2.6008 -0.6416 -0.9227
  431MPD2    H3 6485   2.997   4.581  12.526 -0.7152 -1.1001 -0.5917
  431MPD2     N 6486   3.182   4.261  12.282  0.1278 -0.6606  0.5802
  431MPD2    H5 6487   3.099   4.206  12.298 -0.8473  0.1987 -1.4302
  431MPD2    N1 6488   3.433   4.647  12.411 -0.4013  0.3497 -0.6057
  431MPD2    H7 6489   3.509   4.610  12.354  2.1736  0.7896  2.5514
  432TMC3    C1 6490   3.261   4.072  12.162  0.8050  0.8787  0.2301
  432TMC3    C2 6491   3.301   4.031  12.042  0.4329  0.4221  0.7319
  432TMC3    C3 6492   3.321   3.894  12.031 -0.0983 -0.2311  0.3239
  432TMC3    C4 6493   3.246   3.990  12.271  0.3855  0.5923 -0.0384
  432TMC3    C5 6494   3.256   3.857  12.253 -0.5048  0.3789  0.3031
  432TMC3    C6 6495   3.288   3.808  12.134  0.3286 -0.1560 -0.3770
  432TMC3     C 6496   3.267   4.217  12.181  0.3000  0.3654 -0.1996
  432TMC3     O 6497   3.330   4.282  12.106 -0.3078  0.0039  0.4076
  432TMC3     H 6498   3.320   4.090  11.953 -0.0500 -0.6337 -0.0671
  432TMC3    H1 6499   3.243   4.039  12.368 -1.7231  0.7285 -0.1725
  432TMC3    H2 6500   3.329   3.707  12.137 -0.8865 -0.6220  0.5516
  432TMC3    C7 6501   3.236   3.771  12.365  0.0691  0.0757 -0.3106
  432TMC3    C8 6502   3.370   3.844  11.909 -0.9371 -0.0391  0.0014
  432TMC3    O1 6503   3.294   3.666  12.357 -0.0479  0.0827 -0.2624
  432TMC3    O2 6504   3.356   3.727  11.877  0.2244  0.7818  0.1036
  433MPD2     C 6505   2.402   2.694  11.067  0.1893  0.0219 -0.3910
  433MPD2    C1 6506   2.435   2.575  11.122 -0.2729  0.2359 -0.4328
  433MPD2    C2 6507   2.507   2.576  11.240  0.3203 -0.0537  0.0944
  433MPD2    C3 6508   2.544   2.696  11.303 -0.5548  0.1256 -0.5096
  433MPD2    C4 6509   2.508   2.812  11.241  0.4856 -0.0454  0.7367
  433MPD2    C5 6510   2.431   2.812  11.128 -0.3970 -0.2787 -0.3639
  433MPD2     H 6511   2.526   2.482  11.290  0.1864 -0.5964 -0.8566
  433MPD2    H1 6512   2.532   2.911  11.278 -0.5379  0.9847 -1.3166
  433MPD2    H2 6513   2.341   2.708  10.978  0.2004  0.5003 -0.3255
  433MPD2    H3 6514   2.398   2.901  11.076 -1.9158 -1.0011 -0.6454
  433MPD2     N 6515   2.600   2.686  11.435 -0.7233  0.1839  0.0654
  433MPD2    H5 6516   2.608   2.597  11.483 -0.9688 -0.2696 -0.7335
  433MPD2    N1 6517   2.386   2.458  11.053 -0.7202 -0.6332  0.2304
  433MPD2    H7 6518   2.337   2.464  10.964  2.9111 -2.2169 -1.8710
  434TMC3    C1 6519   2.403   2.229  10.989  0.3209  0.2902  0.6531
  434TMC3    C2 6520   2.466   2.110  11.008  0.3075  0.1813  0.0389
  434TMC3    C3 6521   2.527   2.045  10.902  0.4868  0.9874 -0.1099
  434TMC3    C4 6522   2.385   2.277  10.859 -0.2897  0.0902  1.1557
  434TMC3    C5 6523   2.436   2.203  10.759 -0.4964 -0.7325 -0.0391
  434TMC3    C6 6524   2.519   2.095  10.773  0.3520  0.1408 -0.0579
  434TMC3     C 6525   2.407   2.330  11.094 -0.7290  0.7258  0.7410
  434TMC3     O 6526   2.462   2.293  11.199 -0.0488 -0.4713 -0.5019
  434TMC3     H 6527   2.478   2.066  11.106  0.2292  0.6890  0.2801
  434TMC3    H1 6528   2.321   2.364  10.848  0.8697  0.8465  0.3908
  434TMC3    H2 6529   2.572   2.045  10.693  2.1290  0.4964  0.9074
  434TMC3    C7 6530   2.350   2.222  10.642 -0.0777 -0.0563 -0.8317
  434TMC3    C8 6531   2.651   1.981  10.958  0.6034  0.0947  0.3266
  434TMC3    O1 6532   2.308   2.337  10.624 -0.2391  0.0759  0.0677
  434TMC3    O2 6533   2.634   1.926  11.064 -0.1300  0.3548 -0.3699
  435MPD2     C 6534   3.459   3.256  15.502 -0.2680 -0.2210  0.0902
  435MPD2    C1 6535   3.473   3.270  15.641  0.1214  0.0659 -0.8806
  435MPD2    C2 6536   3.574   3.199  15.703 -0.1714  0.2017  0.0694
  435MPD2    C3 6537   3.643   3.101  15.636 -1.3479 -0.4050  0.0111
  435MPD2    C4 6538   3.625   3.088  15.500 -0.3338  0.1191 -0.2411
  435MPD2    C5 6539   3.538   3.166  15.438 -0.6753  0.6946  0.3295
  435MPD2     H 6540   3.593   3.214  15.808  0.6679 -0.4630  0.0090
  435MPD2    H1 6541   3.684   3.012  15.451  0.8649  0.1255  1.1801
  435MPD2    H2 6542   3.380   3.308  15.449 -1.5653 -0.5011  1.7540
  435MPD2    H3 6543   3.519   3.150  15.332  1.3227 -2.2503  0.4231
  435MPD2     N 6544   3.741   3.041  15.715 -0.8640  0.3050 -0.3795
  435MPD2    H5 6545   3.726   3.059  15.814  0.6874  0.5364 -0.1848
  435MPD2    N1 6546   3.389   3.350  15.718 -0.4426 -0.1367 -0.2336
  435MPD2    H7 6547   3.413   3.357  15.817  0.1652 -1.0597 -0.3221
  436TMC3    C1 6548   3.164   3.531  15.995  0.3243  0.5473  0.1166
  436TMC3    C2 6549   3.249   3.503  15.893 -0.1650 -0.6887 -0.4291
  436TMC3    C3 6550   3.191   3.446  15.784  0.0535 -0.3633 -0.5632
  436TMC3    C4 6551   3.031   3.489  15.997 -0.7266 -0.1009 -0.1051
  436TMC3    C5 6552   2.979   3.436  15.888  0.5313 -1.2059  0.1083
  436TMC3    C6 6553   3.052   3.420  15.771  0.1129 -0.0313 -0.6346
  436TMC3     C 6554   3.215   3.585  16.117 -0.8748  0.3789 -0.3899
  436TMC3     O 6555   3.338   3.579  16.131  0.1004 -0.1281  0.2088
  436TMC3     H 6556   3.352   3.535  15.886 -0.8602  1.7620  0.6002
  436TMC3    H1 6557   2.967   3.494  16.085 -1.1644 -0.7055 -0.3924
  436TMC3    H2 6558   3.019   3.375  15.678 -1.1718 -1.0129  0.3040
  436TMC3    C7 6559   2.872   3.343  15.915 -0.5064 -0.1307 -0.9909
  436TMC3    C8 6560   3.277   3.416  15.676  0.6581  0.3890  1.1216
  436TMC3    O1 6561   2.792   3.367  16.005 -0.0325 -0.3414 -0.2335
  436TMC3    O2 6562   3.223   3.405  15.567 -0.0722 -0.1005  0.6333
  437TMC3    C1 6563   2.824   0.789  12.042  0.7393  0.0676  0.1161
  437TMC3    C2 6564   2.759   0.875  11.956  0.6454 -0.4902  0.7231
  437TMC3    C3 6565   2.818   0.902  11.841  0.4329  0.8953  0.2071
  437TMC3    C4 6566   2.945   0.732  12.006 -0.7784  0.9187  0.1403
  437TMC3    C5 6567   3.002   0.767  11.891 -0.1631  0.2463  0.3708
  437TMC3    C6 6568   2.939   0.843  11.804 -0.7715 -0.0221  0.9207
  437TMC3     C 6569   2.766   0.756  12.172  0.8300 -0.9904 -0.2370
  437TMC3     O 6570   2.672   0.825  12.204  0.1996 -0.3732  0.2138
  437TMC3     H 6571   2.658   0.903  11.982  0.5181  0.5850 -0.9178
  437TMC3    H1 6572   2.999   0.678  12.083  1.3160  2.3053 -0.3524
  437TMC3    H2 6573   2.973   0.851  11.701 -2.4773 -0.8792  0.2859
  437TMC3    C7 6574   3.113   0.695  11.844  0.2131  0.2481  0.4608
  437TMC3    C8 6575   2.752   1.009  11.762  0.1972  0.1361 -0.1138
  437TMC3    O1 6576   3.128   0.682  11.720  1.1755  0.9773  0.2700
  437TMC3    O2 6577   2.647   1.056  11.800  0.2792  0.1232  0.1801
  438MPD2     C 6578   4.415   1.471  16.321  0.0898 -0.2080 -0.6203
  438MPD2    C1 6579   4.463   1.388  16.416  0.0706 -0.0776 -0.0825
  438MPD2    C2 6580   4.425   1.400  16.550  0.1891  0.3461 -0.7023
  438MPD2    C3 6581   4.325   1.484  16.585 -0.4533 -0.5201  0.3108
  438MPD2    C4 6582   4.271   1.568  16.490 -0.2300 -0.0914 -0.2475
  438MPD2    C5 6583   4.325   1.569  16.359 -0.6796  0.1170 -0.1064
  438MPD2     H 6584   4.465   1.321  16.612 -1.0958  0.1319 -0.1425
  438MPD2    H1 6585   4.206   1.643  16.533 -0.2189 -0.6947  0.8022
  438MPD2    H2 6586   4.449   1.460  16.218  1.0423 -0.0698 -0.3187
  438MPD2    H3 6587   4.289   1.632  16.278 -1.8133  1.5137  1.4891
  438MPD2     N 6588   4.284   1.490  16.721  0.0336  0.4017  0.3639
  438MPD2    H5 6589   4.217   1.564  16.744 -0.9334 -0.4483  0.2715
  438MPD2    N1 6590   4.565   1.296  16.396  0.2315  0.0423  0.0901
  438MPD2    H7 6591   4.590   1.238  16.475  0.2581  3.2923  2.4633
  439TMC3    C1 6592   0.005   1.196  16.297  0.6450 -1.0226 -0.0902
  439TMC3    C2 6593   0.033   1.124  16.183 -0.7918 -0.0510  0.3431
  439TMC3    C3 6594   0.094   1.006  16.202  0.1338  0.1994  0.6012
  439TMC3    C4 6595   0.026   1.142  16.421  0.1827  0.0846  0.2632
  439TMC3    C5 6596   0.097   1.024  16.428 -0.3818  0.2829 -0.2131
  439TMC3    C6 6597   0.126   0.953  16.322 -0.0012  0.3854 -0.2066
  439TMC3     C 6598   4.639   1.286  16.279  0.8719  0.3938 -0.1243
  439TMC3     O 6599   4.605   1.316  16.168 -0.2974  0.6391 -0.0627
  439TMC3     H 6600   4.734   1.154  16.088 -0.4580  0.3729  0.3343
  439TMC3    H1 6601   4.740   1.184  16.517  1.5665  0.4406  0.5066
  439TMC3    H2 6602   0.172   0.855  16.324  1.5788  1.1024 -1.1276
  439TMC3    C7 6603   0.098   0.949  16.561 -0.4638 -0.2228 -0.2135
  439TMC3    C8 6604   0.130   0.927  16.086 -0.2464  0.2456  0.0578
  439TMC3    O1 6605   4.738   0.967  16.629  0.1776 -0.5932 -0.3462
  439TMC3    O2 6606   0.128   0.808  16.102  0.7557  0.4966  0.2101
  440MPD2     C 6607   3.800   1.156  14.824 -0.1415 -0.1703  0.3424
  440MPD2    C1 6608   3.846   1.226  14.937  0.5888  0.7525 -0.7434
  440MPD2    C2 6609   3.979   1.245  14.962  0.1220  0.0946  0.1322
  440MPD2    C3 6610   4.071   1.180  14.889 -0.2831 -0.3944 -0.6153
  440MPD2    C4 6611   4.027   1.115  14.776 -0.1996 -0.2060 -0.6400
  440MPD2    C5 6612   3.896   1.105  14.744 -0.2247  0.1445  0.2324
  440MPD2     H 6613   4.003   1.299  15.053  3.1686 -0.9430 -0.0809
  440MPD2    H1 6614   4.100   1.060  14.717 -1.2537  1.9446 -3.9744
  440MPD2    H2 6615   3.699   1.164  14.786  0.0930 -0.4179 -0.3306
  440MPD2    H3 6616   3.856   1.063  14.652 -0.3639 -1.0581  0.8359
  440MPD2     N 6617   4.205   1.172  14.935  0.0740 -0.1983 -0.3427
  440MPD2    H5 6618   4.269   1.106  14.891 -1.5067 -1.1620 -1.1598
  440MPD2    N1 6619   3.749   1.283  15.025  0.4040  0.2747 -0.4923
  440MPD2    H7 6620   3.787   1.332  15.105  0.6607 -1.6164  0.5381
  441TMC3    C1 6621   4.346   1.170  15.125  0.9694 -0.6410  0.0779
  441TMC3    C2 6622   4.385   1.245  15.230  0.2053  0.1297 -0.0383
  441TMC3    C3 6623   4.392   1.191  15.351  0.8258 -0.1775  1.0242
  441TMC3    C4 6624   4.309   1.038  15.144 -0.6039 -0.5264 -0.1569
  441TMC3    C5 6625   4.293   0.991  15.276  0.9956 -0.4091  0.0546
  441TMC3    C6 6626   4.348   1.065  15.377 -0.9583  0.0427  0.0268
  441TMC3     C 6627   4.249   1.240  15.045  0.0776 -0.1668 -0.2732
  441TMC3     O 6628   4.211   1.347  15.093 -0.1721 -0.6775  0.1558
  441TMC3     H 6629   4.426   1.341  15.203  0.8327 -0.9334 -2.8326
  441TMC3    H1 6630   4.266   0.985  15.060  1.8350  1.1844 -2.4827
  441TMC3    H2 6631   4.361   1.025  15.476  1.0188  0.4306 -0.0661
  441TMC3    C7 6632   4.168   0.935  15.320  0.8329 -0.0158  0.5603
  441TMC3    C8 6633   4.334   1.277  15.447  0.0791  0.3180 -0.0089
  441TMC3    O1 6634   4.137   0.954  15.439  0.0016  0.1971 -0.0021
  441TMC3    O2 6635   4.370   1.269  15.566 -0.0306 -0.5527 -0.0447
  442MPD2     C 6636   1.864   1.992  16.294  0.0893  0.6704 -0.2689
  442MPD2    C1 6637   1.734   1.930  16.313 -0.4067 -0.6514  0.2775
  442MPD2    C2 6638   1.705   1.824  16.229 -0.2435 -0.3717  0.3582
  442MPD2    C3 6639   1.795   1.785  16.132  0.1064  0.1226  0.6479
  442MPD2    C4 6640   1.919   1.835  16.121  0.7429  0.2914 -0.7935
  442MPD2    C5 6641   1.950   1.944  16.195 -0.1271  0.2481  0.3840
  442MPD2     H 6642   1.612   1.775  16.253 -0.4702  1.2839  2.8721
  442MPD2    H1 6643   1.990   1.796  16.050  1.2741 -1.6566  0.8151
  442MPD2    H2 6644   1.896   2.076  16.356  1.4455 -0.3864  0.4472
  442MPD2    H3 6645   2.049   1.988  16.195  0.2367 -0.5715  1.2992
  442MPD2     N 6646   1.759   1.682  16.045 -0.8476 -0.1413 -0.7096
  442MPD2    H5 6647   1.826   1.673  15.970 -0.8954  0.3355 -0.8096
  442MPD2    N1 6648   1.652   1.983  16.417  0.3214 -0.1126  0.1289
  442MPD2    H7 6649   1.570   1.927  16.438 -0.5069  1.0966  0.1350
  443TMC3    C1 6650   1.556   2.140  16.560  0.5792 -0.9423 -0.3002
  443TMC3    C2 6651   1.514   2.265  16.550 -0.0314  0.4089  0.9575
  443TMC3    C3 6652   1.414   2.313  16.625 -0.0257 -0.2526 -0.0842
  443TMC3    C4 6653   1.500   2.047  16.646 -0.6064  0.2319 -0.9396
  443TMC3    C5 6654   1.402   2.097  16.726  0.0842 -0.0477 -1.0206
  443TMC3    C6 6655   1.357   2.227  16.718  0.3373 -0.0710 -0.1623
  443TMC3     C 6656   1.675   2.109  16.486 -0.7734 -0.1798 -0.2960
  443TMC3     O 6657   1.753   2.199  16.466 -0.5134 -0.0746  0.2741
  443TMC3     H 6658   1.548   2.331  16.471  0.7236  0.3871  1.2690
  443TMC3    H1 6659   1.511   1.939  16.641 -1.8930 -0.0124  1.4043
  443TMC3    H2 6660   1.270   2.257  16.775 -0.9494 -0.0576 -2.1259
  443TMC3    C7 6661   1.307   1.999  16.780  0.0464  0.1227 -0.5845
  443TMC3    C8 6662   1.327   2.388  16.542  0.6680  0.1238 -0.0462
  443TMC3    O1 6663   1.307   1.893  16.718  0.3843 -0.7296 -0.0689
  443TMC3    O2 6664   1.370   2.502  16.532 -0.1354  0.0763 -0.4464
  444MPD2     C 6665   1.726   1.863  16.818 -0.0602  0.7660  0.3537
  444MPD2    C1 6666   1.641   1.754  16.803 -0.0790 -0.1343 -1.3359
  444MPD2    C2 6667   1.658   1.664  16.700  0.2035  0.1934 -0.5652
  444MPD2    C3 6668   1.767   1.673  16.620  0.0194  0.3709 -0.0838
  444MPD2    C4 6669   1.847   1.784  16.629  0.3628 -0.4425 -0.3681
  444MPD2    C5 6670   1.819   1.879  16.726 -0.5017 -0.4908 -0.1722
  444MPD2     H 6671   1.585   1.584  16.690  1.3665 -1.0489  0.8230
  444MPD2    H1 6672   1.939   1.801  16.573 -0.3452 -1.2753 -1.7767
  444MPD2    H2 6673   1.718   1.940  16.894  0.0019  1.2975 -0.1732
  444MPD2    H3 6674   1.879   1.968  16.714  0.5851 -1.4337 -1.8167
  444MPD2     N 6675   1.796   1.562  16.533 -0.1410  0.2672  0.0856
  444MPD2    H5 6676   1.726   1.489  16.535 -1.7158  1.7587 -0.5408
  444MPD2    N1 6677   1.541   1.724  16.896  0.2864  0.0924 -0.2504
  444MPD2    H7 6678   1.490   1.639  16.876 -0.4416  0.8359 -1.5663
  445TMC3    C1 6679   1.925   1.419  16.397  1.0211  0.1286 -1.2905
  445TMC3    C2 6680   1.806   1.368  16.346  0.0861  0.1945  0.8506
  445TMC3    C3 6681   1.817   1.276  16.240 -0.7558  0.1217 -0.2667
  445TMC3    C4 6682   2.049   1.374  16.345 -0.1534 -0.8381  0.9639
  445TMC3    C5 6683   2.050   1.285  16.239 -0.2725  0.5759 -0.4168
  445TMC3    C6 6684   1.937   1.229  16.196  0.1743  0.2499  0.3933
  445TMC3     C 6685   1.923   1.536  16.485  0.2115 -0.1871  0.9910
  445TMC3     O 6686   2.034   1.589  16.512 -0.8019 -0.2490 -0.0124
  445TMC3     H 6687   1.712   1.395  16.392 -2.0812  0.6248 -3.8110
  445TMC3    H1 6688   2.144   1.409  16.383 -1.6310  3.8951  0.3417
  445TMC3    H2 6689   1.929   1.167  16.107 -1.0880 -0.0876  0.7484
  445TMC3    C7 6690   2.181   1.223  16.218  0.3170  0.0939 -0.7459
  445TMC3    C8 6691   1.700   1.193  16.211 -0.5301  0.1379  0.2001
  445TMC3    O1 6692   2.274   1.285  16.254  0.2245 -0.4432  0.1929
  445TMC3    O2 6693   1.712   1.072  16.182 -0.2808  0.7222  0.0683
  446MPD2     C 6694   2.399   1.825  11.509 -0.3125  0.2481 -0.4051
  446MPD2    C1 6695   2.349   1.896  11.401  0.0384 -0.4513  0.4335
  446MPD2    C2 6696   2.429   1.999  11.348 -0.3521 -0.4909  0.9502
  446MPD2    C3 6697   2.555   2.019  11.393  0.6505  0.1523 -0.1039
  446MPD2    C4 6698   2.605   1.945  11.495  0.0508  0.1278 -0.2152
  446MPD2    C5 6699   2.520   1.849  11.558 -0.7220  0.3453 -0.4269
  446MPD2     H 6700   2.384   2.057  11.268  2.6700  0.2369 -0.2299
  446MPD2    H1 6701   2.700   1.958  11.545 -0.4209  1.0405  0.4584
  446MPD2    H2 6702   2.347   1.743  11.557 -0.4856  0.7200  0.2186
  446MPD2    H3 6703   2.560   1.799  11.646  0.1601  0.2593 -0.8815
  446MPD2     N 6704   2.639   2.112  11.325 -0.1383  0.4260 -0.0545
  446MPD2    H5 6705   2.592   2.188  11.277  2.2612  2.1772  0.3659
  446MPD2    N1 6706   2.223   1.877  11.341  0.2735  0.3888 -0.1047
  446MPD2    H7 6707   2.198   1.945  11.270 -2.2343 -0.0811  0.3611
  447TMC3    C1 6708   2.827   2.230  11.252  0.5940  0.1332  0.9221
  447TMC3    C2 6709   2.769   2.272  11.138 -0.6562  0.1402  0.5185
  447TMC3    C3 6710   2.827   2.374  11.063  0.1156  0.0711 -0.5420
  447TMC3    C4 6711   2.959   2.266  11.269  0.3436  0.2356  0.2367
  447TMC3    C5 6712   3.024   2.360  11.189  0.0006  0.4934 -0.0631
  447TMC3    C6 6713   2.954   2.418  11.083 -0.0793  0.1517 -0.4859
  447TMC3     C 6714   2.775   2.116  11.323 -0.8417 -0.1482 -0.4938
  447TMC3     O 6715   2.854   2.029  11.358 -0.0504 -0.4954 -1.0103
  447TMC3     H 6716   2.669   2.233  11.123 -0.6839  0.7839 -1.0992
  447TMC3    H1 6717   3.013   2.220  11.351 -2.0720  0.0938  1.7546
  447TMC3    H2 6718   3.000   2.494  11.020  0.2482  2.1576  2.1939
  447TMC3    C7 6719   3.171   2.354  11.172 -0.1033 -0.7616  0.6170
  447TMC3    C8 6720   2.744   2.427  10.956  0.1556  0.4823  0.0956
  447TMC3    O1 6721   3.212   2.404  11.066  0.1161 -0.3258 -0.4284
  447TMC3    O2 6722   2.677   2.344  10.897 -0.3950  0.1623  0.0021
  448TMC3    C1 6723   4.265   2.472  16.776 -0.3767  1.0214  0.2165
  448TMC3    C2 6724   4.258   2.433  16.648 -0.1723 -0.4435 -0.2804
  448TMC3    C3 6725   4.320   2.310  16.616 -0.0997  0.0980  0.7628
  448TMC3    C4 6726   4.349   2.413  16.867  0.1323 -0.6441  0.1737
  448TMC3    C5 6727   4.414   2.303  16.824  0.4807  0.5421  0.9376
  448TMC3    C6 6728   4.395   2.243  16.705  0.2709 -0.3722 -0.4609
  448TMC3     C 6729   4.218   2.602  16.806  0.1348  0.1115 -0.0349
  448TMC3     O 6730   4.189   2.668  16.708  0.0509  0.4914  0.6352
  448TMC3     H 6731   4.192   2.490  16.583  0.8381 -0.3583 -1.2225
  448TMC3    H1 6732   4.372   2.459  16.963 -0.0235  1.6012 -0.8667
  448TMC3    H2 6733   4.436   2.147  16.674 -3.7595 -2.5235  0.7600
  448TMC3    C7 6734   4.483   2.217  16.917 -0.3496  0.6915  0.1691
  448TMC3    C8 6735   4.308   2.242  16.488  0.0956  0.0455 -0.8835
  448TMC3    O1 6736   4.556   2.134  16.868  0.1682  0.0385 -0.2496
  448TMC3    O2 6737   4.316   2.121  16.487 -0.7096  0.0911  0.6047
  449MPD2     C 6738   1.905   0.835  13.540 -0.9360  0.3472 -0.8704
  449MPD2    C1 6739   1.789   0.864  13.479  0.6192 -0.8784 -0.8054
  449MPD2    C2 6740   1.674   0.780  13.484 -0.3382 -0.1725  0.1605
  449MPD2    C3 6741   1.692   0.657  13.548 -0.3994 -0.1022 -0.2780
  449MPD2    C4 6742   1.810   0.618  13.602 -0.0692 -0.1859  0.7104
  449MPD2    C5 6743   1.919   0.709  13.597 -0.6854  0.7428  0.1830
  449MPD2     H 6744   1.578   0.812  13.446  0.7362  0.6691 -1.8614
  449MPD2    H1 6745   1.824   0.523  13.651  1.1883 -0.7542 -0.7675
  449MPD2    H2 6746   1.985   0.908  13.545 -0.3579 -0.2638 -1.1871
  449MPD2    H3 6747   2.017   0.678  13.631 -0.0731  1.2937 -1.0489
  449MPD2     N 6748   1.578   0.574  13.539  0.1988  1.0350 -0.6324
  449MPD2    H5 6749   1.510   0.620  13.479 -1.9764  0.7845  1.6809
  449MPD2    N1 6750   1.764   0.977  13.400  0.0793 -0.0864  0.5396
  449MPD2    H7 6751   1.667   0.990  13.373  0.6523  1.0111 -0.9999
  450TMC3    C1 6752   1.806   1.158  13.272  0.0731  0.1703 -0.4806
  450TMC3    C2 6753   1.856   1.154  13.146  0.5644  0.2629 -0.7014
  450TMC3    C3 6754   1.766   1.168  13.047  0.5549 -0.5487  0.5534
  450TMC3    C4 6755   1.669   1.176  13.295 -0.2713  0.7447  1.0387
  450TMC3    C5 6756   1.581   1.189  13.185 -0.3726 -0.7259  0.6494
  450TMC3    C6 6757   1.631   1.198  13.057  0.7137 -0.1688 -0.2291
  450TMC3     C 6758   1.865   1.057  13.351 -0.8332  0.4769 -0.2702
  450TMC3     O 6759   1.983   1.030  13.331  0.3751 -0.4982 -0.3257
  450TMC3     H 6760   1.964   1.164  13.134  0.3138  1.3539 -2.1424
  450TMC3    H1 6761   1.631   1.202  13.393 -0.0869  3.0118  0.5047
  450TMC3    H2 6762   1.566   1.201  12.970  0.3539  1.3843  0.0916
  450TMC3    C7 6763   1.480   1.091  13.209 -0.2859 -0.2162  0.1115
  450TMC3    C8 6764   1.820   1.153  12.910 -0.5952  0.3749  0.6702
  450TMC3    O1 6765   1.501   1.023  13.306  0.2344 -0.8304  0.2969
  450TMC3    O2 6766   1.742   1.197  12.823  0.4835 -0.3437 -0.5336
  451MPD2     C 6767   3.299   0.423   0.513 -0.2917  0.2693 -0.2554
  451MPD2    C1 6768   3.223   0.315   0.545 -0.7787  0.3253 -0.7760
  451MPD2    C2 6769   3.274   0.180   0.524  0.0421 -0.2474  0.4837
  451MPD2    C3 6770   3.398   0.165   0.457 -0.1930 -0.0103  0.7552
  451MPD2    C4 6771   3.460   0.280   0.422  0.2382  0.1025 -0.2789
  451MPD2    C5 6772   3.422   0.405   0.451  0.1835 -0.4884 -0.4743
  451MPD2     H 6773   3.218   0.094   0.559 -0.8876  0.0260 -0.3243
  451MPD2    H1 6774   3.547   0.279   0.358  1.4498 -0.1096  1.3782
  451MPD2    H2 6775   3.262   0.520   0.543  3.2687  0.3850  3.8248
  451MPD2    H3 6776   3.488   0.489   0.429 -2.0997  1.2750 -0.5495
  451MPD2     N 6777   3.464   0.042   0.424  0.1130 -0.3463  0.5519
  451MPD2    H5 6778   3.546   0.049   0.365 -0.1116 -0.9282  0.1621
  451MPD2    N1 6779   3.100   0.337   0.613 -0.0627 -0.0287  0.4296
  451MPD2    H7 6780   3.072   0.435   0.617  0.6121  0.1606  0.5363
  452TMC3    C1 6781   3.469   4.543   0.377  0.0510  0.5045 -0.3596
  452TMC3    C2 6782   3.443   4.420   0.428  0.0461  0.0232  0.2244
  452TMC3    C3 6783   3.460   4.311   0.352  0.1208 -0.1091 -0.2330
  452TMC3    C4 6784   3.499   4.557   0.244 -0.2416 -0.1282  0.5498
  452TMC3    C5 6785   3.508   4.443   0.170  0.6221 -0.4562  0.5105
  452TMC3    C6 6786   3.489   4.317   0.220 -0.5041 -0.1966 -0.1444
  452TMC3     C 6787   3.415   4.658   0.452 -0.2817 -0.8585 -0.1088
  452TMC3     O 6788   3.322   4.631   0.528 -0.4023  0.0725 -0.0043
  452TMC3     H 6789   3.434   4.412   0.535  1.7239  2.0683  0.5295
  452TMC3    H1 6790   3.499   4.649   0.187  1.1732 -1.1188 -1.0345
  452TMC3    H2 6791   3.479   4.237   0.147  0.3961 -0.4101 -0.0375
  452TMC3    C7 6792   3.557   4.468   0.031  0.5288  0.0468 -0.3604
  452TMC3    C8 6793   3.383   4.194   0.383 -0.2077  0.3146 -0.7095
  452TMC3    O1 6794   3.568   4.585  17.765  0.1804 -0.0174 -0.6632
  452TMC3    O2 6795   3.417   4.094   0.324  0.6060 -0.1677  0.3156
  453TMC3    C1 6796   4.390   1.900  11.959 -0.0379 -0.6898  0.5427
  453TMC3    C2 6797   4.342   1.775  11.944 -0.7238  0.1119 -0.3676
  453TMC3    C3 6798   4.260   1.749  11.834  0.4634  0.2844 -0.1465
  453TMC3    C4 6799   4.369   1.995  11.863 -0.1057 -0.5148 -0.2855
  453TMC3    C5 6800   4.281   1.971  11.761  0.8098 -0.4066  0.1439
  453TMC3    C6 6801   4.229   1.845  11.744  0.3370  0.5590  0.1924
  453TMC3     C 6802   4.478   1.933  12.062 -0.4658 -0.0124 -0.6617
  453TMC3     O 6803   4.565   2.010  12.024 -1.0008 -0.0149 -0.8321
  453TMC3     H 6804   4.350   1.695  12.017 -0.4169  2.0442  1.7197
  453TMC3    H1 6805   4.406   2.097  11.873  1.5080 -1.1123 -0.1690
  453TMC3    H2 6806   4.164   1.833  11.658  1.2120  1.8214 -0.6617
  453TMC3    C7 6807   4.268   2.066  11.648  0.1735 -0.1738 -0.0219
  453TMC3    C8 6808   4.211   1.621  11.803 -0.3567  0.2120  0.1088
  453TMC3    O1 6809   4.192   2.030  11.557 -0.9400  0.0397 -0.0257
  453TMC3    O2 6810   4.115   1.608  11.727  0.4811 -1.0176 -0.0471
  454MPD2     C 6811   2.780   1.191  15.758  0.4229 -0.2176 -0.0668
  454MPD2    C1 6812   2.681   1.252  15.678 -0.2229  0.8023 -0.4192
  454MPD2    C2 6813   2.637   1.377  15.719 -0.6031 -0.1967 -0.2907
  454MPD2    C3 6814   2.659   1.430  15.849 -0.8529  0.5451 -0.2870
  454MPD2    C4 6815   2.744   1.352  15.929  0.5364  0.1660  0.0052
  454MPD2    C5 6816   2.811   1.246  15.879  0.1775 -0.7947 -0.1052
  454MPD2     H 6817   2.562   1.427  15.658  0.2005 -1.3305 -2.2074
  454MPD2    H1 6818   2.771   1.375  16.031 -0.1412 -0.7522  0.3832
  454MPD2    H2 6819   2.831   1.106  15.715  1.4372  0.2302  0.2462
  454MPD2    H3 6820   2.897   1.201  15.927  0.5307 -0.3850 -0.3437
  454MPD2     N 6821   2.606   1.545  15.904  0.2356  0.3422  0.5816
  454MPD2    H5 6822   2.606   1.544  16.005  0.2912  0.4062  0.5816
  454MPD2    N1 6823   2.644   1.200  15.554  0.2990 -0.5645 -0.2923
  454MPD2    H7 6824   2.599   1.257  15.483 -0.4032 -3.1945 -1.9759
  455TMC3    C1 6825   2.425   1.683  15.902  0.1912 -0.0288 -0.1265
  455TMC3    C2 6826   2.433   1.723  16.034 -0.2739 -0.2916  0.1624
  455TMC3    C3 6827   2.331   1.690  16.121  0.1190  0.3612 -0.3490
  455TMC3    C4 6828   2.322   1.596  15.862  0.1314  0.4850 -0.2871
  455TMC3    C5 6829   2.233   1.556  15.951 -0.1261  0.2656  0.0186
  455TMC3    C6 6830   2.232   1.602  16.083  0.2116  0.4919  0.6119
  455TMC3     C 6831   2.547   1.642  15.833 -0.3427 -0.3605 -0.1269
  455TMC3     O 6832   2.556   1.655  15.711  0.2009 -0.0129  0.5216
  455TMC3     H 6833   2.514   1.791  16.060 -0.9571  0.4213  0.4364
  455TMC3    H1 6834   2.335   1.555  15.763  0.2382 -0.8937  0.2952
  455TMC3    H2 6835   2.170   1.554  16.157  2.5309 -0.7361  1.7688
  455TMC3    C7 6836   2.191   1.420  15.930  0.0030 -0.8335 -0.1548
  455TMC3    C8 6837   2.309   1.760  16.246  0.6881 -0.6127  0.4475
  455TMC3    O1 6838   2.076   1.385  15.918 -0.4137 -0.0239  0.1212
  455TMC3    O2 6839   2.236   1.706  16.323 -0.0957  0.0374 -0.1912
  456MPD2     C 6840   0.377   1.751  15.428  0.1950 -0.2649 -0.2295
  456MPD2    C1 6841   0.378   1.640  15.509 -0.4289  0.6787  0.0226
  456MPD2    C2 6842   0.300   1.635  15.617 -0.4850 -0.8356 -0.4120
  456MPD2    C3 6843   0.213   1.740  15.642  0.0148  0.6948  0.7790
  456MPD2    C4 6844   0.202   1.846  15.552 -0.4989 -0.2273 -0.2093
  456MPD2    C5 6845   0.284   1.849  15.442  0.2565 -0.5901 -0.4201
  456MPD2     H 6846   0.294   1.547  15.679 -3.9267 -0.2971  0.0146
  456MPD2    H1 6847   0.141   1.936  15.561  0.0190 -0.2591  3.7418
  456MPD2    H2 6848   0.424   1.738  15.330  1.1609 -1.8071  0.4383
  456MPD2    H3 6849   0.271   1.925  15.366  0.3226  1.7336  1.8835
  456MPD2     N 6850   0.128   1.734  15.757  0.6649  0.6665 -0.1813
  456MPD2    H5 6851   0.125   1.648  15.810 -1.7670  1.2069  0.5227
  456MPD2    N1 6852   0.463   1.535  15.468  0.3338  0.4951 -0.5262
  456MPD2    H7 6853   0.505   1.538  15.376 -1.2837  1.3943 -1.2428
  457TMC3    C1 6854   4.723   1.792  15.926  0.6662  0.4668 -0.5620
  457TMC3    C2 6855   4.613   1.861  15.952 -0.0670 -0.2003  0.2049
  457TMC3    C3 6856   4.539   1.827  16.062 -0.0899  0.3612  0.0322
  457TMC3    C4 6857   0.033   1.693  16.012 -0.4353  1.1339 -0.1501
  457TMC3    C5 6858   4.704   1.667  16.127 -0.2740 -0.1080 -0.8828
  457TMC3    C6 6859   4.590   1.735  16.148  0.1528 -0.4122 -0.4898
  457TMC3     C 6860   0.053   1.835  15.815  0.7715  0.0174 -0.0468
  457TMC3     O 6861   0.036   1.949  15.770  0.3629  0.2836 -0.4410
  457TMC3     H 6862   4.579   1.947  15.896 -1.2904  1.1129  2.9391
  457TMC3    H1 6863   0.135   1.662  15.995 -0.5418  0.4245  0.5447
  457TMC3    H2 6864   4.538   1.713  16.240  1.0322  0.9037  0.3357
  457TMC3    C7 6865   0.024   1.589  16.237  0.7697  0.8917  0.3794
  457TMC3    C8 6866   4.443   1.914  16.116 -0.5482  0.1111 -0.0481
  457TMC3    O1 6867   4.734   1.615  16.354 -0.6106 -0.3904 -0.0832
  457TMC3    O2 6868   4.402   1.887  16.232  0.2197 -0.1441 -0.2060
  458MPD2     C 6869   3.530   0.401  11.919  0.0354 -0.6822 -0.2368
  458MPD2    C1 6870   3.475   0.437  12.044 -0.0730  0.3642  0.4431
  458MPD2    C2 6871   3.359   0.511  12.043 -0.1192  0.6228 -0.3707
  458MPD2    C3 6872   3.295   0.552  11.929  0.5717 -0.0384 -0.1899
  458MPD2    C4 6873   3.348   0.509  11.809 -0.2853  0.2655  0.1090
  458MPD2    C5 6874   3.465   0.428  11.804  0.5957  0.6406 -0.8995
  458MPD2     H 6875   3.318   0.539  12.139  0.0839 -1.1204  0.2323
  458MPD2    H1 6876   3.311   0.545  11.713 -0.4105  0.3778  0.2006
  458MPD2    H2 6877   3.618   0.339  11.917  0.9050  0.4870  1.2409
  458MPD2    H3 6878   3.500   0.393  11.707 -1.6372  1.4671 -2.0095
  458MPD2     N 6879   3.189   0.646  11.947  0.1257 -0.1518  0.2458
  458MPD2    H5 6880   3.159   0.668  12.041  1.9769  1.6908  0.4067
  458MPD2    N1 6881   3.539   0.392  12.163  0.0673 -0.7156 -0.6266
  458MPD2    H7 6882   3.633   0.353  12.158  0.2074 -0.5698  0.9342
  459TMC3    C1 6883   3.597   0.402  12.388  0.4101  0.6289  0.6464
  459TMC3    C2 6884   3.727   0.452  12.358  0.2915  0.1384 -0.1617
  459TMC3    C3 6885   3.821   0.446  12.459  0.6886 -0.3276  0.4535
  459TMC3    C4 6886   3.563   0.357  12.517 -0.2918 -0.0827  0.3372
  459TMC3    C5 6887   3.669   0.349  12.609  0.1636  0.1569 -0.2116
  459TMC3    C6 6888   3.798   0.382  12.579  1.0000 -0.0308 -0.4179
  459TMC3     C 6889   3.491   0.411  12.286 -0.1912  0.1129 -0.0157
  459TMC3     O 6890   3.375   0.418  12.319  0.0147  0.7569  0.8008
  459TMC3     H 6891   3.745   0.503  12.264  0.8321  0.3913  0.0821
  459TMC3    H1 6892   3.458   0.342  12.542 -0.6702 -1.2830 -1.9802
  459TMC3    H2 6893   3.861   0.387  12.667  1.1813  0.3545 -0.5681
  459TMC3    C7 6894   3.641   0.309  12.749  0.4929  0.5384  0.0272
  459TMC3    C8 6895   3.925   0.548  12.450  0.3535  0.1201 -0.2938
  459TMC3    O1 6896   3.729   0.238  12.805  0.4436 -0.1699  0.6020
  459TMC3    O2 6897   3.960   0.592  12.557 -0.4246  0.7568  0.2302
  460MPD2     C 6898   2.686   2.780  10.864  0.5543  0.4671 -0.1298
  460MPD2    C1 6899   2.669   2.641  10.857 -0.4790 -0.0024  0.2038
  460MPD2    C2 6900   2.571   2.588  10.771 -0.1165  0.1806 -0.2747
  460MPD2    C3 6901   2.486   2.672  10.701 -0.0323  0.0815  0.1236
  460MPD2    C4 6902   2.507   2.806  10.698 -0.3473  0.0690  0.5539
  460MPD2    C5 6903   2.605   2.854  10.782 -0.1344 -0.1359 -0.1687
  460MPD2     H 6904   2.533   2.487  10.769  0.8569 -0.1728 -0.8100
  460MPD2    H1 6905   2.459   2.885  10.640  1.2345  0.9939  0.5176
  460MPD2    H2 6906   2.763   2.828  10.923 -0.0869 -0.0699  1.1506
  460MPD2    H3 6907   2.614   2.962  10.788 -1.4937 -0.0807  0.8276
  460MPD2     N 6908   2.384   2.619  10.618  0.4798 -0.3260 -0.0192
  460MPD2    H5 6909   2.371   2.518  10.619  1.4199 -0.4383  1.1325
  460MPD2    N1 6910   2.742   2.572  10.948 -0.5470 -0.0148  0.0391
  460MPD2    H7 6911   2.806   2.615  11.014  2.3823 -3.0228 -0.8371
  461TMC3    C1 6912   2.195   2.615  10.463 -0.5981 -0.3491  0.2740
  461TMC3    C2 6913   2.250   2.525  10.377  0.6222 -0.5737 -0.1641
  461TMC3    C3 6914   2.186   2.511  10.253  0.1040 -0.2070  0.0318
  461TMC3    C4 6915   2.093   2.695  10.420 -0.3144  0.0594 -0.2159
  461TMC3    C5 6916   2.062   2.707  10.290 -0.4543  0.1407  0.5992
  461TMC3    C6 6917   2.104   2.607  10.206  0.4282  0.5569 -0.2224
  461TMC3     C 6918   2.286   2.690  10.549  0.0806  0.0889  0.0372
  461TMC3     O 6919   2.277   2.811  10.542  0.5633  0.0464  0.5468
  461TMC3     H 6920   2.318   2.451  10.416  1.6893  0.8788  0.7556
  461TMC3    H1 6921   2.041   2.758  10.492 -0.4090 -0.5790  0.2699
  461TMC3    H2 6922   2.067   2.603  10.105 -0.2830 -0.4400  0.0689
  461TMC3    C7 6923   2.029   2.837  10.234  0.5022 -0.4192  0.3809
  461TMC3    C8 6924   2.223   2.400  10.158 -0.6952 -0.0698  0.3419
  461TMC3    O1 6925   1.985   2.849  10.120 -0.0581  0.5041 -0.5238
  461TMC3    O2 6926   2.313   2.331  10.192 -0.2061 -0.5114  0.0693
  462TMC3    C1 6927   2.410   4.448   0.237  0.0804  0.2620 -0.7764
  462TMC3    C2 6928   2.478   4.370   0.152  0.1860  0.4710  0.8908
  462TMC3    C3 6929   2.470   4.234   0.185  0.8108  0.3447  0.0410
  462TMC3    C4 6930   2.328   4.407   0.336  0.6125 -0.3345 -0.1642
  462TMC3    C5 6931   2.337   4.277   0.372 -0.4214 -0.5204  0.0994
  462TMC3    C6 6932   2.420   4.190   0.307 -0.1481 -0.1494  0.1300
  462TMC3     C 6933   2.395   4.590   0.207 -0.9784  0.4725  0.1791
  462TMC3     O 6934   2.285   4.636   0.231  0.1515  0.0367  0.3424
  462TMC3     H 6935   2.495   4.395   0.048  1.2841 -0.8559  0.7417
  462TMC3    H1 6936   2.265   4.474   0.394  1.5282 -0.1682  0.6420
  462TMC3    H2 6937   2.390   4.086   0.314 -0.2388 -0.0373  1.4835
  462TMC3    C7 6938   2.222   4.205   0.424  0.2722  0.8985 -0.0476
  462TMC3    C8 6939   2.411   4.165   0.067 -0.6266 -0.1441  0.1916
  462TMC3    O1 6940   2.245   4.104   0.492 -0.1004 -0.5159  0.3183
  462TMC3    O2 6941   2.348   4.230  17.751  1.0559  0.7849  0.0835
  463MPD2     C 6942   3.595   2.022   0.965 -0.7172  0.2528  0.0466
  463MPD2    C1 6943   3.488   2.108   0.951  0.0444 -0.2151 -0.5953
  463MPD2    C2 6944   3.508   2.248   0.930 -0.6774 -0.3966  0.6347
  463MPD2    C3 6945   3.640   2.303   0.935 -0.4763 -0.3682  0.3648
  463MPD2    C4 6946   3.745   2.213   0.947 -0.3730  0.3569 -0.0838
  463MPD2    C5 6947   3.720   2.075   0.960 -0.8359 -0.3152  0.1671
  463MPD2     H 6948   3.422   2.311   0.913 -1.1984 -1.2545  0.1396
  463MPD2    H1 6949   3.847   2.249   0.943 -0.7369  1.4063  0.1111
  463MPD2    H2 6950   3.586   1.919   0.997  1.6672 -0.2803 -1.0278
  463MPD2    H3 6951   3.799   2.008   0.990  1.2696  1.8741 -0.4247
  463MPD2     N 6952   3.673   2.436   0.927 -0.0553 -0.0840  0.0547
  463MPD2    H5 6953   3.763   2.464   0.890 -0.7854  0.0292 -1.6083
  463MPD2    N1 6954   3.352   2.063   0.967 -0.0131 -0.6946  0.3566
  463MPD2    H7 6955   3.281   2.135   0.961  1.4637  0.7246 -0.0964
  464TMC3    C1 6956   3.167   1.930   1.028  0.4290 -0.1602  0.0573
  464TMC3    C2 6957   3.097   2.034   1.073 -0.0656  0.0041 -0.0650
  464TMC3    C3 6958   2.962   2.016   1.100 -1.2584  0.8618 -0.4317
  464TMC3    C4 6959   3.108   1.815   0.994 -0.4740  0.4153  0.4514
  464TMC3    C5 6960   2.976   1.801   1.021 -0.4392 -0.1502  0.3035
  464TMC3    C6 6961   2.897   1.902   1.083  0.8403  0.2402  0.1431
  464TMC3     C 6962   3.309   1.936   1.007  0.4959  0.0684  0.1299
  464TMC3     O 6963   3.361   1.827   1.002  0.6238  0.1459  0.4018
  464TMC3     H 6964   3.143   2.132   1.082 -0.9339  0.2376  1.8212
  464TMC3    H1 6965   3.161   1.730   0.952  0.7330 -0.3262  3.5143
  464TMC3    H2 6966   2.789   1.903   1.092  0.9371 -0.6674  1.3461
  464TMC3    C7 6967   2.923   1.668   0.976 -0.3800 -0.5729 -0.3576
  464TMC3    C8 6968   2.882   2.136   1.133 -0.6887  0.2913  0.1294
  464TMC3    O1 6969   2.999   1.603   0.910 -0.2941 -0.2977  0.5061
  464TMC3    O2 6970   2.760   2.120   1.157  0.1945  0.1755  0.8738
  465MPD2     C 6971   3.769   1.413  17.145 -0.0361  0.0052  0.0111
  465MPD2    C1 6972   3.637   1.426  17.135  0.4770 -0.2979 -0.2071
  465MPD2    C2 6973   3.584   1.426  17.012 -0.4506 -0.1170  0.3306
  465MPD2    C3 6974   3.658   1.421  16.895  0.0819  0.0096  0.6630
  465MPD2    C4 6975   3.792   1.415  16.910 -0.1011  0.5562  0.1625
  465MPD2    C5 6976   3.848   1.413  17.034  0.0536 -0.1646  0.0501
  465MPD2     H 6977   3.477   1.417  17.003 -0.3449  1.0558 -2.0451
  465MPD2    H1 6978   3.860   1.420  16.826 -0.5740 -1.1278 -0.3169
  465MPD2    H2 6979   3.834   1.416  17.232  0.4678  2.4377 -0.4552
  465MPD2    H3 6980   3.955   1.398  17.047  0.0354  0.0378  0.4166
  465MPD2     N 6981   3.596   1.426  16.767  0.4499  0.4425 -0.2974
  465MPD2    H5 6982   3.495   1.417  16.762  0.6334 -0.6397 -2.1486
  465MPD2    N1 6983   3.553   1.442  17.250 -0.1551 -0.6990  0.4521
  465MPD2    H7 6984   3.452   1.449  17.245 -0.0358 -1.6406 -2.9515
  466TMC3    C1 6985   3.398   1.385  16.422 -0.0196 -0.5426  0.6772
  466TMC3    C2 6986   3.409   1.497  16.337 -0.1791 -0.2528 -0.4337
  466TMC3    C3 6987   3.514   1.585  16.353  0.0469  0.2655 -0.2052
  466TMC3    C4 6988   3.486   1.370  16.521  0.5178  0.7317  0.2325
  466TMC3    C5 6989   3.582   1.465  16.540 -0.0120 -0.0865  0.0380
  466TMC3    C6 6990   3.597   1.576  16.465  0.1294 -0.8246 -0.4286
  466TMC3     C 6991   3.274   1.327  16.452  0.1847 -0.2268  0.2770
  466TMC3     O 6992   3.172   1.395  16.437 -0.4646 -1.0267 -0.1718
  466TMC3     H 6993   3.340   1.495  16.253 -0.4940  1.0268 -0.1945
  466TMC3    H1 6994   3.469   1.292  16.593 -2.2775  0.6486 -0.5126
  466TMC3    H2 6995   3.677   1.648  16.478  1.2220 -2.3494  1.2961
  466TMC3    C7 6996   3.676   1.449  16.653  0.9205 -0.1441 -0.0893
  466TMC3    C8 6997   3.513   1.719  16.297  0.3090  0.4189  1.0227
  466TMC3    O1 6998   3.787   1.504  16.636 -0.4529  0.3192 -0.3927
  466TMC3    O2 6999   3.594   1.739  16.209  0.0265 -0.1021  0.1475
  467TMC3    C1 7000   0.705   4.502  14.017  0.4758  0.2024 -0.0913
  467TMC3    C2 7001   0.636   4.612  13.991  0.2095 -0.2650 -0.9390
  467TMC3    C3 7002   0.505   4.611  14.022  0.3751  0.0068 -0.1967
  467TMC3    C4 7003   0.667   4.414  14.109  0.9480 -0.6813  0.3636
  467TMC3    C5 7004   0.538   4.423  14.158  0.3640 -0.5556  0.0489
  467TMC3    C6 7005   0.450   4.521  14.109  0.2721 -0.2268 -0.1397
  467TMC3     C 7006   0.845   4.517  13.980  0.5004 -0.0423  0.8622
  467TMC3     O 7007   0.885   4.630  13.952 -0.2375 -0.0747 -0.5080
  467TMC3     H 7008   0.668   4.678  13.911  3.7214  0.3906  0.9877
  467TMC3    H1 7009   0.730   4.329  14.132  2.7288  0.7933  0.8984
  467TMC3    H2 7010   0.345   4.533  14.131 -0.3807 -1.1725 -2.7413
  467TMC3    C7 7011   0.494   4.315  14.246 -0.1462 -0.4799 -0.9062
  467TMC3    C8 7012   0.425   4.692  13.932 -0.1220  0.1195  0.6216
  467TMC3    O1 7013   0.576   4.234  14.286  0.0152 -0.1150  0.2325
  467TMC3    O2 7014   0.480   0.059  13.897 -0.3772  0.1987  0.3881
  468MPD2     C 7015   4.619   2.247  10.747 -0.8411  0.3792  0.7296
  468MPD2    C1 7016   4.660   2.315  10.860 -0.2553 -0.3053 -0.0889
  468MPD2    C2 7017   4.618   2.278  10.983  0.2103  0.5959  0.0531
  468MPD2    C3 7018   4.542   2.162  11.002  0.3963  0.5587  0.1826
  468MPD2    C4 7019   4.509   2.090  10.889  0.4867  0.2630 -0.1725
  468MPD2    C5 7020   4.545   2.131  10.763  0.2197 -0.3532 -0.6583
  468MPD2     H 7021   4.641   2.349  11.061 -0.1960  0.1263  0.5989
  468MPD2    H1 7022   4.469   1.993  10.916 -2.2625  1.3016 -0.5097
  468MPD2    H2 7023   4.657   2.268  10.648 -2.0776 -1.3393 -0.0921
  468MPD2    H3 7024   4.520   2.072  10.675 -0.3535 -0.1888 -0.6085
  468MPD2     N 7025   4.512   2.100  11.131 -1.0378  0.9694 -0.1094
  468MPD2    H5 7026   4.454   2.017  11.128 -1.5084  1.3210 -0.7686
  468MPD2    N1 7027   0.008   2.422  10.859  0.1410  0.0639  0.3000
  468MPD2    H7 7028   0.041   2.458  10.948  0.6384  3.2413 -1.1799
  469TMC3    C1 7029   0.177   2.566  10.789  0.4376  0.2103  0.0868
  469TMC3    C2 7030   0.253   2.527  10.898  0.4513  0.0704 -0.3637
  469TMC3    C3 7031   0.342   2.618  10.944 -0.0172  0.3336  0.0499
  469TMC3    C4 7032   0.183   2.697  10.731 -0.1809 -0.2090 -0.3319
  469TMC3    C5 7033   0.275   2.782  10.778 -0.1133 -0.4278 -0.0737
  469TMC3    C6 7034   0.357   2.744  10.884 -0.2555  0.3486  0.0783
  469TMC3     C 7035   0.057   2.492  10.750  0.8615 -0.0288  0.1414
  469TMC3     O 7036   0.034   2.482  10.629 -0.3416  0.1738 -0.2922
  469TMC3     H 7037   0.243   2.425  10.933  0.7788 -0.1465 -0.9067
  469TMC3    H1 7038   0.111   2.728  10.657  0.3572  0.6497 -0.4882
  469TMC3    H2 7039   0.428   2.817  10.919  0.2384  0.3054 -0.8304
  469TMC3    C7 7040   0.250   2.920  10.761 -0.0917  0.7962  0.0373
  469TMC3    C8 7041   0.443   2.586  11.044  0.1205 -0.4652  0.0464
  469TMC3    O1 7042   0.350   2.991  10.761  0.7987  0.1140  0.3150
  469TMC3    O2 7043   0.523   2.674  11.071  0.1948 -0.0448  0.1051
  470TMC3    C1 7044   1.204   3.759   0.267 -0.4119  0.3013  0.3227
  470TMC3    C2 7045   1.234   3.892   0.284 -0.0787 -0.2935 -0.2058
  470TMC3    C3 7046   1.309   3.925   0.396 -0.3049 -0.4103 -0.3281
  470TMC3    C4 7047   1.198   3.672   0.374 -0.4912 -0.0833 -0.2227
  470TMC3    C5 7048   1.269   3.713   0.486 -0.1390 -0.4913 -0.0175
  470TMC3    C6 7049   1.329   3.840   0.498 -0.0066  0.4831  0.0357
  470TMC3     C 7050   1.152   3.716   0.141 -0.3301 -0.2090 -0.3892
  470TMC3     O 7051   1.078   3.621   0.131  0.6724 -0.5670  0.3204
  470TMC3     H 7052   1.215   3.960   0.201  0.9708  1.5161  1.0155
  470TMC3    H1 7053   1.189   3.565   0.365 -0.8233 -0.0922  0.2302
  470TMC3    H2 7054   1.409   3.861   0.568  0.6479 -0.4609 -0.4324
  470TMC3    C7 7055   1.353   3.609   0.543 -0.0653  0.2933  0.2404
  470TMC3    C8 7056   1.312   4.060   0.447 -0.5840 -0.1661  0.8555
  470TMC3    O1 7057   1.419   3.528   0.478 -0.2371  0.2918  0.0387
  470TMC3    O2 7058   1.334   4.082   0.563 -0.2374  0.3921 -0.0031
  471MPD2     C 7059   1.689   0.407  16.799 -0.0408 -0.4235  0.1686
  471MPD2    C1 7060   1.749   0.288  16.770 -0.4659 -0.0151 -0.8893
  471MPD2    C2 7061   1.807   0.218  16.872  0.3784  0.1041  0.2255
  471MPD2    C3 7062   1.824   0.261  17.001 -0.1250 -0.0207  1.1257
  471MPD2    C4 7063   1.760   0.382  17.025  1.1982  0.4312  0.3258
  471MPD2    C5 7064   1.703   0.458  16.930 -0.1538  0.0096 -0.3386
  471MPD2     H 7065   1.854   0.124  16.846 -0.4755 -0.6746  1.4892
  471MPD2    H1 7066   1.775   0.413  17.127 -1.1323  1.9010  0.2161
  471MPD2    H2 7067   1.630   0.463  16.727  0.7471  0.7312  0.4313
  471MPD2    H3 7068   1.648   0.546  16.961  1.3977  0.8998 -0.1021
  471MPD2     N 7069   1.882   0.168  17.095 -0.4973  0.2847  0.0024
  471MPD2    H5 7070   1.904   0.073  17.067  0.5001  0.3794  0.4609
  471MPD2    N1 7071   1.741   0.221  16.645  0.4717 -0.3117 -0.0135
  471MPD2    H7 7072   1.793   0.135  16.628 -0.0912 -0.2848 -1.8526
  472TMC3    C1 7073   1.644   0.157  16.444  0.0702 -0.8284  0.4691
  472TMC3    C2 7074   1.518   0.163  16.395  0.4818 -0.0383 -0.0230
  472TMC3    C3 7075   1.466   0.044  16.337  0.3885 -0.0533  0.2276
  472TMC3    C4 7076   1.702   0.034  16.455  0.3107  0.4278 -0.1058
  472TMC3    C5 7077   1.653   4.667  16.394 -0.2413  0.1454 -0.4947
  472TMC3    C6 7078   1.532   4.667  16.325  0.3194 -0.3388  0.5841
  472TMC3     C 7079   1.663   0.260  16.540 -0.4414  0.2928 -0.1719
  472TMC3     O 7080   1.590   0.355  16.526 -0.2245  0.0634 -0.0932
  472TMC3     H 7081   1.455   0.251  16.397 -2.9720 -2.4878 -0.4463
  472TMC3    H1 7082   1.798   0.020  16.504 -0.6653 -1.7503  1.1912
  472TMC3    H2 7083   1.487   4.584  16.271  2.9599 -0.6897 -1.0400
  472TMC3    C7 7084   1.721   4.539  16.416 -0.7689 -0.1267 -0.2480
  472TMC3    C8 7085   1.332   0.057  16.273  0.5567  0.1235  0.4231
  472TMC3    O1 7086   1.784   4.539  16.524  0.3660 -0.3291 -0.3293
  472TMC3    O2 7087   1.296   0.159  16.215  0.6838 -0.1081  0.6520
  473MPD2     C 7088   1.484   2.222  13.677 -0.1203 -0.2937  1.2294
  473MPD2    C1 7089   1.554   2.320  13.615 -0.2400 -0.2197 -0.2700
  473MPD2    C2 7090   1.618   2.419  13.692 -0.0996  0.3442  0.9075
  473MPD2    C3 7091   1.584   2.441  13.825  0.2336 -0.2567 -0.9204
  473MPD2    C4 7092   1.499   2.352  13.881  0.8454 -0.3446  0.0028
  473MPD2    C5 7093   1.448   2.242  13.814  0.6017  0.7370  0.1978
  473MPD2     H 7094   1.672   2.496  13.639  1.0211 -2.1901 -1.6668
  473MPD2    H1 7095   1.464   2.368  13.982 -1.5906  0.5286 -0.9745
  473MPD2    H2 7096   1.418   2.157  13.620 -1.9164 -0.4317  3.4680
  473MPD2    H3 7097   1.369   2.180  13.855  0.5096  0.1413 -0.8825
  473MPD2     N 7098   1.632   2.548  13.911 -0.4725 -0.8933 -0.1366
  473MPD2    H5 7099   1.599   2.538  14.007 -0.6119 -0.2097 -0.1099
  473MPD2    N1 7100   1.567   2.335  13.478 -0.4700 -0.1592  0.2366
  473MPD2    H7 7101   1.609   2.421  13.446  0.1089 -0.5001  0.0941
  474TMC3    C1 7102   1.767   2.702  14.004  0.5658 -0.5922  0.4096
  474TMC3    C2 7103   1.694   2.710  14.116  0.3844  0.0522 -0.1027
  474TMC3    C3 7104   1.755   2.729  14.235 -0.2934 -0.1255  0.0481
  474TMC3    C4 7105   1.904   2.727  14.007 -0.0039  0.2321 -0.2022
  474TMC3    C5 7106   1.967   2.744  14.129 -0.1523  0.1815 -0.5278
  474TMC3    C6 7107   1.887   2.749  14.244  0.6161 -0.2951  0.1209
  474TMC3     C 7108   1.709   2.652  13.876  0.1400  0.1833 -0.3789
  474TMC3     O 7109   1.764   2.673  13.764  0.4479 -0.2577 -0.3311
  474TMC3     H 7110   1.586   2.700  14.107  0.3007  2.4180 -1.7035
  474TMC3    H1 7111   1.964   2.684  13.928  1.4996  0.6707  0.6878
  474TMC3    H2 7112   1.934   2.749  14.342 -0.2223  1.2149  0.5303
  474TMC3    C7 7113   2.104   2.705  14.131 -0.1564 -0.6338 -0.2545
  474TMC3    C8 7114   1.677   2.825  14.309  0.7413 -0.2844 -0.5360
  474TMC3    O1 7115   2.155   2.650  14.035 -0.4432  0.2314  0.2660
  474TMC3    O2 7116   1.558   2.800  14.310 -0.0410  0.2191  0.3763
  475MPD2     C 7117   1.488   4.732  10.069  0.1984  0.0572 -0.1150
  475MPD2    C1 7118   1.479   0.126  10.072  0.2043 -0.8477 -0.0859
  475MPD2    C2 7119   1.378   0.196  10.141  0.6283 -0.6065 -0.0186
  475MPD2    C3 7120   1.280   0.123  10.208  0.4815 -0.2696 -0.0878
  475MPD2    C4 7121   1.295   4.725  10.214  0.7078  0.1249 -0.0898
  475MPD2    C5 7122   1.398   4.660  10.138 -1.0596 -0.1735  0.1989
  475MPD2     H 7123   1.385   0.304  10.152  2.2787 -0.7731  0.4845
  475MPD2    H1 7124   1.236   4.662  10.279  2.7721  0.1550  1.8347
  475MPD2    H2 7125   1.564   4.687  10.004 -0.4906 -2.5564  0.8732
  475MPD2    H3 7126   1.400   4.552  10.143  1.3670 -0.0913  1.0107
  475MPD2     N 7127   1.186   0.190  10.286 -0.3930  0.1862 -0.2374
  475MPD2    H5 7128   1.111   0.140  10.332  1.3209 -1.5444  0.6658
  475MPD2    N1 7129   1.588   0.195  10.006 -0.2379  0.3811 -0.1418
  475MPD2    H7 7130   1.673   0.142   9.985 -0.6348 -0.1639 -0.3912
  476TMC3    C1 7131   1.714   0.385   9.949  1.1399  0.2798  0.5993
  476TMC3    C2 7132   1.690   0.508   9.900 -0.4746 -0.6607  0.8944
  476TMC3    C3 7133   1.771   0.611   9.927  0.1034 -0.3076 -0.1460
  476TMC3    C4 7134   1.807   0.361  10.044 -0.6108 -0.6474 -0.7646
  476TMC3    C5 7135   1.883   0.474  10.085  0.4161  0.2944  0.4327
  476TMC3    C6 7136   1.880   0.591  10.011 -0.1203 -0.1693  0.1617
  476TMC3     C 7137   1.582   0.326   9.966  0.0759 -0.0112  0.3550
  476TMC3     O 7138   1.481   0.395   9.953 -0.2376  0.1998 -0.0211
  476TMC3     H 7139   1.615   0.518   9.822 -0.9423 -2.0558  1.1741
  476TMC3    H1 7140   1.828   0.264  10.086 -2.3144 -0.9639 -0.6643
  476TMC3    H2 7141   1.945   0.674  10.037  0.8174 -1.2468  1.2624
  476TMC3    C7 7142   1.839   0.507  10.224 -0.0694 -0.1858  0.4506
  476TMC3    C8 7143   1.696   0.721   9.980 -0.4277  0.0286 -0.3772
  476TMC3    O1 7144   1.834   0.630  10.243 -0.3255  0.8599 -0.3962
  476TMC3    O2 7145   1.757   0.829   9.995 -0.0878 -0.1224 -0.2420
  477MPD2     C 7146   3.582   1.856  11.973 -0.2081  0.0040  0.7064
  477MPD2    C1 7147   3.510   1.750  11.926 -0.9645  0.1598 -0.1281
  477MPD2    C2 7148   3.488   1.645  12.011 -0.0421 -0.0143 -0.2773
  477MPD2    C3 7149   3.526   1.654  12.140 -0.6317 -0.0846  0.0593
  477MPD2    C4 7150   3.614   1.752  12.179  0.3700 -0.0648 -0.2157
  477MPD2    C5 7151   3.641   1.858  12.099  0.2193  0.0939 -0.4647
  477MPD2     H 7152   3.425   1.568  11.969 -1.6774  0.5094  1.2108
  477MPD2    H1 7153   3.656   1.753  12.279  1.5875 -0.1475 -0.7205
  477MPD2    H2 7154   3.592   1.937  11.901  1.9249  0.9419  2.0555
  477MPD2    H3 7155   3.709   1.936  12.134  0.9216 -0.1049 -1.4044
  477MPD2     N 7156   3.493   1.541  12.219 -0.3127 -0.8262  0.1719
  477MPD2    H5 7157   3.477   1.456  12.167  1.1653  0.2090 -1.9396
  477MPD2    N1 7158   3.447   1.743  11.799 -0.8235  0.4851 -0.0449
  477MPD2    H7 7159   3.402   1.654  11.784  2.8748 -1.5370  0.9567
  478TMC3    C1 7160   3.332   1.825  11.618  0.8870  0.0439  0.2056
  478TMC3    C2 7161   3.223   1.773  11.670  1.0241  0.6063 -0.6039
  478TMC3    C3 7162   3.107   1.773  11.596  0.2590 -0.3681  0.2715
  478TMC3    C4 7163   3.336   1.885  11.497 -0.1937  0.1219  0.2386
  478TMC3    C5 7164   3.217   1.891  11.428  0.0253 -0.1625 -0.0085
  478TMC3    C6 7165   3.097   1.843  11.479  0.2365  0.6960 -0.4068
  478TMC3     C 7166   3.433   1.854  11.713  0.3762 -0.0092 -0.3117
  478TMC3     O 7167   3.476   1.970  11.706 -0.4184 -0.5241  0.4144
  478TMC3     H 7168   3.218   1.713  11.760 -0.2770  1.4984 -0.0794
  478TMC3    H1 7169   3.422   1.941  11.462 -0.3526 -1.6113 -2.8969
  478TMC3    H2 7170   2.999   1.846  11.433  0.2800  0.7589 -0.4956
  478TMC3    C7 7171   3.210   1.923  11.284  0.5556  0.5019 -0.0098
  478TMC3    C8 7172   2.989   1.786  11.683 -0.0885  0.2625  1.1758
  478TMC3    O1 7173   3.320   1.913  11.228  0.3664  0.0084  0.4319
  478TMC3    O2 7174   2.970   1.698  11.763  0.7779 -0.2400 -0.5562
  479MPD2     C 7175   0.972   3.961  14.841 -0.1843 -0.0664 -0.6657
  479MPD2    C1 7176   0.958   3.937  14.974  0.0923  0.4479 -0.0252
  479MPD2    C2 7177   1.042   4.010  15.060 -0.5329 -0.1416 -0.2449
  479MPD2    C3 7178   1.122   4.113  15.022  0.0787 -0.0892  0.0145
  479MPD2    C4 7179   1.136   4.135  14.892  0.2608  0.0833 -0.1708
  479MPD2    C5 7180   1.065   4.057  14.804  0.4119 -0.2089  0.1239
  479MPD2     H 7181   1.035   3.975  15.162 -0.9976  0.6797 -0.0011
  479MPD2    H1 7182   1.205   4.208  14.852  0.5938 -0.1563 -0.0380
  479MPD2    H2 7183   0.910   3.919  14.762 -0.0326 -2.2891  0.3962
  479MPD2    H3 7184   1.089   4.079  14.701 -0.3701  1.9266  0.3851
  479MPD2     N 7185   1.192   4.199  15.119 -0.3149 -0.8450 -1.0513
  479MPD2    H5 7186   1.244   4.273  15.072  0.6145  0.9491  2.7616
  479MPD2    N1 7187   0.870   3.839  15.019 -0.2909  0.5444  0.2633
  479MPD2    H7 7188   0.800   3.811  14.951 -0.5167 -0.4115  0.8915
  480TMC3    C1 7189   1.310   4.402  15.534 -0.5605 -0.2808  0.4231
  480TMC3    C2 7190   1.384   4.499  15.467 -0.5717 -0.0497  0.1665
  480TMC3    C3 7191   1.404   4.479  15.331 -0.2366  0.5329 -0.4274
  480TMC3    C4 7192   1.243   4.309  15.461 -0.4727 -0.0416 -0.1031
  480TMC3    C5 7193   1.261   4.300  15.325  0.4761  0.4676 -0.7308
  480TMC3    C6 7194   1.347   4.383  15.257 -0.3696 -0.0169  0.0246
  480TMC3     C 7195   1.301   4.398  15.674 -0.3530  0.1449  0.4087
  480TMC3     O 7196   1.341   4.499  15.729 -0.0900 -0.4080  0.3826
  480TMC3     H 7197   1.425   4.583  15.523 -3.3279  0.8426  0.8474
  480TMC3    H1 7198   1.159   4.254  15.502 -1.6940  0.8745 -1.3886
  480TMC3    H2 7199   1.361   4.370  15.150  0.4995  0.8984  0.0317
  480TMC3    C7 7200   1.186   4.195  15.258 -0.0023 -0.1696 -0.4873
  480TMC3    C8 7201   1.501   4.568  15.270 -0.2963  0.9081  0.0416
  480TMC3    O1 7202   1.122   4.117  15.324  0.3313  0.5960 -0.8043
  480TMC3    O2 7203   1.589   4.616  15.335  0.7026 -0.2546 -0.0956
  481MPD2     C 7204   3.363   3.866  14.392  0.2863 -0.4589 -0.0307
  481MPD2    C1 7205   3.225   3.847  14.406  0.1481  0.4025  0.3437
  481MPD2    C2 7206   3.172   3.829  14.533  0.0087 -0.8977 -0.2921
  481MPD2    C3 7207   3.252   3.843  14.649  0.0073  0.6131  0.7883
  481MPD2    C4 7208   3.389   3.863  14.634 -0.5450  0.0936 -0.6323
  481MPD2    C5 7209   3.441   3.858  14.508 -0.3756 -0.1944 -0.4631
  481MPD2     H 7210   3.065   3.815  14.541  0.1539 -0.8734  1.5233
  481MPD2    H1 7211   3.441   3.875  14.728 -0.0269 -0.1189 -0.8914
  481MPD2    H2 7212   3.411   3.872  14.295  1.5767  1.1309  0.7045
  481MPD2    H3 7213   3.548   3.874  14.493 -0.2632 -1.3424 -0.9150
  481MPD2     N 7214   3.195   3.852  14.779  0.5289  0.2340  0.3788
  481MPD2    H5 7215   3.259   3.883  14.852 -0.3441  0.7701  0.9174
  481MPD2    N1 7216   3.143   3.848  14.291 -0.3653 -0.6132  0.0598
  481MPD2    H7 7217   3.178   3.902  14.213 -0.7444 -0.4782 -0.0169
  482TMC3    C1 7218   2.943   3.828  14.163 -0.1516 -0.3873 -0.0823
  482TMC3    C2 7219   2.822   3.761  14.150  0.2392 -0.4011  0.8047
  482TMC3    C3 7220   2.717   3.813  14.085 -0.0860  0.3027 -0.3826
  482TMC3    C4 7221   2.959   3.954  14.116  0.3163 -1.0503 -0.0419
  482TMC3    C5 7222   2.859   3.998  14.042 -0.6196  0.7442 -0.3420
  482TMC3    C6 7223   2.735   3.935  14.027  0.6728  0.7685  0.4645
  482TMC3     C 7224   3.016   3.783  14.280 -0.2879 -0.3756 -0.2427
  482TMC3     O 7225   2.955   3.714  14.365 -0.3929  0.1864  0.1920
  482TMC3     H 7226   2.822   3.655  14.168 -2.1628 -0.3149  1.3044
  482TMC3    H1 7227   3.058   3.999  14.111 -0.9642  1.7283 -0.3288
  482TMC3    H2 7228   2.656   3.985  13.973 -1.9384 -1.4445  2.2952
  482TMC3    C7 7229   2.875   4.103  13.936 -0.5765  0.2739 -0.0281
  482TMC3    C8 7230   2.644   3.721  14.000  0.1856  0.0549  0.4655
  482TMC3    O1 7231   2.803   4.094  13.835 -0.2126  0.1777  0.6137
  482TMC3    O2 7232   2.631   3.605  14.036  0.0566 -0.4194  0.1416
  483TMC3    C1 7233   1.522   3.165   1.386  0.1657  0.1594 -0.1526
  483TMC3    C2 7234   1.620   3.258   1.339 -0.5359 -0.0625  0.6896
  483TMC3    C3 7235   1.751   3.216   1.332  0.0923 -0.0542  0.1189
  483TMC3    C4 7236   1.559   3.036   1.422 -0.2483  0.3307 -0.2120
  483TMC3    C5 7237   1.688   3.004   1.416 -0.3605  0.7562  0.5039
  483TMC3    C6 7238   1.788   3.095   1.381 -0.2966 -0.1868 -0.0818
  483TMC3     C 7239   1.397   3.181   1.322 -0.4412  0.0018  0.3342
  483TMC3     O 7240   1.364   3.297   1.303  0.9780 -0.0436 -0.4868
  483TMC3     H 7241   1.603   3.361   1.310 -0.3069 -0.4691 -0.8809
  483TMC3    H1 7242   1.482   2.965   1.449  1.8376 -1.6200  0.5728
  483TMC3    H2 7243   1.885   3.051   1.363  0.1574  0.9607 -0.4426
  483TMC3    C7 7244   1.713   2.862   1.421 -0.4677  0.4982 -0.1808
  483TMC3    C8 7245   1.840   3.291   1.251  0.2395 -0.2666  0.2999
  483TMC3    O1 7246   1.641   2.788   1.350  0.1161  0.1217 -0.3779
  483TMC3    O2 7247   1.797   3.397   1.211  0.3243 -0.3716  0.3854
  484MPD2     C 7248   4.048   0.726  12.146  0.1717  0.1876  0.3480
  484MPD2    C1 7249   4.043   0.693  12.279  0.5729  0.7281 -0.4343
  484MPD2    C2 7250   4.114   0.770  12.368  0.4596 -0.1825 -0.1762
  484MPD2    C3 7251   4.186   0.880  12.327  0.2793 -0.4742 -1.0076
  484MPD2    C4 7252   4.167   0.920  12.198  0.0015  0.1319  0.0793
  484MPD2    C5 7253   4.106   0.842  12.104 -0.1978  0.0289  0.1617
  484MPD2     H 7254   4.102   0.753  12.474 -2.7366 -1.0152 -0.6854
  484MPD2    H1 7255   4.223   1.006  12.162  0.5718 -0.5993 -0.7774
  484MPD2    H2 7256   3.998   0.667  12.070  1.6676 -0.4644 -0.1273
  484MPD2    H3 7257   4.107   0.876  12.001  0.4847  0.6725  0.3810
  484MPD2     N 7258   4.281   0.957  12.409 -0.0367  0.0625  0.2840
  484MPD2    H5 7259   4.324   1.039  12.366  1.0676 -0.8853 -0.4200
  484MPD2    N1 7260   3.964   0.582  12.316 -0.7580 -0.1414 -0.5137
  484MPD2    H7 7261   3.917   0.527  12.245 -1.9126  1.1315 -0.7370
  485TMC3    C1 7262   4.422   1.001  12.587 -0.4827 -0.1256  0.0491
  485TMC3    C2 7263   4.486   0.930  12.687 -0.9194  0.7723  0.1914
  485TMC3    C3 7264   4.629   0.924  12.691 -0.4244 -0.2214  0.5121
  485TMC3    C4 7265   4.495   1.073  12.503  0.0682  0.5434  0.3582
  485TMC3    C5 7266   4.634   1.078  12.514  0.7460 -0.1974 -0.0950
  485TMC3    C6 7267   4.701   1.002  12.607 -1.1518 -0.2597  0.4436
  485TMC3     C 7268   4.310   0.927  12.535 -0.6127 -0.1704  0.3448
  485TMC3     O 7269   4.261   0.841  12.605 -0.0863  0.3418 -0.0493
  485TMC3     H 7270   4.431   0.856  12.743  1.4638  1.7238  3.8422
  485TMC3    H1 7271   4.450   1.159  12.454 -0.3455  1.8241  2.9742
  485TMC3    H2 7272   0.067   0.997  12.607 -1.2004 -1.5107 -1.9471
  485TMC3    C7 7273   4.701   1.085  12.390 -0.0803 -0.2362  0.3045
  485TMC3    C8 7274   4.681   0.788  12.663  0.6479  0.9234 -0.3644
  485TMC3    O1 7275   4.670   1.171  12.310  0.6208 -0.3533 -0.5226
  485TMC3    O2 7276   0.015   0.778  12.568 -0.3593  0.1462 -0.1857
  486MPD2     C 7277   1.271   4.448  12.826  0.4754  0.0154 -0.2272
  486MPD2    C1 7278   1.181   4.509  12.912  0.5241  0.5578  0.5128
  486MPD2    C2 7279   1.075   4.575  12.860  0.1371  0.2012 -0.0626
  486MPD2    C3 7280   1.055   4.586  12.724 -0.2080  0.0181 -0.2335
  486MPD2    C4 7281   1.149   4.527  12.636 -0.0814  0.2522 -0.7582
  486MPD2    C5 7282   1.252   4.462  12.691  0.2348  0.7175 -0.6832
  486MPD2     H 7283   0.999   4.623  12.921  0.1643  0.2163 -0.0411
  486MPD2    H1 7284   1.151   4.540  12.528 -0.2414 -2.5337 -1.0890
  486MPD2    H2 7285   1.361   4.392  12.851 -0.1795 -1.2988 -0.8106
  486MPD2    H3 7286   1.334   4.426  12.630 -0.4270 -0.1020 -1.0825
  486MPD2     N 7287   0.945   4.667  12.673 -0.2783  0.4603 -0.3220
  486MPD2    H5 7288   0.880   4.694  12.745 -0.8324  2.6986 -1.6668
  486MPD2    N1 7289   1.201   4.490  13.053 -0.2911 -0.9725 -0.6137
  486MPD2    H7 7290   1.297   4.461  13.072  0.5042  1.4754 -0.9039
  487TMC3    C1 7291   1.168   4.473  13.280  0.8677 -0.4297  0.2311
  487TMC3    C2 7292   1.244   4.363  13.282 -0.1991  0.1194 -0.4228
  487TMC3    C3 7293   1.276   4.301  13.403 -0.4116 -0.3003 -0.4006
  487TMC3    C4 7294   1.097   4.518  13.396  0.0709  0.0676  0.6170
  487TMC3    C5 7295   1.112   4.443  13.511  0.4055 -0.2862 -0.4145
  487TMC3    C6 7296   1.220   4.352  13.515  0.0111 -0.4776 -0.0100
  487TMC3     C 7297   1.110   4.512  13.150  0.0521  0.3915 -0.6311
  487TMC3     O 7298   0.993   4.545  13.134 -0.7444 -0.4149 -0.4653
  487TMC3     H 7299   1.277   4.309  13.194 -1.4972  0.4309 -1.0996
  487TMC3    H1 7300   1.027   4.600  13.392 -0.9563 -0.8763 -0.7112
  487TMC3    H2 7301   1.225   4.297  13.608  1.4369 -0.5290 -0.1164
  487TMC3    C7 7302   0.988   4.390  13.567 -0.0227  0.1278 -0.8997
  487TMC3    C8 7303   1.265   4.159  13.382 -0.3674 -0.3301 -0.2696
  487TMC3    O1 7304   0.988   4.269  13.571  0.1286  0.3802 -0.3474
  487TMC3    O2 7305   1.186   4.118  13.302 -0.2645  0.3050 -0.0544
  488MPD2     C 7306   0.925   1.372  15.982 -0.4032  0.0435 -0.5359
  488MPD2    C1 7307   0.915   1.494  16.047  0.3112  0.0428  0.5181
  488MPD2    C2 7308   0.882   1.488  16.179  0.1749  0.1717  1.0397
  488MPD2    C3 7309   0.853   1.371  16.242 -0.3669 -0.3462  0.4064
  488MPD2    C4 7310   0.866   1.254  16.174 -0.7725 -0.4371 -0.3682
  488MPD2    C5 7311   0.902   1.252  16.043  0.1873 -0.4012  0.3351
  488MPD2     H 7312   0.884   1.583  16.231 -1.1170  0.0269  1.3431
  488MPD2    H1 7313   0.863   1.160  16.229 -0.9871 -0.7105 -0.8454
  488MPD2    H2 7314   0.952   1.368  15.877 -0.6471  1.2633 -0.6446
  488MPD2    H3 7315   0.917   1.163  15.984 -2.5918 -0.4058 -0.3744
  488MPD2     N 7316   0.833   1.377  16.377  0.3825  0.0030 -0.3098
  488MPD2    H5 7317   0.824   1.466  16.425 -2.4587  0.0344 -0.9031
  488MPD2    N1 7318   0.951   1.619  15.984  0.4576 -0.4010  0.5451
  488MPD2    H7 7319   0.930   1.706  16.031 -3.5523  0.1783 -2.3720
  489TMC3    C1 7320   0.840   1.326  16.599  0.5816  0.1191 -0.3183
  489TMC3    C2 7321   0.882   1.455  16.613  0.9798 -0.2300 -0.6928
  489TMC3    C3 7322   0.887   1.492  16.747  0.3693  0.0223 -0.3020
  489TMC3    C4 7323   0.818   1.243  16.702 -0.7932 -0.0436  0.0653
  489TMC3    C5 7324   0.823   1.285  16.832  0.4734 -0.5044  0.3438
  489TMC3    C6 7325   0.843   1.417  16.860 -0.2863 -0.2583 -0.6171
  489TMC3     C 7326   0.821   1.273  16.464  0.1747  0.1942  0.0797
  489TMC3     O 7327   0.818   1.154  16.451 -0.4796 -0.2388  0.1453
  489TMC3     H 7328   0.910   1.525  16.535 -0.8709  0.9521 -0.2968
  489TMC3    H1 7329   0.789   1.141  16.678 -2.9044  1.1047 -2.2283
  489TMC3    H2 7330   0.873   1.438  16.962  0.6375 -0.4570 -0.8479
  489TMC3    C7 7331   0.758   1.207  16.933  0.3698  0.2315  0.3399
  489TMC3    C8 7332   0.951   1.622  16.778 -0.1835 -0.6985 -0.2583
  489TMC3    O1 7333   0.781   1.222  17.055 -0.1570  0.4083  0.0804
  489TMC3    O2 7334   1.037   1.658  16.699  0.9135  0.3414  0.7050
  490MPD2     C 7335   1.211   0.622  16.910 -0.6147 -0.7308 -0.5265
  490MPD2    C1 7336   1.259   0.637  17.037 -0.7264 -0.3554 -0.1404
  490MPD2    C2 7337   1.371   0.708  17.067  0.7638 -0.0973 -0.0372
  490MPD2    C3 7338   1.439   0.773  16.962 -0.0774  0.5278  0.0740
  490MPD2    C4 7339   1.388   0.762  16.834  0.4351 -0.1290  0.0349
  490MPD2    C5 7340   1.282   0.678  16.809  0.5097 -0.6729 -0.0124
  490MPD2     H 7341   1.414   0.704  17.167  2.6616 -3.9721 -0.9652
  490MPD2    H1 7342   1.429   0.806  16.744  0.6218  1.3689  0.8534
  490MPD2    H2 7343   1.128   0.556  16.886 -0.9017  0.6829 -3.4268
  490MPD2    H3 7344   1.268   0.649  16.705  0.2016 -1.7186  0.3270
  490MPD2     N 7345   1.563   0.829  16.986 -0.6879 -0.6576  0.2776
  490MPD2    H5 7346   1.587   0.836  17.084 -1.7057  4.2081  0.1814
  490MPD2    N1 7347   1.207   0.561  17.146 -0.1972  0.2686 -0.0332
  490MPD2    H7 7348   1.255   0.562  17.236  2.4425 -1.1258 -1.4200
  491TMC3    C1 7349   1.111   0.386  17.268  0.3797  0.0402 -1.0204
  491TMC3    C2 7350   1.080   0.451  17.389  0.2678  0.7404 -0.0767
  491TMC3    C3 7351   1.044   0.375  17.491  0.4799  0.6721 -0.4762
  491TMC3    C4 7352   1.102   0.254  17.262 -0.7032 -0.0136 -0.1992
  491TMC3    C5 7353   1.047   0.180  17.363 -0.3182  0.1889  0.4967
  491TMC3    C6 7354   1.020   0.241  17.480  0.1536  0.0915 -0.2079
  491TMC3     C 7355   1.120   0.452  17.138 -0.3345  0.0835  0.7728
  491TMC3     O 7356   1.060   0.402  17.044  0.3637  0.1984  0.2291
  491TMC3     H 7357   1.092   0.559  17.392  0.8119  0.6157  1.6728
  491TMC3    H1 7358   1.148   0.200  17.180  1.0149  1.6915 -0.3321
  491TMC3    H2 7359   0.971   0.185  17.558  1.5294  0.1210  0.6741
  491TMC3    C7 7360   0.964   0.080  17.306  0.5684 -0.0023  0.4704
  491TMC3    C8 7361   1.041   0.423  17.629 -0.8117  0.9994  0.6732
  491TMC3    O1 7362   0.966   0.077  17.186  0.8249 -0.0513 -0.5683
  491TMC3    O2 7363   1.033   0.339  17.718 -0.1553 -1.4206  0.3367
  492MPD2     C 7364   3.201   0.686  11.030  0.3895  0.5770  0.8117
  492MPD2    C1 7365   3.108   0.595  10.999 -0.0589  0.6407 -0.4043
  492MPD2    C2 7366   3.004   0.585  11.083  0.2023  0.6322  0.0316
  492MPD2    C3 7367   2.992   0.662  11.193 -0.0758  0.3011 -0.2313
  492MPD2    C4 7368   3.091   0.758  11.220 -0.6253 -0.2635  0.6736
  492MPD2    C5 7369   3.197   0.768  11.143 -0.7243  0.0294 -0.8333
  492MPD2     H 7370   2.921   0.518  11.064 -0.3153  0.8473  1.5119
  492MPD2    H1 7371   3.079   0.827  11.303 -2.0303  2.1163 -1.5022
  492MPD2    H2 7372   3.292   0.694  10.971  0.1398 -1.7588  0.1162
  492MPD2    H3 7373   3.279   0.830  11.178  1.3649 -3.4729  0.5352
  492MPD2     N 7374   2.878   0.637  11.272 -0.6842  0.2330  0.2637
  492MPD2    H5 7375   2.819   0.559  11.247 -0.4751 -0.4069  1.7441
  492MPD2    N1 7376   3.102   0.530  10.876 -0.1257  0.4244 -0.1364
  492MPD2    H7 7377   3.020   0.473  10.858 -0.6060  1.1599 -0.2954
  493TMC3    C1 7378   3.150   0.478  10.655  0.3598 -0.6392  0.1048
  493TMC3    C2 7379   3.181   0.544  10.536  0.3875  0.7510  0.0024
  493TMC3    C3 7380   3.127   0.497  10.421  0.3908  0.4171  0.0604
  493TMC3    C4 7381   3.077   0.365  10.672  0.3030 -0.7100 -0.5648
  493TMC3    C5 7382   3.047   0.313  10.548  0.0814  0.2139 -0.4796
  493TMC3    C6 7383   3.062   0.371  10.425  0.0257 -0.2359 -1.3196
  493TMC3     C 7384   3.201   0.541  10.778  0.1750  0.7418 -0.5160
  493TMC3     O 7385   3.307   0.603  10.775 -0.8565 -0.7062  0.4690
  493TMC3     H 7386   3.222   0.644  10.530 -0.4878  1.0961 -0.2163
  493TMC3    H1 7387   3.060   0.309  10.762  0.0481 -0.3202 -0.3694
  493TMC3    H2 7388   3.000   0.344  10.340  0.4143 -0.2994 -1.5885
  493TMC3    C7 7389   2.951   0.210  10.544  0.3880 -0.5406  0.8085
  493TMC3    C8 7390   3.114   0.579  10.301  0.3728 -0.5107 -0.4580
  493TMC3    O1 7391   2.864   0.214  10.459 -0.7951  0.5595  0.6449
  493TMC3    O2 7392   3.055   0.521  10.212  0.4351  0.2095  0.3528
  494TMC3    C1 7393   2.211   2.549   0.420  0.1689  0.0152  0.3838
  494TMC3    C2 7394   2.176   2.425   0.377 -0.3524  0.2817  0.0543
  494TMC3    C3 7395   2.241   2.373   0.266 -0.5988 -0.4034 -0.6414
  494TMC3    C4 7396   2.301   2.632   0.357 -0.2297  0.6549 -0.0812
  494TMC3    C5 7397   2.347   2.585   0.238  1.6554 -0.0686  0.9364
  494TMC3    C6 7398   2.318   2.458   0.192  0.0371  0.3747 -0.6633
  494TMC3     C 7399   2.168   2.578   0.558 -0.8187 -0.4157  0.4640
  494TMC3     O 7400   2.246   2.648   0.616  0.4614 -0.3063  0.0126
  494TMC3     H 7401   2.108   2.357   0.427 -1.0162 -0.7714 -2.3293
  494TMC3    H1 7402   2.340   2.724   0.400  1.9664  0.1571 -0.9676
  494TMC3    H2 7403   2.354   2.437   0.092  0.4855 -1.0985 -0.2011
  494TMC3    C7 7404   2.432   2.669   0.153  0.3557 -0.5202 -0.5337
  494TMC3    C8 7405   2.281   2.238   0.285 -0.2092 -0.0062  0.7813
  494TMC3    O1 7406   2.460   2.612   0.046 -0.4570  0.1016  0.4375
  494TMC3    O2 7407   2.402   2.223   0.301  0.2720 -0.1715  0.4775
  495TMC3    C1 7408   1.560   4.477  14.283  0.1768 -0.1258  0.5106
  495TMC3    C2 7409   1.432   4.499  14.231  0.0975  0.0656 -0.1266
  495TMC3    C3 7410   1.334   4.558  14.305  0.2881 -0.0756  0.0422
  495TMC3    C4 7411   1.589   4.538  14.400  0.2931  0.6540 -0.2212
  495TMC3    C5 7412   1.491   4.606  14.469  0.4857 -1.3289 -0.1776
  495TMC3    C6 7413   1.367   4.620  14.423  0.1074  0.2369  0.7880
  495TMC3     C 7414   1.597   4.339  14.263 -0.4865  0.3385 -0.3462
  495TMC3     O 7415   1.520   4.269  14.197  0.4508  0.3051 -0.2147
  495TMC3     H 7416   1.405   4.449  14.139  0.0943 -1.0013  0.4548
  495TMC3    H1 7417   1.684   4.521  14.448 -0.4954  0.0141  1.0932
  495TMC3    H2 7418   1.290   4.643  14.495 -1.9862  0.1344 -1.4403
  495TMC3    C7 7419   1.493   4.580  14.610 -0.4299  0.1747 -0.2308
  495TMC3    C8 7420   1.224   4.471  14.336 -0.0905  0.6009  0.2324
  495TMC3    O1 7421   1.410   4.505  14.660 -0.5050 -0.1230 -0.1665
  495TMC3    O2 7422   1.132   4.514  14.404 -0.1837  0.1554 -0.1050
  496MPD2     C 7423   3.665   4.710  15.639  0.6125  0.2235 -0.6363
  496MPD2    C1 7424   3.566   4.626  15.605  0.6914 -0.2583 -0.0314
  496MPD2    C2 7425   3.438   4.653  15.655  0.6378  0.2932 -0.5162
  496MPD2    C3 7426   3.408   0.017  15.737 -0.0068  0.8561  0.1440
  496MPD2    C4 7427   3.509   0.104  15.768  0.2180 -0.1667  0.4185
  496MPD2    C5 7428   3.636   0.072  15.725  0.6269 -0.3193 -0.2293
  496MPD2     H 7429   3.366   4.579  15.619  0.0387  1.2310 -1.2451
  496MPD2    H1 7430   3.487   0.188  15.833 -0.4247 -0.6903  0.8745
  496MPD2    H2 7431   3.764   4.714  15.594  1.6007  0.1932  1.5639
  496MPD2    H3 7432   3.716   0.140  15.751 -1.6437  2.4672 -0.4524
  496MPD2     N 7433   3.275   0.045  15.787 -0.0427  0.0791  0.2011
  496MPD2    H5 7434   3.272   0.122  15.852  0.9549  0.8966 -0.7390
  496MPD2    N1 7435   3.602   4.521  15.523  0.4612 -0.4321  0.3328
  496MPD2    H7 7436   3.699   4.520  15.494 -0.3511  0.1821 -2.3638
  497TMC3    C1 7437   3.048   0.004  15.836 -0.2215  0.1795  0.3628
  497TMC3    C2 7438   2.930   4.701  15.787  0.0813 -1.0072 -0.3816
  497TMC3    C3 7439   2.816   0.024  15.814  0.3311 -0.2521 -0.1569
  497TMC3    C4 7440   3.056   0.111  15.921 -0.2232  0.1506  0.4061
  497TMC3    C5 7441   2.933   0.177  15.945  0.3068 -0.7170  0.8836
  497TMC3    C6 7442   2.814   0.132  15.896 -0.6893 -0.5297 -0.2854
  497TMC3     C 7443   3.169   4.699  15.773  0.1183 -0.1172  0.3961
  497TMC3     O 7444   3.152   4.607  15.694  0.0050 -0.0143  0.1523
  497TMC3     H 7445   2.920   4.599  15.749 -3.1422 -0.8518  0.0504
  497TMC3    H1 7446   3.137   0.132  15.991 -0.6138 -1.8452  1.4457
  497TMC3    H2 7447   2.720   0.183  15.915  1.5448  2.7060  2.0851
  497TMC3    C7 7448   2.925   0.273  16.057  0.2604  0.0849  0.6869
  497TMC3    C8 7449   2.692   4.705  15.770 -0.8120 -0.4578  0.8185
  497TMC3    O1 7450   2.807   0.274  16.096  0.1823  0.3530 -0.0567
  497TMC3    O2 7451   2.691   4.582  15.767  0.2615  0.2403  0.2004
  498MPD2     C 7452   4.633   1.119   9.671  0.5724  0.1878  0.1380
  498MPD2    C1 7453   4.707   1.050   9.764  0.8596  0.2186 -0.6745
  498MPD2    C2 7454   4.679   0.915   9.781 -0.4740 -0.0310 -0.6658
  498MPD2    C3 7455   4.583   0.847   9.714 -0.5834  0.5402  0.0733
  498MPD2    C4 7456   4.521   0.913   9.614  0.2488 -0.4892  0.1449
  498MPD2    C5 7457   4.543   1.047   9.596 -0.6962  0.1045 -0.2462
  498MPD2     H 7458   4.728   0.858   9.859 -2.7455  0.1912  0.8884
  498MPD2    H1 7459   4.443   0.870   9.552 -0.7622  0.0329  1.0548
  498MPD2    H2 7460   4.642   1.222   9.639 -0.1151 -0.5478 -2.3669
  498MPD2    H3 7461   4.487   1.100   9.519  1.0336  1.8208 -0.3194
  498MPD2     N 7462   4.566   0.708   9.731 -0.6859  0.0005  0.2788
  498MPD2    H5 7463   4.623   0.665   9.803 -1.7419  3.4641  3.1505
  498MPD2    N1 7464   0.071   1.105   9.840 -0.4806 -0.4464  0.4053
  498MPD2    H7 7465   0.115   1.045   9.909 -2.5199 -1.8505  0.4781
  499TMC3    C1 7466   0.248   1.263   9.893 -0.3316 -0.0735 -0.1111
  499TMC3    C2 7467   0.302   1.171   9.975  0.0001  0.0344  0.1257
  499TMC3    C3 7468   0.436   1.161  10.003  0.4519  0.5869 -0.0971
  499TMC3    C4 7469   0.333   1.359   9.825  0.7601 -0.4846 -0.2556
  499TMC3    C5 7470   0.463   1.338   9.855 -0.5754  0.2170  0.1514
  499TMC3    C6 7471   0.519   1.247   9.942 -0.1557 -0.1325 -0.1160
  499TMC3     C 7472   0.121   1.237   9.828  0.3386 -0.7698  0.0304
  499TMC3     O 7473   0.079   1.324   9.755  0.3043 -0.2798 -0.6636
  499TMC3     H 7474   0.232   1.123  10.043 -0.5799  0.3694 -0.2320
  499TMC3    H1 7475   0.302   1.429   9.749 -0.2687  1.5420  2.0345
  499TMC3    H2 7476   0.624   1.257   9.966 -0.1121 -0.4969 -0.1563
  499TMC3    C7 7477   0.544   1.443   9.791  0.1601 -0.6601  0.4056
  499TMC3    C8 7478   0.490   1.106  10.132  0.3570 -0.1861 -0.2932
  499TMC3    O1 7479   0.489   1.536   9.737  0.0699 -0.4350 -0.4486
  499TMC3    O2 7480   0.601   1.139  10.171  0.2810 -0.0141 -0.6148
  500MPD2     C 7481   1.841   1.955  10.707  0.0447  0.1035 -0.9966
  500MPD2    C1 7482   1.779   1.837  10.730 -0.5928  0.2161  0.6259
  500MPD2    C2 7483   1.642   1.830  10.739 -0.0554  0.2116 -0.1768
  500MPD2    C3 7484   1.574   1.952  10.717 -0.7563  0.1105 -0.4503
  500MPD2    C4 7485   1.637   2.068  10.673 -1.3789  0.5268 -0.1755
  500MPD2    C5 7486   1.776   2.068  10.679  0.2411 -0.0486 -0.1222
  500MPD2     H 7487   1.589   1.739  10.766  2.6051 -1.1744  0.3788
  500MPD2    H1 7488   1.587   2.163  10.659 -1.5432  0.4872  0.1403
  500MPD2    H2 7489   1.949   1.967  10.710  0.2246 -2.1859  2.2047
  500MPD2    H3 7490   1.832   2.160  10.673  0.6958 -0.2702  0.6379
  500MPD2     N 7491   1.431   1.965  10.731  0.5561  0.3119 -0.2550
  500MPD2    H5 7492   1.390   2.056  10.712  2.7968  1.3570 -0.0825
  500MPD2    N1 7493   1.852   1.716  10.724  0.2180 -0.0879 -0.2618
  500MPD2    H7 7494   1.803   1.627  10.718 -0.0214  0.0411 -0.2126
  501TMC3    C1 7495   2.041   1.589  10.677 -0.1590  0.0812  0.2386
  501TMC3    C2 7496   1.999   1.571  10.545 -0.0132  0.1689 -0.0028
  501TMC3    C3 7497   2.098   1.545  10.452 -0.0848  0.3861  0.1652
  501TMC3    C4 7498   2.163   1.560  10.720  0.8030 -0.0712  0.7297
  501TMC3    C5 7499   2.248   1.510  10.623  0.1172  0.0528  0.7102
  501TMC3    C6 7500   2.215   1.487  10.496 -0.1899 -0.3236 -0.3515
  501TMC3     C 7501   1.989   1.703  10.742 -0.4625  0.1801  0.2429
  501TMC3     O 7502   2.077   1.778  10.787  0.0887  0.5927 -0.2312
  501TMC3     H 7503   1.901   1.600  10.509  0.5490 -1.2458 -2.6748
  501TMC3    H1 7504   2.193   1.585  10.821  0.6922 -0.6858  0.9181
  501TMC3    H2 7505   2.289   1.466  10.420 -3.7441 -3.9659 -2.7923
  501TMC3    C7 7506   2.379   1.467  10.669  0.1346  0.3265 -0.0867
  501TMC3    C8 7507   2.137   1.669  10.383  0.0812  0.2376 -0.6125
  501TMC3    O1 7508   2.423   1.362  10.625 -0.0423  0.3491  0.0858
  501TMC3    O2 7509   2.259   1.671  10.359  0.2355  0.0723 -0.0199
  502TMC3    C1 7510   1.188   0.540  15.208  0.4386  0.3054  0.2104
  502TMC3    C2 7511   1.197   0.667  15.166  0.0638 -0.0035 -0.0774
  502TMC3    C3 7512   1.107   0.704  15.072  0.2897  0.3228  0.1318
  502TMC3    C4 7513   1.092   0.450  15.161 -0.2366  0.6917  0.3522
  502TMC3    C5 7514   1.021   0.487  15.051 -0.0621  0.1473  0.2183
  502TMC3    C6 7515   1.030   0.616  15.004  0.8491 -0.6282 -0.0615
  502TMC3     C 7516   1.239   0.515  15.340 -0.5129 -0.2427  0.1381
  502TMC3     O 7517   1.340   0.580  15.363 -0.4072  0.3430 -0.3034
  502TMC3     H 7518   1.263   0.736  15.217  0.1825 -0.0022 -0.2317
  502TMC3    H1 7519   1.088   0.347  15.193 -0.4779  0.8453  0.8118
  502TMC3    H2 7520   0.974   0.662  14.923  2.6870  0.6422 -0.6243
  502TMC3    C7 7521   0.895   0.413  15.033  0.2560 -0.1243  0.0479
  502TMC3    C8 7522   1.083   0.845  15.050  0.5302 -0.2205  0.1446
  502TMC3    O1 7523   0.902   0.290  15.035 -0.2729  0.3045  0.4719
  502TMC3    O2 7524   1.065   0.876  14.932  0.1318 -0.2414  0.3297
  503MPD2     C 7525   2.524   1.290  17.009 -0.3041  0.1236 -0.6729
  503MPD2    C1 7526   2.568   1.382  17.106 -0.4693 -0.7975  1.2581
  503MPD2    C2 7527   2.657   1.331  17.205 -0.0516  0.2834 -0.6176
  503MPD2    C3 7528   2.705   1.204  17.189  0.8117 -0.9419  0.4268
  503MPD2    C4 7529   2.664   1.122  17.084 -0.2508 -0.4326 -1.2141
  503MPD2    C5 7530   2.576   1.169  16.991 -0.4925 -0.2734 -0.1269
  503MPD2     H 7531   2.680   1.386  17.295  0.6822 -1.6051  0.3422
  503MPD2    H1 7532   2.709   1.026  17.062  0.4389  0.1262 -2.2229
  503MPD2    H2 7533   2.445   1.323  16.942  0.3366  1.8515 -0.5852
  503MPD2    H3 7534   2.543   1.113  16.905 -0.8730 -2.4211  1.4233
  503MPD2     N 7535   2.810   1.152  17.269  0.1504  0.1078 -0.3459
  503MPD2    H5 7536   2.816   1.189  17.363  1.5759 -1.7296  0.3024
  503MPD2    N1 7537   2.532   1.516  17.109 -0.7415  0.4421  0.0206
  503MPD2    H7 7538   2.558   1.566  17.194 -0.9612 -1.3763  1.1597
  504TMC3    C1 7539   3.020   1.046  17.316 -0.3396  0.2065 -0.3270
  504TMC3    C2 7540   2.997   1.011  17.445 -0.1199  1.1506 -0.1403
  504TMC3    C3 7541   3.103   0.965  17.519 -0.1567  0.1072  0.7473
  504TMC3    C4 7542   3.147   1.043  17.258 -0.2282  0.3300  0.2220
  504TMC3    C5 7543   3.251   1.017  17.339 -0.2168 -0.7521  0.2645
  504TMC3    C6 7544   3.234   0.965  17.467  0.0095  0.3001 -0.2335
  504TMC3     C 7545   2.910   1.073  17.226  0.4593 -0.1829  0.3283
  504TMC3     O 7546   2.938   1.045  17.109 -0.1280  0.3545 -0.2189
  504TMC3     H 7547   2.900   1.000  17.493 -0.2222 -0.2999 -0.6669
  504TMC3    H1 7548   3.158   1.076  17.155 -0.8503 -0.7337 -0.1943
  504TMC3    H2 7549   3.323   0.921  17.511  0.8398  0.5080 -1.7016
  504TMC3    C7 7550   3.379   1.023  17.282 -0.3865 -0.2950 -0.3434
  504TMC3    C8 7551   3.072   0.909  17.653  0.0506 -0.2671  0.2652
  504TMC3    O1 7552   3.380   1.002  17.161  0.0226  0.3996 -0.7711
  504TMC3    O2 7553   2.954   0.895  17.682  0.1072  0.1210  0.1534
  505MPD2     C 7554   4.121   4.641  10.989 -0.6944 -0.0309 -0.0115
  505MPD2    C1 7555   4.156   4.669  10.857  0.3227  0.1967 -0.1352
  505MPD2    C2 7556   4.287   4.678  10.821 -0.2492 -0.4842  0.0931
  505MPD2    C3 7557   4.388   4.654  10.912  0.1939 -0.1171  0.2739
  505MPD2    C4 7558   4.352   4.633  11.046 -0.6715  0.0880 -0.0806
  505MPD2    C5 7559   4.218   4.619  11.079 -0.4336  0.6816 -0.0370
  505MPD2     H 7560   4.321   4.679  10.718  1.3065  0.9957  0.6223
  505MPD2    H1 7561   4.429   4.614  11.120 -1.9313  0.3139  1.2663
  505MPD2    H2 7562   4.019   4.620  11.017 -1.1162  1.1328 -0.6348
  505MPD2    H3 7563   4.199   4.585  11.180  0.6454 -2.1194 -0.7990
  505MPD2     N 7564   4.525   4.630  10.875  0.3460 -0.3539 -0.0107
  505MPD2    H5 7565   4.578   4.582  10.946 -1.1185 -2.7554 -0.5650
  505MPD2    N1 7566   4.055   4.667  10.755  0.7324 -1.2008 -0.5616
  505MPD2    H7 7567   3.960   4.643  10.783  1.5215 -1.1004  2.2064
  506TMC3    C1 7568   3.974   4.606  10.547 -0.3003 -1.0335  0.4740
  506TMC3    C2 7569   3.964   4.636  10.414 -0.0581  0.0388  0.4016
  506TMC3    C3 7570   3.921   4.538  10.325 -0.0238 -0.3938  0.3454
  506TMC3    C4 7571   3.955   4.475  10.585  0.5921  0.2569 -0.1838
  506TMC3    C5 7572   3.921   4.378  10.497  0.0493 -0.5447  0.0204
  506TMC3    C6 7573   3.902   4.406  10.367 -0.1008 -0.4600  0.0138
  506TMC3     C 7574   4.075   4.686  10.618 -0.6978 -0.1702  0.2507
  506TMC3     O 7575   4.150   0.021  10.560 -0.1093  0.0441  0.5959
  506TMC3     H 7576   3.985   4.740  10.390  0.4875 -0.2005 -0.1566
  506TMC3    H1 7577   3.994   4.441  10.680 -0.6453  0.1388  0.2852
  506TMC3    H2 7578   3.865   4.327  10.302 -0.5913 -0.5928  0.4547
  506TMC3    C7 7579   4.008   4.264  10.513 -0.1587  0.9621 -0.5731
  506TMC3    C8 7580   3.890   4.569  10.187 -0.8630 -1.0180 -0.4706
  506TMC3    O1 7581   3.965   4.183  10.593 -0.1559 -0.3927  0.0341
  506TMC3    O2 7582   3.795   4.507  10.138  0.0693 -0.5517 -0.4894
  507TMC3    C1 7583   4.312   0.740  14.463  0.1436  0.1242 -0.3682
  507TMC3    C2 7584   4.289   0.734  14.330  0.3635  0.0768  0.1163
  507TMC3    C3 7585   4.366   0.812  14.255 -0.0835 -0.3385  0.3821
  507TMC3    C4 7586   4.406   0.816  14.521  0.0423 -0.7431 -0.2179
  507TMC3    C5 7587   4.488   0.897  14.440 -0.4835 -0.0936  0.3146
  507TMC3    C6 7588   4.470   0.883  14.304 -0.0372  0.2572 -0.1268
  507TMC3     C 7589   4.188   0.723  14.552  0.5786  0.5709  0.0328
  507TMC3     O 7590   4.207   0.687  14.671  0.3695  0.4871  0.4233
  507TMC3     H 7591   4.202   0.690  14.283  2.1638 -3.0269 -0.3390
  507TMC3    H1 7592   4.405   0.810  14.629  0.0163 -1.3942 -0.2559
  507TMC3    H2 7593   4.530   0.947  14.240 -1.1157  0.1443 -1.2515
  507TMC3    C7 7594   4.487   1.041  14.478 -0.1465 -0.7585  0.6183
  507TMC3    C8 7595   4.287   0.880  14.158 -0.2957  0.3261 -0.3682
  507TMC3    O1 7596   4.496   1.113  14.378 -0.1287 -0.0585  0.3677
  507TMC3    O2 7597   4.215   0.824  14.080 -0.0965  0.0119 -0.0726
  508MPD2     C 7598   0.350   3.033  15.945 -0.1844 -0.2503  0.4274
  508MPD2    C1 7599   0.306   3.133  16.031  0.0467  0.4736 -0.6723
  508MPD2    C2 7600   0.242   3.244  15.990 -0.0057  0.3466  0.0543
  508MPD2    C3 7601   0.218   3.251  15.856  0.5940 -0.4859 -0.2787
  508MPD2    C4 7602   0.247   3.149  15.771  0.2301  0.0467  0.3593
  508MPD2    C5 7603   0.317   3.038  15.813 -0.1242 -0.5990  0.0180
  508MPD2     H 7604   0.217   3.326  16.056  5.1872 -0.7669  3.3822
  508MPD2    H1 7605   0.222   3.144  15.666 -1.4868 -0.2563  0.7785
  508MPD2    H2 7606   0.406   2.947  15.977  3.9459  2.9958  1.9067
  508MPD2    H3 7607   0.347   2.956  15.748  1.2855 -0.0647  0.0069
  508MPD2     N 7608   0.158   3.368  15.805  0.1757  0.5582  0.1059
  508MPD2    H5 7609   0.155   3.442  15.874 -0.2079 -0.9050  1.6495
  508MPD2    N1 7610   0.320   3.115  16.167  0.9812  0.0954  0.3773
  508MPD2    H7 7611   0.388   3.046  16.195  2.2716  0.6666 -1.4076
  509TMC3    C1 7612   0.038   3.711  15.503  0.1861  0.8831  0.1615
  509TMC3    C2 7613   0.157   3.782  15.527 -0.2061  0.0862  0.1190
  509TMC3    C3 7614   0.246   3.721  15.608  0.2164  0.8609 -0.9013
  509TMC3    C4 7615   0.024   3.583  15.538 -0.4657 -0.8986  0.0388
  509TMC3    C5 7616   0.110   3.535  15.638 -0.2954  0.9463 -0.2221
  509TMC3    C6 7617   0.221   3.605  15.676  0.4184 -0.7002 -0.4226
  509TMC3     C 7618   4.675   3.779  15.425 -0.1941  0.1172 -0.3483
  509TMC3     O 7619   4.600   3.700  15.375 -0.2622 -0.4507 -0.5104
  509TMC3     H 7620   0.182   3.872  15.472  0.7829 -0.4922 -0.3635
  509TMC3    H1 7621   4.688   3.515  15.506 -1.6536  0.3453  0.2707
  509TMC3    H2 7622   0.300   3.563  15.736 -0.8240 -0.2589  1.5232
  509TMC3    C7 7623   0.111   3.396  15.674 -0.3938  0.3589  0.0971
  509TMC3    C8 7624   0.387   3.744  15.590 -0.1781 -0.2440 -0.1225
  509TMC3    O1 7625   0.082   3.314  15.590 -0.6025  0.3398 -0.2465
  509TMC3    O2 7626   0.464   3.655  15.624  0.1510  0.0146 -0.0167
  510MPD2     C 7627   2.735   0.286  14.392 -0.3626 -0.1706 -0.1573
  510MPD2    C1 7628   2.759   0.198  14.494  0.3044 -0.4039  0.0050
  510MPD2    C2 7629   2.882   0.144  14.502 -0.6099 -0.6842  0.0944
  510MPD2    C3 7630   2.992   0.195  14.425  0.0260 -0.4215 -0.1593
  510MPD2    C4 7631   2.966   0.282  14.324 -0.3970 -0.8324 -0.1028
  510MPD2    C5 7632   2.841   0.327  14.310 -0.0398  0.3511 -0.6898
  510MPD2     H 7633   2.901   0.068  14.576  0.8645  1.0533  1.5016
  510MPD2    H1 7634   3.038   0.316  14.250  0.1388  0.4237  0.9837
  510MPD2    H2 7635   2.638   0.334  14.389  0.6152  1.8303 -0.1461
  510MPD2    H3 7636   2.811   0.401  14.237 -2.3116 -1.4649 -1.6082
  510MPD2     N 7637   3.119   0.150  14.454 -0.9340  0.2615  0.1722
  510MPD2    H5 7638   3.125   0.069  14.516 -0.6107  0.8329  0.8944
  510MPD2    N1 7639   2.650   0.159  14.577  0.1308  0.4166 -0.0952
  510MPD2    H7 7640   2.563   0.204  14.553 -0.2172 -0.5972 -0.7329
  511TMC3    C1 7641   2.529   0.039  14.747  0.3273 -0.2268  0.1856
  511TMC3    C2 7642   2.468   0.137  14.806  0.0540 -0.0539  0.5020
  511TMC3    C3 7643   2.378   0.103  14.907  0.2897 -0.1556  0.5355
  511TMC3    C4 7644   2.499   4.653  14.769 -0.3305 -0.8998  0.2709
  511TMC3    C5 7645   2.405   4.618  14.871  0.1846 -0.2768 -0.4774
  511TMC3    C6 7646   2.344   4.713  14.938  0.2496 -0.2802  0.3072
  511TMC3     C 7647   2.657   0.060  14.679  0.5662  0.3836  0.0836
  511TMC3     O 7648   2.749   4.722  14.701 -0.0312 -0.2814  0.4780
  511TMC3     H 7649   2.485   0.244  14.801  0.3038 -0.1470 -0.6036
  511TMC3    H1 7650   2.548   4.569  14.722  0.7170 -0.6468  0.9211
  511TMC3    H2 7651   2.267   4.681  15.007 -0.5989 -2.5157 -1.6689
  511TMC3    C7 7652   2.415   4.490  14.927  0.1357  0.2447 -0.3667
  511TMC3    C8 7653   2.301   0.213  14.961  0.5941  0.1917 -0.3392
  511TMC3    O1 7654   2.417   4.391  14.852  0.3929  0.3448 -0.6471
  511TMC3    O2 7655   2.314   0.329  14.924 -0.5836 -0.8901  0.1736
  512TMC3    C1 7656   2.151   3.815  13.688 -1.0237  0.4799  0.1959
  512TMC3    C2 7657   2.202   3.919  13.759  0.7019 -0.2832 -0.0153
  512TMC3    C3 7658   2.263   3.889  13.875  0.4904 -0.4821 -0.1777
  512TMC3    C4 7659   2.164   3.684  13.726  0.6540 -0.1564  0.3672
  512TMC3    C5 7660   2.237   3.655  13.836 -0.0696  0.9108 -0.4603
  512TMC3    C6 7661   2.278   3.760  13.917  0.2283  0.1002  0.3457
  512TMC3     C 7662   2.097   3.850  13.556 -0.2066  0.2134  0.3320
  512TMC3     O 7663   2.049   3.963  13.540  0.4029 -0.4192 -0.0848
  512TMC3     H 7664   2.191   4.021  13.723  0.5762 -0.2592  0.0907
  512TMC3    H1 7665   2.119   3.600  13.675 -0.6362  0.1345  1.0281
  512TMC3    H2 7666   2.333   3.747  14.010 -1.4086 -0.7521  1.1888
  512TMC3    C7 7667   2.275   3.524  13.878  0.1105  0.6808 -0.3268
  512TMC3    C8 7668   2.352   3.989  13.927  0.7800 -0.4735 -0.6367
  512TMC3    O1 7669   2.279   3.512  13.999  0.0177  0.4476  0.2223
  512TMC3    O2 7670   2.375   3.976  14.048  0.0213  0.2187  0.4026
  513MPD2     C 7671   3.323   4.669  12.958  0.3758 -0.0980 -0.4311
  513MPD2    C1 7672   3.317   4.534  12.948 -0.2512 -0.5638 -0.6678
  513MPD2    C2 7673   3.339   4.457  13.063 -0.7890  0.3297  0.2282
  513MPD2    C3 7674   3.361   4.512  13.183  1.0067 -0.1703  0.0099
  513MPD2    C4 7675   3.374   4.646  13.194  0.3135 -0.2383 -0.2343
  513MPD2    C5 7676   3.348   4.723  13.082 -0.5837  0.7165 -0.6446
  513MPD2     H 7677   3.348   4.349  13.055 -0.8989  0.3496 -0.1361
  513MPD2    H1 7678   3.395   4.695  13.288 -1.9087 -1.3613  0.8539
  513MPD2    H2 7679   3.296   4.725  12.870 -2.6708 -1.2703 -0.2531
  513MPD2    H3 7680   3.358   0.089  13.089 -1.2487  0.7532 -0.2677
  513MPD2     N 7681   3.384   4.420  13.286  0.0030 -0.3437  0.3953
  513MPD2    H5 7682   3.387   4.321  13.264 -0.1749 -0.1229 -0.6473
  513MPD2    N1 7683   3.301   4.479  12.818  0.2668  0.1218 -0.7348
  513MPD2    H7 7684   3.314   4.538  12.737 -0.9160  2.8348  1.0771
  514TMC3    C1 7685   3.327   4.296  12.654 -0.0380 -0.1009  1.0252
  514TMC3    C2 7686   3.439   4.352  12.602  0.1258  0.2213 -0.3382
  514TMC3    C3 7687   3.526   4.284  12.521  0.1942 -0.3433  0.6210
  514TMC3    C4 7688   3.318   4.160  12.641 -0.4119  0.8590  0.1027
  514TMC3    C5 7689   3.416   4.087  12.575 -0.2198  0.4852 -0.2951
  514TMC3    C6 7690   3.510   4.148  12.500  0.3683 -0.3220 -0.1230
  514TMC3     C 7691   3.289   4.341  12.788  0.1220  0.0450  0.0449
  514TMC3     O 7692   3.277   4.241  12.860  0.6532  0.2996 -0.2016
  514TMC3     H 7693   3.464   4.455  12.627  2.3080  0.1575 -2.2141
  514TMC3    H1 7694   3.232   4.112  12.686  0.9566  0.6009  2.4387
  514TMC3    H2 7695   3.586   4.088  12.451 -0.0459  0.3711 -1.6210
  514TMC3    C7 7696   3.486   3.978  12.644  0.2134  0.3482 -0.2233
  514TMC3    C8 7697   3.655   4.350  12.501  0.3716 -0.4235 -0.1828
  514TMC3    O1 7698   3.572   3.916  12.586  0.9273 -0.5028  1.0034
  514TMC3    O2 7699   3.670   4.452  12.567  0.5304  0.6638 -0.1698
  515MPD2     C 7700   1.371   1.654  14.720  0.0916 -0.7893  0.1704
  515MPD2    C1 7701   1.470   1.624  14.632 -0.3609 -0.0091  0.1346
  515MPD2    C2 7702   1.594   1.670  14.659 -0.0215 -0.0514 -0.4423
  515MPD2    C3 7703   1.619   1.745  14.772  0.7065 -0.0028  0.2023
  515MPD2    C4 7704   1.519   1.784  14.855 -0.7482  0.3807 -0.2464
  515MPD2    C5 7705   1.390   1.736  14.829  0.0950  0.1379 -0.4202
  515MPD2     H 7706   1.668   1.656  14.581  0.2643  2.2148 -0.5936
  515MPD2    H1 7707   1.528   1.845  14.944 -1.5261 -1.2912  0.9671
  515MPD2    H2 7708   1.268   1.621  14.715 -0.1164 -0.0601 -0.4213
  515MPD2    H3 7709   1.305   1.775  14.883  1.5380  0.8329  1.3380
  515MPD2     N 7710   1.748   1.796  14.796 -0.3828 -0.5930  0.1417
  515MPD2    H5 7711   1.749   1.875  14.860 -2.0653 -2.4673  2.4593
  515MPD2    N1 7712   1.452   1.535  14.522  0.1859 -0.0113  0.4676
  515MPD2    H7 7713   1.532   1.490  14.477  0.5841  1.5953 -0.4605
  516TMC3    C1 7714   1.316   1.419  14.369 -0.0107 -0.3808  0.2471
  516TMC3    C2 7715   1.252   1.441  14.253 -0.7795  0.5206  0.1372
  516TMC3    C3 7716   1.176   1.338  14.200 -0.5041  0.1240  0.2608
  516TMC3    C4 7717   1.312   1.295  14.428  0.3887 -0.1216  0.4460
  516TMC3    C5 7718   1.239   1.197  14.371  0.0742  0.4865  0.1339
  516TMC3    C6 7719   1.168   1.221  14.261 -0.5037  0.3031 -0.3052
  516TMC3     C 7720   1.332   1.529  14.461 -0.0852 -0.1665  0.7373
  516TMC3     O 7721   1.227   1.594  14.470 -0.1826 -0.7344 -0.2109
  516TMC3     H 7722   1.247   1.539  14.206  3.6818  1.9055  2.5385
  516TMC3    H1 7723   1.335   1.276  14.532 -0.2874 -0.1744  0.5881
  516TMC3    H2 7724   1.121   1.142  14.203  2.8846 -1.5310 -0.5409
  516TMC3    C7 7725   1.215   1.078  14.454  0.7287  0.2290 -0.6881
  516TMC3    C8 7726   1.100   1.356  14.077  0.6709 -0.4943  0.1955
  516TMC3    O1 7727   1.302   1.050  14.532  0.1773  0.2899 -0.6452
  516TMC3    O2 7728   1.019   1.272  14.045  0.2905  0.1171  0.0717
  517MPD2     C 7729   1.297   3.108   0.114 -0.1550 -0.1001  0.2532
  517MPD2    C1 7730   1.429   3.078   0.098  0.2847  0.3748 -0.1735
  517MPD2    C2 7731   1.523   3.144   0.174  0.1529 -0.4062 -0.4223
  517MPD2    C3 7732   1.485   3.245   0.256 -0.8905 -0.7916 -0.7492
  517MPD2    C4 7733   1.350   3.278   0.272  0.0273  0.0335  0.1872
  517MPD2    C5 7734   1.254   3.208   0.198  0.6151 -0.2259 -0.1646
  517MPD2     H 7735   1.626   3.115   0.157 -0.4412 -2.1537 -0.9668
  517MPD2    H1 7736   1.322   3.342   0.355  1.2241 -0.4896  0.9930
  517MPD2    H2 7737   1.220   3.052   0.062  1.6879 -1.0668 -1.4561
  517MPD2    H3 7738   1.148   3.225   0.215  0.1419 -0.4696 -2.9021
  517MPD2     N 7739   1.571   3.333   0.314 -0.2973 -0.2399  0.0512
  517MPD2    H5 7740   1.530   3.416   0.355  0.2911 -0.3438  0.8664
  517MPD2    N1 7741   1.473   2.975   0.009 -0.5548  0.4092 -0.2099
  517MPD2    H7 7742   1.571   2.949   0.008 -0.1707  1.8126  0.3891
  518TMC3    C1 7743   1.462   2.770  17.658  0.2754 -0.0483  0.2478
  518TMC3    C2 7744   1.391   2.662  17.613  0.2276 -0.5829 -0.3608
  518TMC3    C3 7745   1.450   2.563  17.534  0.0046 -0.6521 -0.2451
  518TMC3    C4 7746   1.591   2.788  17.610 -0.0257 -0.1737  0.0770
  518TMC3    C5 7747   1.650   2.691  17.526  0.2054 -0.1831 -0.0017
  518TMC3    C6 7748   1.572   2.581  17.487 -0.0577 -0.2905  0.0766
  518TMC3     C 7749   1.391   2.894  17.698 -0.5422 -0.2060  0.6848
  518TMC3     O 7750   1.270   2.895  17.679 -0.2172  0.2082  0.0148
  518TMC3     H 7751   1.289   2.651  17.648  0.5082  0.9088  0.9453
  518TMC3    H1 7752   1.652   2.875  17.631 -1.3446  0.9203 -0.6397
  518TMC3    H2 7753   1.602   2.510  17.411  0.0051 -0.0942 -0.0798
  518TMC3    C7 7754   1.789   2.703  17.483  0.9807  0.4960 -0.9819
  518TMC3    C8 7755   1.365   2.462  17.479  0.7146 -0.2907  0.3766
  518TMC3    O1 7756   1.839   2.815  17.497  0.2412  0.5973 -0.2571
  518TMC3    O2 7757   1.401   2.415  17.369  0.0247 -0.2873  0.3040
  519MPD2     C 7758   3.066   1.144  14.400 -0.1821  0.1378  0.9959
  519MPD2    C1 7759   2.990   1.109  14.293 -0.2387 -0.1507 -0.3751
  519MPD2    C2 7760   2.979   0.976  14.259 -0.0160  0.4134  0.1947
  519MPD2    C3 7761   3.051   0.879  14.323  0.1656  0.8019  0.0212
  519MPD2    C4 7762   3.127   0.915  14.432 -0.6121  0.0345 -0.2600
  519MPD2    C5 7763   3.125   1.045  14.478  0.0963 -0.0556  0.3641
  519MPD2     H 7764   2.911   0.943  14.182 -1.3099 -1.6766  2.2517
  519MPD2    H1 7765   3.200   0.846  14.473 -0.8680 -0.3560 -0.4554
  519MPD2    H2 7766   3.081   1.248  14.427 -2.5225  0.4303  1.0980
  519MPD2    H3 7767   3.202   1.061  14.553 -0.1639  2.4950  0.0863
  519MPD2     N 7768   3.063   0.742  14.278 -0.2711  0.4897  0.2090
  519MPD2    H5 7769   3.103   0.681  14.349 -0.3786  1.3271  0.9919
  519MPD2    N1 7770   2.915   1.199  14.210  0.1430 -0.0681  0.0252
  519MPD2    H7 7771   2.873   1.154  14.129 -2.2159  0.7324  0.8386
  520TMC3    C1 7772   3.079   0.566  14.129  0.1617 -0.0006 -0.7087
  520TMC3    C2 7773   3.056   0.529  13.994  0.2668 -0.2839  0.6432
  520TMC3    C3 7774   3.150   0.459  13.927 -0.5649 -0.2110 -0.0959
  520TMC3    C4 7775   3.195   0.539  14.197 -0.1262  0.2932  0.3086
  520TMC3    C5 7776   3.286   0.474  14.120  0.4242  0.6639 -0.2552
  520TMC3    C6 7777   3.271   0.426  13.991  0.4839 -0.0690 -0.1915
  520TMC3     C 7778   3.020   0.690  14.160 -0.1962 -1.3970 -0.0466
  520TMC3     O 7779   2.956   0.748  14.071  0.0368  0.4710  0.0377
  520TMC3     H 7780   2.956   0.548  13.956  1.0445  0.1491 -1.1358
  520TMC3    H1 7781   3.223   0.575  14.295  1.1096 -0.0664  0.0963
  520TMC3    H2 7782   3.348   0.370  13.939  1.5377  1.0401  0.1984
  520TMC3    C7 7783   3.421   0.499  14.171 -0.6189  0.8039 -0.1658
  520TMC3    C8 7784   3.142   0.436  13.776 -0.5599  0.3969 -0.0669
  520TMC3    O1 7785   3.429   0.504  14.293  0.3146 -0.5539  0.7578
  520TMC3    O2 7786   3.218   0.348  13.732 -0.0406  0.0645 -0.0934
  521MPD2     C 7787   3.683   3.679  17.615 -0.1302 -0.7878  0.3574
  521MPD2    C1 7788   3.676   3.743  17.495 -0.9214  0.2835 -0.4196
  521MPD2    C2 7789   3.790   3.754  17.410  0.7753  0.1711 -0.6609
  521MPD2    C3 7790   3.908   3.695  17.446 -0.7218  0.0354 -0.1058
  521MPD2    C4 7791   3.914   3.622  17.564 -0.3215 -0.0363  0.0992
  521MPD2    C5 7792   3.801   3.626  17.650 -0.0044  0.1187  0.6635
  521MPD2     H 7793   3.787   3.809  17.316 -0.4419  0.5910 -0.3822
  521MPD2    H1 7794   4.006   3.577  17.600  0.1685 -0.0294 -1.1459
  521MPD2    H2 7795   3.594   3.664  17.675  0.1732 -1.8498  0.5399
  521MPD2    H3 7796   3.810   3.574  17.745 -0.9433  0.4351  0.9298
  521MPD2     N 7797   4.013   3.703  17.356  0.0540  0.0179 -0.5349
  521MPD2    H5 7798   3.991   3.760  17.275 -1.3934 -3.1759 -2.4053
  521MPD2    N1 7799   3.561   3.804  17.445  0.1819 -0.0891 -0.3908
  521MPD2    H7 7800   3.561   3.832  17.348  2.2841  0.0217 -0.3392
  522TMC3    C1 7801   4.226   3.662  17.250 -0.0760 -0.1354 -0.8727
  522TMC3    C2 7802   4.355   3.616  17.271  0.3966  0.3156 -0.4290
  522TMC3    C3 7803   4.433   3.578  17.175  0.5291 -0.0153  0.3241
  522TMC3    C4 7804   4.166   3.654  17.123 -0.1164  0.0565 -0.4038
  522TMC3    C5 7805   4.248   3.608  17.026  0.4454  0.0350  0.2504
  522TMC3    C6 7806   4.378   3.560  17.050 -0.2618 -0.1500  0.6200
  522TMC3     C 7807   4.140   3.647  17.365 -0.3513 -1.0806  0.4224
  522TMC3     O 7808   4.189   3.585  17.459 -0.2947 -0.4185 -0.0409
  522TMC3     H 7809   4.397   3.609  17.371  0.5566  1.6514 -0.3911
  522TMC3    H1 7810   4.066   3.695  17.116  0.7611  2.4203  1.1390
  522TMC3    H2 7811   4.439   3.535  16.964  0.6333 -0.7637  1.4390
  522TMC3    C7 7812   4.222   3.632  16.890  0.2521  0.1589  0.0146
  522TMC3    C8 7813   4.551   3.503  17.213 -0.3089  0.0907 -0.3779
  522TMC3    O1 7814   4.283   3.562  16.805 -0.1482 -0.1701 -0.4290
  522TMC3    O2 7815   4.590   3.526  17.326  0.0765  0.2755 -0.0022
  523MPD2     C 7816   2.129   3.154  10.401  0.5250 -0.2535 -0.4289
  523MPD2    C1 7817   2.054   3.073  10.322 -0.2058 -0.7401 -0.1151
  523MPD2    C2 7818   1.941   3.120  10.253  0.1050 -0.6228  0.4188
  523MPD2    C3 7819   1.907   3.256  10.253  0.4398 -0.0315  0.1919
  523MPD2    C4 7820   1.984   3.335  10.334 -0.2759  0.3871  0.0471
  523MPD2    C5 7821   2.090   3.283  10.406 -0.6279  0.2748  0.5068
  523MPD2     H 7822   1.881   3.046  10.200  0.1685  1.5310 -2.6679
  523MPD2    H1 7823   1.970   3.443  10.336 -1.8607  0.1618  1.3087
  523MPD2    H2 7824   2.212   3.127  10.465  0.2572  2.8875  1.2717
  523MPD2    H3 7825   2.151   3.350  10.466  0.6138 -0.6971  0.3379
  523MPD2     N 7826   1.800   3.309  10.182  0.2173 -0.2567  0.0475
  523MPD2    H5 7827   1.778   3.402  10.216  2.3507  0.2132  0.1723
  523MPD2    N1 7828   2.081   2.933  10.318 -0.5101 -0.8259 -0.1848
  523MPD2    H7 7829   2.141   2.883  10.384 -2.4383  0.6244  2.6638
  524TMC3    C1 7830   1.620   3.322  10.029 -0.1703 -0.5711 -0.2472
  524TMC3    C2 7831   1.621   3.331   9.893 -0.3438 -0.2015  0.0302
  524TMC3    C3 7832   1.552   3.434   9.831  0.0524  0.7531 -0.1868
  524TMC3    C4 7833   1.572   3.425  10.109  0.3033  0.6626 -0.2646
  524TMC3    C5 7834   1.525   3.531  10.038 -0.1360  0.2770 -0.0110
  524TMC3    C6 7835   1.501   3.540   9.904  0.4183  0.4980 -0.2568
  524TMC3     C 7836   1.731   3.244  10.081  0.3588 -0.1572  0.5968
  524TMC3     O 7837   1.757   3.137  10.021 -0.5563  0.5985 -0.5998
  524TMC3     H 7838   1.673   3.252   9.841 -2.6276 -2.5053  1.2176
  524TMC3    H1 7839   1.587   3.431  10.216  0.8546  1.1386 -0.3702
  524TMC3    H2 7840   1.451   3.612   9.840 -1.2967 -0.5518 -0.0994
  524TMC3    C7 7841   1.535   3.657  10.110  0.0948 -0.1841  0.8227
  524TMC3    C8 7842   1.593   3.457   9.697  0.4162 -0.4265 -0.0606
  524TMC3    O1 7843   1.551   3.650  10.233  0.0932 -0.3397  0.1279
  524TMC3    O2 7844   1.638   3.559   9.654 -0.2748  0.2872 -0.2984
  525MPD2     C 7845   4.543   0.445  14.493 -0.0667 -0.1491  0.1936
  525MPD2    C1 7846   4.671   0.424  14.550 -0.2655 -0.0093 -0.4304
  525MPD2    C2 7847   0.037   0.479  14.490  0.5334 -0.2925  0.0266
  525MPD2    C3 7848   0.021   0.542  14.367  0.5135 -0.2989  0.0735
  525MPD2    C4 7849   4.642   0.547  14.304 -0.8507 -0.2692  1.1045
  525MPD2    C5 7850   4.535   0.493  14.369 -0.7990 -0.2227  0.3511
  525MPD2     H 7851   0.133   0.473  14.539  0.7838  1.7810 -0.1912
  525MPD2    H1 7852   4.632   0.605  14.213  0.2583 -0.6384  0.7473
  525MPD2    H2 7853   4.454   0.398  14.534  1.0113 -2.8479 -0.5476
  525MPD2    H3 7854   4.439   0.514  14.321  0.6359  2.7156 -1.2566
  525MPD2     N 7855   0.132   0.606  14.306 -0.4278 -0.3353 -0.0367
  525MPD2    H5 7856   0.127   0.647  14.213 -1.0796 -2.2273 -0.8293
  525MPD2    N1 7857   4.692   0.351  14.669  0.2392  0.3204 -0.1567
  525MPD2    H7 7858   0.040   0.330  14.709 -0.0109 -0.2392  0.1267
  526TMC3    C1 7859   4.649   0.247  14.874  0.0638 -0.2256  0.3664
  526TMC3    C2 7860   4.592   0.256  14.994 -0.1674  0.4524  0.3584
  526TMC3    C3 7861   4.657   0.201  15.096 -0.2651  0.0711  0.0906
  526TMC3    C4 7862   0.035   0.191  14.851  0.0648  0.2309  0.6422
  526TMC3    C5 7863   0.094   0.131  14.963 -0.1785  0.2091 -0.0366
  526TMC3    C6 7864   0.041   0.148  15.088 -0.5352 -0.0378  0.8288
  526TMC3     C 7865   4.590   0.315  14.758 -0.1552  0.0957  0.0148
  526TMC3     O 7866   4.472   0.357  14.769  0.2969 -0.2199 -0.8011
  526TMC3     H 7867   4.486   0.280  14.994 -0.2419  0.1217 -0.0635
  526TMC3    H1 7868   0.077   0.178  14.752 -0.2695  4.0248 -0.0137
  526TMC3    H2 7869   0.088   0.118  15.181 -1.6232  1.2439  1.7899
  526TMC3    C7 7870   0.219   0.056  14.946  0.1863 -0.5369  0.2851
  526TMC3    C8 7871   4.602   0.225  15.228 -0.2400 -0.0158  0.1124
  526TMC3    O1 7872   0.241   0.012  14.835  0.4884  0.2298 -0.5983
  526TMC3    O2 7873   4.690   0.243  15.316  0.3086 -0.1002 -0.6695
  527MPD2     C 7874   2.516   3.278   1.521 -0.0001 -0.1985 -0.2419
  527MPD2    C1 7875   2.495   3.284   1.384 -0.1418  0.5949  0.1950
  527MPD2    C2 7876   2.560   3.196   1.296  0.6325 -0.3724  0.4316
  527MPD2    C3 7877   2.648   3.108   1.346 -0.3579 -0.4996 -0.2124
  527MPD2    C4 7878   2.660   3.092   1.484 -0.2141 -0.4243 -0.1620
  527MPD2    C5 7879   2.588   3.173   1.570  0.3990  1.5327  0.4755
  527MPD2     H 7880   2.528   3.197   1.193  0.8425  0.7514  0.3698
  527MPD2    H1 7881   2.712   3.009   1.530 -1.2907  0.0349  1.8969
  527MPD2    H2 7882   2.454   3.328   1.594  0.0482 -1.3546  0.5949
  527MPD2    H3 7883   2.598   3.161   1.677  0.2389 -0.2596  0.2810
  527MPD2     N 7884   2.702   3.018   1.258  0.1201  0.2614 -0.8002
  527MPD2    H5 7885   2.652   3.008   1.170  0.4269 -0.4799 -0.8902
  527MPD2    N1 7886   2.401   3.371   1.322 -0.0546 -0.1156  0.2270
  527MPD2    H7 7887   2.405   3.382   1.222 -1.0135 -4.5282 -0.3038
  528TMC3    C1 7888   2.246   3.540   1.269  0.2127 -0.2483 -0.3807
  528TMC3    C2 7889   2.321   3.569   1.152  0.4162 -0.2483 -0.2996
  528TMC3    C3 7890   2.258   3.640   1.051  0.0131  0.1958  0.4951
  528TMC3    C4 7891   2.117   3.582   1.279 -1.3928  0.7383  0.5102
  528TMC3    C5 7892   2.063   3.654   1.177 -0.0467 -0.0905 -0.4991
  528TMC3    C6 7893   2.128   3.681   1.058  0.5987  0.1423 -0.2051
  528TMC3     C 7894   2.307   3.456   1.378  1.1074 -0.4598 -0.3605
  528TMC3     O 7895   2.261   3.471   1.489 -0.6390  0.4134 -0.3824
  528TMC3     H 7896   2.426   3.547   1.139  0.6825 -0.9751  3.2851
  528TMC3    H1 7897   2.062   3.569   1.371  1.7917 -0.3475  2.2570
  528TMC3    H2 7898   2.074   3.727   0.976 -1.0566 -1.9794 -0.3212
  528TMC3    C7 7899   1.930   3.719   1.194  0.4313 -0.1522  0.0440
  528TMC3    C8 7900   2.335   3.653   0.926  0.1405 -0.2841  0.1961
  528TMC3    O1 7901   1.911   3.758   1.307 -0.1597 -0.5846 -0.1879
  528TMC3    O2 7902   2.428   3.577   0.912 -0.6468 -0.0712  0.3104
  529MPD2     C 7903   4.535   2.200   0.863 -0.0683 -0.3456 -0.0281
  529MPD2    C1 7904   4.604   2.115   0.777  0.1913 -0.2094  0.2891
  529MPD2    C2 7905   4.586   2.135   0.644 -0.2254 -0.8278 -0.6325
  529MPD2    C3 7906   4.493   2.228   0.599  0.4249 -0.9643  0.5661
  529MPD2    C4 7907   4.415   2.298   0.685 -0.1656  0.4901  0.2490
  529MPD2    C5 7908   4.449   2.291   0.819  0.4494 -0.0015  0.4711
  529MPD2     H 7909   4.648   2.079   0.575 -1.0840 -0.6664 -1.5344
  529MPD2    H1 7910   4.344   2.370   0.645 -0.9798 -1.1903 -1.3609
  529MPD2    H2 7911   4.565   2.209   0.967 -2.6371  0.1747  0.6618
  529MPD2    H3 7912   4.400   2.357   0.889  0.5906  0.8893 -0.2607
  529MPD2     N 7913   4.464   2.249   0.464  0.0042  0.1873  0.1446
  529MPD2    H5 7914   4.386   2.307   0.438 -1.2910 -1.6172  0.0021
  529MPD2    N1 7915   4.705   2.022   0.823  0.2323 -0.5991  0.7824
  529MPD2    H7 7916   0.009   1.974   0.747 -2.1821  0.1902 -1.1661
  530TMC3    C1 7917   0.103   1.903   0.969  0.7938  0.5122 -0.3696
  530TMC3    C2 7918   0.178   1.904   1.080 -0.0056  0.3759 -0.0945
  530TMC3    C3 7919   0.255   1.804   1.107  0.4827 -0.6243 -0.2263
  530TMC3    C4 7920   0.103   1.800   0.878 -0.3740 -0.1915  0.0047
  530TMC3    C5 7921   0.179   1.696   0.915  0.0493  0.0037  0.3955
  530TMC3    C6 7922   0.249   1.689   1.033 -0.1410 -0.2540  0.1592
  530TMC3     C 7923   0.003   2.014   0.954  0.3433 -0.2681 -0.8242
  530TMC3     O 7924   4.713   2.072   1.058 -0.6630 -0.1959 -0.4519
  530TMC3     H 7925   0.180   1.994   1.141 -0.5055 -0.0430  0.5321
  530TMC3    H1 7926   0.029   1.788   0.800 -2.4942 -1.0992  2.1787
  530TMC3    H2 7927   0.296   1.594   1.056 -0.8091 -0.3966  0.9080
  530TMC3    C7 7928   0.184   1.588   0.818 -0.2095 -0.1895 -0.1047
  530TMC3    C8 7929   0.303   1.790   1.248 -0.2749 -0.7550  0.0372
  530TMC3    O1 7930   0.180   1.611   0.696 -0.1898  0.0767 -0.3006
  530TMC3    O2 7931   0.286   1.891   1.321  0.8348 -0.2356  0.1991
  531MPD2     C 7932   3.684   3.829  13.086  0.2271  0.4485 -0.4958
  531MPD2    C1 7933   3.589   3.924  13.108  0.5467 -0.4641 -0.5557
  531MPD2    C2 7934   3.507   3.962  13.002  0.1500  0.3511  0.7843
  531MPD2    C3 7935   3.529   3.915  12.871  0.6658  0.4540 -0.1364
  531MPD2    C4 7936   3.632   3.828  12.848  0.1000  0.1151 -0.3508
  531MPD2    C5 7937   3.715   3.785  12.955  0.0163  0.2836 -1.0701
  531MPD2     H 7938   3.427   4.034  13.019 -0.2743  0.3424 -1.1781
  531MPD2    H1 7939   3.656   3.788  12.750  1.9619  1.9682 -0.6484
  531MPD2    H2 7940   3.745   3.790  13.166 -0.0715  2.7220  0.8329
  531MPD2    H3 7941   3.801   3.720  12.943 -0.1976 -0.3033  0.5990
  531MPD2     N 7942   3.448   3.972  12.776 -0.4025  0.0694 -0.6126
  531MPD2    H5 7943   3.379   4.035  12.816  0.1471 -1.1714  2.2663
  531MPD2    N1 7944   3.583   3.981  13.239  0.4398 -0.3908 -0.4296
  531MPD2    H7 7945   3.649   3.952  13.310  0.2765  0.6445  0.1389
  532TMC3    C1 7946   3.499   4.118  13.422 -0.9790  0.4227  0.3964
  532TMC3    C2 7947   3.406   4.221  13.438  0.0654  0.6881 -0.0026
  532TMC3    C3 7948   3.444   4.338  13.494  0.3442 -0.5927  0.1512
  532TMC3    C4 7949   3.625   4.124  13.475 -0.2900  0.1505 -0.1312
  532TMC3    C5 7950   3.652   4.237  13.545  0.0107  0.0762 -0.4784
  532TMC3    C6 7951   3.559   4.341  13.567 -0.4566 -0.4478 -0.2177
  532TMC3     C 7952   3.485   4.073  13.282 -0.4233 -0.0601  0.4364
  532TMC3     O 7953   3.400   4.135  13.219 -0.2819 -0.1057  0.4700
  532TMC3     H 7954   3.302   4.198  13.419  0.2654 -0.5119  0.3440
  532TMC3    H1 7955   3.692   4.039  13.477 -1.2591 -0.5780  1.2720
  532TMC3    H2 7956   3.592   4.429  13.622 -0.9859  1.1244 -2.3753
  532TMC3    C7 7957   3.788   4.266  13.599 -0.4693 -0.6063 -0.9530
  532TMC3    C8 7958   3.417   4.457  13.414  0.0305 -0.7288  0.1680
  532TMC3    O1 7959   3.801   4.363  13.678 -0.3147 -0.0137 -0.2467
  532TMC3    O2 7960   3.457   4.562  13.458  0.4170 -0.3610  0.8147
  533TMC3    C1 7961   0.270   0.781  14.304 -0.5670  0.5053  0.4228
  533TMC3    C2 7962   0.394   0.827  14.329  0.0728 -0.0379  0.7798
  533TMC3    C3 7963   0.411   0.964  14.348 -0.2432  0.0581  0.5882
  533TMC3    C4 7964   0.171   0.866  14.271 -0.1758  0.5900 -0.0873
  533TMC3    C5 7965   0.179   0.996  14.308 -0.0133 -0.3408  0.2703
  533TMC3    C6 7966   0.307   1.052  14.327  0.0076  0.4665  0.6880
  533TMC3     C 7967   0.235   0.662  14.380  0.4719  0.2882 -0.0403
  533TMC3     O 7968   0.282   0.650  14.494 -0.3211 -0.2382  0.1252
  533TMC3     H 7969   0.462   0.756  14.374  0.3812 -2.0960 -2.8544
  533TMC3    H1 7970   0.072   0.833  14.243  0.5060 -0.3369 -1.4389
  533TMC3    H2 7971   0.328   1.157  14.343 -0.2594  0.7044 -0.5785
  533TMC3    C7 7972   0.114   1.012  14.432 -0.2146  0.0173  0.0885
  533TMC3    C8 7973   0.543   1.020  14.329  0.9487 -1.0261  0.6399
  533TMC3    O1 7974   0.052   0.911  14.471 -0.5102  0.2046  0.3693
  533TMC3    O2 7975   0.630   0.996  14.411  0.6719  0.7306  0.1435
  534MPD2     C 7976   2.767   1.428   0.910  0.5798 -0.1423  0.2553
  534MPD2    C1 7977   2.715   1.535   0.974  0.3459  0.0161  0.0084
  534MPD2    C2 7978   2.577   1.548   0.983 -0.0494 -0.7297 -0.0847
  534MPD2    C3 7979   2.493   1.447   0.920  1.2126 -0.0011 -0.2631
  534MPD2    C4 7980   2.555   1.344   0.856  0.0765 -0.3394  0.6006
  534MPD2    C5 7981   2.689   1.331   0.857 -0.0524  0.7219 -0.8218
  534MPD2     H 7982   2.533   1.635   1.029 -1.1495 -1.1800 -0.2886
  534MPD2    H1 7983   2.491   1.272   0.806  1.4199  0.9551 -2.9394
  534MPD2    H2 7984   2.872   1.407   0.892  1.0417  2.7528 -0.4341
  534MPD2    H3 7985   2.738   1.250   0.804  1.2509  0.8415  0.2079
  534MPD2     N 7986   2.353   1.443   0.923 -0.2028  0.6993  0.2234
  534MPD2    H5 7987   2.308   1.387   0.852 -0.2992  1.0404  0.0151
  534MPD2    N1 7988   2.793   1.647   1.016 -0.0036 -0.1618  0.4781
  534MPD2    H7 7989   2.742   1.708   1.080  0.6211 -0.0472  0.8783
  535TMC3    C1 7990   2.137   1.528   0.979  0.4639 -0.0353  0.4948
  535TMC3    C2 7991   2.062   1.549   1.091 -0.5197 -0.0498  0.4488
  535TMC3    C3 7992   1.932   1.585   1.081  0.4778  0.1768  0.1048
  535TMC3    C4 7993   2.089   1.555   0.847  0.0416  0.2597  0.9465
  535TMC3    C5 7994   1.958   1.589   0.851 -0.1756  0.2202  0.0599
  535TMC3    C6 7995   1.878   1.597   0.962 -0.3759 -0.0313 -0.5593
  535TMC3     C 7996   2.283   1.518   1.013 -0.0047 -0.9495  0.5046
  535TMC3     O 7997   2.317   1.565   1.125 -0.2778  0.3261 -0.3045
  535TMC3     H 7998   2.095   1.529   1.192  0.3518  0.2652  0.2273
  535TMC3    H1 7999   2.145   1.548   0.754  1.1129 -0.4805  1.6430
  535TMC3    H2 8000   1.772   1.623   0.963 -1.4510 -4.4340 -0.0598
  535TMC3    C7 8001   1.901   1.623   0.724 -0.0907 -0.2281  0.7000
  535TMC3    C8 8002   1.858   1.631   1.203  0.3936 -0.0301 -0.0448
  535TMC3    O1 8003   1.964   1.598   0.624 -0.3802 -0.7571 -0.0736
  535TMC3    O2 8004   1.738   1.649   1.192 -0.2576 -0.5866 -0.8487
  536MPD2     C 8005   0.901   4.712  16.610  0.6910 -0.5102 -0.5521
  536MPD2    C1 8006   0.770   4.736  16.576  0.2480 -1.2089 -0.2830
  536MPD2    C2 8007   0.757   0.086  16.478 -0.0642  0.6293 -0.5980
  536MPD2    C3 8008   0.860   0.148  16.417 -0.4918  0.6720  0.1207
  536MPD2    C4 8009   0.992   0.113  16.444  0.1571 -0.2072 -0.5326
  536MPD2    C5 8010   1.007   0.023  16.542 -0.1265 -0.0558  0.3060
  536MPD2     H 8011   0.653   0.109  16.460 -0.1764  0.1160 -0.6123
  536MPD2    H1 8012   1.071   0.161  16.387  0.5308 -2.2399 -1.7365
  536MPD2    H2 8013   0.930   4.639  16.684 -0.0771  0.9411  1.1569
  536MPD2    H3 8014   1.106   4.737  16.577  0.0518 -0.9381 -0.9315
  536MPD2     N 8015   0.839   0.230  16.306  0.3495  1.1610 -0.3470
  536MPD2    H5 8016   0.921   0.260  16.254  0.3390 -2.5794 -2.5184
  536MPD2    N1 8017   0.670   4.673  16.657  0.4168 -0.0422 -0.6858
  536MPD2    H7 8018   0.706   4.628  16.741 -0.1953  0.2181 -0.2877
  537TMC3    C1 8019   0.454   4.609  16.718  0.6129 -0.0217  0.8088
  537TMC3    C2 8020   0.498   4.586  16.848 -0.1142 -0.8302 -0.2865
  537TMC3    C3 8021   0.452   4.475  16.918 -0.7802 -0.0915 -0.3412
  537TMC3    C4 8022   0.351   4.540  16.661 -0.2943  0.2203  0.4097
  537TMC3    C5 8023   0.308   4.429  16.733 -0.5818 -0.4309  0.0187
  537TMC3    C6 8024   0.360   4.398  16.860 -0.4646  0.0691 -1.0982
  537TMC3     C 8025   0.537   4.682  16.624  0.5643  1.0035 -1.1192
  537TMC3     O 8026   0.489   4.708  16.513 -0.1011 -0.7010 -0.7478
  537TMC3     H 8027   0.582   4.639  16.891 -0.6463  0.8164 -1.2783
  537TMC3    H1 8028   0.317   4.566  16.562 -0.0200  0.4684  0.3806
  537TMC3    H2 8029   0.321   4.314  16.916  0.1743  0.6631  0.2220
  537TMC3    C7 8030   0.223   4.335  16.671 -0.0225  0.1435  0.1806
  537TMC3    C8 8031   0.508   4.446  17.052 -0.2406  0.0963 -0.1726
  537TMC3    O1 8032   0.128   4.376  16.610  0.6143 -0.0052 -0.5104
  537TMC3    O2 8033   0.454   4.353  17.112 -0.4720 -0.0683  0.0705
  538TMC3    C1 8034   3.125   2.848  10.854 -0.6042  0.1829  0.3194
  538TMC3    C2 8035   3.237   2.924  10.857 -0.3672  1.0573  0.4375
  538TMC3    C3 8036   3.262   3.003  10.750  0.5297 -0.8616  0.9754
  538TMC3    C4 8037   3.022   2.866  10.759  0.0329 -0.0266 -0.1168
  538TMC3    C5 8038   3.049   2.956  10.665  1.1522 -0.3965 -0.0556
  538TMC3    C6 8039   3.169   3.022  10.651 -0.3727 -0.0479  0.0230
  538TMC3     C 8040   3.073   2.814  10.981 -0.3075 -0.4155  0.1533
  538TMC3     O 8041   3.001   2.716  10.991  0.0928 -0.3486 -0.5730
  538TMC3     H 8042   3.312   2.905  10.932  0.9740 -0.0401 -1.1926
  538TMC3    H1 8043   2.925   2.819  10.764 -0.2441  0.5216 -0.4776
  538TMC3    H2 8044   3.184   3.094  10.572 -0.7086  0.8575  0.7807
  538TMC3    C7 8045   2.936   3.029  10.647  0.0521  0.2389 -1.1714
  538TMC3    C8 8046   3.381   3.092  10.750  0.5049  0.6457  0.9816
  538TMC3    O1 8047   2.828   2.981  10.614  0.6188  0.3570  0.2487
  538TMC3    O2 8048   3.449   3.092  10.854  0.2634  0.4347 -0.9914
  539MPD2     C 8049   2.763   1.904  11.829  0.6627  0.0797  0.4009
  539MPD2    C1 8050   2.848   1.979  11.755 -0.0035 -1.7652  0.0759
  539MPD2    C2 8051   2.828   2.115  11.751 -0.3405  0.3499  0.5100
  539MPD2    C3 8052   2.730   2.180  11.821 -0.0955 -0.0581  1.0563
  539MPD2    C4 8053   2.657   2.101  11.910 -0.2351  0.3665  0.1851
  539MPD2    C5 8054   2.675   1.966  11.907  0.3288 -0.7017  0.3681
  539MPD2     H 8055   2.878   2.176  11.677  1.8911 -0.9749  0.9399
  539MPD2    H1 8056   2.586   2.139  11.982  1.7055  3.1246  0.6463
  539MPD2    H2 8057   2.757   1.796  11.840 -2.4428  0.4376  2.2547
  539MPD2    H3 8058   2.604   1.901  11.958  2.2061 -1.9551  1.3818
  539MPD2     N 8059   2.699   2.317  11.813  0.2045 -0.5263  1.1587
  539MPD2    H5 8060   2.614   2.343  11.862  0.2793  1.9102 -0.0331
  539MPD2    N1 8061   2.947   1.916  11.676 -0.3636  0.2496  0.0173
  539MPD2    H7 8062   2.999   1.977  11.614  0.6147  0.0419  0.6519
  540TMC3    C1 8063   2.707   2.547  11.750  0.0751 -0.4095 -0.1553
  540TMC3    C2 8064   2.732   2.622  11.639 -0.4412  0.1006  0.3779
  540TMC3    C3 8065   2.660   2.746  11.642 -0.5406  0.3218 -0.6073
  540TMC3    C4 8066   2.630   2.583  11.859  0.9272  0.7492 -0.0559
  540TMC3    C5 8067   2.566   2.711  11.852  0.4805  0.0578 -0.6955
  540TMC3    C6 8068   2.581   2.793  11.747 -0.7422 -0.6013  0.4796
  540TMC3     C 8069   2.766   2.413  11.741 -0.2922 -0.7562  0.3412
  540TMC3     O 8070   2.842   2.398  11.648  0.3224  0.0548 -0.4973
  540TMC3     H 8071   2.802   2.588  11.564 -2.7357  0.1116 -1.7827
  540TMC3    H1 8072   2.620   2.518  11.945  1.4782 -0.6579 -1.0459
  540TMC3    H2 8073   2.540   2.892  11.731  0.7512 -0.4273 -2.1747
  540TMC3    C7 8074   2.462   2.745  11.946 -0.2483  0.0211 -0.1403
  540TMC3    C8 8075   2.617   2.794  11.513  0.0185  0.6361  0.3469
  540TMC3    O1 8076   2.361   2.804  11.900 -0.1712  0.9125  0.0253
  540TMC3    O2 8077   2.596   2.915  11.507  0.1069 -0.0147 -0.5687
  541MPD2     C 8078   0.337   3.862  13.489  0.5379  0.0119 -0.2802
  541MPD2    C1 8079   0.460   3.856  13.426 -0.2497  0.5790  0.1489
  541MPD2    C2 8080   0.492   3.948  13.327  0.1448  0.8050 -0.4803
  541MPD2    C3 8081   0.403   4.038  13.282  0.1127 -0.0349 -0.1191
  541MPD2    C4 8082   0.280   4.047  13.348  0.2001 -0.2925  0.3719
  541MPD2    C5 8083   0.246   3.952  13.440 -0.0798  0.3731  0.0563
  541MPD2     H 8084   0.590   3.943  13.281 -0.0741 -0.1640 -0.8386
  541MPD2    H1 8085   0.208   4.125  13.324  1.9179  1.0379 -0.3731
  541MPD2    H2 8086   0.304   3.790  13.563  0.4650 -1.7804 -2.0522
  541MPD2    H3 8087   0.147   3.956  13.484  1.0128 -0.3866  2.5774
  541MPD2     N 8088   0.438   4.141  13.186  0.1901 -0.4163 -0.2519
  541MPD2    H5 8089   0.365   4.206  13.158 -0.5987 -1.0095  0.4251
  541MPD2    N1 8090   0.548   3.761  13.469  0.1390  0.3527 -0.6862
  541MPD2    H7 8091   0.502   3.697  13.533  4.3886 -1.8798  0.1216
  542TMC3    C1 8092   0.572   4.246  13.008  0.1260 -0.3303  0.1811
  542TMC3    C2 8093   0.665   4.225  12.909 -0.3921 -0.5275  0.4145
  542TMC3    C3 8094   0.680   4.321  12.807  0.3178  0.2102  0.4639
  542TMC3    C4 8095   0.488   4.356  13.010 -0.3180 -0.1300  0.5850
  542TMC3    C5 8096   0.506   4.451  12.911  0.3433  0.4862 -0.1056
  542TMC3    C6 8097   0.597   4.439  12.808 -0.1021  0.4482 -0.3421
  542TMC3     C 8098   0.551   4.143  13.104  0.0472  0.2788 -0.5495
  542TMC3     O 8099   0.630   4.051  13.100  0.0944 -0.4283 -0.6286
  542TMC3     H 8100   0.734   4.144  12.927  1.1574  0.6485 -0.2455
  542TMC3    H1 8101   0.415   4.372  13.088  0.0089  0.7464  0.7048
  542TMC3    H2 8102   0.610   4.514  12.731 -0.3048  1.5032  0.6607
  542TMC3    C7 8103   0.414   4.563  12.913  0.1200  0.3266 -0.2921
  542TMC3    C8 8104   0.742   4.297  12.679  0.3158  0.5839  0.1849
  542TMC3    O1 8105   0.383   4.611  13.027  0.0190  0.7463  0.2807
  542TMC3    O2 8106   0.728   4.365  12.581  0.0161  0.0589  0.3853
  543TMC3    C1 8107   4.280   1.447  16.956  0.0243  0.1367  0.1914
  543TMC3    C2 8108   4.323   1.367  17.057  0.7760  0.0642  0.4255
  543TMC3    C3 8109   4.298   1.409  17.185 -1.0603 -0.4262 -0.5810
  543TMC3    C4 8110   4.213   1.571  16.980 -0.5794 -0.8895 -0.2517
  543TMC3    C5 8111   4.177   1.597  17.109  0.3562 -0.2421  0.2195
  543TMC3    C6 8112   4.219   1.519  17.213  0.5119 -0.3347  0.7304
  543TMC3     C 8113   4.325   1.400  16.825 -0.1601  0.0137 -0.7095
  543TMC3     O 8114   4.387   1.292  16.818  0.3438  0.0435 -0.0355
  543TMC3     H 8115   4.383   1.278  17.043 -0.8934 -1.1929  1.2814
  543TMC3    H1 8116   4.194   1.645  16.902 -0.0749  0.7972  1.2107
  543TMC3    H2 8117   4.205   1.555  17.315 -0.2758  1.6169 -0.0721
  543TMC3    C7 8118   4.071   1.692  17.136 -0.3539 -0.0585 -0.1745
  543TMC3    C8 8119   4.317   1.318  17.294  0.6127  0.0972 -0.0198
  543TMC3    O1 8120   4.051   1.713  17.254  0.2696  0.1796 -0.2870
  543TMC3    O2 8121   4.406   1.235  17.279 -0.0002  0.1554  0.0293
  544MPD2     C 8122   4.133   0.988  17.640 -0.1833 -0.2332  0.3799
  544MPD2    C1 8123   4.244   0.982  17.556  0.5104  0.2139  0.6932
  544MPD2    C2 8124   4.273   1.090  17.474  0.1207 -0.3819  0.1886
  544MPD2    C3 8125   4.205   1.208  17.491  0.6969 -0.7094  0.2654
  544MPD2    C4 8126   4.116   1.224  17.598  0.0907  0.2696  0.1876
  544MPD2    C5 8127   4.075   1.110  17.665  0.1433 -0.5972 -0.3091
  544MPD2     H 8128   4.330   1.069  17.384  2.1624  1.9243  0.9320
  544MPD2    H1 8129   4.061   1.317  17.608 -0.9579 -0.2312 -0.8916
  544MPD2    H2 8130   4.113   0.904  17.706  0.0892  0.9034  1.9050
  544MPD2    H3 8131   4.011   1.113  17.752 -0.0917  0.8675 -0.5348
  544MPD2     N 8132   4.220   1.319  17.399 -0.5958 -0.6332  0.1702
  544MPD2    H5 8133   4.151   1.393  17.401 -0.1643 -0.2744  1.3234
  544MPD2    N1 8134   4.321   0.867  17.567 -0.0341  0.5112  0.2401
  544MPD2    H7 8135   4.294   0.811  17.647  2.0628 -1.1209 -0.1845
  545TMC3    C1 8136   4.506   0.716  17.553 -0.3108  0.6882  0.9769
  545TMC3    C2 8137   4.437   0.622  17.628  0.2557 -0.3644  0.0316
  545TMC3    C3 8138   4.507   0.509  17.652  0.1054 -0.2114  0.2283
  545TMC3    C4 8139   4.629   0.697  17.502  0.1634 -0.6948 -0.9788
  545TMC3    C5 8140   4.691   0.573  17.519  0.2209 -0.6114  0.3629
  545TMC3    C6 8141   4.630   0.481  17.597 -0.1486  0.1123 -0.0378
  545TMC3     C 8142   4.441   0.837  17.499  0.1367  0.9029 -0.0494
  545TMC3     O 8143   4.494   0.881  17.395  0.6312  0.1112  0.1464
  545TMC3     H 8144   4.342   0.640  17.677  0.6155  1.8531 -0.0512
  545TMC3    H1 8145   4.685   0.770  17.445 -0.2145  0.3403 -0.0300
  545TMC3    H2 8146   4.676   0.385  17.615 -0.8894 -0.1155  0.6539
  545TMC3    C7 8147   0.048   0.530  17.427 -0.2786  0.0970  0.7097
  545TMC3    C8 8148   4.468   0.430  17.765 -0.0008 -0.8566 -0.4340
  545TMC3    O1 8149   0.071   0.602  17.328 -0.4560  0.0077  0.1811
  545TMC3    O2 8150   4.563   0.370   0.044  0.0127 -0.3995  0.3091
  546MPD2     C 8151   1.153   1.102  16.659  0.6327  0.4660 -0.0227
  546MPD2    C1 8152   1.111   1.099  16.793  0.4623 -0.0486 -0.1196
  546MPD2    C2 8153   1.131   1.205  16.877  0.3035 -0.2029  0.6904
  546MPD2    C3 8154   1.193   1.314  16.830 -0.6777 -0.8359 -0.6984
  546MPD2    C4 8155   1.244   1.311  16.702  0.3610 -0.1764  0.3303
  546MPD2    C5 8156   1.229   1.207  16.617  0.4806  0.7940 -0.2398
  546MPD2     H 8157   1.098   1.207  16.980 -1.8515 -0.4356  0.0085
  546MPD2    H1 8158   1.303   1.398  16.674 -0.2266  0.2355  0.3704
  546MPD2    H2 8159   1.145   1.017  16.593 -1.4403  2.1009 -1.8739
  546MPD2    H3 8160   1.276   1.213  16.520  1.6616  1.8316  0.4030
  546MPD2     N 8161   1.219   1.428  16.905  0.3946  0.0204 -0.2413
  546MPD2    H5 8162   1.285   1.495  16.867  2.8863 -2.0691  0.4298
  546MPD2    N1 8163   1.053   0.979  16.824 -0.6285 -0.0455  0.1128
  546MPD2    H7 8164   1.053   0.905  16.754 -1.2413  2.2410 -2.3317
  547TMC3    C1 8165   0.923   0.831  16.950 -0.0015  0.5501  0.3539
  547TMC3    C2 8166   0.850   0.803  16.836  0.3500 -0.0053 -0.2243
  547TMC3    C3 8167   0.778   0.690  16.836  0.8281  0.3786  0.1694
  547TMC3    C4 8168   0.929   0.752  17.063 -0.3714  0.1903 -0.3088
  547TMC3    C5 8169   0.853   0.641  17.055 -0.3844 -0.4249  0.0007
  547TMC3    C6 8170   0.772   0.612  16.947  0.3046 -0.3847  0.5638
  547TMC3     C 8171   1.008   0.946  16.949 -0.1800 -0.3377 -0.1713
  547TMC3     O 8172   1.026   1.008  17.055  0.0764 -0.2252  0.1699
  547TMC3     H 8173   0.853   0.871  16.752 -0.7180  1.2087  0.7130
  547TMC3    H1 8174   0.986   0.782  17.150  0.4250 -1.6600 -0.1946
  547TMC3    H2 8175   0.704   0.528  16.947 -0.6901  0.4117  0.4215
  547TMC3    C7 8176   0.831   0.578  17.188  0.3725  0.3732  0.8100
  547TMC3    C8 8177   0.656   0.692  16.752  0.1735 -0.3937  0.0047
  547TMC3    O1 8178   0.851   0.654  17.282  0.4577 -0.7254 -0.5700
  547TMC3    O2 8179   0.665   0.767  16.652  0.0234  0.0136 -0.7504
  548MPD2     C 8180   1.308   1.061  12.230 -0.1548 -0.1550  0.3251
  548MPD2    C1 8181   1.303   0.993  12.349 -0.4760  0.4574  0.8664
  548MPD2    C2 8182   1.404   0.902  12.382  0.1157  0.1237 -0.2833
  548MPD2    C3 8183   1.513   0.876  12.299 -0.2643  0.2586  0.2770
  548MPD2    C4 8184   1.520   0.945  12.178  0.5133 -0.6411 -0.1005
  548MPD2    C5 8185   1.420   1.035  12.150  0.4600  0.3845  0.2753
  548MPD2     H 8186   1.393   0.852  12.478  0.8328 -0.7613 -0.6602
  548MPD2    H1 8187   1.607   0.947  12.112  1.1938 -0.5844  0.7928
  548MPD2    H2 8188   1.228   1.123  12.192  1.6244  2.6637  1.1669
  548MPD2    H3 8189   1.423   1.078  12.050  0.1147  3.3507  1.5440
  548MPD2     N 8190   1.610   0.788  12.347 -0.1886 -0.2635  0.0230
  548MPD2    H5 8191   1.603   0.756  12.443 -2.5307 -0.7580 -0.3075
  548MPD2    N1 8192   1.192   1.030  12.428  0.3309 -0.2238 -0.3868
  548MPD2    H7 8193   1.139   1.113  12.405 -0.8183 -1.3796 -1.8945
  549TMC3    C1 8194   1.026   1.027  12.594 -0.2144  0.1482 -0.6677
  549TMC3    C2 8195   1.027   1.163  12.590 -0.1170  0.6761  0.8298
  549TMC3    C3 8196   0.915   1.228  12.632 -0.5532 -0.5391 -0.1919
  549TMC3    C4 8197   0.927   0.955  12.658 -0.5515 -0.1051 -0.5844
  549TMC3    C5 8198   0.822   1.028  12.706  0.6342 -0.3889 -0.5657
  549TMC3    C6 8199   0.820   1.167  12.702 -0.1618 -0.2669 -1.0717
  549TMC3     C 8200   1.129   0.956  12.523  0.3012  0.2724 -0.1425
  549TMC3     O 8201   1.150   0.844  12.559  0.3907 -0.0491  0.5400
  549TMC3     H 8202   1.100   1.214  12.529  0.0171 -0.4937  0.0212
  549TMC3    H1 8203   0.933   0.847  12.655  0.4612 -0.0466 -0.5139
  549TMC3    H2 8204   0.729   1.210  12.742  0.8279  1.4526 -0.6569
  549TMC3    C7 8205   0.691   0.964  12.733  0.3982  0.4921 -0.5700
  549TMC3    C8 8206   0.884   1.365  12.597  0.4085 -0.3017  0.1258
  549TMC3    O1 8207   0.593   1.040  12.738 -0.2359 -0.3505 -0.2836
  549TMC3    O2 8208   0.785   1.419  12.644  0.2859  0.0665  0.3344
  550TMC3    C1 8209   0.215   4.175  12.656 -0.5557  0.9076 -1.1030
  550TMC3    C2 8210   0.164   4.287  12.722 -0.0076 -0.0204  0.6007
  550TMC3    C3 8211   0.079   4.366  12.655 -0.0570 -0.4311  0.6681
  550TMC3    C4 8212   0.180   4.137  12.532  0.1307  0.1628 -0.1752
  550TMC3    C5 8213   0.098   4.230  12.465 -0.4361  0.0587 -0.0294
  550TMC3    C6 8214   0.051   4.341  12.525  0.2224  0.0395 -0.7538
  550TMC3     C 8215   0.321   4.100  12.721 -0.0814  0.1007 -0.3633
  550TMC3     O 8216   0.338   4.109  12.845 -0.1400  0.0450 -0.5394
  550TMC3     H 8217   0.193   4.294  12.826 -2.0076  1.6102  1.0476
  550TMC3    H1 8218   0.198   4.040  12.486 -1.2018 -0.3837  0.4433
  550TMC3    H2 8219   4.716   4.401  12.478 -1.3445 -0.9321  0.5880
  550TMC3    C7 8220   0.036   4.206  12.335 -0.8498  0.1841  0.3679
  550TMC3    C8 8221   4.739   4.465  12.723  0.6354  0.0612 -0.1112
  550TMC3    O1 8222   4.680   4.275  12.299 -0.0422  0.0642 -0.4548
  550TMC3    O2 8223   4.656   4.527  12.657 -0.1830 -0.2323 -0.3958
  551TMC3    C1 8224   2.196   1.562  13.234 -0.2717 -0.5775 -0.1068
  551TMC3    C2 8225   2.280   1.599  13.133  0.0669  0.5663 -0.0217
  551TMC3    C3 8226   2.342   1.725  13.136 -0.1673 -0.3977  0.7290
  551TMC3    C4 8227   2.179   1.641  13.339  0.2855 -0.1105  0.6903
  551TMC3    C5 8228   2.261   1.750  13.352 -0.4330 -0.6348  0.2073
  551TMC3    C6 8229   2.337   1.796  13.253  0.8000 -0.1363  0.3873
  551TMC3     C 8230   2.074   1.505  13.183 -0.6161  0.2981 -0.0391
  551TMC3     O 8231   2.084   1.445  13.074  0.4502 -0.3342 -0.2792
  551TMC3     H 8232   2.302   1.536  13.048 -0.6587  0.0565  0.1706
  551TMC3    H1 8233   2.128   1.603  13.427  1.8241 -2.2307  0.6766
  551TMC3    H2 8234   2.384   1.892  13.269 -2.1798  1.4095 -0.0452
  551TMC3    C7 8235   2.243   1.840  13.466 -0.2684  1.2463 -0.5155
  551TMC3    C8 8236   2.404   1.774  13.014 -0.4566  0.2781  0.0189
  551TMC3    O1 8237   2.343   1.873  13.534 -0.4187  0.1243  0.2963
  551TMC3    O2 8238   2.402   1.700  12.917  0.5029  0.3405  0.0903
  552MPD2     C 8239   4.354   3.689  14.106 -0.4385  0.2958 -0.6621
  552MPD2    C1 8240   4.247   3.657  14.182 -0.0311  0.2697 -0.6258
  552MPD2    C2 8241   4.279   3.624  14.313  0.5919  0.2285 -0.3036
  552MPD2    C3 8242   4.404   3.617  14.366 -0.0432 -0.3220  0.3713
  552MPD2    C4 8243   4.509   3.661  14.290 -0.7283  0.4685  0.4023
  552MPD2    C5 8244   4.484   3.700  14.160 -0.2348  0.2800  0.4305
  552MPD2     H 8245   4.200   3.605  14.385 -0.9036  0.4742 -1.8750
  552MPD2    H1 8246   4.610   3.662  14.329  0.0848  0.8168 -1.6680
  552MPD2    H2 8247   4.344   3.717  14.002 -2.9638  0.3055 -0.4056
  552MPD2    H3 8248   4.564   3.735  14.096 -0.1306 -1.5510 -0.4160
  552MPD2     N 8249   4.440   3.577  14.498 -0.1641  0.3308  0.9824
  552MPD2    H5 8250   4.539   3.578  14.519  0.3430  0.4897 -1.4078
  552MPD2    N1 8251   4.118   3.667  14.142  0.2168 -0.3261  0.6220
  552MPD2    H7 8252   4.052   3.635  14.212  0.0458  1.3826  1.2562
  553TMC3    C1 8253   3.956   3.647  13.966 -0.1041 -0.0281  0.5689
  553TMC3    C2 8254   3.919   3.696  13.845  0.5428 -0.0784  0.3792
  553TMC3    C3 8255   3.861   3.602  13.760 -0.4427  0.2568 -0.2443
  553TMC3    C4 8256   3.923   3.524  14.007  0.6294 -0.1764  0.3912
  553TMC3    C5 8257   3.858   3.437  13.920  0.0988 -0.5852  0.0521
  553TMC3    C6 8258   3.825   3.477  13.799 -0.1927  1.1492  0.3719
  553TMC3     C 8259   4.079   3.707  14.018  0.3414 -0.0410  0.1911
  553TMC3     O 8260   4.138   3.778  13.939 -0.2275  0.2877  0.0377
  553TMC3     H 8261   3.959   3.791  13.812  0.1790  0.1469  0.5886
  553TMC3    H1 8262   3.965   3.487  14.099  2.3453 -0.9995 -0.7143
  553TMC3    H2 8263   3.792   3.403  13.727  2.4791  0.4698 -0.1526
  553TMC3    C7 8264   3.913   3.305  13.922  0.2724 -0.1498 -0.2971
  553TMC3    C8 8265   3.916   3.622  13.620  0.0847  0.5998 -0.2914
  553TMC3    O1 8266   3.833   3.219  13.906  0.0441  0.0032  0.3853
  553TMC3    O2 8267   3.994   3.716  13.604  0.2564 -0.1261  0.5209
  554TMC3    C1 8268   1.589   2.805  11.784 -0.9141 -0.4585 -0.6052
  554TMC3    C2 8269   1.466   2.813  11.732  0.8067 -0.0292 -0.4070
  554TMC3    C3 8270   1.446   2.886  11.619  0.0771 -0.2749 -0.0960
  554TMC3    C4 8271   1.696   2.861  11.719 -0.1247  0.5065 -0.1485
  554TMC3    C5 8272   1.671   2.925  11.604 -0.0894 -0.0550  0.2372
  554TMC3    C6 8273   1.548   2.939  11.547 -0.7123  0.3376 -0.0277
  554TMC3     C 8274   1.609   2.738  11.914  0.0574 -0.7231 -0.0510
  554TMC3     O 8275   1.515   2.727  11.987  0.1529 -0.1196 -0.0576
  554TMC3     H 8276   1.393   2.768  11.798 -0.0961  0.0886 -1.3229
  554TMC3    H1 8277   1.794   2.857  11.763 -0.8890  0.6429  1.5672
  554TMC3    H2 8278   1.520   2.979  11.451  0.0222  4.2076  1.3746
  554TMC3    C7 8279   1.784   2.989  11.532 -0.0066 -0.2461 -0.0123
  554TMC3    C8 8280   1.330   2.851  11.544  0.7747  0.1179 -0.0412
  554TMC3    O1 8281   1.759   3.024  11.416  0.6532 -0.1572  0.7940
  554TMC3    O2 8282   1.305   2.921  11.446  0.2003 -0.2170  0.1549
  555TMC3    C1 8283   0.210   2.767  15.354 -0.0155 -0.3334 -0.3481
  555TMC3    C2 8284   0.146   2.831  15.455 -0.2707  1.2669  0.1894
  555TMC3    C3 8285   0.107   2.744  15.555 -0.1350  0.1167  0.2241
  555TMC3    C4 8286   0.224   2.633  15.345 -0.1003  0.0110  0.0261
  555TMC3    C5 8287   0.155   2.557  15.439 -0.4353  0.5707 -0.1290
  555TMC3    C6 8288   0.109   2.614  15.553  0.2526 -0.1849 -0.9612
  555TMC3     C 8289   0.264   2.857  15.253  0.0710  0.1806  0.0961
  555TMC3     O 8290   0.310   2.965  15.289 -0.6150 -0.0766  0.4851
  555TMC3     H 8291   0.138   2.939  15.456  0.4058  1.3249 -0.1458
  555TMC3    H1 8292   0.278   2.597  15.258  1.1183 -1.3974  1.3635
  555TMC3    H2 8293   0.056   2.561  15.631  3.0649 -0.3640  0.7942
  555TMC3    C7 8294   0.112   2.419  15.413 -0.3429  0.4241  0.2978
  555TMC3    C8 8295   0.029   2.801  15.661  0.2637 -0.5604 -0.5506
  555TMC3    O1 8296   0.084   2.351  15.510  0.3746  0.5482  0.1998
  555TMC3    O2 8297   4.711   2.900  15.623 -0.7548 -0.3578  0.4035
  556MPD2     C 8298   3.611   4.338  10.524  0.1469 -0.4926 -0.0911
  556MPD2    C1 8299   3.624   4.208  10.577  0.2041 -0.0002 -0.0326
  556MPD2    C2 8300   3.577   4.101  10.502 -0.0043  0.2195  0.1122
  556MPD2    C3 8301   3.536   4.115  10.371  0.0517 -0.6607  0.2250
  556MPD2    C4 8302   3.540   4.241  10.313  0.1314  0.0255 -0.0333
  556MPD2    C5 8303   3.575   4.348  10.394  0.0380  0.2177 -0.2336
  556MPD2     H 8304   3.590   4.002  10.543 -0.1525  0.2440  0.2186
  556MPD2    H1 8305   3.505   4.262  10.213 -2.0474 -2.2983  0.2401
  556MPD2    H2 8306   3.632   4.432  10.574 -1.7364 -0.8046  1.2713
  556MPD2    H3 8307   3.560   4.449  10.358 -0.7933 -0.4673 -1.7970
  556MPD2     N 8308   3.502   3.999  10.303  0.0255 -0.3030 -0.7528
  556MPD2    H5 8309   3.530   3.914  10.350 -0.5995 -0.3258 -0.4340
  556MPD2    N1 8310   3.672   4.183  10.709  0.1673 -0.2821 -0.8631
  556MPD2    H7 8311   3.673   4.084  10.733 -1.8253 -1.0847 -4.0789
  557TMC3    C1 8312   3.417   3.854  10.143  0.2670  0.1962 -0.4054
  557TMC3    C2 8313   3.375   3.842  10.007  0.3990  0.3101 -0.3354
  557TMC3    C3 8314   3.318   3.724   9.972  0.5112 -0.2639 -0.3622
  557TMC3    C4 8315   3.406   3.757  10.232  0.4271 -0.2853  0.7620
  557TMC3    C5 8316   3.358   3.641  10.184 -1.0424 -0.7328  0.4330
  557TMC3    C6 8317   3.316   3.619  10.056 -0.1438 -0.3968  0.8079
  557TMC3     C 8318   3.442   3.991  10.179 -1.0087 -0.0485 -0.0965
  557TMC3     O 8319   3.396   4.086  10.113 -0.5020  0.1628  0.2914
  557TMC3     H 8320   3.388   3.928   9.943 -1.5053 -0.7690 -2.1804
  557TMC3    H1 8321   3.406   3.784  10.338 -0.0467  1.2676  0.3742
  557TMC3    H2 8322   3.299   3.520  10.015  2.9862 -0.4415 -0.3735
  557TMC3    C7 8323   3.381   3.521  10.266  0.3226 -0.4962  0.0656
  557TMC3    C8 8324   3.225   3.732   9.857 -0.6569 -0.1037 -0.8524
  557TMC3    O1 8325   3.318   3.423  10.234 -0.2171 -0.1222  0.4212
  557TMC3    O2 8326   3.231   3.835   9.791  0.5463  0.0065 -0.2371
  558TMC3    C1 8327   1.214   1.912  10.756  0.2443 -0.1650 -0.0729
  558TMC3    C2 8328   1.125   1.848  10.840  0.1785 -0.1134  0.5142
  558TMC3    C3 8329   0.985   1.856  10.808 -0.5696 -0.1493 -0.4592
  558TMC3    C4 8330   1.173   1.974  10.646 -0.3719  0.9830 -0.4511
  558TMC3    C5 8331   1.041   1.964  10.611  0.0922  0.5091 -0.1425
  558TMC3    C6 8332   0.947   1.914  10.695  0.0293 -0.2876 -0.2839
  558TMC3     C 8333   1.347   1.867  10.774  0.2476  0.1858 -0.1777
  558TMC3     O 8334   1.361   1.751  10.814  0.1294 -0.1158 -0.4022
  558TMC3     H 8335   1.159   1.789  10.924  2.0149 -0.3214 -0.3752
  558TMC3    H1 8336   1.245   2.015  10.577 -0.7244  3.7997  0.8805
  558TMC3    H2 8337   0.846   1.898  10.660 -0.4658  1.3777  0.4154
  558TMC3    C7 8338   1.002   2.024  10.493  0.3880 -0.2589 -0.2865
  558TMC3    C8 8339   0.922   1.737  10.845 -0.7434  0.0609 -0.6616
  558TMC3    O1 8340   1.099   2.045  10.419  0.1286  0.3464  0.1694
  558TMC3    O2 8341   0.802   1.735  10.883  0.0228 -0.3824  0.2320
  559MPD2     C 8342   1.448   2.276  10.978  0.5850  0.2569  0.2948
  559MPD2    C1 8343   1.393   2.166  11.052  0.1796 -0.3863  0.0974
  559MPD2    C2 8344   1.478   2.062  11.075  1.0372  0.4882  0.5025
  559MPD2    C3 8345   1.613   2.065  11.042  0.4239  0.0792  0.2613
  559MPD2    C4 8346   1.665   2.180  10.989  0.2095  0.3455 -0.5430
  559MPD2    C5 8347   1.582   2.280  10.947 -0.3707 -0.2551  0.3733
  559MPD2     H 8348   1.454   1.978  11.140 -0.2459  0.2698 -0.2626
  559MPD2    H1 8349   1.763   2.187  10.945 -0.2610 -0.8772 -1.8012
  559MPD2    H2 8350   1.387   2.357  10.941  1.3715 -0.0893 -1.7643
  559MPD2    H3 8351   1.613   2.360  10.880 -0.5094 -1.4842 -1.1522
  559MPD2     N 8352   1.693   1.952  11.069 -0.1913  0.1987 -0.4103
  559MPD2    H5 8353   1.637   1.870  11.091  1.5693 -1.3521 -1.8046
  559MPD2    N1 8354   1.252   2.170  11.085  0.7841 -0.6303 -0.1983
  559MPD2    H7 8355   1.205   2.258  11.065  1.6334 -0.3448 -0.9367
  560TMC3    C1 8356   1.887   1.839  11.126  0.0298  0.6650  1.2475
  560TMC3    C2 8357   1.854   1.721  11.074  0.5392 -0.4184  0.3287
  560TMC3    C3 8358   1.936   1.618  11.099 -0.1192  0.0219  0.1677
  560TMC3    C4 8359   1.989   1.857  11.213 -0.3918 -0.2762  0.0633
  560TMC3    C5 8360   2.060   1.751  11.246 -0.1434  0.3233 -0.0033
  560TMC3    C6 8361   2.041   1.632  11.184  0.4723 -0.0251  0.4920
  560TMC3     C 8362   1.831   1.957  11.081 -0.8255 -0.1177  0.3527
  560TMC3     O 8363   1.894   2.054  11.116 -0.3101 -0.0917  0.2829
  560TMC3     H 8364   1.771   1.719  11.004  2.4235  0.2425 -1.9154
  560TMC3    H1 8365   1.996   1.951  11.266 -2.2461 -0.5933  0.8988
  560TMC3    H2 8366   2.107   1.548  11.204 -1.1153 -1.0973  1.1899
  560TMC3    C7 8367   2.157   1.759  11.351  0.6925  0.0215  0.3504
  560TMC3    C8 8368   1.912   1.496  11.024  0.6726 -0.0857 -0.1796
  560TMC3    O1 8369   2.192   1.658  11.415  0.3938  0.1785  0.2124
  560TMC3    O2 8370   1.809   1.495  10.965 -0.1302  0.4000  0.2912
  561TMC3    C1 8371   4.079   0.957  11.457 -0.0655 -0.3332 -0.0055
  561TMC3    C2 8372   4.003   0.874  11.539 -0.5137  0.2568  0.3752
  561TMC3    C3 8373   3.903   0.937  11.607  0.0011 -0.1543 -0.7381
  561TMC3    C4 8374   4.040   1.085  11.418  0.4991 -0.0515  0.0617
  561TMC3    C5 8375   3.945   1.136  11.490  0.3442  0.1248  0.4894
  561TMC3    C6 8376   3.876   1.068  11.581 -0.4069  0.6280  0.3015
  561TMC3     C 8377   4.217   0.913  11.431  0.4091  0.0383 -0.9406
  561TMC3     O 8378   4.258   0.838  11.519 -0.4566 -0.0770 -0.0345
  561TMC3     H 8379   4.028   0.772  11.565  1.5936  0.9766  1.1429
  561TMC3    H1 8380   4.098   1.150  11.355  2.6657 -0.3228  1.7801
  561TMC3    H2 8381   3.787   1.121  11.613 -1.1552 -0.6428  0.3491
  561TMC3    C7 8382   3.906   1.270  11.463  0.3157  0.3349 -0.2729
  561TMC3    C8 8383   3.848   0.875  11.721 -0.0011 -0.3097  0.4890
  561TMC3    O1 8384   3.786   1.297  11.474  0.1176 -0.2375  0.2139
  561TMC3    O2 8385   3.891   0.762  11.745  0.2237  0.0967 -0.2985
  562TMC3    C1 8386   4.560   2.866  16.726 -0.2561 -0.4545 -0.1253
  562TMC3    C2 8387   4.531   2.988  16.680 -0.5632 -0.0273 -0.2837
  562TMC3    C3 8388   4.498   3.001  16.550 -0.3361 -0.1002 -0.5044
  562TMC3    C4 8389   4.553   2.759  16.642 -0.6643 -0.2333 -0.7930
  562TMC3    C5 8390   4.529   2.782  16.509 -0.6785  0.0297 -0.3080
  562TMC3    C6 8391   4.493   2.900  16.459  0.4994  0.1406 -0.5002
  562TMC3     C 8392   4.579   2.857  16.870 -0.2822  0.5920 -0.8570
  562TMC3     O 8393   4.535   2.955  16.932 -0.2976 -0.1906 -0.0030
  562TMC3     H 8394   4.531   3.074  16.746 -0.4815  0.5309 -1.0116
  562TMC3    H1 8395   4.573   2.661  16.682 -0.9653  0.5394  1.2866
  562TMC3    H2 8396   4.475   2.918  16.354 -0.4327 -2.4141 -0.7838
  562TMC3    C7 8397   4.535   2.678  16.406  0.3345 -0.1812 -0.0887
  562TMC3    C8 8398   4.472   3.139  16.506 -0.2786  0.1515 -0.1315
  562TMC3    O1 8399   4.502   2.706  16.291 -0.1519 -0.3381  0.0358
  562TMC3    O2 8400   4.509   3.227  16.582  0.7291  0.2657 -0.2320
  563MPD2     C 8401   2.250   4.127  15.650 -0.7911 -0.4283 -0.6485
  563MPD2    C1 8402   2.273   4.240  15.723  0.8434 -0.2694 -0.0497
  563MPD2    C2 8403   2.396   4.250  15.787  0.0205  0.3254  0.2705
  563MPD2    C3 8404   2.488   4.146  15.786  0.1873 -0.0101 -0.6824
  563MPD2    C4 8405   2.459   4.041  15.709  0.1305 -0.1878 -0.0073
  563MPD2    C5 8406   2.340   4.027  15.642  0.0926  0.5282 -1.0582
  563MPD2     H 8407   2.426   4.322  15.862  0.5740  0.8889 -0.4854
  563MPD2    H1 8408   2.516   3.949  15.698  2.4426  1.3134 -0.5617
  563MPD2    H2 8409   2.157   4.121  15.594 -1.3204 -0.9375  0.2869
  563MPD2    H3 8410   2.325   3.937  15.583  1.3132 -0.9813  0.9011
  563MPD2     N 8411   2.605   4.161  15.869 -0.3469 -0.1416  0.8061
  563MPD2    H5 8412   2.613   4.254  15.908  0.0007  1.0659 -2.2038
  563MPD2    N1 8413   2.166   4.332  15.747 -0.5744  0.0185 -0.2961
  563MPD2    H7 8414   2.079   4.313  15.700 -1.0108 -0.1912  0.6065
  564TMC3    C1 8415   2.035   4.468  15.881  0.5869  0.6953  0.7747
  564TMC3    C2 8416   1.942   4.389  15.809 -0.2463  0.0403  0.0350
  564TMC3    C3 8417   1.857   4.314  15.885 -0.4567  0.5293 -0.0349
  564TMC3    C4 8418   2.054   4.459  16.015  0.3402 -0.0974  0.1195
  564TMC3    C5 8419   1.967   4.377  16.077  0.7277  0.0401 -0.4487
  564TMC3    C6 8420   1.867   4.310  16.017  0.6034  0.0370  0.1851
  564TMC3     C 8421   2.167   4.438  15.836  0.1621  0.7499  0.4621
  564TMC3     O 8422   2.266   4.483  15.897  0.6542 -0.0034  0.0032
  564TMC3     H 8423   1.923   4.419  15.707  0.5102  0.9097  0.1475
  564TMC3    H1 8424   2.127   4.522  16.066  0.2334  0.3939 -0.3387
  564TMC3    H2 8425   1.797   4.242  16.065  0.9528  0.4363  1.2564
  564TMC3    C7 8426   2.027   4.320  16.194  0.0848  0.1721  0.0712
  564TMC3    C8 8427   1.820   4.181  15.824  0.0480 -0.0563 -1.1037
  564TMC3    O1 8428   2.130   4.370  16.238  0.1936 -0.4951  0.0852
  564TMC3    O2 8429   1.790   4.087  15.897 -0.0673 -0.2070  0.2668
  565TMC3    C1 8430   3.766   0.616   9.915  0.5851  0.7168 -0.2446
  565TMC3    C2 8431   3.783   0.565  10.036  0.3547  0.1502  0.0179
  565TMC3    C3 8432   3.778   0.433  10.050  0.2261 -0.2584  0.1058
  565TMC3    C4 8433   3.737   0.544   9.806 -1.2373  0.5731 -0.0460
  565TMC3    C5 8434   3.728   0.410   9.826  0.3384  0.5654 -0.3678
  565TMC3    C6 8435   3.750   0.348   9.947 -0.3787 -0.4160  0.3791
  565TMC3     C 8436   3.785   0.760   9.899 -1.0271  0.2875  0.2099
  565TMC3     O 8437   3.759   0.814   9.790 -0.1822  0.3987 -0.0102
  565TMC3     H 8438   3.800   0.626  10.124  1.6303  0.6762 -0.5903
  565TMC3    H1 8439   3.716   0.593   9.711 -1.2318  0.2100 -0.2352
  565TMC3    H2 8440   3.761   0.240   9.956  0.3604 -0.2836  1.0711
  565TMC3    C7 8441   3.721   0.326   9.706  0.0406  0.4014 -0.2236
  565TMC3    C8 8442   3.799   0.370  10.184 -0.0249  0.1437  0.4367
  565TMC3    O1 8443   3.769   0.375   9.606 -0.2556 -0.3114 -0.6238
  565TMC3    O2 8444   3.858   0.436  10.269 -0.5193  0.1988 -0.1346
  566MPD2     C 8445   4.112   2.176  14.254  0.7045 -0.0236 -0.0826
  566MPD2    C1 8446   4.183   2.137  14.140  0.4677  0.0317 -0.0802
  566MPD2    C2 8447   4.128   2.051  14.048  0.1229 -1.0187 -0.6841
  566MPD2    C3 8448   3.995   2.013  14.065 -0.5317 -0.2323 -1.5302
  566MPD2    C4 8449   3.923   2.053  14.180  0.0087 -0.0728 -0.3331
  566MPD2    C5 8450   3.983   2.130  14.273 -0.0171  0.0170  0.2064
  566MPD2     H 8451   4.198   2.009  13.976  0.5328  1.3135 -1.6525
  566MPD2    H1 8452   3.827   2.008  14.201 -0.5156  0.7925 -0.8833
  566MPD2    H2 8453   4.162   2.238  14.328 -2.0619  0.4260  1.4409
  566MPD2    H3 8454   3.916   2.158  14.353  1.4867 -1.9081  2.1249
  566MPD2     N 8455   3.926   1.920  13.984 -0.0146 -0.1440 -0.3877
  566MPD2    H5 8456   3.847   1.868  14.023  0.0822 -1.2927 -1.7184
  566MPD2    N1 8457   4.316   2.180  14.143  0.5224 -0.0051  0.1413
  566MPD2    H7 8458   4.339   2.231  14.228 -0.4821 -0.1841  0.5236
  567TMC3    C1 8459   4.545   2.207  14.081  0.2918 -0.2251  0.0160
  567TMC3    C2 8460   4.619   2.251  13.976  0.8418  0.5228  1.4564
  567TMC3    C3 8461   4.731   2.320  14.008 -0.3756  0.2618 -0.8842
  567TMC3    C4 8462   4.563   2.252  14.208 -0.0801 -0.4861 -0.1833
  567TMC3    C5 8463   4.680   2.326  14.236  0.1570  0.0958  0.2407
  567TMC3    C6 8464   0.021   2.355  14.137 -0.1263  0.0989  0.1738
  567TMC3     C 8465   4.414   2.164  14.044 -0.8110  0.4473 -0.1292
  567TMC3     O 8466   4.380   2.153  13.928  0.2107  0.2025 -0.5066
  567TMC3     H 8467   4.596   2.213  13.877  2.4892 -1.0332  1.6860
  567TMC3    H1 8468   4.505   2.213  14.291 -1.1206 -0.2176 -0.7981
  567TMC3    H2 8469   0.121   2.394  14.152 -0.0689 -0.6561  1.8008
  567TMC3    C7 8470   4.731   2.344  14.375  0.1087  1.1155  0.2023
  567TMC3    C8 8471   4.738   2.426  13.922  0.7198 -0.1255  0.3444
  567TMC3    O1 8472   0.080   2.423  14.391 -0.0534 -0.4348  0.2890
  567TMC3    O2 8473   4.635   2.453  13.852  0.3586 -0.4019 -0.1373
  568MPD2     C 8474   2.320   2.733  16.070 -0.6380 -0.2363  0.0513
  568MPD2    C1 8475   2.336   2.831  16.167  0.7372  0.6325 -0.8520
  568MPD2    C2 8476   2.296   2.957  16.133  0.0222  0.1811  0.0009
  568MPD2    C3 8477   2.248   2.983  16.004  0.0275  0.1708 -0.3125
  568MPD2    C4 8478   2.227   2.892  15.908 -0.2802  0.2191 -0.1394
  568MPD2    C5 8479   2.263   2.759  15.948 -0.3832  0.2714  0.2818
  568MPD2     H 8480   2.306   3.037  16.205  0.9502 -0.6393  0.7892
  568MPD2    H1 8481   2.202   2.918  15.806 -2.0512  2.3588  0.8325
  568MPD2    H2 8482   2.343   2.633  16.107 -0.9781  0.1028  1.1635
  568MPD2    H3 8483   2.243   2.678  15.879 -2.8456  0.8018  0.3856
  568MPD2     N 8484   2.232   3.118  15.982 -0.9197  0.0383  0.3510
  568MPD2    H5 8485   2.221   3.178  16.064 -0.4303  0.9727 -0.2716
  568MPD2    N1 8486   2.415   2.795  16.270  0.8541 -0.0167 -0.0344
  568MPD2    H7 8487   2.453   2.701  16.279  0.0989 -0.2146  1.1647
  569TMC3    C1 8488   2.159   3.304  15.868  0.1947 -0.2148 -0.3050
  569TMC3    C2 8489   2.090   3.331  15.981  0.5117 -0.4297  0.4534
  569TMC3    C3 8490   2.003   3.433  15.975 -0.4832  0.1861 -0.2517
  569TMC3    C4 8491   2.147   3.383  15.753  0.5008 -0.2092 -0.2712
  569TMC3    C5 8492   2.052   3.484  15.751  0.1273  0.2118 -0.8165
  569TMC3    C6 8493   1.974   3.506  15.860  0.0593 -0.1802 -0.4941
  569TMC3     C 8494   2.212   3.179  15.860  0.2903 -0.0333 -0.3332
  569TMC3     O 8495   2.215   3.126  15.752 -0.3399 -0.5773  0.1774
  569TMC3     H 8496   2.079   3.265  16.067  1.3214 -1.0290  0.0945
  569TMC3    H1 8497   2.213   3.365  15.669 -1.3893  0.1403 -1.8427
  569TMC3    H2 8498   1.892   3.577  15.863  0.8173  0.5899  2.1750
  569TMC3    C7 8499   2.065   3.594  15.657  0.2789 -0.3589 -0.5139
  569TMC3    C8 8500   1.916   3.451  16.089  0.1783  0.0472 -0.1728
  569TMC3    O1 8501   2.146   3.575  15.572  0.0980  0.2543  0.2915
  569TMC3    O2 8502   1.799   3.491  16.073 -0.3057 -0.0090 -0.3214
  570TMC3    C1 8503   1.016   1.786  15.835 -0.6171 -0.5536 -0.4369
  570TMC3    C2 8504   1.088   1.808  15.716  0.3421 -0.5023  0.0156
  570TMC3    C3 8505   1.125   1.938  15.686  0.4272  0.5394 -0.6321
  570TMC3    C4 8506   1.006   1.883  15.933 -0.0577  0.0156 -0.0809
  570TMC3    C5 8507   1.051   2.006  15.902 -0.1448 -0.5074  0.7038
  570TMC3    C6 8508   1.108   2.036  15.781  0.3816  0.2918  0.3410
  570TMC3     C 8509   1.004   1.640  15.865 -0.1745  0.0148 -0.1744
  570TMC3     O 8510   1.030   1.562  15.778 -0.6200  0.1225 -0.0707
  570TMC3     H 8511   1.107   1.729  15.644  1.0786 -0.1699 -0.1564
  570TMC3    H1 8512   0.951   1.860  16.023  1.1844 -2.9712 -0.0588
  570TMC3    H2 8513   1.147   2.136  15.762  1.9516 -0.5976 -1.0887
  570TMC3    C7 8514   1.087   2.091  16.021 -0.0999  0.3083  0.6353
  570TMC3    C8 8515   1.247   1.956  15.613  0.9158 -0.4743 -0.6263
  570TMC3    O1 8516   1.081   2.030  16.129 -0.3842 -0.3137  0.0712
  570TMC3    O2 8517   1.316   2.053  15.649  0.1160  0.2239  0.2098
  571MPD2     C 8518   4.606   3.920  17.434  0.0642  0.1836  0.7535
  571MPD2    C1 8519   4.612   4.022  17.529  1.1588  0.3287 -0.6232
  571MPD2    C2 8520   4.526   4.128  17.514 -0.4154  0.1600 -0.7960
  571MPD2    C3 8521   4.427   4.121  17.411 -0.2337 -0.2895 -0.2946
  571MPD2    C4 8522   4.421   4.009  17.326 -0.5537 -0.3272 -0.1125
  571MPD2    C5 8523   4.518   3.921  17.327 -0.2119 -0.0784  0.3350
  571MPD2     H 8524   4.519   4.206  17.589  0.4077  1.0806 -1.6741
  571MPD2    H1 8525   4.348   4.005  17.245  1.6883 -2.8031 -1.9893
  571MPD2    H2 8526   4.672   3.836  17.455  0.4525 -0.5245 -3.2694
  571MPD2    H3 8527   4.510   3.836  17.260  1.7665 -0.8868  1.1372
  571MPD2     N 8528   4.323   4.214  17.406 -0.5891 -0.2625  0.4213
  571MPD2    H5 8529   4.236   4.203  17.354  0.9661 -4.1529 -1.3291
  571MPD2    N1 8530   4.706   4.014  17.636  0.5164  0.5552  0.6830
  571MPD2    H7 8531   0.017   3.928  17.646  0.2777  0.3706  0.3771
  572TMC3    C1 8532   4.210   4.401  17.464 -0.5708 -0.2978  0.0496
  572TMC3    C2 8533   4.101   4.333  17.518  0.0920 -0.1982 -0.0414
  572TMC3    C3 8534   4.017   4.408  17.594 -0.7153 -0.0627 -0.1799
  572TMC3    C4 8535   4.219   4.537  17.459  0.3087  0.4803  0.2845
  572TMC3    C5 8536   4.124   4.610  17.524 -0.0541 -0.1784  0.2074
  572TMC3    C6 8537   4.018   4.545  17.583  0.3279 -0.1404  0.2293
  572TMC3     C 8538   4.329   4.331  17.478 -0.2377  0.0891  0.0737
  572TMC3     O 8539   4.419   4.397  17.524 -0.3645  0.1954  0.5558
  572TMC3     H 8540   4.113   4.229  17.544  4.7469  0.2791 -0.3187
  572TMC3    H1 8541   4.298   4.578  17.398  0.7116 -0.6753  0.0364
  572TMC3    H2 8542   3.951   4.614  17.634  1.6026  2.0056 -1.0119
  572TMC3    C7 8543   4.134   0.009  17.516 -0.6600 -0.4385 -0.6981
  572TMC3    C8 8544   3.973   4.343  17.719 -0.5898  0.5350 -0.1082
  572TMC3    O1 8545   4.036   0.084  17.531  0.3635 -0.2727  0.5205
  572TMC3    O2 8546   3.994   4.223  17.729 -0.1726  0.3850  0.5056
  573MPD2     C 8547   0.501   4.082   0.308  0.4477 -0.2830  0.1158
  573MPD2    C1 8548   0.522   4.214   0.294  0.0531 -0.7396 -0.2389
  573MPD2    C2 8549   0.485   4.271   0.175 -0.0978  0.5705  0.0775
  573MPD2    C3 8550   0.448   4.191   0.069 -0.0241 -0.7488 -0.1120
  573MPD2    C4 8551   0.434   4.057   0.086  0.3216 -0.7582 -0.6874
  573MPD2    C5 8552   0.470   4.003   0.209  0.4093  0.3895  0.1905
  573MPD2     H 8553   0.498   4.375   0.150  0.1994  0.9861  2.0313
  573MPD2    H1 8554   0.419   3.983   0.008  0.8801 -2.1858  0.5409
  573MPD2    H2 8555   0.519   4.029   0.401  0.0090 -0.9701 -0.1856
  573MPD2    H3 8556   0.465   3.896   0.223 -2.5838  0.1877 -2.5580
  573MPD2     N 8557   0.417   4.242  17.709  0.3902 -0.2359  0.1577
  573MPD2    H5 8558   0.398   4.174  17.636  0.9584  2.0478 -2.1507
  573MPD2    N1 8559   0.571   4.281   0.410 -0.0716 -0.5091 -0.3997
  573MPD2    H7 8560   0.596   4.223   0.490  0.6846 -0.0486 -0.2994
  574TMC3    C1 8561   0.310   4.383  17.550  0.3900 -0.3763 -0.1716
  574TMC3    C2 8562   0.334   4.490  17.464  0.3717 -0.2922 -0.1485
  574TMC3    C3 8563   0.273   4.480  17.341 -0.1290  0.1371  0.8447
  574TMC3    C4 8564   0.241   4.269  17.512  0.0788  0.4222  0.0996
  574TMC3    C5 8565   0.181   4.267  17.391 -0.8206 -0.4416  0.4143
  574TMC3    C6 8566   0.203   4.371  17.302 -0.6563 -0.2798 -0.1371
  574TMC3     C 8567   0.384   4.372  17.676  0.7712 -0.5885 -0.3079
  574TMC3     O 8568   0.413   4.477  17.731  0.2113  0.4467  0.0592
  574TMC3     H 8569   0.399   4.573  17.488  0.5884 -0.4888 -0.0571
  574TMC3    H1 8570   0.218   4.188  17.580 -0.6543 -0.2405 -0.9359
  574TMC3    H2 8571   0.175   4.376  17.197 -0.2284 -1.6620 -0.3246
  574TMC3    C7 8572   0.165   4.134  17.337 -0.3005  0.0583  0.6330
  574TMC3    C8 8573   0.255   4.601  17.267 -0.0323  0.4001 -0.1990
  574TMC3    O1 8574   0.211   4.045  17.409 -0.2587 -0.3232 -0.4363
  574TMC3    O2 8575   0.247   4.592  17.144  0.7195  0.0648 -0.2034
  575TMC3    C1 8576   4.085   0.264  11.017 -0.3253  0.4392 -0.0822
  575TMC3    C2 8577   3.984   0.249  11.106  0.1767  0.0960  0.1044
  575TMC3    C3 8578   3.852   0.247  11.060 -0.7614 -0.4364 -0.2666
  575TMC3    C4 8579   4.057   0.291  10.885  0.2292 -0.1713  0.1610
  575TMC3    C5 8580   3.930   0.274  10.840  0.7531  0.0236  0.4300
  575TMC3    C6 8581   3.823   0.254  10.924  0.6973  0.0768  0.2152
  575TMC3     C 8582   4.213   0.268  11.074  0.0420  0.0072  1.1655
  575TMC3     O 8583   4.216   0.259  11.196  0.8744  0.1594  0.2285
  575TMC3     H 8584   4.004   0.255  11.212 -0.1285 -0.1750  0.1761
  575TMC3    H1 8585   4.133   0.304  10.809  1.9985  0.6267  2.0624
  575TMC3    H2 8586   3.722   0.280  10.895  1.2247  2.6276  0.7071
  575TMC3    C7 8587   3.910   0.252  10.694 -0.4599 -0.3575 -0.3193
  575TMC3    C8 8588   3.759   0.216  11.170 -0.3080 -0.3415 -0.3142
  575TMC3    O1 8589   3.980   0.313  10.612 -0.2994  0.2549  0.7777
  575TMC3    O2 8590   3.802   0.161  11.274  0.2614  0.1231 -0.4662
  576MPD2     C 8591   3.098   1.248  12.924 -0.4751 -0.1167  0.3398
  576MPD2    C1 8592   3.133   1.363  12.860  0.7590 -0.5646  0.0252
  576MPD2    C2 8593   3.107   1.478  12.919  0.0745  0.4495 -0.6731
  576MPD2    C3 8594   3.064   1.485  13.047 -0.1647 -0.1848  0.0613
  576MPD2    C4 8595   3.022   1.371  13.107 -0.1168 -0.3933  0.3169
  576MPD2    C5 8596   3.040   1.247  13.049 -0.2423 -0.6391 -0.2333
  576MPD2     H 8597   3.130   1.569  12.864  1.9957 -0.0005 -0.6423
  576MPD2    H1 8598   2.961   1.363  13.196  0.4385  0.1623  0.7442
  576MPD2    H2 8599   3.111   1.150  12.878  0.0578 -0.0263  0.2946
  576MPD2    H3 8600   2.999   1.157  13.094 -1.4391 -1.1952 -2.4833
  576MPD2     N 8601   3.035   1.612  13.098  0.0684 -0.2922  0.1971
  576MPD2    H5 8602   3.034   1.685  13.027  0.8024  1.1426  1.6402
  576MPD2    N1 8603   3.196   1.368  12.728 -1.1287  0.1517  0.4203
  576MPD2    H7 8604   3.207   1.454  12.675  1.9554 -0.8693 -0.6052
  577TMC3    C1 8605   3.304   1.276  12.535 -0.2590  0.1917 -0.4077
  577TMC3    C2 8606   3.330   1.169  12.457  0.4117  0.3725 -0.3156
  577TMC3    C3 8607   3.408   1.181  12.347  0.0658  0.1780  0.1062
  577TMC3    C4 8608   3.360   1.395  12.505  0.0870  0.3648  0.5568
  577TMC3    C5 8609   3.440   1.407  12.398 -0.4658  0.3482  0.8871
  577TMC3    C6 8610   3.465   1.301  12.310  1.1700  0.5881  1.0171
  577TMC3     C 8611   3.239   1.252  12.665  0.0902 -0.5249  0.1179
  577TMC3     O 8612   3.258   1.138  12.701 -0.9772 -0.1544 -0.1402
  577TMC3     H 8613   3.304   1.069  12.492 -1.5718 -0.1974 -3.3997
  577TMC3    H1 8614   3.342   1.486  12.562 -1.5585 -0.6808  1.6939
  577TMC3    H2 8615   3.536   1.304  12.229 -1.1757 -2.7977 -1.1996
  577TMC3    C7 8616   3.487   1.537  12.356  0.8931  0.4463 -0.4322
  577TMC3    C8 8617   3.467   1.050  12.305  0.3246 -0.0185 -0.0835
  577TMC3    O1 8618   3.489   1.632  12.432 -0.1346 -0.1412  0.6386
  577TMC3    O2 8619   3.497   0.968  12.393  0.8101  0.0080  0.5214
  578MPD2     C 8620   0.867   2.399   1.712 -0.0504 -0.5548  0.6121
  578MPD2    C1 8621   0.882   2.327   1.596  0.4974  0.5540  0.2788
  578MPD2    C2 8622   0.937   2.200   1.600  0.4360  0.1956 -0.2084
  578MPD2    C3 8623   0.976   2.153   1.724  0.7785 -0.4165 -0.0085
  578MPD2    C4 8624   0.954   2.218   1.843  0.5772  0.5994 -0.5193
  578MPD2    C5 8625   0.907   2.347   1.838  0.2192 -0.4128  0.0669
  578MPD2     H 8626   0.958   2.142   1.511  0.2042 -3.9250  2.4685
  578MPD2    H1 8627   0.984   2.162   1.931 -0.8978  0.5123 -0.0688
  578MPD2    H2 8628   0.820   2.496   1.701  1.3323 -0.0305 -0.7742
  578MPD2    H3 8629   0.907   2.414   1.924  0.5386 -0.6808  0.2728
  578MPD2     N 8630   1.049   2.030   1.703 -0.1262  0.4590 -0.7654
  578MPD2    H5 8631   1.054   1.999   1.607 -0.9178 -0.7528 -0.4200
  578MPD2    N1 8632   0.844   2.394   1.478  0.0355  0.2883 -0.0228
  578MPD2    H7 8633   0.809   2.489   1.488  0.9840  0.6762 -0.3584
  579TMC3    C1 8634   1.194   1.839   1.770 -0.3879 -0.9881  0.2761
  579TMC3    C2 8635   1.324   1.827   1.823 -0.5392 -0.0778 -0.2680
  579TMC3    C3 8636   1.401   1.727   1.765 -0.9869 -0.0499 -0.0965
  579TMC3    C4 8637   1.140   1.757   1.673 -0.5722 -0.6125 -0.9611
  579TMC3    C5 8638   1.224   1.660   1.625  0.8195 -0.1664  0.2837
  579TMC3    C6 8639   1.348   1.646   1.669  0.1858 -0.0767  0.8991
  579TMC3     C 8640   1.126   1.967   1.805 -0.5623  0.1336 -0.2043
  579TMC3     O 8641   1.167   2.025   1.907  0.1173  0.8618 -0.6822
  579TMC3     H 8642   1.367   1.888   1.901  0.3443  1.2140 -1.7700
  579TMC3    H1 8643   1.036   1.763   1.642 -0.7154  0.0503 -0.3421
  579TMC3    H2 8644   1.404   1.568   1.619 -1.0378 -0.2686 -0.1585
  579TMC3    C7 8645   1.170   1.567   1.516 -0.8259  0.2945 -0.7682
  579TMC3    C8 8646   1.542   1.753   1.763  0.4433 -0.0888 -0.2330
  579TMC3    O1 8647   1.234   1.463   1.488 -0.5235 -0.3931 -0.4251
  579TMC3    O2 8648   1.600   1.794   1.866 -0.0055 -0.3890  0.2094
  580TMC3    C1 8649   0.444   1.031  11.800  0.0579 -0.7919 -0.3311
  580TMC3    C2 8650   0.504   1.124  11.880  0.3541  0.2660 -0.3451
  580TMC3    C3 8651   0.610   1.083  11.952 -0.3357  0.7333 -0.3404
  580TMC3    C4 8652   0.481   0.900  11.804  0.9844 -0.2248 -0.6886
  580TMC3    C5 8653   0.580   0.859  11.889 -0.5492  0.2358 -0.1954
  580TMC3    C6 8654   0.651   0.950  11.963  0.1362  0.1895 -0.3826
  580TMC3     C 8655   0.404   1.093  11.674 -1.1229  0.1748  0.0726
  580TMC3     O 8656   0.299   1.158  11.676 -0.3298  0.4242 -0.0956
  580TMC3     H 8657   0.481   1.228  11.864 -2.3960 -0.0139  1.8358
  580TMC3    H1 8658   0.438   0.829  11.735  0.7436 -3.0564  2.3461
  580TMC3    H2 8659   0.740   0.913  12.014  0.1781  0.5575 -0.1939
  580TMC3    C7 8660   0.564   0.728  11.952  0.1267  0.3172 -0.9794
  580TMC3    C8 8661   0.709   1.186  11.949 -0.2794  0.2162 -0.2883
  580TMC3    O1 8662   0.585   0.725  12.075  0.7826 -0.0613 -0.9105
  580TMC3    O2 8663   0.678   1.303  11.972 -0.6235  0.2415 -0.2411
  581MPD2     C 8664   3.419   0.706  15.031  0.3915 -0.2257 -0.1787
  581MPD2    C1 8665   3.304   0.637  15.053 -0.0001 -0.1395  1.0112
  581MPD2    C2 8666   3.193   0.652  14.975 -0.6520  0.2616 -0.0025
  581MPD2    C3 8667   3.192   0.744  14.875  0.2722  0.0327 -0.4240
  581MPD2    C4 8668   3.306   0.820  14.853  0.1403 -1.1206 -0.3364
  581MPD2    C5 8669   3.419   0.795  14.927 -0.5263  0.3387  0.3421
  581MPD2     H 8670   3.104   0.595  14.999  0.7107 -0.5405  3.1218
  581MPD2    H1 8671   3.314   0.894  14.773 -0.7241  0.7248  1.3062
  581MPD2    H2 8672   3.513   0.687  15.082  0.4651 -1.7186 -0.8618
  581MPD2    H3 8673   3.515   0.840  14.907 -0.7764  1.3666  1.4310
  581MPD2     N 8674   3.080   0.780  14.801 -0.0539  0.2977  0.7738
  581MPD2    H5 8675   3.095   0.853  14.732 -0.6719 -0.2789  0.0347
  581MPD2    N1 8676   3.325   0.551  15.163 -0.1960 -0.0038 -0.5448
  581MPD2    H7 8677   3.414   0.554  15.211  0.1305 -4.0496 -0.9381
  582TMC3    C1 8678   3.257   0.393  15.331  0.3650  0.5550 -0.2438
  582TMC3    C2 8679   3.276   0.474  15.444  0.7312 -0.2643  0.0756
  582TMC3    C3 8680   3.223   0.420  15.558 -0.2715  0.0408 -0.4464
  582TMC3    C4 8681   3.171   0.284  15.338 -0.2745  0.2478 -0.2944
  582TMC3    C5 8682   3.124   0.245  15.462  0.1541  0.3217  0.4347
  582TMC3    C6 8683   3.165   0.299  15.576 -0.3064  0.8860  0.4709
  582TMC3     C 8684   3.229   0.457  15.202  0.7380 -0.2478 -0.1947
  582TMC3     O 8685   3.148   0.411  15.124  0.3377  0.8785 -0.0912
  582TMC3     H 8686   3.297   0.579  15.428  3.2529 -0.6791  0.6059
  582TMC3    H1 8687   3.162   0.224  15.248 -0.5451 -1.5212  0.9105
  582TMC3    H2 8688   3.116   0.275  15.670 -1.9165  2.4818  0.0223
  582TMC3    C7 8689   2.980   0.225  15.458  0.2516 -0.8017  0.2179
  582TMC3    C8 8690   3.223   0.495  15.682  0.0181 -0.6473 -0.0913
  582TMC3    O1 8691   2.921   0.230  15.564 -0.0037  0.3237 -0.0338
  582TMC3    O2 8692   3.128   0.487  15.755 -0.0995  0.0176  0.3239
  583MPD2     C 8693   2.968   2.369  16.839  0.2025 -0.0964  0.1126
  583MPD2    C1 8694   2.996   2.491  16.779 -0.0507  0.3829 -0.0333
  583MPD2    C2 8695   2.969   2.610  16.848 -0.5714 -0.7877 -0.1516
  583MPD2    C3 8696   2.911   2.607  16.978  0.0615 -0.5601  0.0052
  583MPD2    C4 8697   2.886   2.482  17.035  0.2747  0.4115 -0.0455
  583MPD2    C5 8698   2.903   2.368  16.961 -0.0637  0.3662  0.3131
  583MPD2     H 8699   2.971   2.703  16.793 -0.7749 -0.7550 -0.1051
  583MPD2    H1 8700   2.842   2.465  17.133 -0.6885  0.9949 -0.3742
  583MPD2    H2 8701   2.986   2.282  16.777  0.3037 -1.1849  1.6616
  583MPD2    H3 8702   2.869   2.272  16.996  0.3482  0.4716  0.9959
  583MPD2     N 8703   2.884   2.726  17.036  0.3889 -0.2994  0.0985
  583MPD2    H5 8704   2.890   2.814  16.985 -0.9969 -1.3889 -1.8973
  583MPD2    N1 8705   3.048   2.500  16.651 -0.3741  0.3652 -0.5667
  583MPD2    H7 8706   3.038   2.584  16.595 -1.1176  0.3047 -0.5180
  584TMC3    C1 8707   2.825   2.881  17.213 -0.8863 -0.1182  0.1212
  584TMC3    C2 8708   2.845   2.985  17.124  0.3105  0.9648  0.3066
  584TMC3    C3 8709   2.849   3.107  17.176 -0.2646  0.9299  0.5218
  584TMC3    C4 8710   2.812   2.908  17.349  0.5591 -0.4235 -0.3719
  584TMC3    C5 8711   2.798   3.040  17.391 -0.1521 -0.4650  0.0969
  584TMC3    C6 8712   2.821   3.142  17.307 -0.1000  0.1189 -0.6047
  584TMC3     C 8713   2.859   2.743  17.172 -0.3343  0.7263 -0.3646
  584TMC3     O 8714   2.838   2.658  17.260  0.1001  0.4145 -0.3685
  584TMC3     H 8715   2.876   2.968  17.022 -1.4967  0.7186 -0.1974
  584TMC3    H1 8716   2.801   2.824  17.417  0.2146  0.2755  0.4344
  584TMC3    H2 8717   2.813   3.241  17.349 -0.3268  0.2797 -1.0310
  584TMC3    C7 8718   2.792   3.070  17.535  0.1593  0.2047 -0.1669
  584TMC3    C8 8719   2.859   3.211  17.078 -0.2549 -0.3519  0.3641
  584TMC3    O1 8720   2.854   3.172  17.566 -0.2021 -0.0010  0.0027
  584TMC3    O2 8721   2.817   3.186  16.968  0.3815 -0.4683  0.5516
  585MPD2     C 8722   1.596   1.281  17.675 -0.4272 -0.0400 -0.0224
  585MPD2    C1 8723   1.687   1.347  17.601 -0.1604  0.1825  0.2145
  585MPD2    C2 8724   1.737   1.293  17.487 -0.4749  0.2204 -0.2181
  585MPD2    C3 8725   1.697   1.168  17.442 -0.0422  0.4823 -0.2267
  585MPD2    C4 8726   1.597   1.111  17.509  0.9094 -0.4896 -0.5500
  585MPD2    C5 8727   1.545   1.161  17.627 -0.1498 -0.5011  0.3982
  585MPD2     H 8728   1.807   1.355  17.433  0.2573 -0.5748 -0.1910
  585MPD2    H1 8729   1.563   1.019  17.462 -0.5512 -0.5934  0.7132
  585MPD2    H2 8730   1.550   1.319  17.765  0.9714  1.1739  0.1735
  585MPD2    H3 8731   1.477   1.098  17.684 -0.1074 -1.0867 -0.1975
  585MPD2     N 8732   1.740   1.107  17.319  0.0974  0.1077 -0.7727
  585MPD2    H5 8733   1.713   1.012  17.293 -0.4112 -0.1545  0.6939
  585MPD2    N1 8734   1.709   1.482  17.642 -0.0647 -0.4458  0.8542
  585MPD2    H7 8735   1.656   1.506  17.725 -1.2084 -0.6481  0.1737
  586TMC3    C1 8736   1.859   1.084  17.123 -0.1378 -0.2230 -0.3308
  586TMC3    C2 8737   1.985   1.069  17.067  0.0505  0.0395 -0.8157
  586TMC3    C3 8738   1.996   0.986  16.961 -0.0179  0.9126 -0.2596
  586TMC3    C4 8739   1.743   1.034  17.065  0.1253 -0.3358 -0.4155
  586TMC3    C5 8740   1.763   0.957  16.951  0.6727  0.2750 -0.1301
  586TMC3    C6 8741   1.886   0.933  16.896  0.1172  0.5384  0.5674
  586TMC3     C 8742   1.841   1.164  17.244  0.0476  0.3464 -0.9143
  586TMC3     O 8743   1.929   1.248  17.266  0.5121  0.1808  0.3182
  586TMC3     H 8744   2.072   1.114  17.114 -0.7002 -1.5881  2.0635
  586TMC3    H1 8745   1.647   1.051  17.112 -0.2003  0.3924 -1.3682
  586TMC3    H2 8746   1.892   0.857  16.818  0.8093  0.8355  0.3345
  586TMC3    C7 8747   1.648   0.887  16.894  0.1182  0.1610 -0.2354
  586TMC3    C8 8748   2.106   0.896  16.979  0.6053  0.3607 -0.3609
  586TMC3    O1 8749   1.650   0.875  16.772  0.0004  0.1143 -0.1474
  586TMC3    O2 8750   2.169   0.903  17.087  0.5925 -0.1961 -0.0661
  587TMC3    C1 8751   4.599   0.231  16.650 -0.5195 -0.2039  0.4969
  587TMC3    C2 8752   4.598   0.351  16.580  0.2228 -0.6611  0.0515
  587TMC3    C3 8753   4.716   0.417  16.560  0.4420 -0.1804 -0.4075
  587TMC3    C4 8754   4.716   0.181  16.695  0.1162 -0.1414  0.5142
  587TMC3    C5 8755   0.095   0.245  16.665 -0.1028  0.3721  0.7810
  587TMC3    C6 8756   0.096   0.367  16.609  0.0511 -0.3622 -0.4889
  587TMC3     C 8757   4.481   0.166  16.706 -0.1552  0.1106 -0.4585
  587TMC3     O 8758   4.496   0.056  16.759  0.5223 -0.2488  0.1889
  587TMC3     H 8759   4.504   0.393  16.548  1.2732  0.0911 -2.0038
  587TMC3    H1 8760   4.719   0.087  16.750 -0.1088  0.8834  2.2679
  587TMC3    H2 8761   0.178   0.433  16.586  0.1864 -0.1009  0.7496
  587TMC3    C7 8762   0.210   0.198  16.745  0.2698 -0.5763 -0.1687
  587TMC3    C8 8763   4.703   0.538  16.480 -0.2705  0.6613 -0.3293
  587TMC3    O1 8764   0.203   0.101  16.819  0.0530  0.3748 -0.1847
  587TMC3    O2 8765   0.053   0.580  16.412 -0.0236 -0.0437 -0.1145
  588TMC3    C1 8766   2.638   2.503  10.090 -0.3610  0.1340  0.1800
  588TMC3    C2 8767   2.651   2.377  10.039  0.4250  0.8611  0.7525
  588TMC3    C3 8768   2.760   2.297  10.076  0.1793 -0.1105  0.4284
  588TMC3    C4 8769   2.733   2.559  10.167  0.6850  0.2853  0.8831
  588TMC3    C5 8770   2.849   2.486  10.189 -0.3502 -0.3770 -0.4597
  588TMC3    C6 8771   2.863   2.356  10.138  0.0267  0.0600  0.8060
  588TMC3     C 8772   2.517   2.567  10.061 -0.2512  0.7316  0.7614
  588TMC3     O 8773   2.466   2.550   9.950  0.2925 -0.0511 -0.2763
  588TMC3     H 8774   2.563   2.333   9.992  1.2654  0.9310 -0.8779
  588TMC3    H1 8775   2.723   2.663  10.193 -1.0065  0.0292  1.2515
  588TMC3    H2 8776   2.960   2.310  10.153  0.3083  0.7137  0.9823
  588TMC3    C7 8777   2.971   2.571  10.215 -0.5596  0.0718 -0.6157
  588TMC3    C8 8778   2.761   2.162  10.032  0.7867 -0.2838 -0.0552
  588TMC3    O1 8779   3.082   2.533  10.176 -0.2850  0.4558 -0.0621
  588TMC3    O2 8780   2.657   2.124   9.984 -0.6325 -0.3264  0.0036
  589TMC3    C1 8781   1.766   0.075   0.705 -0.1187 -0.0687 -0.1915
  589TMC3    C2 8782   1.858   0.022   0.789 -0.1069 -0.3579 -0.6806
  589TMC3    C3 8783   1.887   4.629   0.788  0.6595  0.3404 -0.4783
  589TMC3    C4 8784   1.686   4.735   0.637 -0.3805 -0.1837 -0.0063
  589TMC3    C5 8785   1.718   4.606   0.632 -0.0877  0.3233  0.0258
  589TMC3    C6 8786   1.826   4.550   0.694 -0.1173 -0.9856  0.2194
  589TMC3     C 8787   1.721   0.211   0.714  0.1137 -0.5178 -0.3991
  589TMC3     O 8788   1.662   0.252   0.615 -0.0978  0.3200 -0.0692
  589TMC3     H 8789   1.897   0.090   0.864  0.1647  0.6011 -1.6785
  589TMC3    H1 8790   1.599   0.033   0.586  0.2002  0.2632 -0.6420
  589TMC3    H2 8791   1.848   4.444   0.691  0.5357 -0.8832  1.3803
  589TMC3    C7 8792   1.616   4.509   0.585  0.6252  0.9164 -0.5816
  589TMC3    C8 8793   2.011   4.591   0.827  0.3923 -0.4946  0.0644
  589TMC3    O1 8794   1.618   4.398   0.636  0.5253  0.4267 -0.1552
  589TMC3    O2 8795   2.028   4.468   0.841 -0.3286 -0.0433 -0.5996
  590MPD2     C 8796   0.947   3.124  16.600  0.6039  0.0513 -0.5734
  590MPD2    C1 8797   0.866   3.199  16.508  0.5085  0.9835 -0.6225
  590MPD2    C2 8798   0.931   3.294  16.433  0.1172  0.1003  0.0504
  590MPD2    C3 8799   1.069   3.309  16.434 -0.5535  0.1135  0.3012
  590MPD2    C4 8800   1.148   3.240  16.525 -0.1109 -0.5534  0.4394
  590MPD2    C5 8801   1.082   3.148  16.604  0.0972 -0.0844  0.4511
  590MPD2     H 8802   0.879   3.359  16.363 -0.0608 -0.8718 -0.7152
  590MPD2    H1 8803   1.255   3.247  16.539  0.0535 -0.0180 -1.0456
  590MPD2    H2 8804   0.898   3.059  16.672  0.3299 -1.3111 -1.9776
  590MPD2    H3 8805   1.143   3.091  16.673  0.3538  0.7495  0.9261
  590MPD2     N 8806   1.131   3.397  16.339  0.5876 -0.3033 -0.2283
  590MPD2    H5 8807   1.071   3.441  16.271  2.1772 -0.6392 -1.8669
  590MPD2    N1 8808   0.725   3.189  16.494  0.1384 -0.7960 -0.2059
  590MPD2    H7 8809   0.689   3.243  16.415  1.0167 -1.1276 -0.8289
  591TMC3    C1 8810   1.309   3.484  16.210 -0.2077  0.1374 -0.2353
  591TMC3    C2 8811   1.414   3.454  16.126  0.4212 -0.0891 -0.4615
  591TMC3    C3 8812   1.453   3.550  16.034  0.2777  0.4124  0.5657
  591TMC3    C4 8813   1.244   3.607  16.214 -0.0952  0.3747 -0.0304
  591TMC3    C5 8814   1.291   3.704  16.125 -0.0494 -0.4704  0.7893
  591TMC3    C6 8815   1.388   3.671  16.032 -0.4838  0.2585  0.3271
  591TMC3     C 8816   1.263   3.384  16.308  0.4085 -0.5196 -0.0257
  591TMC3     O 8817   1.346   3.305  16.350 -0.0475  0.2536  0.0720
  591TMC3     H 8818   1.465   3.358  16.135 -0.6595 -0.7916 -1.7516
  591TMC3    H1 8819   1.168   3.636  16.285  0.6022  1.9291  0.0646
  591TMC3    H2 8820   1.418   3.748  15.962 -2.3225  1.6398  1.0522
  591TMC3    C7 8821   1.254   3.845  16.137  0.0803  0.4515 -0.1646
  591TMC3    C8 8822   1.536   3.495  15.925  0.0639 -0.2251 -0.3529
  591TMC3    O1 8823   1.202   3.880  16.240  0.9605  0.0180 -0.6008
  591TMC3    O2 8824   1.530   3.375  15.900  0.5947  0.1237 -0.0395
  592MPD2     C 8825   1.925   0.203  11.281 -0.5179  0.0583 -0.2499
  592MPD2    C1 8826   1.947   0.226  11.415 -0.5234  0.5718 -0.6437
  592MPD2    C2 8827   1.887   0.153  11.520  0.0959  0.0543  0.3788
  592MPD2    C3 8828   1.801   0.052  11.488  0.3241  1.2009  0.1392
  592MPD2    C4 8829   1.773   0.037  11.354 -0.0455 -0.5652 -0.1903
  592MPD2    C5 8830   1.833   0.106  11.247  0.3252  0.7535  0.1467
  592MPD2     H 8831   1.896   0.186  11.623  0.1146  2.9192 -0.5386
  592MPD2    H1 8832   1.703   4.705  11.317 -0.4515  0.5971 -1.7864
  592MPD2    H2 8833   1.982   0.255  11.205 -2.0234  2.2227  0.1132
  592MPD2    H3 8834   1.811   0.069  11.147  1.8624 -0.3117  0.1948
  592MPD2     N 8835   1.741   4.728  11.592  0.0936  1.0702 -0.5454
  592MPD2    H5 8836   1.771   0.004  11.688 -0.8170  1.4843 -0.3450
  592MPD2    N1 8837   2.030   0.348  11.442  0.2281 -0.2111  0.3995
  592MPD2    H7 8838   2.041   0.410  11.363 -0.0546  0.3773  0.8240
  593TMC3    C1 8839   2.117   0.528  11.555  0.0733  0.0889 -0.1459
  593TMC3    C2 8840   2.069   0.634  11.630 -0.2735 -0.1141  0.2981
  593TMC3    C3 8841   2.109   0.767  11.593 -0.4550 -0.2489 -0.0086
  593TMC3    C4 8842   2.195   0.551  11.447 -0.5749 -0.5573  0.4379
  593TMC3    C5 8843   2.232   0.682  11.413  0.2105  0.3305 -0.8173
  593TMC3    C6 8844   2.193   0.791  11.487 -0.0810 -0.0152 -0.1067
  593TMC3     C 8845   2.064   0.399  11.570  0.3628  0.3496 -0.0683
  593TMC3     O 8846   2.044   0.359  11.681 -0.5686  0.2019  0.3867
  593TMC3     H 8847   2.004   0.610  11.713  0.6174  4.9476  2.4491
  593TMC3    H1 8848   2.238   0.465  11.397  0.8228 -0.2239  1.0569
  593TMC3    H2 8849   2.225   0.888  11.450  0.2663 -0.1757 -0.2307
  593TMC3    C7 8850   2.344   0.705  11.318  0.5412 -0.7630 -0.0049
  593TMC3    C8 8851   2.088   0.872  11.689 -0.2412  0.4727  0.9154
  593TMC3    O1 8852   2.409   0.809  11.329 -0.6498 -0.1501  0.2178
  593TMC3    O2 8853   1.989   0.864  11.758 -0.5547  0.2306  0.1063
  594MPD2     C 8854   0.293   3.468  14.878 -0.2361  0.1435 -0.3232
  594MPD2    C1 8855   0.202   3.573  14.844  0.4542 -0.1223 -0.2452
  594MPD2    C2 8856   0.249   3.704  14.827 -0.2312 -0.1598 -0.3173
  594MPD2    C3 8857   0.387   3.726  14.830 -0.5697  0.3345 -0.7769
  594MPD2    C4 8858   0.474   3.619  14.845 -0.0921 -0.3175 -0.1708
  594MPD2    C5 8859   0.427   3.496  14.880  0.2627 -0.2787  0.2648
  594MPD2     H 8860   0.179   3.782  14.798  0.3144 -0.0533 -1.3397
  594MPD2    H1 8861   0.581   3.629  14.855 -0.2723  1.5107 -0.0311
  594MPD2    H2 8862   0.263   3.375  14.926  1.2362 -0.7071 -1.0460
  594MPD2    H3 8863   0.492   3.418  14.918 -0.7535  1.0720  4.7825
  594MPD2     N 8864   0.430   3.860  14.797 -0.6118 -0.0635  0.2661
  594MPD2    H5 8865   0.361   3.934  14.795  0.1201  0.6063 -0.0433
  594MPD2    N1 8866   0.064   3.546  14.828 -0.0028  0.2377  0.1508
  594MPD2    H7 8867   0.008   3.631  14.824  1.4769  1.1763 -0.3592
  595TMC3    C1 8868   0.656   4.175  14.565  0.7811 -0.1082 -0.9608
  595TMC3    C2 8869   0.661   4.052  14.628 -0.4062  0.2377 -0.3269
  595TMC3    C3 8870   0.573   4.024  14.733  0.6488 -0.1765  0.8272
  595TMC3    C4 8871   0.578   4.273  14.621 -0.2228  0.1777 -0.1752
  595TMC3    C5 8872   0.500   4.241  14.732 -0.1716  0.6210  0.1792
  595TMC3    C6 8873   0.498   4.120  14.795 -0.2513  0.5770  0.0337
  595TMC3     C 8874   0.773   4.213  14.488 -0.1727 -0.1754  0.0000
  595TMC3     O 8875   0.809   4.327  14.524 -0.0304  0.5627  0.4224
  595TMC3     H 8876   0.695   3.961  14.578  0.9170  0.4452  0.1778
  595TMC3    H1 8877   0.574   4.376  14.588 -2.3018 -0.3305 -1.5181
  595TMC3    H2 8878   0.444   4.099  14.887 -0.4012  1.0666  0.0547
  595TMC3    C7 8879   0.456   4.358  14.809  0.3605 -0.3837  0.0007
  595TMC3    C8 8880   0.563   3.892  14.778 -0.2253 -0.1297 -0.7101
  595TMC3    O1 8881   0.398   4.440  14.743 -0.2969 -0.2283  0.5475
  595TMC3    O2 8882   0.668   3.827  14.792 -0.9667 -0.1696  0.0001
  596MPD2     C 8883   3.959   2.280  16.836 -0.2119  0.3085 -0.4230
  596MPD2    C1 8884   3.885   2.374  16.767  0.9977  0.7767 -0.0955
  596MPD2    C2 8885   3.871   2.354  16.631 -0.5559  0.3457  0.8147
  596MPD2    C3 8886   3.920   2.246  16.560 -0.4608  0.3341 -0.2581
  596MPD2    C4 8887   3.999   2.149  16.635 -0.3251 -0.1473 -0.3388
  596MPD2    C5 8888   4.020   2.174  16.770 -0.0498 -0.6438  0.3210
  596MPD2     H 8889   3.794   2.410  16.579  0.3014 -0.8921 -1.7553
  596MPD2    H1 8890   4.038   2.064  16.581  2.3090  0.6685  0.2966
  596MPD2    H2 8891   3.975   2.291  16.943  1.8196 -1.4256 -0.5418
  596MPD2    H3 8892   4.079   2.110  16.835 -1.2966 -2.2453 -0.1221
  596MPD2     N 8893   3.902   2.228  16.421  0.4401  0.1964 -0.0305
  596MPD2    H5 8894   3.945   2.145  16.381  3.7172  1.3052  1.1797
  596MPD2    N1 8895   3.811   2.471  16.835  0.2974  0.3267  0.5731
  596MPD2    H7 8896   3.755   2.538  16.782 -2.2211 -1.4156  1.0245
  597TMC3    C1 8897   3.745   2.626  16.999 -0.3632 -0.3595  0.3961
  597TMC3    C2 8898   3.758   2.729  16.912 -1.0754  0.5143  0.2529
  597TMC3    C3 8899   3.678   2.844  16.928 -0.6920  0.1118 -0.9531
  597TMC3    C4 8900   3.656   2.630  17.106 -0.3452 -0.3089 -0.5695
  597TMC3    C5 8901   3.578   2.748  17.111  0.8406  0.2160 -0.0583
  597TMC3    C6 8902   3.598   2.852  17.029  0.1125 -0.3272 -0.4829
  597TMC3     C 8903   3.815   2.495  16.971 -0.2596 -0.3218 -0.3058
  597TMC3     O 8904   3.851   2.429  17.066 -0.6100 -0.0245  0.0880
  597TMC3     H 8905   3.823   2.720  16.825 -0.5104 -0.3452  0.7706
  597TMC3    H1 8906   3.638   2.549  17.175 -0.6780  0.3870  0.1621
  597TMC3    H2 8907   3.525   2.932  17.023  0.1796 -0.2212  0.1128
  597TMC3    C7 8908   3.468   2.748  17.197 -1.0578 -0.4167 -0.0963
  597TMC3    C8 8909   3.715   2.974  16.868 -0.2379  0.3200 -0.8509
  597TMC3    O1 8910   3.409   2.640  17.214 -0.3229 -0.4832 -0.0656
  597TMC3    O2 8911   3.647   3.075  16.903 -0.0033  0.4678 -0.2380
  598TMC3    C1 8912   2.235   3.583  15.181 -0.5538 -0.1594 -0.2344
  598TMC3    C2 8913   2.107   3.601  15.136 -0.4175 -0.4051 -0.5301
  598TMC3    C3 8914   2.064   3.733  15.112  0.5004  0.0079 -1.0634
  598TMC3    C4 8915   2.316   3.682  15.214 -0.4606 -0.0638  0.4082
  598TMC3    C5 8916   2.275   3.810  15.183 -0.4543  0.9331 -0.1069
  598TMC3    C6 8917   2.147   3.839  15.134 -0.3594  0.4293  0.5460
  598TMC3     C 8918   2.265   3.458  15.240 -0.1956 -0.8052  0.1089
  598TMC3     O 8919   2.213   3.357  15.198  0.3787 -0.5816  0.4077
  598TMC3     H 8920   2.049   3.511  15.121  1.5356 -1.4723 -1.6795
  598TMC3    H1 8921   2.418   3.669  15.250  0.1572  1.2486 -0.8295
  598TMC3    H2 8922   2.101   3.936  15.145  1.8827  1.6010 -0.5304
  598TMC3    C7 8923   2.337   3.917  15.245 -0.5815 -0.4489 -0.4829
  598TMC3    C8 8924   1.919   3.759  15.116  0.0019  0.2701 -0.5068
  598TMC3    O1 8925   2.395   3.875  15.344  0.1153 -0.4619 -0.4765
  598TMC3    O2 8926   1.882   3.871  15.089 -0.2281  0.2744 -0.0472
  599MPD2     C 8927   2.299   1.570  15.471 -0.3601 -0.0159  0.1115
  599MPD2    C1 8928   2.241   1.446  15.448 -0.3980  0.2637  0.3125
  599MPD2    C2 8929   2.123   1.411  15.514  0.0501  0.0246 -0.1418
  599MPD2    C3 8930   2.067   1.513  15.590 -0.2793 -0.8539 -0.5667
  599MPD2    C4 8931   2.117   1.637  15.583 -0.0570 -0.8196 -0.2508
  599MPD2    C5 8932   2.233   1.671  15.523 -0.1063 -0.2660 -1.1466
  599MPD2     H 8933   2.079   1.313  15.498  0.6338 -0.2473 -0.0887
  599MPD2    H1 8934   2.070   1.722  15.632 -1.5246 -0.3170 -2.5483
  599MPD2    H2 8935   2.398   1.590  15.433 -0.5838 -1.9560 -1.4658
  599MPD2    H3 8936   2.272   1.769  15.547 -0.4346 -0.0508 -1.4834
  599MPD2     N 8937   1.944   1.495  15.665 -0.0297 -0.2819  0.2072
  599MPD2    H5 8938   1.904   1.578  15.709  0.7893 -0.4996  1.3685
  599MPD2    N1 8939   2.323   1.352  15.383 -0.2702  0.0979 -0.0342
  599MPD2    H7 8940   2.416   1.382  15.356 -0.3234  2.0389  1.9721
  600TMC3    C1 8941   1.793   1.375  15.789  0.2195  0.6446 -0.0957
  600TMC3    C2 8942   1.682   1.301  15.758  0.6986  0.0834  0.2796
  600TMC3    C3 8943   1.564   1.328  15.819 -0.1108  1.0210 -0.0026
  600TMC3    C4 8944   1.777   1.485  15.874  0.3302 -0.0599 -0.2085
  600TMC3    C5 8945   1.655   1.510  15.933 -0.2549 -0.1365 -0.4909
  600TMC3    C6 8946   1.547   1.431  15.905 -0.0239 -1.0226  0.1503
  600TMC3     C 8947   1.895   1.372  15.687  0.2180 -0.8325  0.3711
  600TMC3     O 8948   1.915   1.265  15.635 -0.1488 -0.0895 -0.1705
  600TMC3     H 8949   1.693   1.206  15.706  0.2085  0.9907 -1.4869
  600TMC3    H1 8950   1.867   1.542  15.896 -0.4152  0.6474  0.9670
  600TMC3    H2 8951   1.470   1.447  15.980  1.4816 -0.8893  1.6802
  600TMC3    C7 8952   1.650   1.603  16.044  0.2245  0.0633  0.1970
  600TMC3    C8 8953   1.479   1.215  15.839 -0.6287 -0.1318  0.2141
  600TMC3    O1 8954   1.551   1.593  16.121 -0.7524  0.1083 -0.2848
  600TMC3    O2 8955   1.529   1.104  15.855 -0.2080 -0.6227 -0.1080
  601MPD2     C 8956   4.413   0.405  17.343  0.8283 -0.5648  0.0767
  601MPD2    C1 8957   4.279   0.403  17.382  0.3264 -0.3283  0.6968
  601MPD2    C2 8958   4.231   0.281  17.428 -0.3597  0.4885 -0.6456
  601MPD2    C3 8959   4.312   0.176  17.452 -0.9500 -0.5160  0.1388
  601MPD2    C4 8960   4.442   0.181  17.403  0.6583  0.3038 -0.0083
  601MPD2    C5 8961   4.491   0.292  17.345  0.1770  0.5215  0.0560
  601MPD2     H 8962   4.126   0.283  17.454 -0.5737 -0.5106 -1.4530
  601MPD2    H1 8963   4.503   0.092  17.406  0.0234 -0.0859  1.4602
  601MPD2    H2 8964   4.457   0.496  17.305 -1.6855  0.2823 -0.8112
  601MPD2    H3 8965   4.593   0.300  17.309 -0.0436 -1.3032 -0.9960
  601MPD2     N 8966   4.267   0.050  17.507  0.4406 -0.1324  0.7530
  601MPD2    H5 8967   4.342   4.723  17.512 -1.4083 -2.3648 -2.6710
  601MPD2    N1 8968   4.196   0.517  17.363  0.1979 -0.0492 -0.4317
  601MPD2    H7 8969   4.097   0.502  17.378  0.0232  0.2487 -1.2795
  602TMC3    C1 8970   4.101   0.705  17.274 -0.6417 -0.3221  0.0600
  602TMC3    C2 8971   4.011   0.723  17.379 -0.7718 -0.3144  0.4828
  602TMC3    C3 8972   3.885   0.747  17.340 -0.8835 -0.0885 -0.0648
  602TMC3    C4 8973   4.074   0.719  17.144  0.1375  0.2462 -0.5068
  602TMC3    C5 8974   3.936   0.732  17.120 -0.4681 -0.5429  0.3595
  602TMC3    C6 8975   3.842   0.751  17.215 -0.2940 -0.6857 -0.0844
  602TMC3     C 8976   4.225   0.640  17.311 -0.2479 -0.2920  0.4916
  602TMC3     O 8977   4.333   0.679  17.262 -0.0543  0.5720 -0.3656
  602TMC3     H 8978   4.040   0.709  17.483 -1.5586  0.4384  0.8039
  602TMC3    H1 8979   4.147   0.701  17.066  0.1651  1.3599 -0.7477
  602TMC3    H2 8980   3.746   0.789  17.184 -0.4615 -0.9595  0.1008
  602TMC3    C7 8981   3.901   0.635  17.013  0.4318 -0.1672 -0.9284
  602TMC3    C8 8982   3.785   0.733  17.448  0.0927  0.6201 -0.1850
  602TMC3    O1 8983   3.983   0.561  16.967  0.4752 -0.2958  0.1996
  602TMC3    O2 8984   3.809   0.739  17.567  0.1830 -0.3143  0.1450
  603TMC3    C1 8985   3.345   4.233  10.831 -0.3234 -0.0665  0.1150
  603TMC3    C2 8986   3.345   4.265  10.968 -0.4597 -0.0498 -0.4687
  603TMC3    C3 8987   3.330   4.398  11.002  0.6286  0.5311 -0.5128
  603TMC3    C4 8988   3.340   4.330  10.738 -0.2981 -0.1725  0.4686
  603TMC3    C5 8989   3.337   4.460  10.779 -0.1678  0.2348 -0.6720
  603TMC3    C6 8990   3.319   4.491  10.906  0.4751  1.0488 -0.4880
  603TMC3     C 8991   3.329   4.093  10.797  0.5357  0.5085 -0.1306
  603TMC3     O 8992   3.369   4.011  10.876 -0.3479 -0.0545 -0.2571
  603TMC3     H 8993   3.348   4.189  11.045 -0.2390  0.4451  0.0151
  603TMC3    H1 8994   3.358   4.311  10.632 -1.4338 -0.9342  0.4212
  603TMC3    H2 8995   3.333   4.596  10.928 -0.3807  1.0159  0.1785
  603TMC3    C7 8996   3.328   4.568  10.684  0.6721  0.0730 -0.2747
  603TMC3    C8 8997   3.292   4.423  11.138  0.0375 -0.2117  0.0578
  603TMC3    O1 8998   3.393   4.671  10.708  0.0864  0.2325 -0.0832
  603TMC3    O2 8999   3.326   4.342  11.222 -0.3240  0.4134  0.1990
  604MPD2     C 9000   3.177   3.796  16.586 -0.0824 -0.5266  0.9785
  604MPD2    C1 9001   3.067   3.836  16.516 -0.3007  0.3204 -0.6050
  604MPD2    C2 9002   3.047   3.790  16.384 -0.0384  0.4072  1.2927
  604MPD2    C3 9003   3.144   3.708  16.322 -0.0209 -0.0245 -0.1061
  604MPD2    C4 9004   3.250   3.671  16.394  0.9819  0.6376 -0.1606
  604MPD2    C5 9005   3.273   3.717  16.523 -0.9021 -0.8915 -0.9082
  604MPD2     H 9006   2.964   3.818  16.320  0.0572 -0.5067  0.7615
  604MPD2    H1 9007   3.337   3.622  16.351  0.8883 -0.3049  0.7455
  604MPD2    H2 9008   3.189   3.825  16.690  2.6980 -0.6305  0.7054
  604MPD2    H3 9009   3.365   3.698  16.576  0.2338  3.6430 -1.2336
  604MPD2     N 9010   3.119   3.657  16.189  0.1563 -0.4760 -0.1118
  604MPD2    H5 9011   3.026   3.676  16.151 -0.1011  0.6810  1.1024
  604MPD2    N1 9012   2.964   3.906  16.576  0.1355  0.4339  0.2599
  604MPD2    H7 9013   2.988   3.949  16.665  1.5214  0.1882  0.0089
  605TMC3    C1 9014   2.748   3.996  16.620  0.3550  0.0401  0.0701
  605TMC3    C2 9015   2.812   4.105  16.680  0.0690  0.4375  0.1780
  605TMC3    C3 9016   2.739   4.220  16.687  0.1376  0.4131  0.9074
  605TMC3    C4 9017   2.622   3.999  16.572  0.3902 -0.2447  0.3177
  605TMC3    C5 9018   2.554   4.117  16.589 -0.0140  0.2401 -0.4688
  605TMC3    C6 9019   2.612   4.223  16.646  0.2067 -0.2868  0.6313
  605TMC3     C 9020   2.836   3.912  16.536  0.6952 -0.1410  0.5480
  605TMC3     O 9021   2.780   3.847  16.450  0.3254  0.3928  0.3302
  605TMC3     H 9022   2.916   4.101  16.711 -0.2759  0.3916  1.2971
  605TMC3    H1 9023   2.585   3.913  16.517 -0.7633 -0.2920  1.1794
  605TMC3    H2 9024   2.561   4.318  16.634 -0.1912 -0.8072 -1.7470
  605TMC3    C7 9025   2.416   4.132  16.534 -0.0824 -0.0970 -0.2869
  605TMC3    C8 9026   2.785   4.348  16.726 -0.3580  0.6379  0.3075
  605TMC3    O1 9027   2.372   4.246  16.523  0.6644  0.0132 -0.5857
  605TMC3    O2 9028   2.704   4.433  16.748 -0.8706  0.2944 -0.3623
  606TMC3    C1 9029   3.296   2.334  17.640 -0.1399  0.8739  0.2912
  606TMC3    C2 9030   3.409   2.402  17.687 -0.0747  0.0193  0.2286
  606TMC3    C3 9031   3.517   2.397  17.611  0.4381  0.4703  0.2081
  606TMC3    C4 9032   3.294   2.262  17.528  0.0670  0.1138 -0.3570
  606TMC3    C5 9033   3.407   2.251  17.453 -0.5510 -0.2583  0.7046
  606TMC3    C6 9034   3.519   2.326  17.491 -0.1101 -0.2710 -0.5453
  606TMC3     C 9035   3.195   2.302  17.735 -0.4514  0.6275  0.0305
  606TMC3     O 9036   3.125   2.200  17.719 -1.0346  0.1250  0.7490
  606TMC3     H 9037   3.423   2.434   0.024 -0.8241  1.8027 -0.2275
  606TMC3    H1 9038   3.200   2.216  17.499  0.7202 -0.3253 -1.7667
  606TMC3    H2 9039   3.613   2.320  17.436  0.9390  1.0154  1.1108
  606TMC3    C7 9040   3.434   2.135  17.370 -0.7333  0.2162  0.3658
  606TMC3    C8 9041   3.648   2.412  17.677  1.2793  0.2061 -0.3714
  606TMC3    O1 9042   3.532   2.152  17.302  0.0104 -0.1238 -0.0292
  606TMC3    O2 9043   3.744   2.375  17.608  0.3697  0.5863 -0.1009
  607MPD2     C 9044   2.308   0.126  11.392  0.0592 -0.5650  0.5319
  607MPD2    C1 9045   2.352   0.193  11.508  0.1876  0.7431 -0.0532
  607MPD2    C2 9046   2.300   0.143  11.626 -0.1876 -0.0962  1.1739
  607MPD2    C3 9047   2.202   0.047  11.633 -0.2672  0.0334  0.1746
  607MPD2    C4 9048   2.154   4.723  11.521 -0.4883  0.1313  0.3442
  607MPD2    C5 9049   2.213   0.028  11.404 -0.6370  0.3967  0.1652
  607MPD2     H 9050   2.318   0.187  11.724 -2.5191 -0.7108  1.8823
  607MPD2    H1 9051   2.078   4.646  11.522  1.1923 -1.5338 -0.9410
  607MPD2    H2 9052   2.351   0.148  11.295  0.9171  0.4997  1.1548
  607MPD2    H3 9053   2.187   4.731  11.306 -2.0132  0.4689  0.5022
  607MPD2     N 9054   2.164   0.022  11.763 -0.1480  0.2361 -0.5370
  607MPD2    H5 9055   2.210   0.080  11.833 -1.2413  1.7389 -1.0762
  607MPD2    N1 9056   2.452   0.288  11.523 -0.4201  0.4634 -0.3154
  607MPD2    H7 9057   2.491   0.307  11.615  0.2388  0.3727 -0.5788
  608TMC3    C1 9058   2.570   0.475  11.473 -0.1315 -0.0253 -0.0008
  608TMC3    C2 9059   2.517   0.531  11.586  0.1381  0.6055 -0.6927
  608TMC3    C3 9060   2.576   0.646  11.630  0.2348 -0.2483  0.1284
  608TMC3    C4 9061   2.655   0.541  11.392 -0.0220  0.3474  0.0089
  608TMC3    C5 9062   2.711   0.658  11.447 -0.8014 -0.4463 -0.5842
  608TMC3    C6 9063   2.669   0.710  11.563  0.1397  0.2468  0.7047
  608TMC3     C 9064   2.505   0.356  11.419  0.7309  0.0166 -0.7555
  608TMC3     O 9065   2.486   0.351  11.299 -0.5401  0.7719 -0.1729
  608TMC3     H 9066   2.434   0.483  11.636 -1.2853  1.4846 -2.2128
  608TMC3    H1 9067   2.668   0.510  11.289 -0.3843  1.0464 -0.2506
  608TMC3    H2 9068   2.705   0.808  11.593 -0.2494  0.4986  0.3401
  608TMC3    C7 9069   2.828   0.717  11.380 -0.2636 -0.1453  0.3200
  608TMC3    C8 9070   2.506   0.703  11.747 -1.1516  0.5200  0.1471
  608TMC3    O1 9071   2.870   0.824  11.426  0.4251 -0.1664 -0.1520
  608TMC3    O2 9072   2.448   0.806  11.717 -0.4263  0.0925 -0.4240
  609TMC3    C1 9073   1.079   4.075   9.278 -0.0582 -0.5591  0.5790
  609TMC3    C2 9074   1.153   4.094   9.157 -0.3001  1.0131  1.1252
  609TMC3    C3 9075   1.236   3.989   9.129  0.1102  0.6213  0.4649
  609TMC3    C4 9076   1.101   3.968   9.354 -0.0759  0.2281 -0.3189
  609TMC3    C5 9077   1.188   3.874   9.321 -0.0224 -0.0348  0.4031
  609TMC3    C6 9078   1.255   3.880   9.203 -0.5689  0.1065  0.3381
  609TMC3     C 9079   0.947   4.149   9.297  0.0890 -1.2665 -0.2666
  609TMC3     O 9080   0.874   4.102   9.384 -0.2147 -0.1257 -0.0268
  609TMC3     H 9081   1.142   4.181   9.093  0.2155  0.5199  0.3678
  609TMC3    H1 9082   1.052   3.976   9.451 -0.2886  0.1937 -0.4227
  609TMC3    H2 9083   1.328   3.803   9.183  0.0133  0.8371 -0.3711
  609TMC3    C7 9084   1.206   3.765   9.411 -0.2397  0.1020  0.4023
  609TMC3    C8 9085   1.314   3.998   9.001 -0.5139  0.0442  0.2873
  609TMC3    O1 9086   1.188   3.784   9.530  0.2418 -0.3794 -0.5536
  609TMC3    O2 9087   1.258   4.057   8.913 -0.2334 -0.0111 -0.4258
  610TMC3    C1 9088   2.460   0.162  12.437  0.4424 -0.0152 -0.5940
  610TMC3    C2 9089   2.539   0.154  12.326 -0.6958  0.3106  0.6171
  610TMC3    C3 9090   2.652   0.082  12.329  0.0124  1.0022 -0.6783
  610TMC3    C4 9091   2.482   0.079  12.547 -0.3617 -0.2086 -0.2667
  610TMC3    C5 9092   2.589   4.736  12.537  0.7492  0.1284 -0.1417
  610TMC3    C6 9093   2.673   4.735  12.429 -0.4105 -0.6798 -0.9006
  610TMC3     C 9094   2.364   0.278  12.468 -0.2918  0.0974 -0.7277
  610TMC3     O 9095   2.297   0.264  12.570  0.0366 -0.0092 -0.3832
  610TMC3     H 9096   2.518   0.217  12.240 -1.2372  0.0034  0.5265
  610TMC3    H1 9097   2.410   0.079  12.629  0.9628  2.3418  0.9095
  610TMC3    H2 9098   2.755   4.666  12.414  1.4254  1.6229 -1.4870
  610TMC3    C7 9099   2.635   4.657  12.652  0.8710  0.0934 -1.3476
  610TMC3    C8 9100   2.747   0.104  12.224  0.0682  0.4648  0.4273
  610TMC3    O1 9101   2.751   4.610  12.643  0.0006  0.5041  0.0226
  610TMC3    O2 9102   2.716   0.138  12.115 -0.0870  0.3426 -0.2056
  611MPD2     C 9103   2.339   4.249  10.548  0.9697 -0.5810  0.6237
  611MPD2    C1 9104   2.268   4.317  10.451 -0.1211 -0.1970  0.4485
  611MPD2    C2 9105   2.333   4.376  10.348 -0.7690 -0.4605  0.2089
  611MPD2    C3 9106   2.467   4.364  10.342 -1.2287  0.1230  0.2740
  611MPD2    C4 9107   2.537   4.301  10.439  0.1715 -0.2210  0.0136
  611MPD2    C5 9108   2.469   4.242  10.536 -0.3651  0.0482 -0.4754
  611MPD2     H 9109   2.283   4.433  10.271  0.4608  0.8213  0.3488
  611MPD2    H1 9110   2.645   4.303  10.445  0.0918  0.1820  1.1703
  611MPD2    H2 9111   2.306   4.195  10.635 -1.1329  0.2909  0.3703
  611MPD2    H3 9112   2.519   4.185  10.614  1.3120  2.4979  0.2196
  611MPD2     N 9113   2.548   4.429  10.242  0.0367 -0.5103 -0.3449
  611MPD2    H5 9114   2.649   4.428  10.246  0.0186 -1.7197 -0.0650
  611MPD2    N1 9115   2.129   4.322  10.478 -0.4627  0.5998  0.4114
  611MPD2    H7 9116   2.101   4.281  10.566  0.7280  1.7357  1.3119
  612TMC3    C1 9117   2.591   4.548  10.040 -1.0719  0.4249  0.7376
  612TMC3    C2 9118   2.713   4.590  10.097  0.0941  0.0321 -0.1156
  612TMC3    C3 9119   2.806   4.667  10.017 -0.1939  0.1826 -1.0629
  612TMC3    C4 9120   2.569   4.562   9.910 -0.1243  0.1727 -0.1996
  612TMC3    C5 9121   2.658   4.642   9.840  0.3147  0.2897  0.6244
  612TMC3    C6 9122   2.776   4.692   9.888  0.5969  0.1283  0.6247
  612TMC3     C 9123   2.495   4.477  10.123 -0.1253 -0.3114  0.2798
  612TMC3     O 9124   2.390   4.448  10.066 -0.0743  0.3521  0.2045
  612TMC3     H 9125   2.735   4.586  10.203  1.5894 -0.1173 -0.4321
  612TMC3    H1 9126   2.481   4.525   9.858  0.9838  0.1227 -2.0306
  612TMC3    H2 9127   2.845   0.018   9.839 -0.1640  0.9236  0.6608
  612TMC3    C7 9128   2.650   4.627   9.695  0.2631 -0.1648 -0.0616
  612TMC3    C8 9129   2.922   4.722  10.086  0.6730 -0.1096 -0.8238
  612TMC3    O1 9130   2.593   4.534   9.644 -0.0207 -0.0656  0.2562
  612TMC3    O2 9131   2.970   0.071  10.024 -0.3274 -0.1170 -0.2147
  613MPD2     C 9132   0.361   2.447  17.072 -0.0907  0.6633  0.2357
  613MPD2    C1 9133   0.306   2.459  16.948  0.7551  0.2113  0.0555
  613MPD2    C2 9134   0.255   2.349  16.883  0.8044  0.1404  0.2003
  613MPD2    C3 9135   0.245   2.229  16.950  0.2658 -0.3005  0.0046
  613MPD2    C4 9136   0.301   2.207  17.077 -0.9611 -0.5945  0.5331
  613MPD2    C5 9137   0.359   2.319  17.131  0.2692 -0.2215 -0.1152
  613MPD2     H 9138   0.217   2.370  16.784  2.1319  2.9328  0.2660
  613MPD2    H1 9139   0.307   2.108  17.119 -0.0635 -1.0203 -0.6126
  613MPD2    H2 9140   0.408   2.529  17.127 -2.3182  1.4506  0.9565
  613MPD2    H3 9141   0.413   2.302  17.223  1.5515 -2.8605 -1.3601
  613MPD2     N 9142   0.204   2.112  16.885 -0.1560 -0.5740  0.0991
  613MPD2    H5 9143   0.210   2.022  16.932 -1.7301 -0.1407  1.1365
  613MPD2    N1 9144   0.331   2.579  16.884 -0.3811 -0.3412  0.1539
  613MPD2    H7 9145   0.406   2.640  16.917 -1.3168  0.8863  0.0110
  614TMC3    C1 9146   0.307   2.710  16.688 -0.0194 -0.0607 -1.9985
  614TMC3    C2 9147   0.417   2.639  16.638  1.0709  0.3394  0.7821
  614TMC3    C3 9148   0.436   2.621  16.502 -0.4003 -0.2967  0.0566
  614TMC3    C4 9149   0.222   2.769  16.602 -0.3570  0.9506  0.2160
  614TMC3    C5 9150   0.243   2.756  16.469 -0.1450  0.0895 -0.4463
  614TMC3    C6 9151   0.352   2.687  16.415  0.7277  0.1115  1.1693
  614TMC3     C 9152   0.242   2.643  16.798 -0.1192 -0.2293 -0.1206
  614TMC3     O 9153   0.128   2.612  16.777 -0.4401  0.2883  0.2747
  614TMC3     H 9154   0.485   2.591  16.708 -0.8881 -0.7677  1.9237
  614TMC3    H1 9155   0.134   2.818  16.643 -1.7312 -2.6845  1.6051
  614TMC3    H2 9156   0.357   2.666  16.309 -0.2770 -0.4341  1.2265
  614TMC3    C7 9157   0.141   2.811  16.382  0.2645  0.2512  0.3938
  614TMC3    C8 9158   0.477   2.483  16.467 -0.1575  0.5509  0.1157
  614TMC3    O1 9159   0.070   2.896  16.431 -0.1592  0.1861 -0.6730
  614TMC3    O2 9160   0.477   2.404  16.560 -0.6402  0.6344 -0.2212
  615MPD2     C 9161   4.527   3.514  15.883  0.0585 -0.3728  0.5415
  615MPD2    C1 9162   4.439   3.613  15.839 -0.0249 -0.0694 -0.5076
  615MPD2    C2 9163   4.381   3.595  15.715  0.4230 -0.1648 -0.0288
  615MPD2    C3 9164   4.406   3.478  15.641  0.4784 -0.5763  0.0166
  615MPD2    C4 9165   4.495   3.382  15.689  0.5885  0.3116  0.3531
  615MPD2    C5 9166   4.541   3.397  15.816 -0.0036  0.4028  0.3347
  615MPD2     H 9167   4.320   3.673  15.671 -0.9171 -1.2291 -0.0575
  615MPD2    H1 9168   4.538   3.303  15.628 -0.2354 -1.5032  2.1275
  615MPD2    H2 9169   4.582   3.515  15.976  1.4894 -0.1203 -0.3171
  615MPD2    H3 9170   4.594   3.318  15.866  0.1165  2.3363  3.2490
  615MPD2     N 9171   4.355   3.457  15.513  0.2341 -0.5853 -0.2369
  615MPD2    H5 9172   4.400   3.391  15.450 -2.1084 -0.1240 -2.4036
  615MPD2    N1 9173   4.426   3.744  15.887  0.3243 -0.3853 -0.0585
  615MPD2    H7 9174   4.364   3.804  15.832  0.8343  1.0963  0.9801
  616TMC3    C1 9175   4.458   3.925  16.039  0.3151  0.1036 -0.7234
  616TMC3    C2 9176   4.547   3.996  16.109  0.4152 -0.1856  0.7460
  616TMC3    C3 9177   4.516   4.125  16.130  0.3419 -0.7415 -1.0163
  616TMC3    C4 9178   4.341   3.971  15.988  0.4412 -0.2141  0.2809
  616TMC3    C5 9179   4.307   4.094  16.025 -0.7353 -0.3298 -0.6770
  616TMC3    C6 9180   4.397   4.172  16.093 -0.4722 -0.4113  0.5225
  616TMC3     C 9181   4.495   3.789  16.000  0.0802 -0.0926  0.5383
  616TMC3     O 9182   4.584   3.736  16.066  0.1277 -0.2569 -0.2525
  616TMC3     H 9183   4.638   3.949  16.146  0.4697 -0.6150  0.0608
  616TMC3    H1 9184   4.271   3.914  15.929 -0.2117 -0.2916  1.1182
  616TMC3    H2 9185   4.376   4.278  16.104 -1.3188 -0.3488 -1.7059
  616TMC3    C7 9186   4.187   4.153  15.981 -0.0619 -0.0843  0.4945
  616TMC3    C8 9187   4.610   4.227  16.189 -0.7827 -0.1542  0.0724
  616TMC3    O1 9188   4.135   4.096  15.885 -0.3236  0.7203  0.7150
  616TMC3    O2 9189   4.563   4.332  16.223  0.0159  0.8710 -0.2458
  617MPD2     C 9190   2.604   2.368  13.649  0.2173  0.1637  1.4420
  617MPD2    C1 9191   2.704   2.292  13.703 -0.2570  0.0318  0.3324
  617MPD2    C2 9192   2.674   2.164  13.748 -0.2915 -0.3837  0.5082
  617MPD2    C3 9193   2.543   2.117  13.738  0.2270  0.7960 -0.0220
  617MPD2    C4 9194   2.451   2.185  13.656 -0.4290  0.3273  0.6754
  617MPD2    C5 9195   2.482   2.316  13.624  0.0838 -0.0833 -0.5387
  617MPD2     H 9196   2.740   2.108  13.814  0.0144 -1.2313 -0.5369
  617MPD2    H1 9197   2.358   2.137  13.628 -0.6928  0.3196  1.5785
  617MPD2    H2 9198   2.624   2.470  13.620 -0.1947  0.0766  0.8352
  617MPD2    H3 9199   2.410   2.378  13.572 -0.4953 -1.5111 -1.4371
  617MPD2     N 9200   2.510   1.983  13.779 -0.1042  0.1706  0.3044
  617MPD2    H5 9201   2.421   1.945  13.747  0.6671 -1.4218  0.0584
  617MPD2    N1 9202   2.829   2.354  13.721  0.1371 -0.5447 -0.1931
  617MPD2    H7 9203   2.843   2.450  13.690 -0.6573 -0.3731 -0.0026
  618TMC3    C1 9204   3.062   2.365  13.757  0.0523  0.5350  0.4172
  618TMC3    C2 9205   3.163   2.302  13.829 -0.4496  0.1240  0.1954
  618TMC3    C3 9206   3.289   2.279  13.780  0.3237  0.2585 -0.6000
  618TMC3    C4 9207   3.096   2.405  13.628 -0.3143  0.0686  0.9962
  618TMC3    C5 9208   3.218   2.382  13.579 -0.0513 -0.0806  0.6371
  618TMC3    C6 9209   3.322   2.326  13.654  0.1063 -0.7817 -0.3245
  618TMC3     C 9210   2.931   2.298  13.791  0.2668 -0.4495  0.0978
  618TMC3     O 9211   2.943   2.196  13.857 -0.2003  0.1303  0.0118
  618TMC3     H 9212   3.136   2.271  13.929  1.0377 -0.1360  0.5156
  618TMC3    H1 9213   3.013   2.442  13.569  0.0719  0.0738  0.4640
  618TMC3    H2 9214   3.422   2.314  13.614  0.3404  0.4343 -0.0980
  618TMC3    C7 9215   3.246   2.422  13.446  0.1080 -0.5272 -0.0912
  618TMC3    C8 9216   3.352   2.155  13.828 -0.0174  0.1160 -0.0588
  618TMC3    O1 9217   3.168   2.493  13.390 -0.0928  0.3465  0.3818
  618TMC3    O2 9218   3.298   2.117  13.930 -0.5191 -0.2386  0.2492
  619MPD2     C 9219   4.511   3.348  13.590 -0.5112 -0.1274 -0.4529
  619MPD2    C1 9220   4.406   3.395  13.520 -0.5679  0.6500  0.5398
  619MPD2    C2 9221   4.290   3.321  13.526  0.6810 -0.3347 -0.7179
  619MPD2    C3 9222   4.270   3.206  13.601  0.0366 -0.7488 -0.2071
  619MPD2    C4 9223   4.380   3.164  13.671 -0.7184 -0.1814 -0.6091
  619MPD2    C5 9224   4.493   3.233  13.667  0.4374  0.2731  0.0638
  619MPD2     H 9225   4.214   3.366  13.464 -0.3218 -2.6771 -1.2018
  619MPD2    H1 9226   4.368   3.076  13.734  1.6208  0.3476  0.6084
  619MPD2    H2 9227   4.605   3.400  13.585 -0.8451  0.3533 -1.7253
  619MPD2    H3 9228   4.573   3.189  13.724 -2.7929 -2.3241  2.6046
  619MPD2     N 9229   4.146   3.132  13.617 -0.2017  0.6340  0.0586
  619MPD2    H5 9230   4.143   3.062  13.690  1.4872 -0.1594 -0.6111
  619MPD2    N1 9231   4.422   3.509  13.436 -0.0976  0.0967  0.2279
  619MPD2    H7 9232   4.339   3.537  13.385 -0.6608 -1.5947  0.2028
  620TMC3    C1 9233   4.494   3.694  13.323 -0.3196 -1.0015  0.0050
  620TMC3    C2 9234   4.408   3.674  13.220 -0.0453 -0.3321 -0.2508
  620TMC3    C3 9235   4.338   3.777  13.164 -0.5062  0.1203 -0.6025
  620TMC3    C4 9236   4.532   3.824  13.358  0.5324 -0.0695  0.4292
  620TMC3    C5 9237   4.469   3.922  13.291  0.2344  0.1788  0.5398
  620TMC3    C6 9238   4.374   3.906  13.199  0.0206 -0.3193 -0.0506
  620TMC3     C 9239   4.534   3.590  13.420 -0.8217 -0.3134 -0.4890
  620TMC3     O 9240   4.638   3.606  13.484  0.2665 -0.3050 -0.3442
  620TMC3     H 9241   4.363   3.578  13.195  0.7535 -0.7341 -0.1428
  620TMC3    H1 9242   4.608   3.840  13.433 -0.7907 -0.7275  1.9156
  620TMC3    H2 9243   4.320   3.991  13.161  1.1285 -0.7593 -2.5844
  620TMC3    C7 9244   4.439   4.029  13.379  0.5437 -0.2498 -0.1676
  620TMC3    C8 9245   4.197   3.762  13.187 -0.0586  0.5422 -0.2825
  620TMC3    O1 9246   4.531   4.075  13.438  0.1059  0.1731 -0.1304
  620TMC3    O2 9247   4.148   3.844  13.265 -0.2488 -0.4311  0.1102
  621MPD2     C 9248   0.143   3.805   9.747  0.0058 -0.7096  0.2405
  621MPD2    C1 9249   0.215   3.724   9.834 -0.3365  0.2100 -0.8720
  621MPD2    C2 9250   0.342   3.687   9.787 -0.2264 -0.6793  0.2300
  621MPD2    C3 9251   0.392   3.733   9.662  0.6226 -0.1768 -0.5568
  621MPD2    C4 9252   0.313   3.805   9.577 -0.0288 -0.6215 -0.4271
  621MPD2    C5 9253   0.194   3.845   9.619  0.3775 -0.5121  0.0580
  621MPD2     H 9254   0.412   3.636   9.851  1.8693  2.6520  0.5702
  621MPD2    H1 9255   0.340   3.834   9.476  2.2680  0.2448  0.4312
  621MPD2    H2 9256   0.043   3.837   9.773  1.2890  1.9706  1.8155
  621MPD2    H3 9257   0.132   3.895   9.546 -1.2888 -0.3647  1.5814
  621MPD2     N 9258   0.523   3.694   9.630 -0.3064  0.3372 -0.1264
  621MPD2    H5 9259   0.571   3.623   9.684 -2.4994 -1.6280 -0.7467
  621MPD2    N1 9260   0.177   3.672   9.958  0.0714  0.7683  0.2074
  621MPD2    H7 9261   0.239   3.607  10.006  1.5641  0.2112 -2.5081
  622TMC3    C1 9262   0.062   3.646  10.159  0.0840 -0.0019 -0.0886
  622TMC3    C2 9263   4.691   3.674  10.231  0.4958  0.1333  0.1024
  622TMC3    C3 9264   4.657   3.603  10.345 -0.1200  0.4344 -0.3547
  622TMC3    C4 9265   0.142   3.541  10.190  0.0577  0.0689  0.2635
  622TMC3    C5 9266   0.106   3.474  10.307  0.3441 -0.4180 -0.1900
  622TMC3    C6 9267   4.738   3.499  10.384  0.4149 -0.0166 -0.0834
  622TMC3     C 9268   0.066   3.707  10.027  0.6093  0.2189  0.0220
  622TMC3     O 9269   4.733   3.799  10.001  0.3472  0.4427  0.0878
  622TMC3     H 9270   4.630   3.755  10.191  1.1729  0.0902 -1.0368
  622TMC3    H1 9271   0.240   3.520  10.150  0.4101 -0.9103  1.6940
  622TMC3    H2 9272   4.715   3.445  10.476  2.6071  0.5684  0.8001
  622TMC3    C7 9273   0.165   3.335  10.298 -0.7805  0.2507  0.9730
  622TMC3    C8 9274   4.523   3.611  10.405 -0.2770  0.3799  0.1835
  622TMC3    O1 9275   0.270   3.322  10.236 -0.6022 -0.0151 -0.2820
  622TMC3    O2 9276   4.498   3.515  10.475 -0.2313  0.3135 -0.0145
  623MPD2     C 9277   3.345   4.288  15.899 -0.2052 -0.7311  0.1318
  623MPD2    C1 9278   3.307   4.206  16.003 -0.1648  0.0942 -0.3002
  623MPD2    C2 9279   3.389   4.191  16.116  0.3198  0.6352 -1.1336
  623MPD2    C3 9280   3.496   4.281  16.129 -0.0517  0.3146  0.3495
  623MPD2    C4 9281   3.529   4.362  16.026 -0.7213  0.0982  1.1924
  623MPD2    C5 9282   3.454   4.366  15.917  0.2842 -0.7546  0.0443
  623MPD2     H 9283   3.349   4.143  16.205  0.9446  0.1188 -1.1317
  623MPD2    H1 9284   3.624   4.413  16.032 -3.1642  4.3843  3.5821
  623MPD2    H2 9285   3.279   4.289  15.813  0.9488 -2.5203 -0.7699
  623MPD2    H3 9286   3.480   4.433  15.836  2.7943  0.3331  1.7653
  623MPD2     N 9287   3.563   4.269  16.250 -0.1518 -0.8966 -0.0959
  623MPD2    H5 9288   3.543   4.194  16.315 -1.9978  1.2264  1.7787
  623MPD2    N1 9289   3.189   4.135  15.996  0.2102  0.2354  0.6150
  623MPD2    H7 9290   3.124   4.162  15.923  1.5694  1.6931 -0.0673
  624TMC3    C1 9291   3.713   4.197  16.611 -0.3166  0.1882  0.0471
  624TMC3    C2 9292   3.630   4.256  16.699 -0.5054  0.0044 -0.6526
  624TMC3    C3 9293   3.562   4.365  16.658 -0.3861 -0.0894  0.2150
  624TMC3    C4 9294   3.724   4.229  16.478 -0.6594 -0.3229  0.7088
  624TMC3    C5 9295   3.659   4.345  16.451  0.0840  0.3719 -0.7384
  624TMC3    C6 9296   3.569   4.409  16.530  0.4958 -0.6458  0.1371
  624TMC3     C 9297   3.782   4.084  16.672  0.3288  0.2794  0.6097
  624TMC3     O 9298   3.802   4.087  16.793  0.1030  0.4230  0.4407
  624TMC3     H 9299   3.613   4.217  16.799 -0.6173  0.3781 -0.5249
  624TMC3    H1 9300   3.796   4.180  16.413 -2.3166  0.9709 -2.1011
  624TMC3    H2 9301   3.516   4.497  16.497  0.7424 -1.0807 -1.4267
  624TMC3    C7 9302   3.644   4.368  16.308 -0.1684  0.3533  0.2135
  624TMC3    C8 9303   3.435   4.381  16.727 -0.3873 -0.1738  0.2893
  624TMC3    O1 9304   3.643   4.482  16.267  0.1636  0.8015  0.4555
  624TMC3    O2 9305   3.396   4.294  16.804 -0.0486  0.8830 -0.2019
  625MPD2     C 9306   4.212   0.510   0.399  0.5728 -0.6150  0.0792
  625MPD2    C1 9307   4.184   0.616   0.486  0.7061 -0.3277 -0.2279
  625MPD2    C2 9308   4.297   0.699   0.524  0.1695  0.6346  0.1128
  625MPD2    C3 9309   4.418   0.672   0.457  0.0284  0.3645  0.2490
  625MPD2    C4 9310   4.427   0.580   0.357 -0.5513 -0.5428 -0.2827
  625MPD2    C5 9311   4.331   0.486   0.343  0.5147  0.2822 -0.7013
  625MPD2     H 9312   4.281   0.784   0.589 -1.8114 -0.6153  1.2937
  625MPD2    H1 9313   4.518   0.576   0.298 -1.4817 -2.1753 -1.6149
  625MPD2    H2 9314   4.135   0.439   0.375 -1.4730  1.5727  0.1934
  625MPD2    H3 9315   4.342   0.397   0.283 -0.2227 -1.2744  1.4613
  625MPD2     N 9316   4.526   0.769   0.467  0.2301 -0.8372 -0.1191
  625MPD2    H5 9317   4.593   0.754   0.392  0.0419 -1.6918 -0.1124
  625MPD2    N1 9318   4.052   0.650   0.522 -0.2799 -0.0107  0.1812
  625MPD2    H7 9319   4.045   0.730   0.583  0.0404  0.1159  0.0514
  626TMC3    C1 9320   3.832   0.675   0.514  0.1911  0.9077 -0.0219
  626TMC3    C2 9321   3.721   0.675   0.436 -0.0150  0.0723  0.0578
  626TMC3    C3 9322   3.624   0.773   0.456  0.6012  0.2265 -0.5993
  626TMC3    C4 9323   3.834   0.741   0.637 -0.2810  0.4108 -0.7111
  626TMC3    C5 9324   3.722   0.822   0.660  0.1382 -0.0242 -0.2900
  626TMC3    C6 9325   3.618   0.842   0.572  0.2941 -0.2614 -0.2104
  626TMC3     C 9326   3.937   0.594   0.474 -0.5347  0.5452  0.0198
  626TMC3     O 9327   3.913   0.516   0.381  0.1183  0.0566 -0.4475
  626TMC3     H 9328   3.719   0.620   0.343 -1.7959  0.0981  0.0802
  626TMC3    H1 9329   3.914   0.722   0.708  1.1171  0.4586 -2.2776
  626TMC3    H2 9330   3.546   0.920   0.592  0.7050  0.6413 -2.3168
  626TMC3    C7 9331   3.725   0.885   0.789  0.4336  0.5809 -0.1189
  626TMC3    C8 9332   3.525   0.789   0.354 -0.0608 -0.3767 -0.1644
  626TMC3    O1 9333   3.826   0.894   0.856  0.3616  0.4859  0.9261
  626TMC3    O2 9334   3.564   0.768   0.243 -0.2987 -0.1244  0.2643
  627MPD2     C 9335   2.570   0.595  14.133 -0.5610  0.2844  0.2166
  627MPD2    C1 9336   2.536   0.569  14.264  0.1069  0.0890 -0.6225
  627MPD2    C2 9337   2.424   0.492  14.291  0.4755 -0.1644  0.3882
  627MPD2    C3 9338   2.350   0.438  14.181  0.2310  0.6464  0.3902
  627MPD2    C4 9339   2.389   0.459  14.051 -0.3452 -0.1626 -0.1854
  627MPD2    C5 9340   2.506   0.533  14.032 -0.5450  0.6468  0.0381
  627MPD2     H 9341   2.399   0.474  14.395 -1.7934  2.0425  0.2386
  627MPD2    H1 9342   2.339   0.423  13.962  0.9506 -0.6659 -0.7003
  627MPD2    H2 9343   2.654   0.661  14.113  0.4676 -0.4257  2.0966
  627MPD2    H3 9344   2.542   0.550  13.931  0.2152  0.5735  0.2983
  627MPD2     N 9345   2.243   0.350  14.207  0.1040  0.0424 -0.1761
  627MPD2    H5 9346   2.201   0.362  14.298 -0.0610  0.1047 -0.2604
  627MPD2    N1 9347   2.598   0.625  14.382  0.5067 -0.1388 -0.0519
  627MPD2    H7 9348   2.560   0.588  14.469 -0.0079 -0.8562 -0.5900
  628TMC3    C1 9349   2.726   0.779  14.505  0.5456  0.2732  0.3047
  628TMC3    C2 9350   2.795   0.705  14.607  0.5445 -0.0013 -0.3377
  628TMC3    C3 9351   2.874   0.786  14.686 -0.3678 -0.5543 -0.7307
  628TMC3    C4 9352   2.730   0.916  14.501  0.3751 -0.5313 -0.6639
  628TMC3    C5 9353   2.814   0.980  14.584  0.2146 -0.9433  0.3511
  628TMC3    C6 9354   2.896   0.922  14.675 -0.0970 -0.1758 -0.0246
  628TMC3     C 9355   2.693   0.723  14.373  0.0997  0.1395  0.3297
  628TMC3     O 9356   2.737   0.787  14.277  0.2624 -0.2499 -0.2835
  628TMC3     H 9357   2.795   0.597  14.619 -0.7627  0.1713  1.3140
  628TMC3    H1 9358   2.662   0.957  14.426  1.7090  0.7757 -1.1762
  628TMC3    H2 9359   2.940   0.983  14.754 -1.2590  2.2591 -1.2434
  628TMC3    C7 9360   2.786   1.122  14.612  0.2193  0.6867 -0.2012
  628TMC3    C8 9361   2.957   0.719  14.793 -0.1558  0.7606  0.0048
  628TMC3    O1 9362   2.818   1.163  14.722 -0.0816  0.5511  0.2974
  628TMC3    O2 9363   2.906   0.633  14.863  0.7861  0.2253  0.3392
  629MPD2     C 9364   0.322   4.406  16.340 -0.1495 -0.2984  0.1879
  629MPD2    C1 9365   0.339   4.276  16.298 -0.1655 -0.4304  0.1228
  629MPD2    C2 9366   0.229   4.201  16.255  0.5596  0.6297 -0.0693
  629MPD2    C3 9367   0.109   4.269  16.233  0.3851 -0.7386 -0.2557
  629MPD2    C4 9368   0.096   4.409  16.263 -0.1580 -0.9757  1.0828
  629MPD2    C5 9369   0.209   4.474  16.320 -0.4244  0.2922 -0.2842
  629MPD2     H 9370   0.235   4.094  16.240 -0.3253  0.4694  0.7115
  629MPD2    H1 9371   0.006   4.464  16.243 -0.7597 -1.5892  2.0678
  629MPD2    H2 9372   0.400   4.458  16.394 -0.5721 -0.1941  0.6967
  629MPD2    H3 9373   0.206   4.578  16.351 -1.7411  0.2111 -0.0996
  629MPD2     N 9374   0.001   4.187  16.193 -0.0840  0.3459 -0.0919
  629MPD2    H5 9375   0.024   4.092  16.169  1.9871  0.5802  0.9156
  629MPD2    N1 9376   0.469   4.216  16.303  0.4969 -0.0866 -0.3046
  629MPD2    H7 9377   0.543   4.264  16.353  0.1710 -0.6228  0.6821
  630TMC3    C1 9378   0.638   4.084  16.233 -0.1365  0.6999 -0.4582
  630TMC3    C2 9379   0.724   4.184  16.269 -0.2207 -0.0947  0.0991
  630TMC3    C3 9380   0.855   4.155  16.274 -0.5476 -0.3893  0.3072
  630TMC3    C4 9381   0.676   3.959  16.211 -0.0563 -0.6120 -0.4739
  630TMC3    C5 9382   0.807   3.929  16.240  0.1970  0.1924  0.3368
  630TMC3    C6 9383   0.903   4.029  16.266  0.0719  0.4894 -0.4300
  630TMC3     C 9384   0.499   4.109  16.223  0.2190  0.3919  0.6733
  630TMC3     O 9385   0.437   4.039  16.146  0.2081  0.2868  0.1030
  630TMC3     H 9386   0.699   4.290  16.270  0.8417  0.1767 -1.8705
  630TMC3    H1 9387   0.605   3.878  16.203 -0.0191 -0.7460  0.5702
  630TMC3    H2 9388   1.009   4.009  16.280  0.1183  1.4263  0.5847
  630TMC3    C7 9389   0.836   3.797  16.287  0.2063 -0.1778 -0.6482
  630TMC3    C8 9390   0.949   4.260  16.266 -1.2743 -0.3682  0.7820
  630TMC3    O1 9391   0.753   3.710  16.261  0.6300  0.1244 -0.2281
  630TMC3    O2 9392   1.044   4.237  16.341  0.1372 -0.3290  0.1043
  631MPD2     C 9393   3.454   3.717  15.373 -0.8359  0.2148 -0.1226
  631MPD2    C1 9394   3.561   3.802  15.331 -0.1990 -0.5665  0.3262
  631MPD2    C2 9395   3.675   3.745  15.294  0.7104 -0.3732  0.1077
  631MPD2    C3 9396   3.693   3.609  15.299  0.0425 -0.6489 -0.4934
  631MPD2    C4 9397   3.600   3.528  15.352 -0.3141  0.4527 -0.1973
  631MPD2    C5 9398   3.477   3.587  15.389 -0.2870  0.9386 -0.3179
  631MPD2     H 9399   3.761   3.800  15.258  2.2537 -2.7209  0.2423
  631MPD2    H1 9400   3.625   3.424  15.371  1.2119  0.7398 -0.6068
  631MPD2    H2 9401   3.364   3.745  15.425 -2.3090  0.8844 -3.0157
  631MPD2    H3 9402   3.401   3.529  15.440  0.8968 -0.1898  0.1762
  631MPD2     N 9403   3.821   3.555  15.259 -0.7846  0.4357  0.3253
  631MPD2    H5 9404   3.843   3.463  15.298  0.4480  0.8782  0.6756
  631MPD2    N1 9405   3.518   3.935  15.302 -0.0350  0.2302 -0.1584
  631MPD2    H7 9406   3.418   3.949  15.313 -0.2321 -1.1724 -0.1303
  632TMC3    C1 9407   3.553   4.156  15.221 -0.9219  0.4320  0.0136
  632TMC3    C2 9408   3.517   4.220  15.337  0.3710 -0.2896 -0.3697
  632TMC3    C3 9409   3.567   4.342  15.368 -0.5040 -0.4346  0.0139
  632TMC3    C4 9410   3.634   4.219  15.138 -0.0433 -0.7800  0.2469
  632TMC3    C5 9411   3.658   4.351  15.160  0.2188 -0.3029  0.1671
  632TMC3    C6 9412   3.635   4.415  15.275 -0.6793 -0.1290  0.1072
  632TMC3     C 9413   3.603   4.021  15.251  0.3537 -0.0179  0.5669
  632TMC3     O 9414   3.716   4.010  15.220 -0.2776  0.1708 -0.3983
  632TMC3     H 9415   3.460   4.160  15.407  0.3797  0.7883  0.5628
  632TMC3    H1 9416   3.675   4.169  15.052  0.3129  0.4039 -0.2639
  632TMC3    H2 9417   3.668   4.518  15.288 -2.1504  0.4046 -0.3668
  632TMC3    C7 9418   3.764   4.401  15.078 -0.6818 -0.4032 -0.4254
  632TMC3    C8 9419   3.518   4.415  15.486  0.3467 -0.0428 -0.3050
  632TMC3    O1 9420   3.754   4.368  14.960 -0.2216 -0.8039 -0.3341
  632TMC3    O2 9421   3.413   4.363  15.527  0.1720  0.1591  0.1250
  633MPD2     C 9422   2.955   2.146  17.313  0.0374 -0.1321  0.5225
  633MPD2    C1 9423   3.018   2.092  17.202 -0.7868 -0.1188 -0.4066
  633MPD2    C2 9424   2.971   1.969  17.163  0.1167  0.4955 -0.6717
  633MPD2    C3 9425   2.865   1.907  17.226 -0.0931  0.1628  0.0178
  633MPD2    C4 9426   2.807   1.963  17.339  0.4736 -0.0340 -1.5538
  633MPD2    C5 9427   2.851   2.092  17.374  0.3693  0.3490  0.7961
  633MPD2     H 9428   3.013   1.927  17.072  1.4686 -0.6184  0.4553
  633MPD2    H1 9429   2.729   1.914  17.397  0.4761  1.2752 -0.4614
  633MPD2    H2 9430   2.984   2.240  17.360 -0.1693 -0.0333  0.4539
  633MPD2    H3 9431   2.815   2.139  17.465  0.1226  0.1285  0.8100
  633MPD2     N 9432   2.824   1.779  17.201  0.3081  0.0039  0.3794
  633MPD2    H5 9433   2.768   1.726  17.268 -2.2073  0.9594 -0.9815
  633MPD2    N1 9434   3.124   2.154  17.137  0.1520  0.1621 -0.1207
  633MPD2    H7 9435   3.155   2.099  17.057  1.2933 -1.5419  1.4865
  634TMC3    C1 9436   3.255   2.322  17.039  0.2971  0.1652 -0.2178
  634TMC3    C2 9437   3.339   2.233  16.974 -0.6747 -0.8844  0.4937
  634TMC3    C3 9438   3.410   2.277  16.864 -0.0524 -0.3282 -0.6994
  634TMC3    C4 9439   3.259   2.452  17.005  0.3418 -0.6530 -0.0331
  634TMC3    C5 9440   3.341   2.494  16.899  0.2433  0.6607 -0.4646
  634TMC3    C6 9441   3.407   2.408  16.821 -0.7392 -0.0122  0.4112
  634TMC3     C 9442   3.168   2.278  17.148 -0.1096 -0.0981 -0.0347
  634TMC3     O 9443   3.132   2.364  17.230 -0.4949 -0.0657  0.2492
  634TMC3     H 9444   3.354   2.130  17.003  2.0755 -0.3369  1.0328
  634TMC3    H1 9445   3.199   2.517  17.068  0.7163 -1.4549  1.1580
  634TMC3    H2 9446   3.467   2.443  16.737 -0.0534 -0.1359  0.8560
  634TMC3    C7 9447   3.334   2.631  16.853 -0.0103 -0.2878  0.1567
  634TMC3    C8 9448   3.427   2.174  16.766  0.3397  0.0915  0.6369
  634TMC3    O1 9449   3.387   2.664  16.750 -0.4845  0.4025 -0.0261
  634TMC3    O2 9450   3.418   2.056  16.797 -0.4235  0.5414 -0.0016
  635TMC3    C1 9451   0.063   4.068   0.082  0.0666 -0.0136 -0.4343
  635TMC3    C2 9452   0.069   3.941   0.130  0.0821  0.0293 -0.2246
  635TMC3    C3 9453   0.137   3.928   0.251  0.8567  0.3792 -0.3068
  635TMC3    C4 9454   0.094   4.177   0.160 -0.9300  0.5380  0.8715
  635TMC3    C5 9455   0.133   4.163   0.296 -0.3590 -0.0283 -0.2620
  635TMC3    C6 9456   0.173   4.038   0.329 -1.1104  0.4134  0.3810
  635TMC3     C 9457   4.728   4.108  17.726 -0.2760  0.4048 -0.1817
  635TMC3     O 9458   4.700   4.226  17.728 -0.3735 -0.7172  0.2635
  635TMC3     H 9459   0.035   3.855   0.074 -2.0215  1.7119 -1.5204
  635TMC3    H1 9460   0.088   4.278   0.121  3.9502  0.5965  0.2743
  635TMC3    H2 9461   0.231   4.024   0.419 -1.3043 -0.7317  0.3254
  635TMC3    C7 9462   0.172   4.282   0.368 -0.0377 -0.1561  0.0721
  635TMC3    C8 9463   0.192   3.799   0.284 -0.5213 -0.2140 -0.2048
  635TMC3    O1 9464   0.156   4.385   0.304 -0.2287 -0.1780  0.5066
  635TMC3    O2 9465   0.247   3.793   0.393  0.3498 -0.0924  0.0337
  636MPD2     C 9466   4.610   2.444  16.230  0.6562 -0.1163  0.5358
  636MPD2    C1 9467   4.617   2.446  16.367  0.4662 -0.1515 -0.1941
  636MPD2    C2 9468   4.655   2.331  16.436 -0.9070 -0.3362  0.0860
  636MPD2    C3 9469   4.686   2.217  16.365 -0.6245 -0.4304 -0.1068
  636MPD2    C4 9470   4.684   2.213  16.225 -0.0242 -0.3258 -0.2230
  636MPD2    C5 9471   4.636   2.325  16.155  0.1339  0.1116 -0.2000
  636MPD2     H 9472   4.658   2.318  16.543  0.1796 -0.2271  0.0715
  636MPD2    H1 9473   4.697   2.123  16.166  0.2001 -1.9464  2.3037
  636MPD2    H2 9474   4.577   2.532  16.176  2.3539  0.4576  0.4453
  636MPD2    H3 9475   4.621   2.318  16.048  0.3221  0.1505 -0.2281
  636MPD2     N 9476   4.729   2.109  16.446  0.4518  0.1390 -0.7391
  636MPD2    H5 9477   4.735   2.124  16.547  1.7476 -0.5984 -0.7180
  636MPD2    N1 9478   4.585   2.562  16.452 -0.3636  0.1315  0.6640
  636MPD2    H7 9479   4.607   2.545  16.549  0.0244  0.3275  0.6071
  637TMC3    C1 9480   0.048   1.904  16.515 -0.4410  0.4744  0.2148
  637TMC3    C2 9481   0.026   1.956  16.640  0.3449  0.2601 -0.2885
  637TMC3    C3 9482   0.138   1.978  16.718 -0.2002  0.3581  0.5521
  637TMC3    C4 9483   0.168   1.850  16.476 -0.2438 -0.0776 -0.4515
  637TMC3    C5 9484   0.277   1.873  16.557 -0.4407  0.3346  0.0634
  637TMC3    C6 9485   0.260   1.931  16.681 -0.2597 -0.2351 -0.4070
  637TMC3     C 9486   0.002   1.980  16.403  0.0914  0.8411 -0.2093
  637TMC3     O 9487   0.023   1.936  16.292  0.2259  0.1039 -0.0776
  637TMC3     H 9488   4.672   1.995  16.669  1.0301  0.9590  1.0465
  637TMC3    H1 9489   0.187   1.790  16.388 -0.0777 -1.4862  0.5581
  637TMC3    H2 9490   0.347   1.972  16.731 -1.0840  1.3542 -0.2642
  637TMC3    C7 9491   0.394   1.944  16.495  0.5695  0.1630  0.5449
  637TMC3    C8 9492   0.145   2.113  16.761  0.9930 -0.2856  0.1352
  637TMC3    O1 9493   0.477   2.000  16.565 -0.4183 -0.5571 -0.5125
  637TMC3    O2 9494   0.086   2.204  16.702 -0.5036  0.4002 -0.1674
  638MPD2     C 9495   0.114   1.307  14.655  0.6345  0.2734 -0.0905
  638MPD2    C1 9496   0.120   1.175  14.622  0.5647 -0.5365 -0.1291
  638MPD2    C2 9497   0.127   1.086  14.727  0.1277  0.0142  0.6931
  638MPD2    C3 9498   0.112   1.129  14.856 -0.4491 -0.7605 -0.1438
  638MPD2    C4 9499   0.095   1.259  14.885 -0.4250 -0.4289 -0.0088
  638MPD2    C5 9500   0.102   1.346  14.782  0.1990  0.2457  0.4854
  638MPD2     H 9501   0.123   0.980  14.705 -0.1899  0.4258 -1.2280
  638MPD2    H1 9502   0.083   1.301  14.984  2.1223 -2.0874  0.9898
  638MPD2    H2 9503   0.124   1.381  14.577  0.8056 -0.7524 -1.0392
  638MPD2    H3 9504   0.097   1.451  14.811  0.9162 -0.1502  2.0121
  638MPD2     N 9505   0.106   1.030  14.958 -0.0662  0.1326 -0.5781
  638MPD2    H5 9506   0.123   0.933  14.935  1.3894  0.1249  0.5535
  638MPD2    N1 9507   0.125   1.140  14.485 -0.5085 -0.1819 -0.0708
  638MPD2    H7 9508   0.142   1.216  14.420  0.4698 -1.3708 -1.1979
  639TMC3    C1 9509   0.038   0.904  15.142 -0.0257 -0.1202 -0.1027
  639TMC3    C2 9510   4.672   0.873  15.206 -0.1203  0.2643  0.2256
  639TMC3    C3 9511   4.650   0.742  15.235  0.0142  0.6678 -0.4615
  639TMC3    C4 9512   0.132   0.808  15.104 -0.6899  0.0895 -0.2730
  639TMC3    C5 9513   0.091   0.678  15.126  0.2856 -0.1743 -0.4559
  639TMC3    C6 9514   4.724   0.643  15.188  0.0296 -0.6638  0.4686
  639TMC3     C 9515   0.048   1.040  15.078 -0.4045  0.0748  0.6212
  639TMC3     O 9516   4.732   1.132  15.134 -0.2270  0.3621 -0.5459
  639TMC3     H 9517   4.600   0.951  15.226  0.5398  0.6078  1.2810
  639TMC3    H1 9518   0.220   0.834  15.046  1.2091 -0.7227  2.2362
  639TMC3    H2 9519   4.705   0.540  15.215  1.5960 -1.1077 -0.1113
  639TMC3    C7 9520   0.177   0.567  15.085  0.5398  0.1331 -0.5818
  639TMC3    C8 9521   4.517   0.702  15.265 -0.2008  0.4669 -0.3048
  639TMC3    O1 9522   0.128   0.456  15.076 -0.3674  0.1187  0.5148
  639TMC3    O2 9523   4.457   0.744  15.365 -0.2584 -0.4376  0.0718
  640MPD2     C 9524   0.787   4.522  10.281 -0.0628 -0.0139  0.3486
  640MPD2    C1 9525   0.861   4.559  10.176 -0.2922 -0.0798 -0.5563
  640MPD2    C2 9526   0.863   4.696  10.139 -0.5116  0.4776  0.1042
  640MPD2    C3 9527   0.782   0.041  10.205 -0.3477 -0.0671 -0.0744
  640MPD2    C4 9528   0.706   4.738  10.311  0.5386  0.5494 -0.4160
  640MPD2    C5 9529   0.706   4.609  10.348 -0.2047  0.0997 -0.4705
  640MPD2     H 9530   0.921   4.735  10.056 -0.8968 -1.9424 -1.3110
  640MPD2    H1 9531   0.645   0.069  10.362 -3.3473 -0.4048 -3.6958
  640MPD2    H2 9532   0.779   4.418  10.311  0.8566 -0.8017 -2.0800
  640MPD2    H3 9533   0.643   4.574  10.430  0.3193  2.5738  0.9840
  640MPD2     N 9534   0.768   0.178  10.183 -0.4669  0.1007 -0.3977
  640MPD2    H5 9535   0.707   0.223  10.250  0.1010 -1.6886  1.2952
  640MPD2    N1 9536   0.920   4.460  10.096  0.4602  0.0562 -0.1257
  640MPD2    H7 9537   0.919   4.369  10.141  0.4934 -0.5313 -1.3081
  641TMC3    C1 9538   1.049   4.363   9.929  0.2753  0.6474 -0.0694
  641TMC3    C2 9539   1.076   4.255  10.014  0.5481 -0.5138 -0.3459
  641TMC3    C3 9540   1.152   4.151   9.966  0.2790 -0.0377  0.4147
  641TMC3    C4 9541   1.098   4.367   9.798 -0.7520 -0.4330 -0.6328
  641TMC3    C5 9542   1.187   4.269   9.765  0.3470  0.6143  0.5401
  641TMC3    C6 9543   1.205   4.153   9.839  0.4841 -0.8802 -0.1832
  641TMC3     C 9544   0.975   4.482   9.971 -0.3506  0.4774  0.0091
  641TMC3     O 9545   0.989   4.585   9.905  0.3830 -0.4313  0.2998
  641TMC3     H 9546   1.034   4.248  10.113  2.1386  2.5853  0.5411
  641TMC3    H1 9547   1.084   4.457   9.740  1.5682 -0.9483 -1.9848
  641TMC3    H2 9548   1.285   4.086   9.809 -0.5793 -1.9330 -0.6280
  641TMC3    C7 9549   1.233   4.248   9.628  0.3973  0.2263  0.6154
  641TMC3    C8 9550   1.151   4.022  10.024  0.0778 -0.3331 -0.5114
  641TMC3    O1 9551   1.307   4.152   9.608 -0.2555 -0.2225 -0.8513
  641TMC3    O2 9552   1.193   3.937   9.947 -0.1311  0.2790  0.9547
  642TMC3    C1 9553   1.803   0.660  12.354 -0.1832 -0.6772  0.3215
  642TMC3    C2 9554   1.804   0.685  12.491 -0.2786 -0.5874 -0.4549
  642TMC3    C3 9555   1.875   0.596  12.564 -0.9386 -0.1687  1.0329
  642TMC3    C4 9556   1.848   0.549  12.295  0.1745 -0.2914  0.2587
  642TMC3    C5 9557   1.897   0.452  12.380  0.4747 -0.4147  0.6304
  642TMC3    C6 9558   1.913   0.477  12.513  0.1197 -0.1321 -0.4891
  642TMC3     C 9559   1.717   0.743  12.275  0.2275  0.5948  0.5856
  642TMC3     O 9560   1.743   0.749  12.158 -0.2966 -0.0818 -0.0189
  642TMC3     H 9561   1.789   0.785  12.529  0.3580 -0.7285  0.1542
  642TMC3    H1 9562   1.825   0.526  12.192  1.6385  1.7685 -0.5285
  642TMC3    H2 9563   1.974   0.407  12.569 -0.5525  1.2761  1.9500
  642TMC3    C7 9564   1.911   0.323  12.321 -0.1867 -0.2195 -0.8091
  642TMC3    C8 9565   1.877   0.621  12.706  0.2626 -1.0907  0.4709
  642TMC3    O1 9566   1.921   0.314  12.198 -0.3712 -0.0025 -0.3175
  642TMC3    O2 9567   1.964   0.564  12.768 -0.2111 -0.0718 -0.3603
  643TMC3    C1 9568   0.561   0.811   0.139 -0.2841 -0.0036  0.2482
  643TMC3    C2 9569   0.427   0.841   0.140  0.5206 -0.0300  0.2234
  643TMC3    C3 9570   0.349   0.748   0.076 -0.3805  0.2685  0.3977
  643TMC3    C4 9571   0.620   0.709   0.076  0.7444 -0.0879 -0.3749
  643TMC3    C5 9572   0.537   0.625   0.003  0.4142  0.1504  1.0962
  643TMC3    C6 9573   0.399   0.639   0.016 -0.4958  0.0774  0.4600
  643TMC3     C 9574   0.631   0.870   0.257  0.1562 -0.1444 -0.3200
  643TMC3     O 9575   0.594   0.981   0.290 -0.0797 -0.1302  0.0148
  643TMC3     H 9576   0.381   0.926   0.189  0.1942 -0.3877  0.5337
  643TMC3    H1 9577   0.728   0.699   0.074  0.8550  1.1817 -0.7811
  643TMC3    H2 9578   0.331   0.587  17.715 -0.2198 -1.5466  1.4261
  643TMC3    C7 9579   0.586   0.576  17.648  0.2750  0.0462  0.1563
  643TMC3    C8 9580   0.245   0.811  17.763  0.3418 -0.4826  0.2066
  643TMC3    O1 9581   0.678   0.649  17.604  0.1445 -0.1834 -0.1816
  643TMC3    O2 9582   0.136   0.752  17.763  0.0982  0.4933 -0.6060
  644MPD2     C 9583   1.722   0.282   9.445 -0.5695 -0.3063  0.1213
  644MPD2    C1 9584   1.617   0.226   9.508  0.4024  0.5814  0.0333
  644MPD2    C2 9585   1.522   0.311   9.562  0.1472 -0.7980  0.0874
  644MPD2    C3 9586   1.534   0.446   9.562  0.7361  0.2003  0.4327
  644MPD2    C4 9587   1.628   0.503   9.476 -0.2497  0.2755  0.4259
  644MPD2    C5 9588   1.722   0.418   9.412  0.0911  0.5243 -0.4087
  644MPD2     H 9589   1.437   0.274   9.618 -0.7711  1.4781  0.2139
  644MPD2    H1 9590   1.651   0.608   9.463  0.9610 -0.1661 -0.9668
  644MPD2    H2 9591   1.793   0.216   9.397 -0.6778 -1.2497  1.2806
  644MPD2    H3 9592   1.806   0.453   9.353  0.1026  0.5713 -0.3644
  644MPD2     N 9593   1.437   0.524   9.637 -0.1155  0.0851  0.5166
  644MPD2    H5 9594   1.356   0.483   9.683  1.1885 -1.3646  1.5190
  644MPD2    N1 9595   1.609   0.085   9.519  0.8568 -0.4654  0.4924
  644MPD2    H7 9596   1.678   0.032   9.467 -0.0390 -0.5008 -0.6651
  645TMC3    C1 9597   1.312   0.703   9.711  0.3881 -0.4093  0.1233
  645TMC3    C2 9598   1.305   0.831   9.762  0.2448 -0.5196 -0.6592
  645TMC3    C3 9599   1.190   0.888   9.809  0.4979 -0.4171  0.2851
  645TMC3    C4 9600   1.191   0.628   9.721 -0.0164  0.3760 -0.0450
  645TMC3    C5 9601   1.081   0.696   9.762  0.0333 -0.3111  0.0242
  645TMC3    C6 9602   1.076   0.822   9.811 -0.0439  0.0850 -0.6362
  645TMC3     C 9603   1.436   0.663   9.649 -0.0553  0.0559 -0.4113
  645TMC3     O 9604   1.519   0.747   9.615 -0.1715  0.2853 -0.7733
  645TMC3     H 9605   1.394   0.893   9.760 -0.5783  0.6644 -0.4578
  645TMC3    H1 9606   1.192   0.538   9.661  2.2444  0.7684 -0.5857
  645TMC3    H2 9607   0.984   0.864   9.851  0.0197 -0.6052  0.2351
  645TMC3    C7 9608   0.955   0.625   9.760 -0.3596  0.0279 -0.2022
  645TMC3    C8 9609   1.189   1.033   9.828  0.7025 -0.1071 -0.5521
  645TMC3    O1 9610   0.855   0.694   9.784 -0.0940  0.5990 -0.1458
  645TMC3    O2 9611   1.264   1.097   9.754 -0.1067  0.2970 -0.4645
  646MPD2     C 9612   4.737   4.552  14.662  0.3547  0.0292  0.0327
  646MPD2    C1 9613   4.665   4.607  14.770  0.1741 -0.2003  0.1039
  646MPD2    C2 9614   4.549   4.681  14.751 -0.7041  1.1521  0.0201
  646MPD2    C3 9615   4.512   4.709  14.618  0.1760 -0.2548  0.4147
  646MPD2    C4 9616   4.591   4.666  14.509  0.1197  0.0137 -0.2021
  646MPD2    C5 9617   4.697   4.584  14.533 -0.3670 -0.2005  0.3277
  646MPD2     H 9618   4.496   4.726  14.834 -0.0507  1.1873  0.4131
  646MPD2    H1 9619   4.572   4.679  14.403  0.8144 -0.0462 -0.3352
  646MPD2    H2 9620   0.075   4.484  14.688 -0.1638  0.0630  1.7625
  646MPD2    H3 9621   0.022   4.538  14.461  0.8343  0.2797  1.1518
  646MPD2     N 9622   4.398   0.048  14.610 -0.0380 -0.0414 -0.3738
  646MPD2    H5 9623   4.343   0.059  14.694  0.1778 -1.7678 -0.0000
  646MPD2    N1 9624   4.713   4.579  14.897 -0.0227 -0.2964 -0.1393
  646MPD2    H7 9625   0.060   4.532  14.896 -0.7467 -1.6326 -1.7712
  647TMC3    C1 9626   4.734   4.553  15.132  0.0880  0.0902 -0.3516
  647TMC3    C2 9627   4.686   4.574  15.259 -0.3157 -0.1915  0.4295
  647TMC3    C3 9628   0.016   4.537  15.369  0.0951  0.2651 -0.1788
  647TMC3    C4 9629   0.110   4.489  15.115  0.1758  0.1284 -0.1301
  647TMC3    C5 9630   0.184   4.462  15.223  0.1882 -0.2384  0.3763
  647TMC3    C6 9631   0.146   4.501  15.348 -0.4261 -0.3499  0.1919
  647TMC3     C 9632   4.655   4.603  15.019  0.2276 -0.4273  0.3851
  647TMC3     O 9633   4.547   4.656  15.043  0.5851  0.0970  0.1044
  647TMC3     H 9634   4.587   4.615  15.267 -0.6535 -0.9513  0.1402
  647TMC3    H1 9635   0.149   4.449  15.022  0.1493 -0.8975  0.2989
  647TMC3    H2 9636   0.204   4.461  15.430  1.9553  0.6833 -0.9910
  647TMC3    C7 9637   0.229   4.317  15.223  0.2552 -0.8337  0.2970
  647TMC3    C8 9638   4.691   4.446  15.462  0.7095 -0.2435  0.7304
  647TMC3    O1 9639   0.308   4.284  15.312 -0.2404  0.1451 -0.4821
  647TMC3    O2 9640   0.015   4.398  15.552  0.0679  0.1864  0.0831
  648TMC3    C1 9641   3.847   2.286  16.189 -0.4699  0.6049 -0.3476
  648TMC3    C2 9642   3.923   2.186  16.130 -0.0452  0.1993 -0.5893
  648TMC3    C3 9643   3.919   2.178  15.994  0.8309 -0.5421 -0.3217
  648TMC3    C4 9644   3.783   2.381  16.116  0.0027  0.2370 -0.0930
  648TMC3    C5 9645   3.794   2.380  15.979 -0.2035  0.8047 -0.6315
  648TMC3    C6 9646   3.859   2.276  15.920 -0.3353  0.3995  0.0211
  648TMC3     C 9647   3.847   2.320  16.337  0.3569  0.1181 -0.0541
  648TMC3     O 9648   3.824   2.436  16.362  0.0668  0.3766 -0.3250
  648TMC3     H 9649   3.956   2.101  16.190  1.6434  1.8268  0.7910
  648TMC3    H1 9650   3.754   2.471  16.169  0.8081  1.3025 -1.4459
  648TMC3    H2 9651   3.871   2.262  15.813 -1.7891 -1.7306  0.1376
  648TMC3    C7 9652   3.732   2.487  15.896 -0.0037 -0.2812 -0.2672
  648TMC3    C8 9653   3.995   2.075  15.932  0.2046 -0.1956  0.7572
  648TMC3    O1 9654   3.768   2.493  15.779  0.4068 -0.6100  0.0783
  648TMC3    O2 9655   4.045   2.098  15.818 -0.1591  0.1795  0.3910
  649TMC3    C1 9656   3.104   3.358  12.440 -0.4203 -0.2624 -0.1128
  649TMC3    C2 9657   3.230   3.369  12.398  1.1644 -0.6417 -0.2650
  649TMC3    C3 9658   3.333   3.317  12.473  0.5658 -0.1169 -0.7206
  649TMC3    C4 9659   3.073   3.295  12.559  0.3927 -0.6195 -0.2689
  649TMC3    C5 9660   3.175   3.248  12.628  0.1099 -0.3900  0.5599
  649TMC3    C6 9661   3.306   3.247  12.586  0.4520 -0.1183  0.2722
  649TMC3     C 9662   2.998   3.433  12.376 -0.3212  0.3389  0.1827
  649TMC3     O 9663   2.884   3.423  12.420 -0.3083 -0.5351 -0.1743
  649TMC3     H 9664   3.248   3.431  12.311  1.4957 -2.1340 -1.2434
  649TMC3    H1 9665   2.971   3.284  12.593  1.2984 -1.0734  2.3183
  649TMC3    H2 9666   3.391   3.210  12.642  0.4363  1.5633  1.4084
  649TMC3    C7 9667   3.138   3.197  12.752  0.1828 -0.5719  0.2621
  649TMC3    C8 9668   3.471   3.309  12.423  0.2335  1.2195  0.0133
  649TMC3    O1 9669   3.029   3.138  12.756  0.4124  0.2300 -0.0713
  649TMC3    O2 9670   3.560   3.277  12.498 -0.0135  0.4063 -0.1927
  650TMC3    C1 9671   0.809   0.014  12.513 -0.6850 -0.0738  0.0077
  650TMC3    C2 9672   0.785   0.122  12.591 -0.4732  1.2255 -0.4575
  650TMC3    C3 9673   0.688   0.209  12.548  0.4595  0.0092  0.7862
  650TMC3    C4 9674   0.752   4.742  12.390 -0.7954 -0.5771 -0.2100
  650TMC3    C5 9675   0.679   0.104  12.342 -0.0193 -0.3359 -0.2709
  650TMC3    C6 9676   0.638   0.208  12.419 -0.5899  0.0058  0.2356
  650TMC3     C 9677   0.917   4.671  12.537 -0.9609 -0.2348  0.3712
  650TMC3     O 9678   0.973   4.624  12.442 -0.3179  0.0981  0.4756
  650TMC3     H 9679   0.832   0.148  12.685  1.0384 -2.4584 -0.1830
  650TMC3    H1 9680   0.779   4.664  12.321 -1.9690 -0.4926 -0.7703
  650TMC3    H2 9681   0.576   0.293  12.389  0.6430 -0.2319 -2.9994
  650TMC3    C7 9682   0.672   0.122  12.199  0.4542 -0.7888 -0.8591
  650TMC3    C8 9683   0.686   0.328  12.622 -0.0554 -0.1334 -0.8237
  650TMC3    O1 9684   0.717   0.032  12.128  0.0506 -0.2384 -0.4995
  650TMC3    O2 9685   0.787   0.371  12.675 -0.0833  0.2244 -0.5753
  651MPD2     C 9686   0.352   1.832  11.625 -0.0906  0.4808 -0.2389
  651MPD2    C1 9687   0.306   1.889  11.507 -0.2654 -0.7438  0.5936
  651MPD2    C2 9688   0.401   1.930  11.418 -0.0532  0.3542  0.1061
  651MPD2    C3 9689   0.540   1.935  11.439 -0.5073 -0.6248 -0.1009
  651MPD2    C4 9690   0.576   1.872  11.557  0.2676  0.8312 -0.1748
  651MPD2    C5 9691   0.483   1.828  11.647  0.0823  0.6499  0.0874
  651MPD2     H 9692   0.362   1.955  11.320  2.2364  0.5118 -0.7654
  651MPD2    H1 9693   0.679   1.868  11.590  0.4571  0.3284 -0.8312
  651MPD2    H2 9694   0.286   1.784  11.697  0.1696  1.5567  0.7382
  651MPD2    H3 9695   0.524   1.771  11.729  1.4793  1.3828 -0.0869
  651MPD2     N 9696   0.628   1.983  11.340  0.0706 -0.3871  0.3301
  651MPD2    H5 9697   0.592   2.027  11.256 -0.3324 -2.6072 -0.6600
  651MPD2    N1 9698   0.166   1.899  11.482 -0.1884  0.8161 -0.4629
  651MPD2    H7 9699   0.134   1.942  11.397 -0.7908 -1.6731 -1.4967
  652TMC3    C1 9700   1.031   2.103  11.136 -0.3082 -0.0245 -0.0394
  652TMC3    C2 9701   0.965   2.033  11.227 -0.0920  0.4011 -0.1028
  652TMC3    C3 9702   0.831   2.053  11.249  0.4448 -0.0860  0.2422
  652TMC3    C4 9703   0.964   2.194  11.054  0.3413 -0.5242  0.3107
  652TMC3    C5 9704   0.829   2.226  11.088  0.3320 -0.6363 -0.9762
  652TMC3    C6 9705   0.763   2.158  11.186  0.1910  0.3725  0.0183
  652TMC3     C 9706   1.168   2.066  11.113 -0.2541  0.0473  0.2113
  652TMC3     O 9707   1.205   1.953  11.124 -0.7360 -0.3175 -0.6790
  652TMC3     H 9708   1.015   1.965  11.295  0.6008 -1.0572 -2.0736
  652TMC3    H1 9709   1.020   2.230  10.968  0.7833 -2.0320 -0.0319
  652TMC3    H2 9710   0.668   2.195  11.224  0.1661 -0.1776  0.4968
  652TMC3    C7 9711   0.740   2.281  10.993 -0.0253  0.3700 -0.5513
  652TMC3    C8 9712   0.767   1.984  11.358  0.7921  0.1147  0.3071
  652TMC3    O1 9713   0.625   2.237  10.992  0.7669 -0.4067  0.0027
  652TMC3    O2 9714   0.840   1.941  11.444 -0.1308 -0.2146 -0.5674
  653MPD2     C 9715   2.353   2.380  17.587  0.2296 -0.7187  0.3196
  653MPD2    C1 9716   2.485   2.364  17.563  0.1634  0.6312  0.9120
  653MPD2    C2 9717   2.528   2.257  17.487 -0.3512 -0.2979  0.1129
  653MPD2    C3 9718   2.440   2.162  17.432  0.0076 -0.5346 -0.3717
  653MPD2    C4 9719   2.305   2.172  17.462  0.5497 -0.4312 -0.9257
  653MPD2    C5 9720   2.269   2.281  17.544  0.0211 -0.4416  0.3253
  653MPD2     H 9721   2.634   2.238  17.477 -0.3563 -1.4037  2.3463
  653MPD2    H1 9722   2.227   2.099  17.442 -3.1293  3.3782 -0.4645
  653MPD2    H2 9723   2.313   2.457  17.652  1.4251  0.6274 -0.5307
  653MPD2    H3 9724   2.167   2.297  17.577 -0.6061  1.5922 -2.5517
  653MPD2     N 9725   2.484   2.061  17.346  0.3566  0.1815  0.3960
  653MPD2    H5 9726   2.581   2.066  17.316  0.7124 -1.2202  1.2642
  653MPD2    N1 9727   2.571   2.454  17.622  0.3437  0.2174  0.0015
  653MPD2    H7 9728   2.538   2.510  17.700  2.3185 -1.4448  2.0442
  654TMC3    C1 9729   2.471   1.888  17.183  0.2031 -0.4291  0.4073
  654TMC3    C2 9730   2.511   1.985  17.095 -0.5062  0.2595 -0.4045
  654TMC3    C3 9731   2.547   1.940  16.969 -0.3908  0.1106 -0.1731
  654TMC3    C4 9732   2.430   1.765  17.145  0.1063 -0.1274 -0.0513
  654TMC3    C5 9733   2.458   1.726  17.022  0.2716  0.1730  0.6569
  654TMC3    C6 9734   2.522   1.807  16.930 -0.0999  0.1038  0.2562
  654TMC3     C 9735   2.410   1.950  17.300  0.5884 -0.3232  0.6363
  654TMC3     O 9736   2.305   1.897  17.342 -1.0799 -0.2209 -0.7094
  654TMC3     H 9737   2.518   2.091  17.119  0.5621 -0.0188  0.5467
  654TMC3    H1 9738   2.390   1.701  17.223  2.9678  0.5187  1.9313
  654TMC3    H2 9739   2.539   1.771  16.829 -2.2551 -1.8218  0.5984
  654TMC3    C7 9740   2.478   1.589  16.997  0.2185  0.2853  0.1072
  654TMC3    C8 9741   2.599   2.034  16.870 -0.3705  0.1228 -0.1755
  654TMC3    O1 9742   2.486   1.558  16.881  0.2089 -0.9657 -0.0487
  654TMC3    O2 9743   2.574   2.149  16.895 -0.3001  0.3809  0.4978
  655MPD2     C 9744   4.426   2.493  15.702 -0.1634 -0.1263 -0.2310
  655MPD2    C1 9745   4.308   2.508  15.634 -0.5162  0.5560 -0.1272
  655MPD2    C2 9746   4.285   2.429  15.525 -0.8669 -0.4380  0.9057
  655MPD2    C3 9747   4.379   2.341  15.480 -0.3092  0.3511 -0.3482
  655MPD2    C4 9748   4.500   2.325  15.552 -0.3154 -0.2511  0.1032
  655MPD2    C5 9749   4.521   2.395  15.664  0.1093 -0.1457 -0.6386
  655MPD2     H 9750   4.187   2.436  15.478 -0.4384 -1.0783 -0.1041
  655MPD2    H1 9751   4.580   2.260  15.518 -0.2798 -0.6448  0.9327
  655MPD2    H2 9752   4.450   2.550  15.791  1.1381 -1.7048  0.4545
  655MPD2    H3 9753   4.618   2.394  15.713 -1.1581 -1.0727  1.8521
  655MPD2     N 9754   4.365   2.245  15.374  0.0947  0.3628 -0.2295
  655MPD2    H5 9755   4.451   2.191  15.368  0.5633  1.1800 -0.8764
  655MPD2    N1 9756   4.202   2.593  15.680  0.3281  0.3996 -0.2364
  655MPD2    H7 9757   4.116   2.585  15.626  1.9138  0.8992 -2.8714
  656TMC3    C1 9758   4.083   2.739  15.816  0.3039 -0.2218  0.6120
  656TMC3    C2 9759   4.062   2.749  15.951  0.3415  0.0938 -0.2803
  656TMC3    C3 9760   3.958   2.828  15.991  0.1059  0.1048  0.6458
  656TMC3    C4 9761   4.025   2.816  15.725 -0.0021  0.1751 -0.0918
  656TMC3    C5 9762   3.921   2.896  15.771 -0.8194 -0.1917 -0.4677
  656TMC3    C6 9763   3.879   2.893  15.901  0.6577 -0.0421 -0.0172
  656TMC3     C 9764   4.210   2.681  15.781  0.1507  0.1259 -0.4309
  656TMC3     O 9765   4.296   2.704  15.865 -0.0898  0.3003 -0.6870
  656TMC3     H 9766   4.112   2.691  16.027 -0.9212  1.0184  1.2618
  656TMC3    H1 9767   4.061   2.804  15.623  1.0572 -1.2652  0.4491
  656TMC3    H2 9768   3.786   2.938  15.933  1.5828  0.7730  1.4825
  656TMC3    C7 9769   3.833   2.951  15.668  0.0826 -0.9163  0.1459
  656TMC3    C8 9770   3.892   2.786  16.110  0.2001  0.1707  0.1239
  656TMC3    O1 9771   3.855   2.914  15.554  0.1319  0.6681 -0.5272
  656TMC3    O2 9772   3.907   2.674  16.153  0.1148 -0.3531  0.0581
  657TMC3    C1 9773   3.540   1.289  15.137 -0.2597  0.2549  0.2131
  657TMC3    C2 9774   3.606   1.291  15.260  0.0914 -0.0422 -0.5318
  657TMC3    C3 9775   3.544   1.346  15.370 -0.3188  0.1918  0.0281
  657TMC3    C4 9776   3.425   1.362  15.121  0.4884  0.8051 -0.5743
  657TMC3    C5 9777   3.368   1.414  15.231  0.0916  0.0554  0.0366
  657TMC3    C6 9778   3.420   1.405  15.358 -0.0114  0.1316  0.3151
  657TMC3     C 9779   3.614   1.248  15.015 -0.4469  0.3511  0.4315
  657TMC3     O 9780   3.544   1.224  14.915 -0.1428 -0.0347  0.1700
  657TMC3     H 9781   3.691   1.224  15.272  0.5158  0.8532  1.5590
  657TMC3    H1 9782   3.374   1.378  15.027  0.7653 -0.0219 -0.8680
  657TMC3    H2 9783   3.364   1.433  15.446  0.3760  0.7225  0.3760
  657TMC3    C7 9784   3.260   1.500  15.209  0.4063 -0.3245 -0.2255
  657TMC3    C8 9785   3.596   1.342  15.505  0.2080 -0.6344  0.2189
  657TMC3    O1 9786   3.194   1.497  15.106 -0.2668 -0.2970  0.0997
  657TMC3    O2 9787   3.547   1.419  15.588  0.6598 -0.1459  0.3462
  658MPD2     C 9788   4.613   2.382  14.873  0.3557  0.2866 -0.8642
  658MPD2    C1 9789   4.561   2.260  14.833 -0.2817 -0.0593 -0.2380
  658MPD2    C2 9790   4.583   2.224  14.699  0.1080 -0.2551  0.1821
  658MPD2    C3 9791   4.658   2.301  14.616 -0.3530 -0.5590  1.0774
  658MPD2    C4 9792   4.702   2.426  14.660  0.7039  0.4860  0.3933
  658MPD2    C5 9793   4.692   2.458  14.793  0.2962  0.9771  0.4273
  658MPD2     H 9794   4.535   2.134  14.661 -0.0663  0.1095 -0.4451
  658MPD2    H1 9795   0.014   2.500  14.603  0.0847  1.3711  0.9495
  658MPD2    H2 9796   4.603   2.403  14.979  1.6833  2.3605 -1.1415
  658MPD2    H3 9797   4.725   2.553  14.832  2.8703 -0.2311  1.1869
  658MPD2     N 9798   4.662   2.269  14.470 -0.3671  0.0459 -0.4677
  658MPD2    H5 9799   4.594   2.195  14.454 -0.1459  0.1963 -2.0504
  658MPD2    N1 9800   4.482   2.196  14.926 -0.1254  0.1194  0.2654
  658MPD2    H7 9801   4.445   2.256  14.999  0.9873 -0.9494  1.7158
  659TMC3    C1 9802   4.353   2.023  15.020 -0.0260 -0.4281  0.3195
  659TMC3    C2 9803   4.362   2.097  15.133  0.7200  0.0515 -0.9553
  659TMC3    C3 9804   4.247   2.116  15.207 -0.1735 -0.5381 -0.7952
  659TMC3    C4 9805   4.251   1.932  14.992 -0.7873  0.6501  0.0783
  659TMC3    C5 9806   4.132   1.959  15.062 -0.7825 -1.0324  0.3052
  659TMC3    C6 9807   4.133   2.049  15.174  0.2777 -0.4163 -0.0637
  659TMC3     C 9808   4.442   2.065  14.909 -0.7565  0.3146  0.3907
  659TMC3     O 9809   4.475   1.984  14.825  0.3003 -0.1450  0.4385
  659TMC3     H 9810   4.448   2.157  15.159  1.1155 -1.5375  1.4162
  659TMC3    H1 9811   4.237   1.908  14.887  1.5898  1.1825 -0.3540
  659TMC3    H2 9812   4.045   2.072  15.232  1.0480 -1.2665  1.4309
  659TMC3    C7 9813   4.016   1.895  15.026  0.7421 -0.4810  0.6677
  659TMC3    C8 9814   4.244   2.214  15.312  0.0682 -0.7249 -0.0531
  659TMC3    O1 9815   3.904   1.937  15.066 -0.0139 -0.2105 -0.1275
  659TMC3    O2 9816   4.132   2.258  15.332  1.0665 -0.0558  0.4292
  660MPD2     C 9817   3.141   0.928  12.189 -0.3207  0.6408  0.3608
  660MPD2    C1 9818   3.033   1.017  12.208 -0.9975 -0.6396  0.3687
  660MPD2    C2 9819   2.964   1.010  12.329  0.3331  0.0621  0.5303
  660MPD2    C3 9820   3.003   0.923  12.428 -0.2587 -0.7672  0.1655
  660MPD2    C4 9821   3.120   0.850  12.410 -0.0724 -0.4497 -0.3426
  660MPD2    C5 9822   3.181   0.853  12.293  0.5158 -0.1428 -0.0972
  660MPD2     H 9823   2.869   1.063  12.337 -0.8685 -1.8841 -1.0687
  660MPD2    H1 9824   3.155   0.773  12.479  2.0477 -0.8772 -1.8928
  660MPD2    H2 9825   3.187   0.914  12.092  1.1729 -1.0657  1.3317
  660MPD2    H3 9826   3.268   0.795  12.265  1.8552  1.9461 -0.2885
  660MPD2     N 9827   2.943   0.907  12.559 -0.0109  0.3625 -0.6200
  660MPD2    H5 9828   2.984   0.831  12.611  0.6466  0.5094 -0.9318
  660MPD2    N1 9829   2.987   1.097  12.096  0.0461  0.2950  0.4757
  660MPD2    H7 9830   3.041   1.084  12.011  0.8128  2.5955  0.6075
  661TMC3    C1 9831   2.862   1.257  11.982 -0.1621  0.0845 -0.3878
  661TMC3    C2 9832   2.955   1.315  11.895 -0.6610 -0.3568  0.3433
  661TMC3    C3 9833   2.905   1.393  11.794 -0.3905  0.2054  0.2312
  661TMC3    C4 9834   2.732   1.299  11.978 -0.4883 -0.0800 -0.7374
  661TMC3    C5 9835   2.693   1.387  11.885 -0.4493 -0.0362 -0.0762
  661TMC3    C6 9836   2.772   1.428  11.789  0.6707  0.7654 -0.1385
  661TMC3     C 9837   2.895   1.196  12.110 -0.6325  0.4479 -0.5003
  661TMC3     O 9838   2.822   1.229  12.202  0.0168  0.1656 -0.5998
  661TMC3     H 9839   3.062   1.312  11.915 -0.6552 -0.5289  0.2893
  661TMC3    H1 9840   2.663   1.252  12.047  0.1805  1.6945  1.1361
  661TMC3    H2 9841   2.750   1.507  11.718  1.9985  0.4689 -0.8683
  661TMC3    C7 9842   2.553   1.395  11.862  0.0082 -0.0040  1.0338
  661TMC3    C8 9843   2.985   1.408  11.677  0.8580 -0.3153 -0.3657
  661TMC3    O1 9844   2.506   1.508  11.842  0.0719  0.3381 -0.0796
  661TMC3    O2 9845   3.102   1.387  11.692 -0.1878  0.0430  0.1131
  662MPD2     C 9846   2.436   0.573  16.775 -0.3737  0.5374 -0.1203
  662MPD2    C1 9847   2.408   0.586  16.911 -0.4392 -0.3849 -0.2033
  662MPD2    C2 9848   2.303   0.674  16.950 -0.1500  0.0512 -0.3566
  662MPD2    C3 9849   2.234   0.739  16.849 -0.2471 -0.2848  0.3840
  662MPD2    C4 9850   2.267   0.725  16.717  0.4615  0.0694  0.0658
  662MPD2    C5 9851   2.363   0.640  16.682  0.4321 -0.3452  0.3718
  662MPD2     H 9852   2.262   0.674  17.050 -0.8254  1.4618 -0.6400
  662MPD2    H1 9853   2.215   0.786  16.644  1.6204  3.0497  1.6916
  662MPD2    H2 9854   2.517   0.512  16.737 -2.5925 -1.9278 -0.8583
  662MPD2    H3 9855   2.383   0.627  16.576 -0.1949  0.7297  0.1286
  662MPD2     N 9856   2.129   0.828  16.863 -0.3607 -0.1930  0.6128
  662MPD2    H5 9857   2.089   0.859  16.775 -0.7077  0.6787  1.0795
  662MPD2    N1 9858   2.485   0.517  17.013 -0.5075  0.3350  0.3053
  662MPD2    H7 9859   2.471   0.557  17.105  3.1987  1.2691  0.4422
  663TMC3    C1 9860   2.648   0.385  17.130  0.2779 -1.1019  0.1437
  663TMC3    C2 9861   2.570   0.376  17.244 -0.0764  0.1015  0.4355
  663TMC3    C3 9862   2.593   0.276  17.333  0.2816  0.4916  0.2090
  663TMC3    C4 9863   2.755   0.295  17.114  0.1073 -0.2370  0.2044
  663TMC3    C5 9864   2.764   0.201  17.203  0.5039  0.2925  0.1996
  663TMC3    C6 9865   2.676   0.173  17.293  0.1929  0.6846 -0.0663
  663TMC3     C 9866   2.585   0.424  17.001 -0.3821 -0.7509 -0.2268
  663TMC3     O 9867   2.644   0.395  16.897 -0.3352  0.3969  0.1430
  663TMC3     H 9868   2.483   0.439  17.253  0.3082  0.6940 -0.0128
  663TMC3    H1 9869   2.812   0.282  17.023 -1.2633  0.0676 -0.6980
  663TMC3    H2 9870   2.695   0.099  17.369  1.8256  1.3146  0.1326
  663TMC3    C7 9871   2.864   0.102  17.161 -0.4456  0.4633 -0.4859
  663TMC3    C8 9872   2.476   0.206  17.385  0.6790 -0.1133 -0.6892
  663TMC3    O1 9873   2.966   0.140  17.114  0.3310 -0.0174  0.3375
  663TMC3    O2 9874   2.470   0.085  17.378 -0.0920  0.0082  0.1983
  664MPD2     C 9875   0.552   3.328  17.389 -0.2079 -0.2361 -0.1847
  664MPD2    C1 9876   0.580   3.458  17.366  0.0781 -1.0024  0.3723
  664MPD2    C2 9877   0.597   3.549  17.473 -0.5450 -0.5030 -0.4456
  664MPD2    C3 9878   0.626   3.493  17.597 -0.7051  0.0276  0.3077
  664MPD2    C4 9879   0.599   3.360  17.623 -0.4577 -0.3681  0.6810
  664MPD2    C5 9880   0.561   3.282  17.516  0.7996  0.8128 -1.1394
  664MPD2     H 9881   0.619   3.653  17.455  0.4158 -0.5814  0.2776
  664MPD2    H1 9882   0.594   3.308  17.718  1.5023 -1.7865  0.0140
  664MPD2    H2 9883   0.511   3.262  17.314 -1.5911  0.8906 -0.4116
  664MPD2    H3 9884   0.535   3.179  17.537 -2.4583  2.2959  2.1639
  664MPD2     N 9885   0.660   3.579  17.700  0.1510  0.6477 -0.4795
  664MPD2    H5 9886   0.660   3.680  17.688  1.7426  0.8197  0.8406
  664MPD2    N1 9887   0.563   3.507  17.234 -0.7636 -0.2679 -0.0758
  664MPD2    H7 9888   0.558   3.608  17.223  2.1467 -0.3133 -1.7719
  665TMC3    C1 9889   0.701   3.646   0.158  0.1361 -0.2346  0.6433
  665TMC3    C2 9890   0.640   3.624   0.279  0.1256 -0.1771  0.5559
  665TMC3    C3 9891   0.677   3.715   0.374  0.0848  0.7979 -0.0565
  665TMC3    C4 9892   0.768   3.757   0.123  0.0143 -0.8190  0.4284
  665TMC3    C5 9893   0.795   3.846   0.226  0.1300 -0.4818 -0.2518
  665TMC3    C6 9894   0.747   3.829   0.350 -0.2240 -0.1785 -0.4031
  665TMC3     C 9895   0.681   3.541   0.065  0.2493  0.3287  0.0695
  665TMC3     O 9896   0.679   3.428   0.113  0.2115 -0.0520 -0.2163
  665TMC3     H 9897   0.591   3.529   0.298 -1.8150  1.1121  2.0226
  665TMC3    H1 9898   0.816   3.779   0.028  0.8192  1.8421  1.4453
  665TMC3    H2 9899   0.764   3.887   0.440  0.4727  0.1754 -0.7628
  665TMC3    C7 9900   0.828   3.981   0.190  0.3028  0.5880  0.2355
  665TMC3    C8 9901   0.622   3.711   0.507  0.1931 -0.1560 -0.0002
  665TMC3    O1 9902   0.826   4.002   0.068  0.1300  0.1344 -0.2993
  665TMC3    O2 9903   0.603   3.820   0.565 -0.0610 -0.1264  0.2502
  666TMC3    C1 9904   0.733   3.716   9.550  0.2404 -0.1383  0.0875
  666TMC3    C2 9905   0.779   3.603   9.617  0.2005 -0.4131  0.7667
  666TMC3    C3 9906   0.880   3.622   9.713 -0.4528 -0.3492 -0.1847
  666TMC3    C4 9907   0.800   3.833   9.568  0.5920  0.0254 -0.6463
  666TMC3    C5 9908   0.912   3.844   9.645  0.4288  0.1307 -0.1811
  666TMC3    C6 9909   0.949   3.740   9.717 -0.0741  0.2355  0.6041
  666TMC3     C 9910   0.593   3.735   9.520 -0.2643  0.3690 -0.0199
  666TMC3     O 9911   0.572   3.825   9.440  0.3488  0.5991  0.1052
  666TMC3     H 9912   0.716   3.515   9.616 -1.4195  0.7215  2.8109
  666TMC3    H1 9913   0.752   3.921   9.528 -1.2781 -1.6372 -2.0210
  666TMC3    H2 9914   1.029   3.758   9.788  0.8954  1.3045 -0.7585
  666TMC3    C7 9915   0.896   3.968   9.731  0.0583  0.5604  0.2324
  666TMC3    C8 9916   0.861   3.554   9.832 -0.5401  0.2227  0.6571
  666TMC3    O1 9917   0.870   3.941   9.851 -0.2086  0.3669  0.3310
  666TMC3    O2 9918   0.850   3.433   9.829 -0.2123  0.2346  0.0057
  667MPD2     C 9919   1.973   3.767  14.688 -0.3331 -0.3857  0.5787
  667MPD2    C1 9920   1.861   3.821  14.749  0.1355  0.4717  0.2579
  667MPD2    C2 9921   1.753   3.735  14.756  0.3507  0.4126 -0.8371
  667MPD2    C3 9922   1.757   3.602  14.720 -0.9410  0.0478  0.3624
  667MPD2    C4 9923   1.882   3.552  14.679  0.1434 -0.1056 -0.1021
  667MPD2    C5 9924   1.992   3.632  14.665 -0.2367 -0.2073 -0.0324
  667MPD2     H 9925   1.658   3.766  14.797 -0.4493 -1.6075 -1.1869
  667MPD2    H1 9926   1.899   3.446  14.663 -1.4483 -0.5596  1.1498
  667MPD2    H2 9927   2.061   3.828  14.671  0.5241 -1.8561 -0.2115
  667MPD2    H3 9928   2.082   3.592  14.621  0.6538  0.0690  1.5324
  667MPD2     N 9929   1.647   3.513  14.715  0.0860 -0.3306  0.1508
  667MPD2    H5 9930   1.662   3.414  14.698 -1.8106 -0.7287  0.8647
  667MPD2    N1 9931   1.845   3.959  14.791 -0.4437  0.2831 -0.5710
  667MPD2    H7 9932   1.752   3.992  14.815 -0.1353  0.5361  0.2582
  668TMC3    C1 9933   1.910   4.186  14.861  0.1406  1.2503 -0.4475
  668TMC3    C2 9934   1.965   4.309  14.816  0.1134  0.2008 -0.1564
  668TMC3    C3 9935   1.946   4.415  14.894 -1.0101  0.4860 -0.4780
  668TMC3    C4 9936   1.833   4.171  14.975  0.3836  0.4703 -0.6580
  668TMC3    C5 9937   1.823   4.286  15.050  0.0437 -0.4866  0.2991
  668TMC3    C6 9938   1.877   4.407  15.016 -0.1586 -0.3080  0.6259
  668TMC3     C 9939   1.937   4.060  14.786  0.2042 -0.2670 -0.1375
  668TMC3     O 9940   2.039   4.058  14.718 -0.0471 -0.1132 -0.5041
  668TMC3     H 9941   2.031   4.304  14.730 -1.4435 -4.4382 -1.0979
  668TMC3    H1 9942   1.789   4.075  15.002 -0.6047  0.2376 -3.1259
  668TMC3    H2 9943   1.860   4.499  15.070 -0.6227 -0.2867  0.4464
  668TMC3    C7 9944   1.751   4.283  15.177 -0.7334  0.4177 -0.2329
  668TMC3    C8 9945   2.015   4.535  14.870 -0.0230 -0.0571 -0.1478
  668TMC3    O1 9946   1.778   4.374  15.258 -0.0923 -0.2522 -0.0135
  668TMC3    O2 9947   2.032   4.607  14.968  0.2652 -1.0544  0.1225
  669TMC3    C1 9948   4.398   3.334  14.887  0.1287  0.6648  0.8106
  669TMC3    C2 9949   4.328   3.405  14.789 -0.5538 -0.1906 -0.3171
  669TMC3    C3 9950   4.402   3.490  14.714  0.1382  0.2023 -0.2916
  669TMC3    C4 9951   4.532   3.347  14.910 -0.0272 -0.3696 -0.0601
  669TMC3    C5 9952   4.599   3.427  14.823  0.5677  0.1444  0.9150
  669TMC3    C6 9953   4.539   3.503  14.733  0.5130 -0.5371  0.1213
  669TMC3     C 9954   4.315   3.262  14.982  0.8503 -0.4312 -0.3309
  669TMC3     O 9955   4.196   3.287  14.982 -0.2531 -0.0489 -0.3795
  669TMC3     H 9956   4.223   3.385  14.768 -0.8082  1.6831 -0.8412
  669TMC3    H1 9957   4.582   3.303  14.995  1.9484 -0.4293 -1.2442
  669TMC3    H2 9958   4.597   3.571  14.672 -3.1795  1.9411 -0.6088
  669TMC3    C7 9959   4.741   3.425  14.834 -0.1589 -0.4510 -0.5215
  669TMC3    C8 9960   4.348   3.521  14.585 -0.2202  0.2217 -0.6945
  669TMC3    O1 9961   0.046   3.315  14.863 -0.3516  0.2745 -0.4069
  669TMC3    O2 9962   4.224   3.519  14.584 -0.6210  0.0636 -0.4633
  670MPD2     C 9963   3.190   1.972  13.502  0.5694  0.5360 -0.0643
  670MPD2    C1 9964   3.229   1.845  13.478 -1.0623 -0.5970  0.0738
  670MPD2    C2 9965   3.176   1.737  13.555  0.5846  0.2958  0.1518
  670MPD2    C3 9966   3.087   1.759  13.651 -0.2606  0.3738  0.1434
  670MPD2    C4 9967   3.043   1.887  13.670  0.1179 -0.0411 -0.0487
  670MPD2    C5 9968   3.096   1.994  13.602  0.2443 -0.1574  0.4800
  670MPD2     H 9969   3.200   1.633  13.534 -2.2856 -0.2069 -0.6725
  670MPD2    H1 9970   2.967   1.908  13.744  1.0046 -0.3826  0.9714
  670MPD2    H2 9971   3.216   2.059  13.442  1.7444 -1.0825 -1.9117
  670MPD2    H3 9972   3.051   2.092  13.617  0.3478 -0.3066  1.7953
  670MPD2     N 9973   3.031   1.652  13.716  0.1081 -0.3565 -0.7703
  670MPD2    H5 9974   3.044   1.563  13.669 -1.7098 -0.4653 -1.0639
  670MPD2    N1 9975   3.320   1.813  13.371  0.2261  0.5512 -0.1177
  670MPD2    H7 9976   3.331   1.715  13.347  2.6917  1.1646 -1.4972
  671TMC3    C1 9977   2.929   1.522  13.882 -0.3007 -0.3016  0.8201
  671TMC3    C2 9978   2.946   1.490  14.016 -0.8845  0.5847 -0.1688
  671TMC3    C3 9979   2.890   1.376  14.068 -0.3021 -0.1961 -0.1450
  671TMC3    C4 9980   2.854   1.438  13.797 -0.3410  1.2804  0.2440
  671TMC3    C5 9981   2.807   1.324  13.855 -0.6288  0.5185  0.1297
  671TMC3    C6 9982   2.815   1.296  13.983  0.0137 -0.5995  0.1028
  671TMC3     C 9983   2.966   1.653  13.838 -0.4679  0.0039 -0.0948
  671TMC3     O 9984   2.960   1.747  13.918  0.2226 -0.3869  0.2304
  671TMC3     H 9985   2.977   1.571  14.081  1.1964  0.5159 -1.0825
  671TMC3    H1 9986   2.834   1.459  13.692 -1.6902  0.0242  0.2576
  671TMC3    H2 9987   2.771   1.199  14.006  2.1425 -1.5232  0.2544
  671TMC3    C7 9988   2.716   1.244  13.777 -0.5105 -0.2329  0.2212
  671TMC3    C8 9989   2.941   1.334  14.199 -0.6793  0.0002  0.4575
  671TMC3    O1 9990   2.746   1.217  13.661  0.8433  0.0200  0.9238
  671TMC3    O2 9991   3.001   1.415  14.269  0.4877 -0.2080 -0.0357
  672MPD2     C 9992   2.883   2.186   0.810 -0.6529  0.6697 -0.2393
  672MPD2    C1 9993   2.953   2.087   0.737 -0.8022  0.1494 -0.3925
  672MPD2    C2 9994   3.071   2.115   0.684 -0.4662 -0.0906  0.6703
  672MPD2    C3 9995   3.133   2.242   0.713  0.6928 -0.2025 -0.1477
  672MPD2    C4 9996   3.068   2.331   0.794 -0.3578 -0.1174  0.0970
  672MPD2    C5 9997   2.941   2.304   0.833  1.0241 -0.3234 -0.2226
  672MPD2     H 9998   3.118   2.041   0.619 -2.3258 -0.4128 -0.3033
  672MPD2    H1 9999   3.108   2.429   0.817 -0.4222 -0.2870  0.9100
  672MPD2    H210000   2.785   2.173   0.855  0.9923  1.7295  3.6466
  672MPD2    H310001   2.893   2.375   0.900  2.0661  0.8250 -0.6877
  672MPD2     N10002   3.260   2.281   0.669  0.0929 -0.0217 -0.1184
  672MPD2    H510003   3.291   2.375   0.691  1.2035 -0.3443 -0.3262
  672MPD2    N110004   2.896   1.959   0.710 -0.1091  0.0484 -0.1183
  672MPD2    H710005   2.955   1.893   0.660  0.0288 -1.6818  2.2923
  673TMC3    C110006   2.737   1.791   0.696 -0.3594 -0.7427 -0.5366
  673TMC3    C210007   2.828   1.700   0.658 -0.2037 -0.0835 -0.5948
  673TMC3    C310008   2.783   1.580   0.606  0.2092  0.3910 -0.0953
  673TMC3    C410009   2.601   1.772   0.665  0.3266  0.9071 -0.2371
  673TMC3    C510010   2.559   1.648   0.611  0.4524 -0.5487 -0.1834
  673TMC3    C610011   2.654   1.557   0.573  0.1079  0.1068  0.4612
  673TMC3     C10012   2.777   1.914   0.759  0.0499  0.6998 -0.8829
  673TMC3     O10013   2.696   1.960   0.842 -0.0488 -0.0547 -0.1180
  673TMC3     H10014   2.929   1.719   0.690  0.1729 -2.2732 -0.4466
  673TMC3    H110015   2.537   1.855   0.694  2.0258  2.4108 -0.7747
  673TMC3    H210016   2.622   1.461   0.535  1.7609  0.3288 -1.4975
  673TMC3    C710017   2.435   1.650   0.535  0.1179 -0.3941 -0.3046
  673TMC3    C810018   2.868   1.467   0.572  1.2080 -0.1962 -0.2012
  673TMC3    O110019   2.374   1.547   0.511  0.4555  0.5368 -0.2321
  673TMC3    O210020   2.824   1.371   0.506 -0.1629  0.0340  0.5245
  674MPD2     C10021   2.496   1.872   0.113 -0.6572  0.2091  0.3542
  674MPD2    C110022   2.431   1.747   0.091  0.3325 -0.4186 -0.0888
  674MPD2    C210023   2.314   1.746   0.012 -0.1753 -0.0927  0.3666
  674MPD2    C310024   2.256   1.859  17.725  1.4484 -0.1907  0.5776
  674MPD2    C410025   2.328   1.976  17.745 -0.0212 -0.4304 -0.1317
  674MPD2    C510026   2.445   1.982   0.050 -0.0167 -0.6326 -0.3966
  674MPD2     H10027   2.253   1.657   0.003 -0.7852  0.3849 -0.2257
  674MPD2    H110028   2.289   2.070  17.706  3.1936  0.9775  0.0328
  674MPD2    H210029   2.583   1.882   0.177 -1.7942  2.6833  1.5166
  674MPD2    H310030   2.494   2.077   0.065 -1.4199  0.1685 -0.9530
  674MPD2     N10031   2.121   1.855  17.677 -0.4116 -0.7849  0.0658
  674MPD2    H510032   2.083   1.765  17.652  0.7471 -1.8090  2.0299
  674MPD2    N110033   2.486   1.638   0.159  0.3316 -0.0439  0.1399
  674MPD2    H710034   2.582   1.643   0.190  0.0560  1.3806  0.7652
  675TMC3    C110035   2.484   1.415   0.243  0.2212 -0.4999  0.4978
  675TMC3    C210036   2.413   1.318   0.309 -0.7619  0.4046 -0.2611
  675TMC3    C310037   2.475   1.201   0.348 -0.1757  0.2618  0.1904
  675TMC3    C410038   2.613   1.396   0.205 -0.4502 -0.3161  0.1838
  675TMC3    C510039   2.676   1.295   0.263 -0.2341  0.0691 -0.8822
  675TMC3    C610040   2.611   1.197   0.337  0.3723 -0.5266  1.1391
  675TMC3     C10041   2.407   1.529   0.183 -0.1744 -0.3780 -1.1521
  675TMC3     O10042   2.285   1.519   0.179 -0.6650  0.1189 -0.1138
  675TMC3     H10043   2.309   1.342   0.329 -0.2189  2.6366 -0.1071
  675TMC3    H110044   2.658   1.454   0.125 -0.4452 -0.7741 -0.1441
  675TMC3    H210045   2.658   1.102   0.361 -1.9361 -1.8077  0.5878
  675TMC3    C710046   2.811   1.259   0.218  0.0790 -0.0029  0.0446
  675TMC3    C810047   2.404   1.124   0.452  0.1017 -0.5548 -0.1932
  675TMC3    O110048   2.836   1.140   0.211 -0.0735 -0.6232  0.1654
  675TMC3    O210049   2.282   1.136   0.455  0.8768  0.0131 -0.5186
  676MPD2     C10050   0.977   4.724  11.208  0.0764  0.5837  0.1199
  676MPD2    C110051   0.961   4.653  11.328 -0.5990  0.7663 -0.1226
  676MPD2    C210052   0.987   4.521  11.323 -0.9703  0.8342 -0.0344
  676MPD2    C310053   1.042   4.450  11.217 -0.0399  0.6219  0.0151
  676MPD2    C410054   1.070   4.530  11.110 -0.9093  0.1683 -0.4600
  676MPD2    C510055   1.033   4.658  11.106 -0.1241  0.1558  0.0026
  676MPD2     H10056   0.975   4.474  11.420 -0.2598  1.6667  0.4554
  676MPD2    H110057   1.124   4.491  11.024 -0.1754  2.2757 -0.9656
  676MPD2    H210058   0.970   0.089  11.197  0.9635  0.4958 -1.2802
  676MPD2    H310059   1.065   4.717  11.020  0.3796  2.1734  1.5861
  676MPD2     N10060   1.079   4.314  11.215 -0.4373  0.2141 -0.4782
  676MPD2    H510061   1.109   4.274  11.126 -2.0150 -0.7020 -0.6064
  676MPD2    N110062   0.913   4.710  11.443 -0.7172  0.3443 -0.1701
  676MPD2    H710063   0.886   4.646  11.516 -0.4437  0.5472  0.1077
  677TMC3    C110064   0.826   0.127  11.582  0.1375  0.3835 -0.4755
  677TMC3    C210065   0.762   0.022  11.641  0.0195 -0.4999  0.1777
  677TMC3    C310066   0.789   4.737  11.775 -0.3272  0.0002  0.4041
  677TMC3    C410067   0.886   0.230  11.655 -0.3132 -0.4708  0.0220
  677TMC3    C510068   0.911   0.199  11.786  0.0645  0.0861  0.2301
  677TMC3    C610069   0.860   0.086  11.846  0.0690  0.0595  0.0773
  677TMC3     C10070   0.894   0.097  11.461 -0.3045 -0.0131 -0.5188
  677TMC3     O10071   0.942   0.192  11.404  0.3167 -0.0068 -0.4738
  677TMC3     H10072   0.710   4.690  11.581 -0.2322 -0.4237  0.3055
  677TMC3    H110073   0.924   0.318  11.603 -0.8784 -0.2849 -0.0739
  677TMC3    H210074   0.893   0.058  11.945 -0.0688 -2.9620 -0.7217
  677TMC3    C710075   1.052   0.221  11.823 -0.0265 -0.1842 -0.0017
  677TMC3    C810076   0.839   4.604  11.807 -0.8639  0.3214  0.1643
  677TMC3    O110077   1.102   0.132  11.888  0.0585 -0.1149  1.1711
  677TMC3    O210078   0.877   4.538  11.712 -0.0214 -0.2158  0.7123
  678MPD2     C10079   2.456   4.681   1.042  0.5433  0.7546 -0.1024
  678MPD2    C110080   2.428   0.041   0.956  0.6945  0.1463 -0.3391
  678MPD2    C210081   2.308   0.050   0.896 -0.1205  0.1532 -0.8463
  678MPD2    C310082   2.220   4.687   0.910 -0.0890  0.4280 -0.3191
  678MPD2    C410083   2.240   4.580   0.999  0.3583 -0.6352  0.3214
  678MPD2    C510084   2.366   4.578   1.059 -0.1594  0.4075 -0.3071
  678MPD2     H10085   2.286   0.135   0.833 -3.1885 -1.2631 -1.6664
  678MPD2    H110086   2.163   4.505   1.016  1.6994 -1.9906  0.3819
  678MPD2    H210087   2.553   4.681   1.092  0.9902 -0.2319 -0.9531
  678MPD2    H310088   2.388   4.488   1.114 -0.3270  0.1547 -0.6577
  678MPD2     N10089   2.095   4.697   0.843  0.1225 -0.1388  0.4719
  678MPD2    H510090   2.068   0.045   0.806 -1.4628 -0.9230 -0.2699
  678MPD2    N110091   2.524   0.139   0.917 -0.0371  0.0076  0.6418
  678MPD2    H710092   2.498   0.195   0.836 -0.9665  3.8316  3.6086
  679TMC3    C110093   2.896   0.294   0.723 -0.3616 -0.7116  0.0989
  679TMC3    C210094   2.849   0.222   0.828 -0.1700 -0.2353  0.6753
  679TMC3    C310095   2.721   0.249   0.881 -0.6353  0.4628 -0.2938
  679TMC3    C410096   2.825   0.385   0.656  0.9898  0.2856  0.4347
  679TMC3    C510097   2.703   0.421   0.708  0.8526 -0.5253  0.3372
  679TMC3    C610098   2.648   0.351   0.818  0.0696 -0.0151  0.8064
  679TMC3     C10099   3.022   0.241   0.670  0.0225  0.2191 -0.5744
  679TMC3     O10100   3.049   0.127   0.702 -0.0742 -0.0550  0.1180
  679TMC3     H10101   2.909   0.139   0.864  3.3842  1.0690 -2.2994
  679TMC3    H110102   2.857   0.405   0.554  1.6705 -0.5239  0.4899
  679TMC3    H210103   2.549   0.371   0.857 -1.3126 -0.5417 -2.4228
  679TMC3    C710104   2.615   0.517   0.652 -0.0661  0.6273 -0.4097
  679TMC3    C810105   2.650   0.149   0.956 -0.6804 -1.1824  0.3385
  679TMC3    O110106   2.499   0.508   0.684  0.0285 -0.2885 -0.2382
  679TMC3    O210107   2.728   0.073   1.016  0.0013  0.2152 -0.3512
  680MPD2     C10108   2.542   3.562  13.518 -0.1500 -0.5297  0.6658
  680MPD2    C110109   2.580   3.492  13.636  1.3547 -0.5464 -0.2799
  680MPD2    C210110   2.601   3.566  13.749  0.5428  0.5423  0.1719
  680MPD2    C310111   2.577   3.701  13.760  0.3657  0.1602  0.8354
  680MPD2    C410112   2.525   3.762  13.649 -0.3069 -0.5768 -0.1613
  680MPD2    C510113   2.510   3.695  13.528 -0.3434 -0.0242  0.3174
  680MPD2     H10114   2.647   3.509  13.829 -1.5191  0.3546  1.2295
  680MPD2    H110115   2.491   3.865  13.661  1.7297  0.1108 -0.2463
  680MPD2    H210116   2.528   3.511  13.424 -0.1205 -2.2473  1.5890
  680MPD2    H310117   2.475   3.746  13.439  0.6721  0.4842  0.2088
  680MPD2     N10118   2.611   3.774  13.875 -0.1542  0.1779 -0.6769
  680MPD2    H510119   2.631   3.872  13.856 -1.1246  0.7566  1.3015
  680MPD2    N110120   2.625   3.358  13.631  0.0367 -0.0858 -0.6516
  680MPD2    H710121   2.657   3.317  13.718 -1.1464  1.0564  0.3267
  681TMC3    C110122   2.715   3.163  13.539 -0.2164 -1.1234 -0.5319
  681TMC3    C210123   2.731   3.118  13.665 -0.4924  0.4579 -0.1750
  681TMC3    C310124   2.827   3.020  13.691 -0.9252 -0.1867 -0.1964
  681TMC3    C410125   2.802   3.123  13.438 -0.1857  0.5539  0.0389
  681TMC3    C510126   2.891   3.024  13.468  0.3166 -0.6125 -0.1110
  681TMC3    C610127   2.902   2.962  13.589 -0.2238  0.4142  0.7812
  681TMC3     C10128   2.645   3.289  13.519 -0.0622  0.4249  0.0142
  681TMC3     O10129   2.646   3.326  13.402 -0.1506  0.2585 -0.3616
  681TMC3     H10130   2.670   3.156  13.746  1.0931 -0.5726  1.5021
  681TMC3    H110131   2.792   3.178  13.345 -2.0245  0.1740 -0.0022
  681TMC3    H210132   2.984   2.895  13.610  1.2713  2.5164  1.5725
  681TMC3    C710133   3.006   3.004  13.382  0.3904  0.3725  0.1089
  681TMC3    C810134   2.831   2.949  13.810 -0.3857  0.5535  0.1726
  681TMC3    O110135   3.097   2.930  13.422 -0.2507  0.5206 -0.4196
  681TMC3    O210136   2.837   2.827  13.792 -0.1153 -0.1028 -0.4875
  682MPD2     C10137   0.373   4.684  10.744  0.5522  0.6874 -0.2409
  682MPD2    C110138   0.387   4.546  10.751  0.0587 -0.1798  0.7667
  682MPD2    C210139   0.369   4.487  10.873 -0.1605  0.2003  0.0542
  682MPD2    C310140   0.350   4.563  10.991 -0.6430 -0.7028  0.9452
  682MPD2    C410141   0.343   4.699  10.979 -0.3423 -1.0765 -0.6664
  682MPD2    C510142   0.351   0.013  10.860 -0.1332  0.1514  0.8895
  682MPD2     H10143   0.372   4.379  10.873  1.5105  0.2467  0.9368
  682MPD2    H110144   0.339   0.018  11.068 -0.1480 -1.5671 -0.3166
  682MPD2    H210145   0.374   0.001  10.653 -2.4903  3.4307  1.4784
  682MPD2    H310146   0.338   0.120  10.850 -0.3952  0.0098 -0.3003
  682MPD2     N10147   0.337   4.505  11.120  0.2336 -0.3388  0.4272
  682MPD2    H510148   0.306   4.569  11.192 -1.9134 -2.7811  1.6808
  682MPD2    N110149   0.408   4.468  10.638 -0.7943  0.2869 -0.3423
  682MPD2    H710150   0.429   4.370  10.650  1.1584  0.7179 -0.3174
  683TMC3    C110151   0.389   4.388  11.509 -0.2531  0.4857  0.0755
  683TMC3    C210152   0.358   4.262  11.544  0.0278  0.4043 -0.3426
  683TMC3    C310153   0.331   4.169  11.442 -0.3707 -0.9091  0.0433
  683TMC3    C410154   0.389   4.439  11.380  0.2475 -1.0226 -0.6526
  683TMC3    C510155   0.368   4.337  11.286  0.6939 -0.8100  0.5149
  683TMC3    C610156   0.338   4.206  11.313 -0.2172  0.3402 -0.2266
  683TMC3     C10157   0.407   4.490  11.611 -0.0699 -0.1678 -0.2807
  683TMC3     O10158   0.358   4.598  11.589 -0.0648 -0.7120  0.1431
  683TMC3     H10159   0.359   4.230  11.648 -0.7347  0.2414 -0.3865
  683TMC3    H110160   0.411   4.544  11.362  0.4206 -0.9732 -0.1556
  683TMC3    H210161   0.307   4.136  11.236  1.5696 -0.6391 -0.0636
  683TMC3    C710162   0.361   4.376  11.145  0.7788  0.1889  0.5922
  683TMC3    C810163   0.302   4.035  11.484  0.2380  0.2313  0.4863
  683TMC3    O110164   0.364   4.279  11.067  0.3817  0.1450 -0.3373
  683TMC3    O210165   0.231   3.962  11.417  0.6861  0.4642  0.1820
  684MPD2     C10166   2.875   4.514  16.411  0.2091 -0.4662  0.4499
  684MPD2    C110167   2.774   4.465  16.326 -0.0939  0.4498  0.0485
  684MPD2    C210168   2.685   4.560  16.280 -0.2393 -0.0455  0.8901
  684MPD2    C310169   2.706   4.698  16.293 -0.1122  0.5944 -0.3390
  684MPD2    C410170   2.814   4.740  16.366 -0.0454  0.0479 -0.0706
  684MPD2    C510171   2.903   4.649  16.423 -0.1311 -0.8892  0.3198
  684MPD2     H10172   2.597   4.527  16.226 -0.8973  1.2179  1.1876
  684MPD2    H110173   2.842   0.102  16.379 -0.3381  0.4187 -2.4246
  684MPD2    H210174   2.939   4.443  16.464 -2.1311 -1.4815  1.9244
  684MPD2    H310175   2.995   4.681  16.471 -0.7486 -0.1010  1.0005
  684MPD2     N10176   2.622   0.056  16.239  0.1999  0.1582  0.0017
  684MPD2    H510177   2.647   0.152  16.256 -0.4434 -0.0916  2.3947
  684MPD2    N110178   2.752   4.331  16.287  0.3339 -0.1834 -0.4344
  684MPD2    H710179   2.676   4.311  16.222  0.0772 -4.7257  1.2263
  685TMC3    C110180   2.828   4.121  16.211  0.2317 -0.5777 -0.7260
  685TMC3    C210181   2.758   4.145  16.103 -0.2581 -0.2051 -0.0268
  685TMC3    C310182   2.803   4.116  15.982 -0.9890  0.5018 -0.3014
  685TMC3    C410183   2.940   4.040  16.202 -0.0075 -0.1990  0.3228
  685TMC3    C510184   2.993   4.025  16.079 -0.9019  0.1562 -0.0394
  685TMC3    C610185   2.930   4.060  15.969  0.6940 -0.0445  0.0404
  685TMC3     C10186   2.844   4.231  16.309 -0.3627 -0.1346 -1.0616
  685TMC3     O10187   2.943   4.230  16.380 -0.4369  0.4349 -0.1031
  685TMC3     H10188   2.657   4.179  16.122 -1.6188 -2.1733 -3.7201
  685TMC3    H110189   3.000   4.031  16.291 -1.2973 -0.3625  1.1849
  685TMC3    H210190   2.974   4.032  15.874  0.8936 -0.8730  0.3745
  685TMC3    C710191   3.140   4.039  16.090 -0.0279 -0.0199  0.3258
  685TMC3    C810192   2.708   4.069  15.888  0.5745 -0.4700  0.1197
  685TMC3    O110193   3.195   3.990  16.192  0.4243  0.5627 -0.4834
  685TMC3    O210194   2.713   3.950  15.851  0.1040 -0.0587  0.4492
  686MPD2     C10195   4.025   4.096  15.140 -0.1296 -0.4840  0.2137
  686MPD2    C110196   4.069   3.995  15.220  0.3082  0.4954  0.8894
  686MPD2    C210197   4.160   3.897  15.178  0.6983  0.7972 -0.4039
  686MPD2    C310198   4.204   3.908  15.047 -0.6618  0.0026 -0.5430
  686MPD2    C410199   4.152   4.008  14.959 -0.0946 -0.2987  0.3344
  686MPD2    C510200   4.060   4.102  15.004  0.4651 -0.3572  0.2959
  686MPD2     H10201   4.197   3.822  15.247 -0.0440  1.4637  0.7215
  686MPD2    H110202   4.191   4.014  14.858 -0.8923  4.5748  0.3064
  686MPD2    H210203   3.959   4.175  15.172  0.4434  1.1261 -2.6103
  686MPD2    H310204   4.033   4.180  14.934 -0.5836  0.8107  1.9817
  686MPD2     N10205   4.298   3.820  14.991  0.3201 -0.0820  0.5681
  686MPD2    H510206   4.335   3.858  14.904 -2.5801  0.1733 -0.5540
  686MPD2    N110207   4.020   3.990  15.352  0.4655 -0.0800  0.1678
  686MPD2    H710208   3.957   4.066  15.375  0.6593 -0.7115  2.8732
  687TMC3    C110209   4.250   3.624  15.129 -0.4961  0.1769 -0.3742
  687TMC3    C210210   4.126   3.599  15.086 -0.6310  0.4417 -0.4503
  687TMC3    C310211   4.036   3.550  15.177  0.5695  0.4909 -0.6869
  687TMC3    C410212   4.300   3.554  15.244  0.0181 -0.2726  0.1346
  687TMC3    C510213   4.207   3.509  15.332  0.8507  0.5638 -0.0295
  687TMC3    C610214   4.072   3.506  15.297 -0.3377 -0.4288 -0.0821
  687TMC3     C10215   4.341   3.695  15.035  0.2781 -0.0480 -0.4891
  687TMC3     O10216   4.444   3.634  15.009 -0.6910 -1.3126 -0.3915
  687TMC3     H10217   4.086   3.632  14.991  0.2974 -1.3470 -1.4697
  687TMC3    H110218   4.402   3.568  15.279 -0.3955  0.3008  1.1453
  687TMC3    H210219   4.007   3.473  15.377 -0.3581 -0.0027  0.0734
  687TMC3    C710220   4.236   3.513  15.473 -0.1204  0.1097 -0.2421
  687TMC3    C810221   3.906   3.614  15.169  0.5803 -0.5197  0.2872
  687TMC3    O110222   4.150   3.529  15.555 -0.5034  0.1977 -0.4767
  687TMC3    O210223   3.910   3.716  15.103 -0.5487 -0.0267  0.5979
  688MPD2     C10224   3.153   3.005  17.521 -0.0509  0.7549  0.3226
  688MPD2    C110225   3.153   2.870  17.489 -0.6823 -0.2369 -0.2900
  688MPD2    C210226   3.248   2.814  17.395 -0.1900  0.0043  0.4303
  688MPD2    C310227   3.337   2.905  17.339  0.2836 -0.4217  0.0372
  688MPD2    C410228   3.324   3.041  17.371  0.1566 -0.6359 -0.4279
  688MPD2    C510229   3.243   3.085  17.468  0.0640 -0.3889 -0.5005
  688MPD2     H10230   3.264   2.709  17.376  1.7458  0.0182  2.0195
  688MPD2    H110231   3.391   3.115  17.329 -1.9198  0.3157 -2.0717
  688MPD2    H210232   3.087   3.053  17.592 -0.2083 -2.6247  2.4930
  688MPD2    H310233   3.251   3.189  17.496 -0.4839 -0.8023  1.1914
  688MPD2     N10234   3.440   2.874  17.247  0.5862  0.7085 -0.1378
  688MPD2    H510235   3.500   2.949  17.215 -0.2229  0.9276 -1.1561
  688MPD2    N110236   3.066   2.784  17.559 -0.1422 -0.5955  0.5068
  688MPD2    H710237   3.057   2.690  17.524  2.8159 -0.8964  0.5319
  689TMC3    C110238   2.937   2.698  17.733 -0.3257  0.1860 -0.1960
  689TMC3    C210239   2.920   2.697   0.098 -0.1971  0.7288  0.3923
  689TMC3    C310240   2.822   2.613   0.147  0.1075  0.6908 -0.3807
  689TMC3    C410241   2.869   2.623  17.641 -0.3163 -0.4529  0.5335
  689TMC3    C510242   2.779   2.530  17.694 -0.4149  0.0042 -0.2683
  689TMC3    C610243   2.752   2.530   0.063 -0.1601 -0.1170 -0.6504
  689TMC3     C10244   3.010   2.813  17.680 -0.5368 -0.0524 -0.7782
  689TMC3     O10245   3.029   2.911  17.756  0.1924 -0.0123 -0.3626
  689TMC3     H10246   2.967   2.776   0.154 -1.5756  2.0140 -0.2832
  689TMC3    H110247   2.878   2.642  17.535 -1.2596  0.5063  0.6241
  689TMC3    H210248   2.681   2.451   0.085 -0.5607  0.7829  1.2866
  689TMC3    C710249   2.705   2.455  17.594 -0.3164  0.5118 -0.8461
  689TMC3    C810250   2.787   2.637   0.285 -0.7150  0.0368  0.4372
  689TMC3    O110251   2.769   2.431  17.492 -0.1250 -0.1987  0.1020
  689TMC3    O210252   2.850   2.723   0.343 -0.2103 -0.1087 -0.2618
  690MPD2     C10253   1.285   0.099  15.456  0.2463 -0.0445 -0.4997
  690MPD2    C110254   1.189   0.058  15.370  1.0087 -0.0648 -0.2856
  690MPD2    C210255   1.215   0.067  15.236  0.7380 -0.2997 -0.6179
  690MPD2    C310256   1.325   0.137  15.192 -0.0302  0.6129 -0.0008
  690MPD2    C410257   1.425   0.170  15.284  0.2312 -0.3020  0.3462
  690MPD2    C510258   1.405   0.156  15.413  0.3789 -0.0821 -0.5372
  690MPD2     H10259   1.134   0.039  15.170  2.0226 -1.1731 -1.8042
  690MPD2    H110260   1.517   0.223  15.261  0.5769 -0.1250  2.1108
  690MPD2    H210261   1.272   0.087  15.563  0.0114 -1.3671 -0.6715
  690MPD2    H310262   1.487   0.183  15.478  0.5555  2.0633 -1.6680
  690MPD2     N10263   1.332   0.176  15.057 -0.4291 -0.3915  0.1005
  690MPD2    H510264   1.260   0.146  14.993 -0.3564 -0.5582  0.0968
  690MPD2    N110265   1.069   4.735  15.405 -0.2411 -0.1607 -1.1656
  690MPD2    H710266   1.015   4.713  15.322 -0.6132 -0.1345 -0.9303
  691TMC3    C110267   0.888   4.674  15.537 -0.0589  1.1517 -0.3863
  691TMC3    C210268   0.808   4.714  15.639 -0.3257 -1.0556 -0.8085
  691TMC3    C310269   0.716   4.625  15.682 -0.7018 -0.5447 -0.2374
  691TMC3    C410270   0.885   4.546  15.495 -0.5673 -0.4977 -0.0358
  691TMC3    C510271   0.794   4.454  15.546  0.0043  0.0929 -0.3266
  691TMC3    C610272   0.706   4.497  15.643 -0.1684 -0.0790  0.5125
  691TMC3     C10273   1.022   4.732  15.533  0.3056 -0.2193 -0.2963
  691TMC3     O10274   1.074   0.023  15.636  0.2183  0.3816 -0.0864
  691TMC3     H10275   0.798   0.072  15.679  0.7654 -0.7254 -1.3595
  691TMC3    H110276   0.950   4.507  15.417 -2.0322 -0.8904 -1.0666
  691TMC3    H210277   0.634   4.434  15.696 -1.6822  1.0326 -0.2265
  691TMC3    C710278   0.827   4.319  15.537 -1.0453  0.1635  0.3316
  691TMC3    C810279   0.632   4.663  15.796  0.0909 -0.3844 -0.5185
  691TMC3    O110280   0.934   4.285  15.484  0.3236  0.0633  0.7757
  691TMC3    O210281   0.612   4.574  15.877 -0.0269  0.0975  0.1195
  692TMC3    C110282   2.386   1.124  15.312  0.1187 -0.7345 -0.1524
  692TMC3    C210283   2.513   1.152  15.351  0.1370 -0.3786  0.3629
  692TMC3    C310284   2.609   1.051  15.373 -0.1412 -0.3296  0.5897
  692TMC3    C410285   2.339   0.996  15.305 -0.0081 -0.1999  0.4598
  692TMC3    C510286   2.427   0.898  15.332  0.2853 -0.6922  0.2726
  692TMC3    C610287   2.556   0.922  15.382 -0.4978  0.5809  0.2691
  692TMC3     C10288   2.278   1.224  15.343 -0.1496 -0.0245  0.0310
  692TMC3     O10289   2.161   1.181  15.329 -0.5827  0.0001 -0.6357
  692TMC3     H10290   2.556   1.239  15.303  1.1578 -2.0274 -1.7570
  692TMC3    H110291   2.249   0.967  15.251  0.1332  0.8143 -0.3248
  692TMC3    H210292   2.618   0.835  15.399  0.6350  1.0830 -1.2774
  692TMC3    C710293   2.370   0.768  15.346 -0.2603 -0.1908  0.1317
  692TMC3    C810294   2.679   1.076  15.501  0.1641 -0.1938  0.1620
  692TMC3    O110295   2.280   0.742  15.271  0.4092  0.1581 -0.7044
  692TMC3    O210296   2.744   0.982  15.545  0.3348  0.6216 -0.0480
  693MPD2     C10297   2.721   3.471  10.783  0.8023  0.7678 -0.5810
  693MPD2    C110298   2.667   3.354  10.749  0.0732 -0.1635  0.1468
  693MPD2    C210299   2.741   3.247  10.702  0.2286  0.3803 -0.6882
  693MPD2    C310300   2.879   3.259  10.709 -0.0164  0.2608 -0.4166
  693MPD2    C410301   2.933   3.384  10.735 -0.1799 -0.3474 -0.2030
  693MPD2    C510302   2.857   3.491  10.776  0.1045  0.1688  0.3109
  693MPD2     H10303   2.690   3.153  10.689 -0.2629  0.9106 -2.6164
  693MPD2    H110304   3.040   3.389  10.745 -0.1437 -1.3223 -0.0929
  693MPD2    H210305   2.661   3.553  10.822 -0.9930 -0.0785 -1.5619
  693MPD2    H310306   2.897   3.591  10.793  0.4208  0.4146 -1.8486
  693MPD2     N10307   2.964   3.154  10.690 -0.4102  0.0309 -0.3502
  693MPD2    H510308   3.058   3.178  10.719 -0.3210 -0.7165 -0.0155
  693MPD2    N110309   2.528   3.351  10.777 -0.3218  0.5290 -0.4095
  693MPD2    H710310   2.494   3.422  10.840 -2.8716 -1.7693  0.7788
  694TMC3    C110311   2.317   3.272  10.833  0.1222 -0.1888 -0.3490
  694TMC3    C210312   2.209   3.212  10.778 -0.0884 -0.3770  0.5740
  694TMC3    C310313   2.139   3.114  10.843 -0.3154  0.0688  0.1493
  694TMC3    C410314   2.354   3.238  10.959 -0.0815 -0.0979  0.0098
  694TMC3    C510315   2.283   3.138  11.020 -0.3427 -0.3851  0.4859
  694TMC3    C610316   2.169   3.074  10.971 -0.6875 -0.1427  0.1965
  694TMC3     C10317   2.436   3.254  10.747 -0.5594  0.0619 -0.5864
  694TMC3     O10318   2.443   3.152  10.682 -0.2144 -0.4540  0.0074
  694TMC3     H10319   2.192   3.221  10.671 -0.3491  0.9811  0.7305
  694TMC3    H110320   2.445   3.275  11.006 -0.2779  0.9331 -0.4352
  694TMC3    H210321   2.121   2.988  11.018 -1.4911  0.7125  0.9532
  694TMC3    C710322   2.310   3.138  11.161  0.4245  0.3502  0.3814
  694TMC3    C810323   2.001   3.076  10.807  0.0505 -0.4189  0.1305
  694TMC3    O110324   2.424   3.158  11.195  0.7753 -0.5899  0.4693
  694TMC3    O210325   1.965   2.974  10.861 -0.1928 -0.6095  0.3118
  695MPD2     C10326   3.131   0.457  13.487 -0.3786 -0.2526  0.8497
  695MPD2    C110327   3.050   0.525  13.572 -0.1075 -0.2977  1.1321
  695MPD2    C210328   2.952   0.606  13.514 -0.3118  0.2274 -0.2908
  695MPD2    C310329   2.939   0.637  13.387 -0.5671  0.9113  0.0151
  695MPD2    C410330   3.036   0.579  13.305  0.1560  0.1798 -0.1046
  695MPD2    C510331   3.120   0.481  13.358 -0.7129  0.4442 -0.2288
  695MPD2     H10332   2.892   0.658  13.588  0.4965 -0.3685  0.7824
  695MPD2    H110333   3.049   0.588  13.198 -1.1509 -2.0654 -0.4496
  695MPD2    H210334   3.213   0.387  13.502 -0.3040 -0.3910 -0.2127
  695MPD2    H310335   3.192   0.429  13.295 -1.5763 -0.7992 -0.1725
  695MPD2     N10336   2.830   0.716  13.337  0.2973  0.5591 -0.2482
  695MPD2    H510337   2.749   0.736  13.394 -0.3460  0.7589 -1.2263
  695MPD2    N110338   3.050   0.514  13.713 -0.2744 -0.0804  0.9457
  695MPD2    H710339   2.996   0.576  13.772 -0.9371  0.3972 -0.1718
  696TMC3    C110340   2.691   0.801  13.168  0.1345 -0.0005  0.1633
  696TMC3    C210341   2.592   0.758  13.261 -0.5729 -0.2990  0.8990
  696TMC3    C310342   2.502   0.854  13.297 -0.4273 -0.0349 -0.3099
  696TMC3    C410343   2.677   0.913  13.093  0.1599 -0.0438  0.2987
  696TMC3    C510344   2.576   0.996  13.117  0.2994  0.5765  0.6144
  696TMC3    C610345   2.489   0.966  13.216 -0.7182  0.2567 -0.9802
  696TMC3     C10346   2.822   0.749  13.200  0.6959  0.0327 -0.4558
  696TMC3     O10347   2.905   0.760  13.115 -0.2589  0.0480 -0.1256
  696TMC3     H10348   2.601   0.667  13.319 -1.3527  0.4392  2.1658
  696TMC3    H110349   2.767   0.947  13.041  1.3002 -2.3228  0.7749
  696TMC3    H210350   2.404   1.029  13.235 -0.6094  0.0969  0.0386
  696TMC3    C710351   2.608   1.135  13.091  0.3946  0.7960  0.2150
  696TMC3    C810352   2.510   0.868  13.440 -0.7922  0.6590  0.0883
  696TMC3    O110353   2.672   1.172  12.993  0.1732 -0.3252 -0.5638
  696TMC3    O210354   2.606   0.821  13.499 -0.3231 -0.2515 -0.4077
  697MPD2     C10355   2.277   2.671  15.556 -0.0872  0.6123  0.1746
  697MPD2    C110356   2.251   2.622  15.428 -0.0704  0.9010  0.5744
  697MPD2    C210357   2.323   2.682  15.328  0.4717 -0.2501 -0.1140
  697MPD2    C310358   2.424   2.771  15.353  0.1172  0.2483  0.2854
  697MPD2    C410359   2.453   2.816  15.483  0.1503  0.6585 -0.5819
  697MPD2    C510360   2.376   2.766  15.582  0.0533 -0.5414 -0.0362
  697MPD2     H10361   2.309   2.638  15.230 -1.5028 -0.0328  0.0781
  697MPD2    H110362   2.537   2.880  15.506 -0.0671 -0.0331  2.1692
  697MPD2    H210363   2.224   2.639  15.644 -1.7339  0.1217 -1.0003
  697MPD2    H310364   2.389   2.804  15.682 -0.5281 -0.2498 -0.0702
  697MPD2     N10365   2.499   2.832  15.255 -0.5763  0.6852 -0.1135
  697MPD2    H510366   2.574   2.896  15.280 -0.0640  0.7544 -1.8211
  697MPD2    N110367   2.147   2.535  15.393 -0.1473 -0.5211  0.6748
  697MPD2    H710368   2.114   2.536  15.297  0.9341 -1.3832  0.2988
  698TMC3    C110369   2.585   2.882  15.042 -0.5981  0.0022 -0.6321
  698TMC3    C210370   2.532   3.011  15.036 -0.7581 -0.0443  0.0204
  698TMC3    C310371   2.519   3.065  14.908  0.3348  0.2868  0.6828
  698TMC3    C410372   2.623   2.815  14.927  0.6409  0.8732  0.5830
  698TMC3    C510373   2.601   2.873  14.805 -0.3779  0.1647  0.2694
  698TMC3    C610374   2.556   3.004  14.792 -0.0483  0.4151 -0.0890
  698TMC3     C10375   2.493   2.798  15.119 -0.2423  0.4289 -0.3323
  698TMC3     O10376   2.430   2.708  15.065  0.0924  0.1782 -0.0581
  698TMC3     H10377   2.485   3.053  15.124 -1.1033 -0.8463  0.2208
  698TMC3    H110378   2.662   2.714  14.939 -1.0160  0.2987  1.2484
  698TMC3    H210379   2.544   3.039  14.690  4.5944 -0.6092 -0.9779
  698TMC3    C710380   2.594   2.784  14.684 -0.4526  0.2054 -0.1233
  698TMC3    C810381   2.441   3.186  14.904 -0.3126 -0.1990 -0.5053
  698TMC3    O110382   2.675   2.689  14.676  0.0339  0.5309  0.0256
  698TMC3    O210383   2.352   3.189  14.815 -0.6888 -0.2581  0.3639
  699TMC3    C110384   2.765   0.921  12.719 -0.2435  0.0645 -0.0585
  699TMC3    C210385   2.811   0.801  12.760 -0.2266  0.3016 -0.3289
  699TMC3    C310386   2.718   0.713  12.813 -0.3378  1.4445 -0.2260
  699TMC3    C410387   2.634   0.948  12.707  0.1075 -0.7543  0.5542
  699TMC3    C510388   2.542   0.864  12.771 -0.7178  0.3661 -0.6017
  699TMC3    C610389   2.592   0.751  12.828 -0.2055 -0.0303  0.0329
  699TMC3     C10390   2.838   0.981  12.609  0.4503  0.2864  0.2659
  699TMC3     O10391   2.791   1.087  12.566  0.1884 -0.3720 -0.0762
  699TMC3     H10392   2.916   0.774  12.749 -0.1957 -0.4952  1.7996
  699TMC3    H110393   2.600   1.035  12.652  2.0764 -0.2813  0.0709
  699TMC3    H210394   2.517   0.691  12.878 -0.6731 -1.7017 -2.6631
  699TMC3    C710395   2.406   0.896  12.785  0.5400 -0.3465  0.3059
  699TMC3    C810396   2.749   0.589  12.886  0.1899 -0.4011 -0.1278
  699TMC3    O110397   2.336   0.817  12.845 -0.0830 -0.2346 -0.7434
  699TMC3    O210398   2.647   0.529  12.931 -0.2907  0.5912  0.3276
  700TMC3    C110399   1.558   3.003  17.041  0.0565  0.3356 -0.2741
  700TMC3    C210400   1.675   2.938  17.011  0.2695 -0.1000 -0.0049
  700TMC3    C310401   1.771   2.924  17.102  0.0687  0.4523 -0.4047
  700TMC3    C410402   1.534   3.037  17.171  0.0092 -0.2067  0.3213
  700TMC3    C510403   1.630   3.012  17.260  0.6388  0.4146 -0.5923
  700TMC3    C610404   1.752   2.967  17.230  0.4635  0.5359  0.0470
  700TMC3     C10405   1.513   3.085  16.932 -0.3116  0.8130  0.0039
  700TMC3     O10406   1.528   3.032  16.823  0.1116  0.4842  0.9229
  700TMC3     H10407   1.704   2.907  16.912  1.2600 -0.3066  0.3462
  700TMC3    H110408   1.438   3.083  17.195 -0.4471 -0.0136 -1.8453
  700TMC3    H210409   1.830   2.963  17.305  0.0641 -2.5295  0.3117
  700TMC3    C710410   1.612   3.084  17.384 -0.4652  0.0853 -0.1887
  700TMC3    C810411   1.905   2.907  17.049  0.0117  0.0090  0.0555
  700TMC3    O110412   1.716   3.126  17.441 -0.2973 -0.1150 -0.0327
  700TMC3    O210413   1.911   2.824  16.960  0.3635 -0.0097 -0.1576
  701TMC3    C110414   1.270   2.272  15.306 -0.0618  0.2511 -0.2225
  701TMC3    C210415   1.274   2.228  15.178  0.7709  0.3245 -0.5738
  701TMC3    C310416   1.394   2.233  15.121  0.3580 -0.7618  0.7524
  701TMC3    C410417   1.380   2.320  15.378 -0.4454  1.2499  0.0644
  701TMC3    C510418   1.493   2.331  15.308  0.3164 -0.8101  0.5438
  701TMC3    C610419   1.504   2.286  15.181  0.5085 -0.0081  0.1145
  701TMC3     C10420   1.155   2.250  15.394 -0.4237 -0.3040 -0.2277
  701TMC3     O10421   1.158   2.308  15.504 -0.3724  0.1806  0.0323
  701TMC3     H10422   1.178   2.218  15.128  0.6775  1.7162 -0.6795
  701TMC3    H110423   1.373   2.347  15.482 -3.3212 -0.9824  0.4569
  701TMC3    H210424   1.596   2.298  15.124  0.3329 -2.0428 -0.5983
  701TMC3    C710425   1.598   2.428  15.354  0.0623 -0.8969 -0.3775
  701TMC3    C810426   1.408   2.199  14.981 -0.2230  0.4990  0.4347
  701TMC3    O110427   1.685   2.456  15.270  0.1348  0.1203  0.1802
  701TMC3    O210428   1.514   2.219  14.928 -0.0200 -0.5320 -0.2003
  702MPD2     C10429   1.451   3.723  10.761  0.6057  0.9636 -0.1385
  702MPD2    C110430   1.459   3.840  10.836 -0.1265 -0.5014  0.5293
  702MPD2    C210431   1.549   3.937  10.799  0.2637  0.1052  0.3228
  702MPD2    C310432   1.618   3.929  10.679  0.3800  0.1441  0.2058
  702MPD2    C410433   1.594   3.819  10.602  0.2223  0.6571  0.0379
  702MPD2    C510434   1.515   3.717  10.647 -0.1848  0.1591  0.1554
  702MPD2     H10435   1.557   4.030  10.855  0.9153 -1.6400  3.1024
  702MPD2    H110436   1.638   3.811  10.503 -0.5472 -1.8722 -0.1120
  702MPD2    H210437   1.373   3.651  10.785  1.5982 -0.1738 -0.3143
  702MPD2    H310438   1.502   3.626  10.590 -0.4289  1.0207 -1.1648
  702MPD2     N10439   1.696   4.029  10.624  0.2357  0.2089 -0.4200
  702MPD2    H510440   1.744   4.001  10.539  0.5133 -0.7392  0.0528
  702MPD2    N110441   1.372   3.848  10.948  0.3321  0.1205  0.4062
  702MPD2    H710442   1.296   3.782  10.954  0.1176  0.1243 -2.3219
  703TMC3    C110443   1.736   4.246  10.558  0.1548  0.1970  0.4283
  703TMC3    C210444   1.649   4.344  10.542 -0.1894  0.7208 -0.3530
  703TMC3    C310445   1.683   4.451  10.462  0.5824 -0.6726 -0.7090
  703TMC3    C410446   1.864   4.248  10.515  0.1471  0.3897 -0.4534
  703TMC3    C510447   1.898   4.362  10.438 -0.5913  0.2666 -0.0048
  703TMC3    C610448   1.812   4.463  10.408  0.4837 -0.3421 -0.1676
  703TMC3     C10449   1.700   4.154  10.664 -0.2020  0.0200 -0.8490
  703TMC3     O10450   1.637   4.207  10.754  0.4431 -0.0920  0.5949
  703TMC3     H10451   1.549   4.340  10.583  0.1292  1.4426  0.4773
  703TMC3    H110452   1.933   4.170  10.546  2.1587  2.4607  0.2932
  703TMC3    H210453   1.839   4.555  10.358  2.5684 -0.1172  1.3820
  703TMC3    C710454   2.034   4.386  10.399  0.2986  0.5168 -0.1730
  703TMC3    C810455   1.596   4.565  10.464 -0.1960 -0.0251 -0.9094
  703TMC3    O110456   2.057   4.462  10.304  0.1487  0.1407 -0.8045
  703TMC3    O210457   1.647   4.672  10.429  0.3186  0.1786  0.4602
  704TMC3    C110458   3.544   2.416  12.164  1.1588  0.3293 -0.5091
  704TMC3    C210459   3.643   2.405  12.073 -0.1584  0.5981  0.0553
  704TMC3    C310460   3.765   2.359  12.114  0.3546 -0.6882  0.0707
  704TMC3    C410461   3.561   2.383  12.300  0.3589 -0.3743  0.1159
  704TMC3    C510462   3.693   2.351  12.331  0.3580  0.3230 -0.0992
  704TMC3    C610463   3.788   2.327  12.243 -0.1011  0.5497  0.4544
  704TMC3     C10464   3.429   2.500  12.142  0.7105 -0.0637 -0.0293
  704TMC3     O10465   3.346   2.517  12.231  0.2971 -0.4392 -0.1600
  704TMC3     H10466   3.616   2.401  11.968 -1.1952  0.7981  0.3181
  704TMC3    H110467   3.480   2.372  12.371  1.2097  1.9156  1.4398
  704TMC3    H210468   3.884   2.286  12.273 -0.2162  0.2740  0.4509
  704TMC3    C710469   3.692   2.251  12.430  0.1106  0.9857  0.4112
  704TMC3    C810470   3.856   2.301  12.021 -0.6866  0.3133 -0.0006
  704TMC3    O110471   3.668   2.139  12.392  0.3698 -0.0157  0.5676
  704TMC3    O210472   3.920   2.203  12.061 -0.2126  0.1004  0.1971
  705MPD2     C10473   2.493   0.836  16.078  0.7497 -0.3555  0.3560
  705MPD2    C110474   2.518   0.958  16.138  0.7064 -0.2238  0.0535
  705MPD2    C210475   2.414   1.041  16.169  0.2472  0.3221  0.2131
  705MPD2    C310476   2.283   1.006  16.138 -0.1016 -0.8901  0.4564
  705MPD2    C410477   2.259   0.887  16.070 -0.5082  0.2439 -0.6341
  705MPD2    C510478   2.369   0.811  16.034  0.1226  0.6378 -0.2542
  705MPD2     H10479   2.433   1.141  16.207  0.6391 -0.7691  2.9243
  705MPD2    H110480   2.161   0.851  16.039 -0.1013 -0.8906 -0.6067
  705MPD2    H210481   2.573   0.780  16.033 -0.8171  0.6244 -3.6674
  705MPD2    H310482   2.356   0.711  15.994 -0.4008 -0.5871  2.9586
  705MPD2     N10483   2.173   1.089  16.167 -0.1820  0.3278 -0.4072
  705MPD2    H510484   2.084   1.040  16.156  0.2810 -0.5655 -0.1813
  705MPD2    N110485   2.643   1.001  16.172  0.4932  0.3390  0.4929
  705MPD2    H710486   2.652   1.095  16.209  1.1076 -0.0012  1.2238
  706TMC3    C110487   3.107   1.002  16.187 -0.0200  0.1291  0.1771
  706TMC3    C210488   3.109   1.139  16.176 -0.3658 -0.5038  0.0603
  706TMC3    C310489   2.997   1.204  16.208  1.3172 -0.4441  0.2155
  706TMC3    C410490   2.995   0.929  16.197 -0.7338 -0.8965 -0.1190
  706TMC3    C510491   2.877   1.001  16.203 -0.3013 -0.0567  0.8318
  706TMC3    C610492   2.875   1.138  16.223 -0.0723  0.3314  0.9467
  706TMC3     C10493   3.231   0.939  16.160 -0.2144  0.4275 -0.4499
  706TMC3     O10494   3.340   0.990  16.186  0.2327 -0.0162 -0.3280
  706TMC3     H10495   3.199   1.198  16.161  0.6027 -1.7560  0.8789
  706TMC3    H110496   3.005   0.821  16.200 -0.5115 -0.8137  2.2882
  706TMC3    H210497   2.781   1.194  16.219  0.3151  0.8362 -1.3448
  706TMC3    C710498   2.760   0.929  16.154 -0.2605  0.3752  0.3979
  706TMC3    C810499   2.995   1.345  16.193  0.1347  1.3005  0.1132
  706TMC3    O110500   2.782   0.811  16.126  0.3630  0.1698 -0.3159
  706TMC3    O210501   3.078   1.390  16.112  0.2228  0.0806  0.0574
  707TMC3    C110502   0.094   0.124   1.261 -0.2179  0.0550  0.1667
  707TMC3    C210503   0.033   0.012   1.315  0.0709 -0.0706  0.3966
  707TMC3    C310504   4.711   0.019   1.434  0.2176 -0.4128  0.1085
  707TMC3    C410505   0.068   0.250   1.311  0.1788  0.7188  0.2502
  707TMC3    C510506   4.736   0.256   1.427  0.0762 -0.6946  0.2656
  707TMC3    C610507   4.683   0.144   1.485 -0.2347 -0.1572  0.1582
  707TMC3     C10508   0.181   0.099   1.143  0.1095 -0.5782  0.1392
  707TMC3     O10509   0.211   4.725   1.116 -0.1011  0.0193  0.2224
  707TMC3     H10510   0.023   4.661   1.261  2.5879 -0.2521  0.2318
  707TMC3    H110511   0.121   0.330   1.261  1.8151 -0.2577  0.4421
  707TMC3    H210512   4.628   0.152   1.578  0.6703  2.1669  0.5097
  707TMC3    C710513   4.696   0.378   1.484 -0.4618 -0.1052 -0.0518
  707TMC3    C810514   4.701   4.638   1.505 -0.0305  0.1490 -0.0777
  707TMC3    O110515   4.581   0.387   1.524  0.3102 -0.8606  0.0859
  707TMC3    O210516   4.617   4.630   1.594 -0.6855 -0.2820  0.2315
  708MPD2     C10517   1.066   3.851  13.782  0.0889  0.4058  0.2254
  708MPD2    C110518   0.986   3.777  13.872  0.2333 -0.1856 -0.3421
  708MPD2    C210519   1.046   3.719  13.982 -0.5029 -0.9901  0.5431
  708MPD2    C310520   1.182   3.713  13.994  0.0217  0.3783 -0.1153
  708MPD2    C410521   1.258   3.779  13.904 -0.0622  0.2440  0.7662
  708MPD2    C510522   1.205   3.853  13.805 -0.2982 -0.0337  0.0882
  708MPD2     H10523   0.983   3.667  14.054  0.0095 -0.7953  1.1359
  708MPD2    H110524   1.366   3.776  13.913 -0.1026  0.4440  1.2696
  708MPD2    H210525   1.026   3.918  13.707  2.0149  0.7427 -0.4977
  708MPD2    H310526   1.271   3.927  13.759 -2.7170  1.0944 -1.6038
  708MPD2     N10527   1.254   3.657  14.101  0.1557 -0.0718  0.1436
  708MPD2    H510528   1.348   3.693  14.114  0.8451 -1.9754  0.5111
  708MPD2    N110529   0.846   3.780  13.845  0.7246 -0.4068  0.3132
  708MPD2    H710530   0.817   3.835  13.765  0.4193 -0.9219  0.0660
  709TMC3    C110531   0.621   3.787  13.935  0.9676 -0.3834 -0.2015
  709TMC3    C210532   0.586   3.897  13.849  0.8498 -0.2090  0.1505
  709TMC3    C310533   0.501   3.990  13.905  0.9417  0.8667 -0.2344
  709TMC3    C410534   0.564   3.768  14.060  0.7168  0.3987  0.3412
  709TMC3    C510535   0.487   3.867  14.111 -0.3309 -0.5974  0.0469
  709TMC3    C610536   0.457   3.978  14.035 -0.2715  0.6234  0.3226
  709TMC3     C10537   0.743   3.706  13.913  0.2322  0.3647  0.6810
  709TMC3     O10538   0.752   3.606  13.982 -0.2539  0.0823  0.4209
  709TMC3     H10539   0.625   3.911  13.749  0.6543  0.0111  0.1027
  709TMC3    H110540   0.599   3.690  14.126  1.0956  0.3945  0.1312
  709TMC3    H210541   0.414   4.064  14.083  1.1251  1.1200  0.6956
  709TMC3    C710542   0.532   3.889  14.247  0.0340  0.7943  0.5865
  709TMC3    C810543   0.484   4.118  13.840 -0.1829 -0.2974 -0.1245
  709TMC3    O110544   0.643   3.937  14.252  0.2437 -0.3017 -0.2897
  709TMC3    O210545   0.375   4.173  13.865  0.2903 -0.8271 -0.0221
  710TMC3    C110546   1.862   0.668   0.267 -0.4318  0.4417  0.1275
  710TMC3    C210547   1.878   0.631   0.139 -0.4515  0.4429  0.5072
  710TMC3    C310548   1.997   0.653   0.078  0.9502 -0.3567 -0.0285
  710TMC3    C410549   1.963   0.709   0.343  0.0392  0.3651  0.3022
  710TMC3    C510550   2.089   0.711   0.283  0.3613 -0.1425 -0.8934
  710TMC3    C610551   2.103   0.701   0.148  0.1517  0.4709  0.3063
  710TMC3     C10552   1.727   0.662   0.327  0.1225 -0.1245  0.4697
  710TMC3     O10553   1.654   0.572   0.284 -0.2237  0.0441  0.2666
  710TMC3     H10554   1.796   0.593   0.079 -1.0595  3.7637 -0.7948
  710TMC3    H110555   1.962   0.734   0.449 -0.2104  2.0168 -0.0888
  710TMC3    H210556   2.203   0.710   0.108 -0.5493 -0.1645 -1.5452
  710TMC3    C710557   2.201   0.718   0.368  0.1872  1.0817 -0.5275
  710TMC3    C810558   2.042   0.564  17.737 -0.4122 -0.2087 -0.7813
  710TMC3    O110559   2.201   0.675   0.483 -0.0363 -0.2357  0.0173
  710TMC3    O210560   2.117   0.624  17.661 -1.1480  0.2376  0.1812
  711TMC3    C110561   1.984   1.800  14.782 -0.2222  0.4044 -0.4308
  711TMC3    C210562   1.984   1.856  14.908 -0.0188 -0.8695  0.3481
  711TMC3    C310563   2.094   1.844  14.987  0.0244  0.0759 -0.3620
  711TMC3    C410564   2.087   1.724  14.741 -0.1508  0.0830 -0.3511
  711TMC3    C510565   2.196   1.703  14.820  0.3386  0.4055  0.2493
  711TMC3    C610566   2.208   1.776  14.941  0.0805 -0.1535 -0.4314
  711TMC3     C10567   1.862   1.755  14.727 -0.6280 -0.5533  0.3348
  711TMC3     O10568   1.871   1.657  14.654  0.1541 -0.1792 -0.1691
  711TMC3     H10569   1.897   1.910  14.946 -0.3244 -0.5546 -0.8037
  711TMC3    H110570   2.092   1.699  14.636  2.2867 -0.3460 -0.1448
  711TMC3    H210571   2.290   1.762  15.010 -0.3552  0.1248  0.1390
  711TMC3    C710572   2.258   1.576  14.819  0.0968 -0.5489 -0.2126
  711TMC3    C810573   2.082   1.888  15.128 -0.8619  0.3962  0.5242
  711TMC3    O110574   2.316   1.538  14.924  0.0441  0.5630  0.3071
  711TMC3    O210575   1.965   1.904  15.168  0.0201 -0.1746  0.3013
  712MPD2     C10576   3.885   2.397  14.056 -0.2544  0.1349 -0.6104
  712MPD2    C110577   3.799   2.489  14.082 -0.2149  0.3004 -0.1968
  712MPD2    C210578   3.815   2.617  14.025  0.6009 -0.8917 -0.1312
  712MPD2    C310579   3.917   2.651  13.941  0.2651 -0.9706  0.2500
  712MPD2    C410580   4.014   2.551  13.930 -0.3084  0.8346 -0.2077
  712MPD2    C510581   4.003   2.428  13.994  0.1060  0.3429  0.5404
  712MPD2     H10582   3.725   2.676  14.025  1.1657 -0.0308 -2.3535
  712MPD2    H110583   4.101   2.583  13.874 -1.2933  1.2294 -1.5014
  712MPD2    H210584   3.855   2.294  14.068 -0.0867  0.1460 -0.1161
  712MPD2    H310585   4.070   2.348  13.966 -1.2958 -0.9492  0.8511
  712MPD2     N10586   3.916   2.756  13.849 -0.6233  0.2569  0.1113
  712MPD2    H510587   4.003   2.777  13.800 -0.1914 -0.8761  0.3932
  712MPD2    N110588   3.672   2.461  14.135  0.1744  0.1653  0.9827
  712MPD2    H710589   3.610   2.541  14.131  0.4567  0.4665  2.6833
  713TMC3    C110590   3.806   2.929  13.710 -0.0232  0.0601  0.0257
  713TMC3    C210591   3.925   2.990  13.673 -0.1933  0.1684  0.0514
  713TMC3    C310592   3.917   3.090  13.581  0.8337 -0.2184 -0.0782
  713TMC3    C410593   3.678   2.972  13.668  0.6318 -1.1607  0.2633
  713TMC3    C510594   3.683   3.091  13.594  0.3842  0.2945 -0.5366
  713TMC3    C610595   3.799   3.145  13.549 -0.0882  0.4981  0.6794
  713TMC3     C10596   3.804   2.833  13.827 -0.2098  0.2590  0.4800
  713TMC3     O10597   3.690   2.827  13.873  0.5552  0.2633  0.0802
  713TMC3     H10598   4.017   2.954  13.718 -1.9204 -0.4298  3.1002
  713TMC3    H110599   3.592   2.913  13.696 -0.5225 -0.0443 -0.9372
  713TMC3    H210600   3.804   3.226  13.477  0.0206 -0.5820 -0.5384
  713TMC3    C710601   3.560   3.155  13.548 -0.0645 -0.2381 -0.0400
  713TMC3    C810602   4.038   3.154  13.541 -0.1133 -0.1564  0.2832
  713TMC3    O110603   3.564   3.218  13.443  0.0223  0.7370  0.6421
  713TMC3    O210604   4.026   3.230  13.445  0.3287  0.7047  0.0711
  714MPD2     C10605   0.577   1.561   1.628  0.1737  0.7781  0.4530
  714MPD2    C110606   0.587   1.492   1.516 -0.7206 -0.3682 -0.2196
  714MPD2    C210607   0.531   1.531   1.398  0.6324 -0.3300  0.0902
  714MPD2    C310608   0.456   1.648   1.393 -0.0846 -0.3825  0.4400
  714MPD2    C410609   0.457   1.724   1.514 -0.2822 -0.3308  0.0029
  714MPD2    C510610   0.523   1.683   1.627 -0.4770  0.1327 -0.1533
  714MPD2     H10611   0.570   1.489   1.306  1.4894  1.5450 -0.4079
  714MPD2    H110612   0.412   1.822   1.516  0.1947 -0.0941 -1.0183
  714MPD2    H210613   0.631   1.534   1.718 -0.1442  0.4125  0.5345
  714MPD2    H310614   0.534   1.755   1.707  0.2748 -0.1769  0.0135
  714MPD2     N10615   0.389   1.686   1.270 -0.0548  0.6374  0.1234
  714MPD2    H510616   0.390   1.619   1.194 -0.6465  1.0001 -0.2107
  714MPD2    N110617   0.663   1.377   1.524 -0.1135  0.1396 -0.5622
  714MPD2    H710618   0.711   1.368   1.613 -0.5922 -1.2345 -0.4427
  715TMC3    C110619   0.801   1.192   1.469 -0.6191 -0.1388  0.1726
  715TMC3    C210620   0.820   1.073   1.408 -0.2590  0.3517 -0.4083
  715TMC3    C310621   0.939   1.007   1.437 -0.2634 -0.2975  0.1031
  715TMC3    C410622   0.895   1.251   1.554  0.0699  0.0584 -0.6546
  715TMC3    C510623   1.009   1.176   1.582  0.3370  0.8883  0.6239
  715TMC3    C610624   1.036   1.061   1.522 -0.2280  0.6077 -0.1303
  715TMC3     C10625   0.690   1.280   1.433 -0.1366 -0.4021 -0.1799
  715TMC3     O10626   0.627   1.262   1.328 -0.4923  0.3447 -0.3524
  715TMC3     H10627   0.745   1.038   1.338  0.2967 -0.2829 -0.6862
  715TMC3    H110628   0.886   1.353   1.589  0.0331  0.5738 -2.1467
  715TMC3    H210629   1.133   1.012   1.518 -0.1468  0.6722  0.9740
  715TMC3    C710630   1.102   1.230   1.684  0.1465 -1.2667  0.1371
  715TMC3    C810631   0.980   0.878   1.377 -0.0844  0.0128 -0.1417
  715TMC3    O110632   1.220   1.192   1.685 -0.2401  0.2901 -0.8118
  715TMC3    O210633   0.917   0.846   1.279 -0.6460 -0.5775  0.3535
  716MPD2     C10634   1.196   3.935  10.371  0.1837 -0.2170 -0.2002
  716MPD2    C110635   1.177   3.913  10.242  0.2482  0.0746 -0.3803
  716MPD2    C210636   1.194   3.785  10.194  0.2283 -0.2008  0.2751
  716MPD2    C310637   1.219   3.680  10.274 -0.5548  0.6040 -0.0999
  716MPD2    C410638   1.228   3.701  10.410  0.4862  0.1368  0.0350
  716MPD2    C510639   1.232   3.828  10.457  0.2533  0.1869  0.5271
  716MPD2     H10640   1.208   3.762  10.089 -1.1232 -1.5469  0.3930
  716MPD2    H110641   1.256   3.620  10.476 -1.8055 -1.4222 -0.9275
  716MPD2    H210642   1.197   4.035  10.414 -0.4069 -0.7730  1.1000
  716MPD2    H310643   1.252   3.855  10.560 -3.8403  0.1568  1.3461
  716MPD2     N10644   1.224   3.557  10.200 -0.6508  0.1813 -0.6217
  716MPD2    H510645   1.215   3.560  10.099 -0.6558 -3.7780 -0.7522
  716MPD2    N110646   1.146   4.023  10.160  0.6738 -0.0096 -0.2480
  716MPD2    H710647   1.119   4.111  10.202  0.6688 -0.4279  0.6348
  717TMC3    C110648   1.237   3.320  10.170 -0.1902  0.9568 -0.4971
  717TMC3    C210649   1.172   3.358  10.048 -0.0357  1.3009  0.8916
  717TMC3    C310650   1.210   3.289   9.944  0.3016 -0.4306  0.4548
  717TMC3    C410651   1.316   3.209  10.188  0.1425 -0.1238 -0.5700
  717TMC3    C510652   1.330   3.131  10.080  0.1662 -0.4008 -0.7330
  717TMC3    C610653   1.280   3.172   9.960 -0.5103 -0.6478 -0.1388
  717TMC3     C10654   1.257   3.435  10.259  0.1060  0.1163 -0.2792
  717TMC3     O10655   1.292   3.403  10.371  0.3209  0.2163 -0.1851
  717TMC3     H10656   1.099   3.438  10.043 -0.4983  0.9572  2.1708
  717TMC3    H110657   1.349   3.183  10.288 -2.7654 -0.8498  0.1964
  717TMC3    H210658   1.299   3.104   9.877 -2.4791 -2.0913  0.6018
  717TMC3    C710659   1.412   3.011  10.080  0.6083  0.0257 -0.1969
  717TMC3    C810660   1.205   3.371   9.825 -0.1761  0.1379  0.2566
  717TMC3    O110661   1.416   2.933   9.983  0.0578  0.0154 -0.0784
  717TMC3    O210662   1.204   3.492   9.841  0.5739  0.1572  0.1718
  718MPD2     C10663   0.862   2.400  13.181 -1.3427  0.5478 -0.7594
  718MPD2    C110664   0.831   2.533  13.150 -0.1729  0.2249  0.4827
  718MPD2    C210665   0.705   2.577  13.197  0.0284  0.1688 -0.9100
  718MPD2    C310666   0.615   2.492  13.267  0.5941  0.0144 -0.5307
  718MPD2    C410667   0.656   2.365  13.300  0.5935  0.1322 -0.8228
  718MPD2    C510668   0.777   2.323  13.262 -0.6256 -0.3393  0.6206
  718MPD2     H10669   0.676   2.676  13.163 -4.2109 -0.2361  1.5885
  718MPD2    H110670   0.603   2.296  13.365  0.9733 -0.8921 -1.5934
  718MPD2    H210671   0.958   2.361  13.151 -1.2140  0.7191 -0.5685
  718MPD2    H310672   0.811   2.224  13.292 -0.4925 -0.7892 -1.0450
  718MPD2     N10673   0.489   2.551  13.296  0.3109 -0.9542 -0.1647
  718MPD2    H510674   0.487   2.651  13.276  2.4089 -1.6159 -3.6443
  718MPD2    N110675   0.921   2.606  13.072 -0.3633 -0.0709 -0.0222
  718MPD2    H710676   1.004   2.564  13.034 -0.3311 -0.4031  0.4191
  719TMC3    C110677   1.005   2.770  12.940 -0.0409  0.5699 -0.2023
  719TMC3    C210678   0.922   2.764  12.830  0.1266 -0.1075  0.0890
  719TMC3    C310679   0.909   2.877  12.752 -0.0865  0.3425 -0.7718
  719TMC3    C410680   1.064   2.890  12.973 -0.5639  0.3185 -0.8498
  719TMC3    C510681   1.052   2.999  12.884  0.1022 -0.5761  0.4523
  719TMC3    C610682   0.982   2.991  12.773 -0.7817  0.0279 -1.0058
  719TMC3     C10683   0.912   2.737  13.047  0.4995 -0.2455  0.3329
  719TMC3     O10684   0.857   2.823  13.112 -0.3877 -0.6059 -0.7084
  719TMC3     H10685   0.856   2.679  12.819 -2.4986  2.2768 -2.4111
  719TMC3    H110686   1.135   2.884  13.055 -2.2578  1.8539  0.7087
  719TMC3    H210687   0.970   3.074  12.705  4.1181  0.9028 -0.8135
  719TMC3    C710688   1.151   3.107  12.904 -0.5559  0.1239  0.0470
  719TMC3    C810689   0.770   2.902  12.748  0.6245 -0.5386 -0.0527
  719TMC3    O110690   1.210   3.112  13.011  0.8044  0.5385 -0.1887
  719TMC3    O210691   0.687   2.814  12.712 -0.4474  0.0680  0.6389
  720MPD2     C10692   3.745   4.587  14.076  1.1884  0.0442  1.1160
  720MPD2    C110693   3.863   4.596  13.997 -0.4520  0.1770 -0.3416
  720MPD2    C210694   3.975   4.553  14.052 -0.6388 -0.3913 -0.5918
  720MPD2    C310695   3.982   4.507  14.183  0.1568 -0.1333  0.0183
  720MPD2    C410696   3.869   4.502  14.256  0.5124 -0.0717 -0.0633
  720MPD2    C510697   3.752   4.543  14.203  0.0349  0.0286  0.5304
  720MPD2     H10698   4.064   4.568  13.992 -0.2649 -2.0723 -0.4650
  720MPD2    H110699   3.859   4.442  14.346 -2.8166  0.4175 -0.1374
  720MPD2    H210700   3.646   4.604  14.037  1.8177 -0.5288 -0.7342
  720MPD2    H310701   3.665   4.519  14.263 -1.4203  1.0909 -1.1954
  720MPD2     N10702   4.102   4.459  14.227 -0.4449  0.1763 -0.2224
  720MPD2    H510703   4.187   4.481  14.176 -1.3381  1.3458 -1.2007
  720MPD2    N110704   3.859   4.640  13.858  0.0581  0.3573 -0.1040
  720MPD2    H710705   3.944   4.620  13.806  0.9444 -2.3021  2.3787
  721TMC3    C110706   4.255   4.413  14.405 -1.0539  0.0647  0.1411
  721TMC3    C210707   4.238   4.407  14.544  0.2733 -1.0364 -0.3906
  721TMC3    C310708   4.339   4.364  14.616  0.9734 -0.0877 -0.1027
  721TMC3    C410709   4.364   4.368  14.345  0.0697 -0.2265 -0.0656
  721TMC3    C510710   4.466   4.331  14.425  0.1527  0.1245 -0.7189
  721TMC3    C610711   4.450   4.316  14.560  0.0883  0.1269  1.3409
  721TMC3     C10712   4.121   4.399  14.352 -0.5462  0.3640  0.9460
  721TMC3     O10713   4.035   4.354  14.433 -0.0386 -0.1381  0.2808
  721TMC3     H10714   4.157   4.458  14.595 -0.8049 -0.1137 -3.0411
  721TMC3    H110715   4.380   4.363  14.238 -2.0596 -2.5574 -0.2859
  721TMC3    H210716   4.531   4.290  14.626  1.5126  0.8737 -0.0973
  721TMC3    C710717   4.588   4.298  14.370 -0.2403 -0.1086  0.0892
  721TMC3    C810718   4.337   4.386  14.763  0.1956  0.3843 -0.2268
  721TMC3    O110719   4.631   4.367  14.275 -0.3526 -0.0691  0.2063
  721TMC3    O210720   4.441   4.362  14.821 -0.3122  0.7615 -0.7488
  722MPD2     C10721   2.752   3.169  12.907 -0.3590  0.7650  0.2581
  722MPD2    C110722   2.729   3.213  13.036  0.0571 -0.8035 -0.1795
  722MPD2    C210723   2.632   3.146  13.114  0.4705  0.3731  0.2999
  722MPD2    C310724   2.569   3.034  13.065  0.2334  0.3691 -1.0658
  722MPD2    C410725   2.602   2.980  12.942  0.0497  0.5028 -0.4727
  722MPD2    C510726   2.689   3.051  12.866  0.4005 -0.7336 -0.4237
  722MPD2     H10727   2.596   3.182  13.210  0.3527  3.1722 -0.8047
  722MPD2    H110728   2.564   2.880  12.924  1.5762  0.0905 -1.3748
  722MPD2    H210729   2.832   3.198  12.840 -0.4479 -1.5952 -0.8621
  722MPD2    H310730   2.722   3.009  12.772  0.1471  1.5491 -1.5026
  722MPD2     N10731   2.471   2.979  13.152  0.3427 -0.3518  0.8531
  722MPD2    H510732   2.456   3.030  13.239  0.4126  1.1355  0.0063
  722MPD2    N110733   2.796   3.326  13.097 -0.6992  1.4270  0.0734
  722MPD2    H710734   2.775   3.350  13.193 -0.9590 -0.4538  0.4813
  723TMC3    C110735   2.325   2.824  13.248 -0.0132  0.2111 -0.2111
  723TMC3    C210736   2.229   2.729  13.237  1.4543  0.0756 -0.2617
  723TMC3    C310737   2.169   2.690  13.358 -1.1744 -0.7161 -0.1522
  723TMC3    C410738   2.375   2.873  13.362  0.2415 -0.1309  0.0851
  723TMC3    C510739   2.329   2.805  13.477  0.0773 -0.0052 -0.4056
  723TMC3    C610740   2.230   2.715  13.478 -0.0956  0.1025  0.8422
  723TMC3     C10741   2.391   2.863  13.127 -0.0830  0.8993 -0.3042
  723TMC3     O10742   2.395   2.774  13.046 -0.0320 -0.1354 -0.0476
  723TMC3     H10743   2.185   2.694  13.144 -0.4992  0.4027  0.5362
  723TMC3    H110744   2.466   2.930  13.375 -0.1179  0.6719 -0.9649
  723TMC3    H210745   2.182   2.676  13.568 -1.7106  2.8958  1.1694
  723TMC3    C710746   2.360   2.861  13.609  0.3300 -1.0866  0.0938
  723TMC3    C810747   2.070   2.584  13.359  0.2025  0.2607  0.2862
  723TMC3    O110748   2.353   2.792  13.711 -0.7252 -0.5341 -0.2163
  723TMC3    O210749   2.015   2.563  13.465 -0.4238 -0.1644 -1.0226
  724TMC3    C110750   3.520   1.022  10.112  0.4788 -0.6235 -0.5329
  724TMC3    C210751   3.471   1.073  10.001 -0.6411  0.2694 -0.2942
  724TMC3    C310752   3.525   1.193   9.947 -0.2993 -0.2568  0.4445
  724TMC3    C410753   3.617   1.089  10.184 -0.1240  0.2582 -0.7010
  724TMC3    C510754   3.665   1.209  10.129 -0.3686  0.3620  0.8152
  724TMC3    C610755   3.619   1.261  10.012  0.2126  0.5419  0.3605
  724TMC3     C10756   3.509   0.877  10.120 -0.2065  0.8809  0.4447
  724TMC3     O10757   3.469   0.816  10.019 -0.3433  0.5159 -0.2940
  724TMC3     H10758   3.400   1.016   9.942  1.2267 -0.1670 -2.1531
  724TMC3    H110759   3.656   1.053  10.278 -1.9561 -1.0724 -0.4429
  724TMC3    H210760   3.662   1.354   9.976  0.1843  0.2755 -0.3575
  724TMC3    C710761   3.699   1.313  10.222 -0.4398  0.5830 -0.4266
  724TMC3    C810762   3.447   1.267   9.857 -0.1849 -0.2311 -0.0205
  724TMC3    O110763   3.663   1.425  10.187  0.2023 -0.1044 -0.2791
  724TMC3    O210764   3.379   1.204   9.780 -0.0356 -0.0414  0.3234
  725TMC3    C110765   4.222   0.372  12.837  0.0664 -0.5367  0.1055
  725TMC3    C210766   4.197   0.378  12.698  0.9840 -0.1207  0.2008
  725TMC3    C310767   4.201   0.257  12.635 -0.5299 -0.1605 -0.2920
  725TMC3    C410768   4.245   0.261  12.904  0.0092  0.2115  0.2098
  725TMC3    C510769   4.250   0.138  12.834 -0.2223  0.5238 -1.1348
  725TMC3    C610770   4.226   0.141  12.699  0.0901 -0.2856 -0.0903
  725TMC3     C10771   4.237   0.490  12.917 -0.3151 -0.0069 -0.3861
  725TMC3     O10772   4.320   0.486  13.009  0.0556  0.0708 -0.5741
  725TMC3     H10773   4.189   0.474  12.649  1.2903  0.8305  1.9859
  725TMC3    H110774   4.256   0.273  13.011 -1.4093  1.2770  0.2322
  725TMC3    H210775   4.222   0.048  12.643 -0.9684 -0.5134  0.3561
  725TMC3    C710776   4.332   0.029  12.874  0.6495  0.7341 -0.0414
  725TMC3    C810777   4.192   0.252  12.496 -0.0163  0.6621  0.6866
  725TMC3    O110778   4.318   4.672  12.803  0.4863  0.4738 -0.3963
  725TMC3    O210779   4.165   0.140  12.451  0.4700  0.1696 -0.3953
  726MPD2     C10780   2.902   1.092  10.446  0.6776 -0.7412  0.2481
  726MPD2    C110781   2.793   1.168  10.489  0.4143 -0.8406  0.5686
  726MPD2    C210782   2.695   1.104  10.564 -0.6558 -0.0199 -0.1419
  726MPD2    C310783   2.690   0.967  10.588  0.0452  0.1739 -0.1518
  726MPD2    C410784   2.794   0.898  10.526 -0.2369 -0.2540 -0.5601
  726MPD2    C510785   2.895   0.956  10.456 -0.8064 -0.8413 -0.3300
  726MPD2     H10786   2.604   1.158  10.589  0.2471  1.1077  0.7280
  726MPD2    H110787   2.789   0.789  10.525  2.0415 -0.3648  1.1545
  726MPD2    H210788   2.983   1.124  10.382  0.0658 -1.4712 -0.8962
  726MPD2    H310789   2.960   0.897  10.393  0.0011 -0.0816 -0.2233
  726MPD2     N10790   2.585   0.905  10.664 -0.5094  0.3771  0.7392
  726MPD2    H510791   2.572   0.805  10.651  1.3130  0.5580 -2.5155
  726MPD2    N110792   2.775   1.305  10.461 -0.2176  0.1962 -0.2362
  726MPD2    H710793   2.687   1.347  10.490  0.4443  1.1556  0.3944
  727TMC3    C110794   2.778   1.481  10.317  0.1410  0.1279 -0.0343
  727TMC3    C210795   2.732   1.575  10.397 -0.1108  0.5124  0.7601
  727TMC3    C310796   2.668   1.682  10.343 -0.5692 -0.5407  0.5339
  727TMC3    C410797   2.746   1.462  10.188  0.6728  0.1080 -0.1970
  727TMC3    C510798   2.691   1.574  10.129  0.4101  0.2104 -0.0017
  727TMC3    C610799   2.652   1.683  10.204  0.8041  0.1799 -0.4450
  727TMC3     C10800   2.848   1.374  10.372  1.0492  0.0848 -0.2083
  727TMC3     O10801   2.949   1.349  10.304  0.1418 -0.4178 -0.5614
  727TMC3     H10802   2.772   1.575  10.498 -0.2753 -1.3261  0.8231
  727TMC3    H110803   2.780   1.377  10.131  0.2545  1.0429 -1.8279
  727TMC3    H210804   2.614   1.772  10.157 -1.6995  0.3203  1.8302
  727TMC3    C710805   2.637   1.564   9.993 -0.4630 -0.0612 -0.1902
  727TMC3    C810806   2.711   1.805  10.408 -0.0918 -0.6775  0.1674
  727TMC3    O110807   2.685   1.477   9.923 -0.2218 -0.2684  0.4681
  727TMC3    O210808   2.756   1.805  10.520  0.5019  0.0489 -0.8131
  728TMC3    C110809   1.411   0.257  14.857 -0.1127 -1.1521 -0.2595
  728TMC3    C210810   1.525   0.285  14.786 -0.4814  1.0151  0.1260
  728TMC3    C310811   1.508   0.362  14.669 -0.2562 -0.0782  0.2350
  728TMC3    C410812   1.296   0.324  14.833  0.3682  0.2874 -0.2918
  728TMC3    C510813   1.287   0.404  14.723  0.0631  0.2313 -0.0933
  728TMC3    C610814   1.387   0.419  14.637 -0.0624 -0.8150  0.0625
  728TMC3     C10815   1.440   0.235  14.994 -0.2205 -0.6524 -0.5728
  728TMC3     O10816   1.541   0.293  15.035  0.0797 -0.6693 -0.1914
  728TMC3     H10817   1.617   0.230  14.800 -1.9288 -2.2166 -3.0071
  728TMC3    H110818   1.214   0.329  14.904  0.6589  0.9897 -0.0081
  728TMC3    H210819   1.383   0.482  14.549  1.9856  0.3103  0.7759
  728TMC3    C710820   1.168   0.489  14.717  0.2204  0.1087 -0.3253
  728TMC3    C810821   1.624   0.419  14.599 -0.1735 -0.2673  0.5958
  728TMC3    O110822   1.065   0.444  14.767  0.3577  0.3282 -0.1455
  728TMC3    O210823   1.619   0.488  14.495  0.2888 -0.0710  0.4600
  729MPD2     C10824   3.201   0.995  16.575 -0.4976  0.1289  0.5650
  729MPD2    C110825   3.202   1.133  16.574  0.1120  0.0664  0.2735
  729MPD2    C210826   3.129   1.197  16.670 -0.3215 -0.4062 -0.4135
  729MPD2    C310827   3.065   1.128  16.773 -0.1373  0.1895 -0.8536
  729MPD2    C410828   3.077   0.990  16.778 -0.1543  0.0753  0.2926
  729MPD2    C510829   3.144   0.928  16.678 -0.6987  0.4162 -0.2650
  729MPD2     H10830   3.141   1.304  16.659 -1.3601 -0.3385 -0.9015
  729MPD2    H110831   3.030   0.937  16.860  0.2169  1.3329  1.3259
  729MPD2    H210832   3.249   0.939  16.496 -1.4988  0.7012 -0.4541
  729MPD2    H310833   3.151   0.820  16.676 -1.0165  0.4193 -1.5120
  729MPD2     N10834   3.001   1.195  16.876 -0.4422 -0.0861 -0.8020
  729MPD2    H510835   2.989   1.153  16.967 -2.4881  1.0121 -0.5691
  729MPD2    N110836   3.283   1.193  16.482  0.1914 -0.1725 -0.2249
  729MPD2    H710837   3.360   1.139  16.445  1.4579  1.4551  0.0024
  730TMC3    C110838   2.942   1.380  16.989  1.0410  0.2801 -0.4270
  730TMC3    C210839   3.028   1.349  17.093 -0.1559  0.7064  0.0087
  730TMC3    C310840   3.022   1.441  17.198 -0.1864  0.0539  0.5537
  730TMC3    C410841   2.863   1.491  16.997 -0.7369 -0.9698  0.3020
  730TMC3    C510842   2.858   1.572  17.105  0.0607 -0.4183  0.2686
  730TMC3    C610843   2.929   1.540  17.215 -0.1942 -0.3800  0.0240
  730TMC3     C10844   2.963   1.324  16.857  0.1621  0.0165  0.6739
  730TMC3     O10845   2.952   1.398  16.759  0.3764 -0.1596 -0.5475
  730TMC3     H10846   3.106   1.275  17.081 -1.1337 -0.3087 -0.1014
  730TMC3    H110847   2.817   1.535  16.909 -0.1815  1.6310  1.3029
  730TMC3    H210848   2.921   1.593  17.310  1.2886 -0.4625  0.1903
  730TMC3    C710849   2.847   1.714  17.078  0.5768  0.0262 -0.0354
  730TMC3    C810850   3.156   1.489  17.216  0.0911 -0.5451 -0.1847
  730TMC3    O110851   2.898   1.763  16.976 -0.2617  0.9917 -0.2275
  730TMC3    O210852   3.243   1.425  17.162 -0.2435 -0.5589  0.2449
  731MPD2     C10853   4.106   4.409  12.280  0.0123 -0.2078 -0.0327
  731MPD2    C110854   4.028   4.335  12.193 -0.7181  0.8175  0.2731
  731MPD2    C210855   3.896   4.302  12.226  0.3790 -0.8078 -0.0498
  731MPD2    C310856   3.849   4.337  12.352  0.1123 -0.1528  0.0216
  731MPD2    C410857   3.930   4.403  12.432  0.9755  0.8758  0.4315
  731MPD2    C510858   4.058   4.438  12.404  0.0127  0.7332 -0.3554
  731MPD2     H10859   3.831   4.247  12.158  2.4866  0.1366 -2.8099
  731MPD2    H110860   3.898   4.416  12.535 -1.6224 -1.3070 -0.0877
  731MPD2    H210861   4.201   4.453  12.255 -0.8626  1.2715 -0.7042
  731MPD2    H310862   4.127   4.480  12.476  1.3517 -1.9998 -0.0374
  731MPD2     N10863   3.722   4.291  12.397  0.4817  0.7873 -0.2293
  731MPD2    H510864   3.677   4.219  12.342 -0.7985  0.4740  1.2129
  731MPD2    N110865   4.095   4.304  12.072  0.2687 -0.3204  0.2005
  731MPD2    H710866   4.192   4.330  12.054  0.0446  1.0179  0.9250
  732TMC3    C110867   4.117   4.261  11.846  0.9653 -0.4229 -1.0161
  732TMC3    C210868   4.050   4.216  11.739  0.0886 -0.1263  0.2561
  732TMC3    C310869   4.099   4.114  11.659 -0.3407  0.3282 -0.0342
  732TMC3    C410870   4.226   4.193  11.877  0.0555 -0.7158 -0.6038
  732TMC3    C510871   4.289   4.113  11.782 -0.0899  0.2290  0.5975
  732TMC3    C610872   4.214   4.057  11.684  0.0062  0.1763  0.2854
  732TMC3     C10873   4.031   4.267  11.959  0.8870 -0.0811 -0.3475
  732TMC3     O10874   3.912   4.243  11.935 -0.3728 -0.2357 -0.0904
  732TMC3     H10875   3.971   4.281  11.704  0.7877  0.9109  0.6278
  732TMC3    H110876   4.285   4.216  11.964 -1.7837  2.0443 -0.0819
  732TMC3    H210877   4.261   3.986  11.617  0.0655 -1.1064  1.6883
  732TMC3    C710878   4.430   4.080  11.793  0.6752  0.0390  0.1673
  732TMC3    C810879   4.002   4.026  11.597  0.2000 -0.2794 -0.4140
  732TMC3    O110880   4.486   4.037  11.694 -0.9258 -0.1679 -0.1983
  732TMC3    O210881   4.045   3.931  11.531 -0.2828  0.3225  0.3926
  733TMC3    C110882   0.033   2.620  13.257  0.0306  0.4649 -0.0851
  733TMC3    C210883   0.142   2.545  13.306  0.1620 -0.0598 -0.0732
  733TMC3    C310884   0.269   2.586  13.284  0.6222  0.4204  0.1482
  733TMC3    C410885   0.057   2.731  13.180  0.0565  0.3116  0.4902
  733TMC3    C510886   0.191   2.775  13.165 -0.2432  0.2422  0.3782
  733TMC3    C610887   0.293   2.699  13.216  0.3441  0.3418  1.3232
  733TMC3     C10888   4.632   2.573  13.266  0.2447  0.0389 -0.0203
  733TMC3     O10889   4.550   2.664  13.256 -0.8539  0.2160  0.0830
  733TMC3     H10890   0.125   2.456  13.366 -3.9868 -1.1091 -2.8210
  733TMC3    H110891   4.722   2.794  13.135  1.5335  1.9745  0.2877
  733TMC3    H210892   0.388   2.748  13.200  0.4807 -0.4669 -0.3885
  733TMC3    C710893   0.214   2.888  13.075 -0.4155 -0.0356  0.5530
  733TMC3    C810894   0.369   2.496  13.331  0.4742 -0.4875  0.3524
  733TMC3    O110895   0.141   2.984  13.065 -0.2852 -0.3561 -0.7691
  733TMC3    O210896   0.338   2.388  13.379 -0.8069 -0.4685  0.6372
  734MPD2     C10897   2.100   0.564  12.017 -0.2311  0.5402 -0.4325
  734MPD2    C110898   2.184   0.452  12.002 -0.1686 -0.6377  0.8854
  734MPD2    C210899   2.314   0.464  11.954  0.5808 -0.4489  0.3515
  734MPD2    C310900   2.355   0.591  11.913 -0.5839  1.0435 -0.7261
  734MPD2    C410901   2.267   0.694  11.915  0.0715  0.5630 -0.7230
  734MPD2    C510902   2.138   0.686  11.973  0.0864 -0.3317 -0.0407
  734MPD2     H10903   2.381   0.380  11.937  0.8861  0.1054 -1.2566
  734MPD2    H110904   2.290   0.793  11.879  0.1116  0.7098 -0.2984
  734MPD2    H210905   1.997   0.570  12.048 -0.4580 -1.8055 -0.7322
  734MPD2    H310906   2.070   0.769  11.979  2.9208  2.0036 -0.0766
  734MPD2     N10907   2.468   0.597  11.834  0.4711 -0.3309 -0.2287
  734MPD2    H510908   2.515   0.510  11.808 -2.5325 -2.1820  0.5794
  734MPD2    N110909   2.135   0.323  12.039  0.0657  0.0679 -0.7110
  734MPD2    H710910   2.035   0.321  12.056  0.3740  1.5692  1.2853
  735TMC3    C110911   2.135   0.083  12.090 -0.3044  0.5065  0.2063
  735TMC3    C210912   2.064   0.057  11.974 -0.9922 -0.3269 -0.1903
  735TMC3    C310913   2.057   4.668  11.935  0.5979  0.2946  0.1185
  735TMC3    C410914   2.190   4.717  12.163 -0.9530 -0.0864  0.1314
  735TMC3    C510915   2.180   4.588  12.114  0.3029 -0.1290  0.1323
  735TMC3    C610916   2.108   4.561  12.002  0.9572 -0.6654  0.4640
  735TMC3     C10917   2.214   0.210  12.075 -0.6091 -0.0974 -0.0336
  735TMC3     O10918   2.333   0.202  12.100 -0.5833 -0.4546  0.6421
  735TMC3     H10919   2.016   0.135  11.916  1.1501  2.6308  1.9918
  735TMC3    H110920   2.253   4.733  12.250  0.2328 -0.0120 -0.7405
  735TMC3    H210921   2.104   4.459  11.966  1.1723 -0.4080 -0.2926
  735TMC3    C710922   2.295   4.504  12.120  0.1439  0.4428  0.1774
  735TMC3    C810923   2.073   4.663  11.791  0.1530 -0.6775 -0.7245
  735TMC3    O110924   2.322   4.439  12.023  0.4353  0.0489 -0.2108
  735TMC3    O210925   2.035   4.572  11.724  0.8656 -0.4312 -0.2896
  736MPD2     C10926   2.499   4.408  12.408  0.6007  0.0093 -0.7532
  736MPD2    C110927   2.473   4.443  12.279 -0.2497 -0.4316 -0.8914
  736MPD2    C210928   2.571   4.427  12.182 -0.0875  0.4299  0.1764
  736MPD2    C310929   2.689   4.362  12.210 -0.5417 -0.2152 -0.0229
  736MPD2    C410930   2.719   4.338  12.340  0.0003  0.1023  0.0325
  736MPD2    C510931   2.627   4.367  12.434 -0.3395 -0.2508  0.3013
  736MPD2     H10932   2.560   4.459  12.079 -3.5085 -0.3998  0.3152
  736MPD2    H110933   2.807   4.291  12.383 -0.0353 -0.4355 -0.4774
  736MPD2    H210934   2.428   4.411  12.489  2.6654  1.1654  1.0379
  736MPD2    H310935   2.649   4.330  12.533  1.0123  4.1565  1.6336
  736MPD2     N10936   2.777   4.340  12.105 -1.0964 -0.3365 -0.0849
  736MPD2    H510937   2.743   4.371  12.014 -3.3040 -1.7849  0.2496
  736MPD2    N110938   2.341   4.484  12.252 -0.0328  0.6211 -0.8140
  736MPD2    H710939   2.279   4.507  12.328  0.3262  0.8051 -0.5798
  737TMC3    C110940   2.944   4.254  11.978  0.0446 -0.0961  0.2717
  737TMC3    C210941   2.962   4.379  11.921 -0.2837  0.2515  0.3526
  737TMC3    C310942   3.016   4.381  11.792 -0.9146  0.7599  0.4468
  737TMC3    C410943   2.986   4.141  11.914  0.0350 -0.5264 -0.1133
  737TMC3    C510944   3.049   4.151  11.794  0.1150  0.2579 -1.1039
  737TMC3    C610945   3.054   4.268  11.729  0.3429  0.3019 -0.2443
  737TMC3     C10946   2.887   4.255  12.108  0.5001 -0.5190 -0.5164
  737TMC3     O10947   2.929   4.179  12.196  0.6676 -0.3744 -0.7319
  737TMC3     H10948   2.944   4.470  11.977  1.9059  2.1948 -2.1324
  737TMC3    H110949   2.991   4.044  11.962 -1.2214 -1.1948 -1.3323
  737TMC3    H210950   3.055   4.273  11.620  0.0924 -2.6734 -0.3896
  737TMC3    C710951   3.102   4.042  11.722 -0.2379  0.3991  0.3832
  737TMC3    C810952   3.025   4.512  11.730 -0.3337  0.5359  0.7716
  737TMC3    O110953   3.035   3.941  11.724  0.1840  0.4704 -0.5371
  737TMC3    O210954   2.962   4.607  11.775  0.4799  0.7004  0.1381
  738MPD2     C10955   2.357   3.467  14.900 -1.0423  0.2473  0.4421
  738MPD2    C110956   2.470   3.426  14.967  0.3170 -0.1533  0.1583
  738MPD2    C210957   2.566   3.513  15.015 -0.0302  0.0045  1.0138
  738MPD2    C310958   2.538   3.648  15.005  0.0379  0.0258  0.5075
  738MPD2    C410959   2.425   3.685  14.929 -0.9249  0.0047 -0.6890
  738MPD2    C510960   2.345   3.595  14.869 -0.4388 -0.1290  0.6427
  738MPD2     H10961   2.663   3.481  15.051  0.0134 -1.3602 -0.3364
  738MPD2    H110962   2.417   3.790  14.902 -0.4678 -0.3444 -2.1829
  738MPD2    H210963   2.285   3.397  14.861 -0.1194 -0.2327 -0.4114
  738MPD2    H310964   2.264   3.634  14.807 -2.0499 -2.0018  1.5651
  738MPD2     N10965   2.631   3.745  15.039 -0.0397 -0.5596  0.2422
  738MPD2    H510966   2.648   3.833  14.991 -2.5117 -0.0293  0.3784
  738MPD2    N110967   2.502   3.291  14.975 -0.1937  1.0902 -0.2467
  738MPD2    H710968   2.586   3.271  15.028 -0.4713 -0.2390 -0.3085
  739TMC3    C110969   2.851   3.804  15.097 -0.4255 -0.4539 -0.1836
  739TMC3    C210970   2.890   3.810  14.967 -0.0049 -0.0417  0.1127
  739TMC3    C310971   3.026   3.829  14.942  0.1636  0.4157  0.0876
  739TMC3    C410972   2.944   3.810  15.197  0.3918  0.6822 -0.6500
  739TMC3    C510973   3.072   3.848  15.168  0.3904 -0.0741 -0.4746
  739TMC3    C610974   3.112   3.864  15.041  0.3420 -0.9226 -0.5177
  739TMC3     C10975   2.733   3.720  15.125 -0.2839 -0.0694  0.3210
  739TMC3     O10976   2.729   3.647  15.224 -0.4589  0.8321  0.1714
  739TMC3     H10977   2.830   3.754  14.896  0.1799  0.0137 -0.0892
  739TMC3    H110978   2.900   3.802  15.296  3.2979  0.0823  0.5856
  739TMC3    H210979   3.216   3.886  15.021  0.6382 -1.5193  0.3310
  739TMC3    C710980   3.150   3.908  15.269  0.5498 -0.0502  0.0960
  739TMC3    C810981   3.066   3.822  14.806 -0.4483 -0.1430 -0.0612
  739TMC3    O110982   3.243   3.979  15.240 -0.0663 -0.2814  0.0959
  739TMC3    O210983   2.970   3.791  14.736 -0.1812  0.3698  0.4727
  740TMC3    C110984   3.364   0.145  14.456 -0.0921  0.4283  0.1683
  740TMC3    C210985   3.359   0.094  14.580  0.5413  0.7852 -0.5213
  740TMC3    C310986   3.474   0.042  14.634 -0.3414  0.4472  0.0392
  740TMC3    C410987   3.482   0.146  14.383 -0.1431  0.2797 -0.0459
  740TMC3    C510988   3.591   0.084  14.437  0.2195 -0.1533 -0.8549
  740TMC3    C610989   3.592   0.034  14.570 -0.1499  0.1952 -0.1311
  740TMC3     C10990   3.241   0.190  14.390  0.3730 -0.2622 -0.4320
  740TMC3     O10991   3.259   0.244  14.281  0.3654  0.5228 -0.1677
  740TMC3     H10992   3.270   0.097  14.640  1.7321  0.7637  1.2529
  740TMC3    H110993   3.476   0.180  14.280  0.2595  0.5731  0.0281
  740TMC3    H210994   3.681   4.733  14.617 -0.2075  1.2361  0.9511
  740TMC3    C710995   3.721   0.111  14.382  0.9574 -0.2296  0.1153
  740TMC3    C810996   3.474   0.031  14.784 -0.3141 -0.9718  0.0300
  740TMC3    O110997   3.808   0.113  14.468  0.0273  0.5455 -0.3565
  740TMC3    O210998   3.374   0.018  14.847  0.2193  0.1113  0.3285
  741TMC3    C110999   2.988   4.204  14.457 -0.4367 -0.8617 -0.1544
  741TMC3    C211000   2.873   4.133  14.425  0.4522  0.6437 -0.4088
  741TMC3    C311001   2.819   4.060  14.532  0.1940  0.0584 -0.6052
  741TMC3    C411002   3.031   4.206  14.588  0.2582  0.2971  0.0989
  741TMC3    C511003   2.974   4.137  14.687 -0.0439 -0.2492  0.0082
  741TMC3    C611004   2.859   4.071  14.664  0.5020 -0.4354 -0.3990
  741TMC3     C11005   3.084   4.219  14.346 -0.4032 -0.2149 -0.4435
  741TMC3     O11006   3.044   4.224  14.229  0.0678  0.5281  0.2336
  741TMC3     H11007   2.841   4.121  14.322 -0.1964  0.4295 -0.1855
  741TMC3    H111008   3.115   4.270  14.610 -0.6108  0.7367  2.1392
  741TMC3    H211009   2.814   4.000  14.732 -1.6127 -0.1345 -1.4864
  741TMC3    C711010   3.015   4.164  14.821  0.7330 -0.3871  0.5086
  741TMC3    C811011   2.733   3.951  14.485  1.3015  0.1271 -0.7097
  741TMC3    O111012   3.135   4.180  14.836  0.5247  0.0645 -0.0509
  741TMC3    O211013   2.684   3.964  14.374 -0.2869  0.5780 -0.0572
  742TMC3    C111014   2.630   2.443  15.273  0.5355  0.5614 -0.4341
  742TMC3    C211015   2.565   2.449  15.157 -0.5236 -0.1719  0.4101
  742TMC3    C311016   2.627   2.397  15.050 -0.2212 -0.3132  0.4536
  742TMC3    C411017   2.764   2.410  15.286  1.3349  0.3142  0.0098
  742TMC3    C511018   2.820   2.359  15.170  0.7011  0.9877 -0.2697
  742TMC3    C611019   2.758   2.350  15.054  0.1411 -0.0917 -0.1695
  742TMC3     C11020   2.544   2.429  15.394 -0.4597  0.0121 -0.2306
  742TMC3     O11021   2.435   2.377  15.379 -0.6671 -1.0695  0.1942
  742TMC3     H11022   2.459   2.473  15.161 -0.7476 -1.1058  0.1831
  742TMC3    H111023   2.799   2.391  15.387 -0.1580 -1.0274  0.2914
  742TMC3    H211024   2.813   2.311  14.969  0.6626 -0.6091  0.4008
  742TMC3    C711025   2.955   2.300  15.167 -0.2588  0.1534 -0.1957
  742TMC3    C811026   2.562   2.392  14.924 -0.1415 -0.3756 -0.3938
  742TMC3    O111027   2.983   2.213  15.090  0.3756 -0.1222  0.4106
  742TMC3    O211028   2.616   2.327  14.841 -0.8265  0.4040  0.0661
  743MPD2     C11029   0.854   3.976   1.735 -0.0173  0.5892 -0.7563
  743MPD2    C111030   0.851   3.909   1.616 -0.2422  0.5230 -0.2598
  743MPD2    C211031   0.974   3.870   1.561 -0.0034  0.6043  0.8844
  743MPD2    C311032   1.092   3.907   1.626  0.3523 -0.0271 -0.0043
  743MPD2    C411033   1.091   3.988   1.732  0.5593  0.3918 -0.1834
  743MPD2    C511034   0.968   4.023   1.791 -0.6009 -0.5020 -0.9921
  743MPD2     H11035   0.976   3.813   1.469  0.5066  1.4757  0.3525
  743MPD2    H111036   1.180   4.012   1.788 -0.4150 -1.3849  2.1208
  743MPD2    H211037   0.764   4.016   1.781 -1.5585 -1.6383 -1.8235
  743MPD2    H311038   0.961   4.078   1.885 -2.5426 -0.7019 -1.0172
  743MPD2     N11039   1.210   3.858   1.566 -0.0829 -0.2794  0.5326
  743MPD2    H511040   1.205   3.788   1.493 -2.6326 -0.2832  0.7036
  743MPD2    N111041   0.722   3.887   1.553 -0.3568  0.6070 -0.3348
  743MPD2    H711042   0.638   3.928   1.591 -0.0235  0.1002  0.9436
  744TMC3    C111043   0.593   3.876   1.353  0.7756 -0.1471 -0.5140
  744TMC3    C211044   0.528   3.992   1.380  0.1433 -0.4635  0.5554
  744TMC3    C311045   0.432   4.028   1.288 -0.1479  1.0012  0.3775
  744TMC3    C411046   0.558   3.796   1.248 -0.6487  0.7394  0.2943
  744TMC3    C511047   0.470   3.839   1.158 -0.2660  0.7791  0.4327
  744TMC3    C611048   0.405   3.952   1.178  0.1655 -0.1679 -0.5179
  744TMC3     C11049   0.712   3.831   1.428  0.1832  0.7550  0.0309
  744TMC3     O11050   0.781   3.740   1.381 -0.4299  0.1940 -0.2116
  744TMC3     H11051   0.563   4.061   1.457 -0.2090 -1.1470  1.3283
  744TMC3    H111052   0.618   3.707   1.234 -0.7006  0.8951 -0.9433
  744TMC3    H211053   0.348   3.987   1.093 -1.7647 -2.4833 -0.1952
  744TMC3    C711054   0.469   3.786   1.022  1.2061 -0.0895 -0.0793
  744TMC3    C811055   0.335   4.131   1.321  0.0477  0.5645  0.2131
  744TMC3    O111056   0.438   3.858   0.925  0.1564  0.2156  0.1128
  744TMC3    O211057   0.274   4.189   1.228 -0.3834  0.0724 -0.2640
  745TMC3    C111058   3.477   2.362  14.151 -0.0941  0.1377 -0.1553
  745TMC3    C211059   3.403   2.368  14.268 -0.0664  0.6259  0.2619
  745TMC3    C311060   3.288   2.447  14.259  0.6993 -0.7806 -0.2547
  745TMC3    C411061   3.440   2.427  14.035 -0.5311  0.0439 -0.2432
  745TMC3    C511062   3.338   2.517  14.042 -0.3026 -0.0072 -0.2532
  745TMC3    C611063   3.267   2.536  14.159 -0.2131  0.3282  0.0255
  745TMC3     C11064   3.618   2.338  14.161 -0.0178 -0.1650  0.7789
  745TMC3     O11065   3.659   2.230  14.198 -0.6581  0.2173 -0.1405
  745TMC3     H11066   3.424   2.298  14.348 -1.1076 -0.4754 -0.4242
  745TMC3    H111067   3.492   2.397  13.945  0.0063  1.6041 -0.4542
  745TMC3    H211068   3.188   2.609  14.166 -0.9408 -0.4878  0.3556
  745TMC3    C711069   3.315   2.614  13.938  0.8451 -0.3058 -0.0282
  745TMC3    C811070   3.256   2.506  14.382  0.5264  0.0513  0.1006
  745TMC3    O111071   3.230   2.700  13.958  0.4258 -0.2804  0.5718
  745TMC3    O211072   3.142   2.493  14.428 -0.1957 -0.3501  0.8694
  746TMC3    C111073   1.116   4.090  11.265  0.0101 -0.1310  0.6387
  746TMC3    C211074   1.211   4.088  11.164  0.6670 -0.9015 -0.2761
  746TMC3    C311075   1.252   3.967  11.120  0.0880  0.7631 -0.0754
  746TMC3    C411076   1.074   3.979  11.331  0.8092 -0.2082 -0.1276
  746TMC3    C511077   1.110   3.856  11.278  0.0186  0.2086  0.3942
  746TMC3    C611078   1.203   3.849  11.179 -0.2392  0.5826  0.3566
  746TMC3     C11079   1.062   4.221  11.314  0.2180 -0.1079  0.0659
  746TMC3     O11080   1.025   4.231  11.428 -0.5226 -0.4328 -0.6650
  746TMC3     H11081   1.230   4.175  11.103  1.2221  1.2237  2.9045
  746TMC3    H111082   1.000   3.989  11.411 -1.4136  0.0447 -2.2086
  746TMC3    H211083   1.242   3.753  11.148 -2.1652 -0.1473  0.2425
  746TMC3    C711084   1.007   3.760  11.268  0.0737  0.4785  0.3784
  746TMC3    C811085   1.379   3.952  11.041 -0.3276  0.4700  0.4652
  746TMC3    O111086   1.016   3.694  11.172  0.3165  0.2672 -0.1132
  746TMC3    O211087   1.453   4.049  11.051 -0.3488  0.6421  0.2642
  747TMC3    C111088   3.766   4.195  10.930 -0.7798 -0.1639  0.0169
  747TMC3    C211089   3.684   4.099  10.979  0.1388  1.3657 -0.0702
  747TMC3    C311090   3.679   4.086  11.116  0.9595  0.2504  0.8876
  747TMC3    C411091   3.846   4.270  11.016  0.6633 -0.3181 -0.8032
  747TMC3    C511092   3.852   4.238  11.149  0.0186  0.7433  0.3583
  747TMC3    C611093   3.766   4.150  11.203  0.0165 -0.8789  0.1935
  747TMC3     C11094   3.744   4.263  10.799 -0.3073  0.7363 -0.1169
  747TMC3     O11095   3.765   4.380  10.791 -0.2395 -0.5732 -0.0121
  747TMC3     H11096   3.612   4.044  10.919  1.0227 -1.0937  1.1438
  747TMC3    H111097   3.914   4.343  10.973  0.7816 -0.4502 -0.8396
  747TMC3    H211098   3.768   4.119  11.307 -1.8446  1.9558  1.0967
  747TMC3    C711099   3.979   4.244  11.220 -0.1369  0.0911  0.0683
  747TMC3    C811100   3.575   4.002  11.174  0.3633  0.2689 -0.0168
  747TMC3    O111101   3.982   4.235  11.341  0.2276  0.3562 -0.1441
  747TMC3    O211102   3.559   3.899  11.106  0.1717 -0.0618 -0.1013
  748MPD2     C11103   4.697   0.364   0.357 -0.0158 -0.2560 -0.5358
  748MPD2    C111104   4.695   0.423   0.484 -0.5070  0.1871 -0.1617
  748MPD2    C211105   0.047   0.514   0.529  0.3469 -0.1870 -0.6200
  748MPD2    C311106   0.138   0.560   0.441 -0.3411  0.2201  0.3212
  748MPD2    C411107   0.142   0.507   0.317 -0.5224 -0.2446  0.0226
  748MPD2    C511108   0.049   0.421   0.269  0.3304 -0.9813 -0.4874
  748MPD2     H11109   0.055   0.546   0.632  1.3247  0.6773 -0.9709
  748MPD2    H111110   0.221   0.542   0.251  0.5895 -0.9399  0.9883
  748MPD2    H211111   4.619   0.300   0.318  1.0439 -2.3323  0.7887
  748MPD2    H311112   0.043   0.401   0.162  0.1029 -2.2264 -0.2368
  748MPD2     N11113   0.242   0.640   0.491  0.5024 -0.3263  0.5533
  748MPD2    H511114   0.231   0.672   0.587 -1.1017  0.9323 -0.0526
  748MPD2    N111115   4.583   0.384   0.566 -0.4177  0.8018  0.8953
  748MPD2    H711116   4.500   0.335   0.535 -0.1790  0.0275  1.4812
  749TMC3    C111117   0.450   0.720   0.533  0.2832  0.1394  0.3047
  749TMC3    C211118   0.525   0.651   0.626 -0.6057  0.0512 -0.4776
  749TMC3    C311119   0.588   0.719   0.726 -0.0550  0.4186  0.3724
  749TMC3    C411120   0.436   0.858   0.530 -0.2653  0.3474  0.0056
  749TMC3    C511121   0.499   0.921   0.633 -0.3149 -0.3209 -0.0715
  749TMC3    C611122   0.577   0.855   0.730  0.5107 -0.2056  0.1714
  749TMC3     C11123   0.367   0.647   0.448 -0.0706 -0.0381  0.2250
  749TMC3     O11124   0.426   0.576   0.365 -0.5235 -0.0881  0.3381
  749TMC3     H11125   0.530   0.542   0.622  1.1871 -0.0518  4.0827
  749TMC3    H111126   0.356   0.899   0.470 -1.0536 -1.1071  0.0758
  749TMC3    H211127   0.632   0.912   0.805  0.1387 -1.4669  1.4023
  749TMC3    C711128   0.498   1.067   0.641  0.1665 -0.5194  0.0675
  749TMC3    C811129   0.645   0.651   0.839 -1.0219 -0.6806  0.3196
  749TMC3    O111130   0.507   1.117   0.755  0.0311  0.1268  0.0244
  749TMC3    O211131   0.667   0.722   0.938 -0.1753  0.2889  0.0652
  750MPD2     C11132   1.648   1.194  11.161  0.3565  0.3871 -0.5917
  750MPD2    C111133   1.520   1.158  11.182  0.0312 -0.7436  0.8043
  750MPD2    C211134   1.496   1.024  11.168  0.1894 -0.1223 -0.3233
  750MPD2    C311135   1.591   0.927  11.121  0.3773 -0.2713  0.0348
  750MPD2    C411136   1.715   0.974  11.095 -0.6865 -0.0250  0.9983
  750MPD2    C511137   1.739   1.101  11.120 -0.1250 -0.2659 -0.2820
  750MPD2     H11138   1.395   0.991  11.188 -0.1745 -0.9815 -3.5675
  750MPD2    H111139   1.793   0.909  11.057 -1.5909  0.3301 -1.5091
  750MPD2    H211140   1.685   1.295  11.174 -3.3678  1.2694  2.9245
  750MPD2    H311141   1.841   1.135  11.106 -0.2792  0.8183  1.2753
  750MPD2     N11142   1.565   0.791  11.103  0.1713 -0.7851 -0.4023
  750MPD2    H511143   1.628   0.736  11.045 -0.2236 -2.0093  0.3247
  750MPD2    N111144   1.428   1.264  11.211 -0.7855  0.0066  0.3692
  750MPD2    H711145   1.465   1.358  11.205 -0.8978  0.1048  1.1432
  751TMC3    C111146   1.436   0.599  11.081 -0.1816 -0.6797  0.0222
  751TMC3    C211147   1.308   0.563  11.059 -0.1769 -0.1487 -0.4638
  751TMC3    C311148   1.288   0.448  10.980 -0.3688  0.5768  0.9825
  751TMC3    C411149   1.545   0.529  11.048  0.3081 -0.6346  0.4246
  751TMC3    C511150   1.521   0.408  11.000 -0.0646  0.6870 -0.6021
  751TMC3    C611151   1.395   0.369  10.957 -0.5332  1.0768  0.0142
  751TMC3     C11152   1.449   0.723  11.145  0.0104 -0.2769 -0.0283
  751TMC3     O11153   1.367   0.754  11.228  0.2367 -0.1915 -0.6360
  751TMC3     H11154   1.233   0.636  11.085 -1.0489 -0.1882 -2.8006
  751TMC3    H111155   1.643   0.567  11.076  0.4804 -0.5957 -0.2261
  751TMC3    H211156   1.387   0.278  10.898 -3.6340  1.1814  0.3222
  751TMC3    C711157   1.635   0.327  10.945  0.7527  0.1804 -0.2288
  751TMC3    C811158   1.158   0.391  10.962  0.0370  0.0415  1.0233
  751TMC3    O111159   1.735   0.376  10.895 -0.0395  0.3093  0.5639
  751TMC3    O211160   1.151   0.294  10.888 -0.0531  0.2494  0.4211
  752TMC3    C111161   3.481   1.526  17.458  0.3800  0.5449 -0.4887
  752TMC3    C211162   3.498   1.648  17.520  0.1858 -0.4739 -0.1446
  752TMC3    C311163   3.394   1.690  17.596  0.0977 -0.4265 -0.4645
  752TMC3    C411164   3.378   1.436  17.466  0.0072 -0.2491 -0.4122
  752TMC3    C511165   3.278   1.486  17.545 -0.3449  0.0908 -0.1043
  752TMC3    C611166   3.281   1.614  17.595  0.3041 -0.3406 -0.0986
  752TMC3     C11167   3.594   1.489  17.370  0.3842  0.0820 -0.6236
  752TMC3     O11168   3.708   1.512  17.412  0.1104 -0.3999  0.0475
  752TMC3     H11169   3.589   1.705  17.502  0.8454 -0.8023  2.0749
  752TMC3    H111170   3.364   1.340  17.418 -1.6337 -0.1663 -0.1024
  752TMC3    H211171   3.201   1.638  17.665 -1.9621 -0.5531 -2.6343
  752TMC3    C711172   3.164   1.395  17.578 -0.0917  0.6845  0.0915
  752TMC3    C811173   3.394   1.807  17.678 -0.1043  0.2139  0.4952
  752TMC3    O111174   3.177   1.277  17.548  0.6002  0.7219  0.2704
  752TMC3    O211175   3.279   1.835  17.712 -0.3259 -0.1426  0.0820
  753TMC3    C111176   1.627   2.423  13.083  0.4043 -0.5068  0.2938
  753TMC3    C211177   1.606   2.394  13.216  0.2293 -0.5120 -0.1493
  753TMC3    C311178   1.526   2.293  13.251 -0.3197 -0.3103 -0.3873
  753TMC3    C411179   1.576   2.346  12.988  0.3647  0.3332  0.6387
  753TMC3    C511180   1.500   2.236  13.018 -0.1075 -0.5965 -0.1410
  753TMC3    C611181   1.473   2.213  13.151 -0.2072  0.1904 -0.7677
  753TMC3     C11182   1.721   2.533  13.059 -0.1234 -0.5786 -0.2011
  753TMC3     O11183   1.709   2.641  13.114 -0.1499  0.3915  0.5664
  753TMC3     H11184   1.638   2.462  13.294 -1.4505 -0.7202  0.7190
  753TMC3    H111185   1.595   2.367  12.883  0.3875 -1.8748  0.2162
  753TMC3    H211186   1.415   2.124  13.176  1.4126 -0.8251 -0.6705
  753TMC3    C711187   1.427   2.167  12.909  0.5871  0.4050  0.6697
  753TMC3    C811188   1.527   2.241  13.386 -0.4293 -0.5912 -0.2952
  753TMC3    O111189   1.459   2.191  12.794  0.0124 -0.1910 -0.5980
  753TMC3    O211190   1.509   2.122  13.405  0.2412  0.6253  0.1170
  754MPD2     C11191   0.647   0.878  13.601 -0.1940 -0.5326  0.0460
  754MPD2    C111192   0.543   0.785  13.576 -0.4783  0.5387  0.0612
  754MPD2    C211193   0.454   0.808  13.474  0.7777  0.7151  0.0041
  754MPD2    C311194   0.453   0.935  13.407  0.8911 -0.4678 -0.4080
  754MPD2    C411195   0.554   1.019  13.442 -0.2641 -0.1863  0.0106
  754MPD2    C511196   0.649   0.998  13.530 -0.1319  0.0360  0.1119
  754MPD2     H11197   0.378   0.736  13.448  0.3698  1.9241 -2.1749
  754MPD2    H111198   0.564   1.113  13.389 -1.1331  0.7552  1.5142
  754MPD2    H211199   0.718   0.867  13.682 -1.2962 -1.2226  0.9138
  754MPD2    H311200   0.728   1.071  13.542 -0.5641  0.5044  0.0742
  754MPD2     N11201   0.354   0.982  13.314  0.3182 -0.5707 -0.6190
  754MPD2    H511202   0.368   1.070  13.266  1.6094 -0.0774  0.6261
  754MPD2    N111203   0.524   0.676  13.670 -0.0133 -1.0108 -0.0223
  754MPD2    H711204   0.604   0.657  13.728 -0.5285  1.0832  1.3628
  755MPD2     C11205   4.472   1.758  13.171 -0.3853 -0.0855  0.2404
  755MPD2    C111206   4.390   1.645  13.176 -0.3363 -0.2702 -0.1398
  755MPD2    C211207   4.448   1.522  13.179 -0.1883 -0.1786  0.6729
  755MPD2    C311208   4.581   1.509  13.164 -0.7545  0.1293 -0.1714
  755MPD2    C411209   4.656   1.623  13.143 -0.4486  0.5170  0.7079
  755MPD2    C511210   4.599   1.740  13.138 -0.0560  0.0714  0.0915
  755MPD2     H11211   4.386   1.433  13.187 -1.6090  0.8446  1.1910
  755MPD2    H111212   0.020   1.613  13.122 -0.7726  0.0721 -0.7471
  755MPD2    H211213   4.441   1.862  13.164 -1.4045 -0.4264 -0.4087
  755MPD2    H311214   4.660   1.824  13.108 -0.7680  0.4219 -0.3529
  755MPD2     N11215   4.623   1.375  13.174  0.0314 -0.4090 -0.0198
  755MPD2    H511216   4.545   1.310  13.173  1.6592 -2.3686  0.4764
  755MPD2    N111217   4.250   1.657  13.194  0.0800  0.1462 -0.4447
  755MPD2    H711218   4.194   1.579  13.162  1.1178 -0.5202 -0.6285
  756MPD2     C11219   0.793   2.322  10.460  0.7589 -0.7927 -0.1897
  756MPD2    C111220   0.847   2.203  10.420  1.0420 -0.3053 -0.7102
  756MPD2    C211221   0.878   2.192  10.283  0.1378 -0.6371  0.5842
  756MPD2    C311222   0.843   2.288  10.188 -0.0642  0.6776  0.1554
  756MPD2    C411223   0.784   2.405  10.233 -0.0062  0.2719 -0.1745
  756MPD2    C511224   0.764   2.425  10.371  0.4391 -0.1736  0.2058
  756MPD2     H11225   0.920   2.096  10.254  2.0585 -0.7006  3.6255
  756MPD2    H111226   0.761   2.487  10.167 -1.0709  0.6932  0.7199
  756MPD2    H211227   0.755   2.342  10.560 -1.1130 -0.5568 -0.9405
  756MPD2    H311228   0.723   2.514  10.418  1.0787  0.4988 -0.5170
  756MPD2     N11229   0.856   2.256  10.053  1.0512  0.2085  0.5489
  756MPD2    H511230   0.891   2.162  10.041  0.8021  0.7001 -4.1082
  756MPD2    N111231   0.889   2.105  10.516  0.1558  0.5605 -0.2192
  756MPD2    H711232   0.843   2.106  10.606  0.2725  4.3929 -0.2289
  757MPD2     C11233   0.904   1.461   9.722 -0.0869 -0.6483  0.5434
  757MPD2    C111234   0.781   1.508   9.749 -0.4737  0.1931 -0.3547
  757MPD2    C211235   0.766   1.649   9.752  0.0294  0.0954 -0.2894
  757MPD2    C311236   0.876   1.733   9.730  0.8038 -0.5755  0.2962
  757MPD2    C411237   0.997   1.678   9.695  0.1711 -0.0651  0.2397
  757MPD2    C511238   1.012   1.539   9.702 -0.1360 -0.5520  0.2024
  757MPD2     H11239   0.672   1.695   9.779 -0.5533 -1.3219  0.1057
  757MPD2    H111240   1.083   1.732   9.658  0.2611  0.2658  0.9330
  757MPD2    H211241   0.919   1.355   9.704 -0.8038 -0.6112 -0.2831
  757MPD2    H311242   1.098   1.501   9.650  0.5016  0.7736  0.2916
  757MPD2     N11243   0.859   1.867   9.727  0.2934  0.4720 -0.4986
  757MPD2    H511244   0.770   1.900   9.763 -1.8664 -3.1478 -2.5886
  757MPD2    N111245   0.682   1.413   9.785 -0.3423 -0.0918  0.5967
  757MPD2    H711246   0.706   1.315   9.800  1.6963  0.3941  0.5876
  758MPD2     C11247   0.450   0.840  15.705  0.6888 -0.1501  0.8268
  758MPD2    C111248   0.439   0.781  15.826 -0.4038  0.2847  0.1365
  758MPD2    C211249   0.342   0.829  15.915  0.4953 -0.3981 -0.5760
  758MPD2    C311250   0.259   0.935  15.880 -0.1916  0.0548  0.5693
  758MPD2    C411251   0.293   1.003  15.765 -1.2188  0.3070 -0.2308
  758MPD2    C511252   0.381   0.955  15.675  0.0329 -0.2037 -0.9522
  758MPD2     H11253   0.330   0.775  16.009  1.6273 -0.7595 -0.6366
  758MPD2    H111254   0.246   1.095  15.733 -1.7466  0.5315  1.1864
  758MPD2    H211255   0.528   0.812  15.635 -0.7027 -1.3937 -0.2350
  758MPD2    H311256   0.415   1.003  15.584 -1.9105 -0.0477 -1.5951
  758MPD2     N11257   0.166   0.994  15.973  0.3965  0.2351  0.2774
  758MPD2    H511258   0.143   1.091  15.957  0.6203  0.4182  1.0559
  758MPD2    N111259   0.530   0.678  15.861  0.4071 -0.4072  0.8931
  758MPD2    H711260   0.601   0.654  15.793  1.3694 -0.0167  1.7634
  759MPD2     C11261   4.206   4.474   9.622  0.6801  0.0023 -0.0267
  759MPD2    C111262   4.267   4.377   9.702  0.0326  1.3386  0.2683
  759MPD2    C211263   4.403   4.360   9.689  0.0800 -0.3198 -0.3006
  759MPD2    C311264   4.480   4.437   9.608  0.1819  0.5794 -0.3234
  759MPD2    C411265   4.419   4.536   9.539 -1.2197 -0.6798  0.2325
  759MPD2    C511266   4.288   4.556   9.549  0.2979  0.2775 -0.1619
  759MPD2     H11267   4.453   4.279   9.742  0.4414 -0.1643 -0.4013
  759MPD2    H111268   4.469   4.603   9.470 -2.2180  0.2574  0.4244
  759MPD2    H211269   4.103   4.508   9.631  0.7400  0.1025  0.2571
  759MPD2    H311270   4.243   4.644   9.503 -1.0011 -0.1627  0.2560
  759MPD2     N11271   4.617   4.408   9.605  0.3435  0.3307 -0.2475
  759MPD2    H511272   4.652   4.328   9.656 -0.1463  0.1549 -0.1882
  759MPD2    N111273   4.201   4.285   9.790  0.2583  0.2640  1.4587
  759MPD2    H711274   4.261   4.225   9.846  1.7462  2.0941  1.8534
  760MPD2     C11275   4.101   1.358  11.841 -0.2083  0.3994  0.8659
  760MPD2    C111276   4.228   1.386  11.871 -0.2000 -0.0779 -0.7655
  760MPD2    C211277   4.321   1.281  11.903 -0.2514 -0.1996  0.9832
  760MPD2    C311278   4.277   1.150  11.881 -0.1474  0.2069 -0.0412
  760MPD2    C411279   4.147   1.121  11.846 -0.0590  0.4703  0.0891
  760MPD2    C511280   4.064   1.227  11.828 -0.1257  0.7032 -0.5776
  760MPD2     H11281   4.422   1.302  11.939  0.3305 -0.5587 -0.4369
  760MPD2    H111282   4.114   1.022  11.815 -3.2136  1.4929  0.1225
  760MPD2    H211283   4.020   1.430  11.835  0.0020  0.7325  1.9000
  760MPD2    H311284   3.962   1.203  11.799 -0.0654 -0.5537  0.2640
  760MPD2     N11285   4.365   1.037  11.881 -0.0732  0.8414  0.1903
  760MPD2    H511286   4.325   0.945  11.865 -0.0989  0.5952  1.7397
  760MPD2    N111287   4.281   1.512  11.870 -0.3119  0.1450 -0.2742
  760MPD2    H711288   4.370   1.530  11.916 -0.4031 -0.6067  0.1875
  761MPD2     C11289   0.689   0.281  11.129 -0.1273 -0.1051 -0.1761
  761MPD2    C111290   0.760   0.212  11.028 -0.5926 -0.7776  0.2136
  761MPD2    C211291   0.884   0.277  10.988  0.9480  0.9812 -0.4955
  761MPD2    C311292   0.932   0.388  11.059 -0.3645  0.7343  0.2149
  761MPD2    C411293   0.853   0.450  11.151 -0.3734 -0.5844  0.2463
  761MPD2    C511294   0.732   0.400  11.188 -0.3159  0.4979  0.8791
  761MPD2     H11295   0.947   0.216  10.924  2.2275 -1.9574  3.6027
  761MPD2    H111296   0.887   0.547  11.185 -1.6614 -0.2722  0.6477
  761MPD2    H211297   0.591   0.242  11.157 -0.8918  1.6622 -0.4031
  761MPD2    H311298   0.657   0.453  11.245  0.2237  0.0499  2.0052
  761MPD2     N11299   1.064   0.436  11.042 -0.0105 -0.5802 -0.0955
  761MPD2    H511300   1.085   0.520  11.096  0.8114 -0.7983 -0.0818
  761MPD2    N111301   0.706   0.092  10.968  0.7744 -0.2219  0.3163
  761MPD2    H711302   0.626   0.049  11.013  0.3397  0.5491  0.2956
  762MPD2     C11303   1.166   0.048  10.648 -0.1539  0.9881  0.0762
  762MPD2    C111304   1.137   4.659  10.617 -0.0358 -0.5797  0.0696
  762MPD2    C211305   1.243   4.575  10.575 -0.3739 -0.2942  0.1980
  762MPD2    C311306   1.372   4.628  10.544 -0.2312  0.3283 -0.0219
  762MPD2    C411307   1.387   0.022  10.545 -0.2191 -0.3101  0.0245
  762MPD2    C511308   1.291   0.101  10.611 -0.4074 -0.3458 -0.4557
  762MPD2     H11309   1.226   4.468  10.571 -1.3052 -0.1288 -0.2317
  762MPD2    H111310   1.478   0.070  10.511  0.7303 -1.9082  0.2601
  762MPD2    H211311   1.101   0.117  10.699  0.1262  1.4388 -0.1730
  762MPD2    H311312   1.313   0.202  10.646 -4.1011 -0.0612  1.0598
  762MPD2     N11313   1.473   4.540  10.508 -0.1992 -0.0791  0.1522
  762MPD2    H511314   1.445   4.442  10.501  0.3171 -0.1826 -0.4613
  762MPD2    N111315   1.009   4.617  10.655  0.5498  0.5197  0.7338
  762MPD2    H711316   0.952   4.684  10.705 -0.5082 -1.3023  1.9598
  763MPD2     C11317   2.292   0.956  15.722  0.1603 -0.9433 -0.5156
  763MPD2    C111318   2.194   1.044  15.697 -0.6004  0.1538  0.1667
  763MPD2    C211319   2.195   1.168  15.760  0.4702 -0.2800 -0.6966
  763MPD2    C311320   2.297   1.212  15.837  0.2052 -0.3166 -0.3746
  763MPD2    C411321   2.407   1.130  15.841  0.6296  0.7216  0.6758
  763MPD2    C511322   2.408   1.007  15.779 -0.3625 -0.1226  0.6970
  763MPD2     H11323   2.118   1.242  15.743  0.1037 -0.8355 -1.4267
  763MPD2    H111324   2.492   1.156  15.902  1.7003 -0.5989 -0.2693
  763MPD2    H211325   2.290   0.851  15.696  0.8063 -1.7119  2.5152
  763MPD2    H311326   2.495   0.945  15.797 -0.2327  0.6057  2.6312
  763MPD2     N11327   2.305   1.340  15.901 -0.2144  0.1636 -0.1573
  763MPD2    H511328   2.393   1.365  15.946 -1.2577  0.4966  1.7199
  763MPD2    N111329   2.085   1.012  15.609 -0.1376 -0.4344  0.5608
  763MPD2    H711330   2.033   1.093  15.578  1.4526  1.4096  2.6620
  764MPD2     C11331   4.665   2.125  17.136 -0.7748 -0.1757  0.5576
  764MPD2    C111332   4.553   2.204  17.154 -1.0383  0.1913  0.3284
  764MPD2    C211333   4.522   2.229  17.289  0.0961  0.3059  0.5144
  764MPD2    C311334   4.600   2.187  17.398  0.5729 -0.4414  0.3028
  764MPD2    C411335   4.701   2.104  17.373  0.1430  0.3263  0.1569
  764MPD2    C511336   4.739   2.081  17.245 -0.4463 -1.1048  0.6150
  764MPD2     H11337   4.427   2.276  17.313  0.1850  1.2003 -0.9133
  764MPD2    H111338   0.023   2.074  17.454 -0.1594 -1.8654 -0.4021
  764MPD2    H211339   4.695   2.093  17.037  1.4495 -0.1638  1.2243
  764MPD2    H311340   0.084   2.017  17.243  0.2991 -0.0208 -1.1976
  764MPD2     N11341   4.543   2.207  17.521  0.0214  0.0722  0.2394
  764MPD2    H511342   4.457   2.263  17.521 -0.7772 -1.1579 -0.2593
  764MPD2    N111343   4.468   2.252  17.049 -0.1608 -0.5033 -0.3636
  764MPD2    H711344   4.402   2.327  17.068 -0.6708 -0.8795 -0.6410
  765MPD2     C11345   0.340   0.240  16.070 -0.1517 -0.7529  0.8450
  765MPD2    C111346   0.340   0.287  15.942 -0.0409 -0.3046 -0.1092
  765MPD2    C211347   0.433   0.235  15.848  0.2451  0.5146  0.2796
  765MPD2    C311348   0.504   0.121  15.885 -0.0165  0.7900  0.1046
  765MPD2    C411349   0.506   0.076  16.012  0.1121  0.7663 -0.3834
  765MPD2    C511350   0.426   0.138  16.107  0.0850  0.2079  0.6721
  765MPD2     H11351   0.441   0.278  15.749  2.7972 -0.8283 -0.0971
  765MPD2    H111352   0.560   4.728  16.037  0.4204  1.0061 -0.1755
  765MPD2    H211353   0.265   0.278  16.137 -1.6401 -1.8750 -0.1734
  765MPD2    H311354   0.421   0.094  16.206 -1.3789 -3.4973 -1.0439
  765MPD2     N11355   0.580   0.052  15.789 -0.2000  0.0921 -0.6902
  765MPD2    H511356   0.581   0.093  15.696  0.6474  0.8601 -0.3529
  765MPD2    N111357   0.242   0.382  15.911  0.0464 -0.2207 -0.9434
  765MPD2    H711358   0.176   0.405  15.984  3.1448  0.8750  1.5073
  766MPD2     C11359   4.248   0.377  15.563  0.5441 -0.8192  0.2642
  766MPD2    C111360   4.388   0.382  15.570 -0.3642 -0.3214  0.9648
  766MPD2    C211361   4.465   0.344  15.461  0.4577 -0.0455  0.1922
  766MPD2    C311362   4.397   0.294  15.342  0.0434 -0.2044  0.0203
  766MPD2    C411363   4.260   0.296  15.338 -0.2638 -0.2160  0.0590
  766MPD2    C511364   4.184   0.345  15.443  0.2140 -0.0516  0.2368
  766MPD2     H11365   4.571   0.365  15.456  0.3635  0.1547 -1.0232
  766MPD2    H111366   4.211   0.264  15.247 -1.8030 -0.6928  1.0626
  766MPD2    H211367   4.182   0.415  15.640  2.5119  0.7387  1.1557
  766MPD2    H311368   4.077   0.328  15.434  0.4505  0.2885 -3.4779
  766MPD2     N11369   4.464   0.243  15.230  0.2536  0.4525  0.1318
  766MPD2    H511370   4.407   0.215  15.151  0.5796  1.5053 -0.4890
  766MPD2    N111371   4.446   0.432  15.687 -0.1108  0.1677 -0.2278
  766MPD2    H711372   4.396   0.493  15.751  3.8327  1.8247  1.2954
  767MPD2     C11373   4.238   0.600  15.227  0.4049 -0.3769 -0.2131
  767MPD2    C111374   4.341   0.574  15.143  0.2475 -0.6442 -0.3205
  767MPD2    C211375   4.319   0.502  15.025  0.4326 -0.1829  0.4701
  767MPD2    C311376   4.189   0.463  14.983  0.3171 -0.1781 -1.1050
  767MPD2    C411377   4.088   0.482  15.081 -0.1268 -0.1406 -0.4146
  767MPD2    C511378   4.120   0.546  15.194  0.0278 -0.4221 -0.6012
  767MPD2     H11379   4.406   0.473  14.967  1.3695  2.8151  0.3274
  767MPD2    H111380   3.994   0.429  15.068 -0.6421  0.3125  1.4368
  767MPD2    H211381   4.248   0.647  15.324 -1.1320 -0.4964  0.0038
  767MPD2    H311382   4.034   0.549  15.259  0.0742 -0.1525 -0.5517
  767MPD2     N11383   4.174   0.412  14.856 -0.0199 -0.4407 -0.3377
  767MPD2    H511384   4.254   0.404  14.794 -0.1798  0.1638 -0.6173
  767MPD2    N111385   4.470   0.622  15.169 -0.1175  0.2339  0.1225
  767MPD2    H711386   4.530   0.599  15.090  1.6978  0.0019  1.5632
  768MPD2     C11387   1.127   3.357  10.705  0.4035  0.5425  0.4328
  768MPD2    C111388   1.052   3.385  10.816  0.2515 -0.1776 -0.2134
  768MPD2    C211389   1.118   3.422  10.935  0.1827 -0.0436 -0.5721
  768MPD2    C311390   1.256   3.416  10.945 -0.2190 -0.1989 -0.6652
  768MPD2    C411391   1.329   3.396  10.826 -0.2170  0.0019 -0.0051
  768MPD2    C511392   1.262   3.381  10.705 -0.4123  0.1387 -0.3945
  768MPD2     H11393   1.052   3.456  11.013  1.0138  0.4149 -0.0774
  768MPD2    H111394   1.435   3.385  10.844 -0.7054  0.5393  3.2188
  768MPD2    H211395   1.093   3.322  10.608 -0.7378 -0.3757  1.1594
  768MPD2    H311396   1.326   3.349  10.622 -0.1003 -1.0020  0.2800
  768MPD2     N11397   1.318   3.452  11.067  0.3914  0.4622  0.6420
  768MPD2    H511398   1.418   3.461  11.072  0.4953 -1.4288  2.2223
  768MPD2    N111399   0.908   3.379  10.820 -0.5073 -0.1673  0.1447
  768MPD2    H711400   0.856   3.417  10.899  0.5442  0.6533  0.4438
  769MPD2     C11401   1.286   1.933  14.564 -0.0849  0.1560  0.5759
  769MPD2    C111402   1.184   1.917  14.658  0.2932  0.3855  0.4427
  769MPD2    C211403   1.185   1.993  14.776 -0.0525 -0.3142 -0.0317
  769MPD2    C311404   1.297   2.066  14.801 -0.6305  0.1609 -0.2867
  769MPD2    C411405   1.394   2.085  14.707  0.1834 -0.2843 -0.0052
  769MPD2    C511406   1.390   2.014  14.590 -0.9511  0.4411 -0.2661
  769MPD2     H11407   1.114   1.989  14.858 -2.2172 -2.7315 -2.0412
  769MPD2    H111408   1.484   2.145  14.714  0.5294 -0.6851 -1.0600
  769MPD2    H211409   1.274   1.879  14.470  1.4194  0.7468  0.0442
  769MPD2    H311410   1.461   2.036  14.511 -0.7955 -1.0015 -0.5250
  769MPD2     N11411   1.302   2.126  14.933 -0.6732 -0.2016 -0.0261
  769MPD2    H511412   1.232   2.101  15.003 -1.3503 -2.9613 -1.6684
  769MPD2    N111413   1.088   1.817  14.635 -0.2842 -0.9227  0.1345
  769MPD2    H711414   1.106   1.753  14.558 -0.4895 -1.0256  0.1710
  770MPD2     C11415   1.054   1.121  15.303 -0.1047  0.3399 -0.4935
  770MPD2    C111416   1.064   1.059  15.178 -0.5462  0.0878  0.3820
  770MPD2    C211417   1.031   1.131  15.067 -0.5081 -0.3482  0.4089
  770MPD2    C311418   0.978   1.260  15.081  0.1357 -0.1309  0.5718
  770MPD2    C411419   0.976   1.319  15.202 -0.1551  0.1018  0.3654
  770MPD2    C511420   1.017   1.251  15.310  0.3617  0.6650  0.6736
  770MPD2     H11421   1.020   1.087  14.969 -3.9861 -0.9545  1.0752
  770MPD2    H111422   0.945   1.422  15.220 -1.7563 -0.4348  0.6943
  770MPD2    H211423   1.077   1.071  15.396  0.2468  1.2613 -0.0864
  770MPD2    H311424   1.006   1.294  15.409  0.4334  0.2656  0.8535
  770MPD2     N11425   0.936   1.328  14.963  0.7157  0.1865  0.5130
  770MPD2    H511426   0.950   1.280  14.874 -0.8408 -0.5608  0.6710
  770MPD2    N111427   1.088   0.919  15.166  0.3955 -0.9375 -0.1801
  770MPD2    H711428   1.093   0.870  15.255  2.1754 -2.4555 -1.1013
  771MPD2     C11429   2.633   4.430  13.909 -0.7038 -1.0505 -0.0247
  771MPD2    C111430   2.574   4.404  13.790 -0.2581  0.0669 -0.3116
  771MPD2    C211431   2.490   4.293  13.776  0.3869  0.6808 -0.5702
  771MPD2    C311432   2.469   4.206  13.882  0.0724 -0.2407  0.7158
  771MPD2    C411433   2.528   4.246  14.003  0.9200 -0.0667 -0.1250
  771MPD2    C511434   2.608   4.354  14.016  0.2293 -0.2802 -0.2966
  771MPD2     H11435   2.451   4.268  13.678 -0.3632  0.8595 -0.3200
  771MPD2    H111436   2.532   4.177  14.087  0.0649  0.9825  0.7774
  771MPD2    H211437   2.696   4.517  13.927 -1.9317 -0.2253  0.2681
  771MPD2    H311438   2.667   4.365  14.106 -0.2634 -1.6106  0.1948
  771MPD2     N11439   2.396   4.089  13.843 -0.2401  0.3712 -0.4164
  771MPD2    H511440   2.369   4.078  13.746  1.7945 -0.8234 -0.8474
  771MPD2    N111441   2.598   4.484  13.676 -0.0656  0.2818 -0.4128
  771MPD2    H711442   2.532   4.474  13.599  1.2947 -0.3032 -1.5020
  772MPD2     C11443   2.143   0.254  13.405 -0.8096  0.1080 -0.1161
  772MPD2    C111444   2.182   0.171  13.506  0.0633 -0.0579  0.4669
  772MPD2    C211445   2.097   0.143  13.614  0.4518 -1.2162 -0.8721
  772MPD2    C311446   1.975   0.208  13.624 -0.4116  0.0630 -0.4797
  772MPD2    C411447   1.937   0.304  13.533  0.4187  0.5367 -0.3619
  772MPD2    C511448   2.017   0.316  13.418 -0.2004  0.4536  0.4578
  772MPD2     H11449   2.129   0.072  13.690 -3.2970 -1.2627  0.7170
  772MPD2    H111450   1.841   0.355  13.529 -0.2185 -0.7976 -2.1011
  772MPD2    H211451   2.193   0.271  13.311 -1.0925 -0.6762 -0.4051
  772MPD2    H311452   1.976   0.367  13.332  1.0964 -3.5014 -2.5191
  772MPD2     N11453   1.875   0.170  13.718 -0.5135  0.1982 -0.4627
  772MPD2    H511454   1.777   0.192  13.703 -0.4910  1.0509  0.6091
  772MPD2    N111455   2.305   0.108  13.503  0.6688  0.1275 -0.0356
  772MPD2    H711456   2.339   0.075  13.592 -0.3472  0.6707  0.5579
  773MPD2     C11457   0.715   1.680  17.324  0.0431 -0.1878  0.0271
  773MPD2    C111458   0.700   1.541  17.328 -0.4412  0.3156 -0.1435
  773MPD2    C211459   0.719   1.478  17.448  0.0925 -0.3065  0.1209
  773MPD2    C311460   0.759   1.552  17.563 -0.8701  0.3411  0.2357
  773MPD2    C411461   0.771   1.692  17.553 -0.3804 -0.5841 -0.9803
  773MPD2    C511462   0.763   1.751  17.429  0.5059 -0.0627  0.5032
  773MPD2     H11463   0.683   1.377  17.463 -0.6966 -0.3339 -2.0309
  773MPD2    H111464   0.793   1.762  17.633  0.8260 -1.8977 -0.1856
  773MPD2    H211465   0.689   1.742  17.239  0.4829  1.7069  1.2792
  773MPD2    H311466   0.761   1.859  17.423 -1.3801 -0.2381 -2.0861
  773MPD2     N11467   0.781   1.484  17.690  0.2645 -0.0426 -0.4224
  773MPD2    H511468   0.789   1.384  17.673 -0.3349 -0.2418  0.4812
  773MPD2    N111469   0.652   1.466  17.228  1.5012  0.1939  0.3701
  773MPD2    H711470   0.634   1.368  17.249  2.1092 -0.1555 -0.7422
  774MPD2     C11471   0.060   4.673  13.874  0.7909  0.6221 -0.7153
  774MPD2    C111472   0.190   4.711  13.851  0.1658  0.6438  0.4172
  774MPD2    C211473   0.210   0.099  13.798  0.2392 -0.0961  0.7983
  774MPD2    C311474   0.104   0.171  13.753 -0.2456 -0.2859  0.2304
  774MPD2    C411475   4.719   0.119  13.775 -0.6298  0.7044 -0.1315
  774MPD2    C511476   4.692   4.736  13.828  0.3569 -1.1570 -0.1588
  774MPD2     H11477   0.313   0.131  13.786  0.1564 -0.2082 -0.2078
  774MPD2    H111478   4.632   0.176  13.743 -1.8325 -0.4223  1.0858
  774MPD2    H211479   0.041   4.583  13.932 -1.1889  0.3193 -1.8089
  774MPD2    H311480   4.592   4.698  13.843 -0.9816  1.4462 -2.4523
  774MPD2     N11481   0.132   0.291  13.683  0.3161 -0.1064  0.3734
  774MPD2    H511482   0.226   0.330  13.677  0.7133 -1.3817 -1.6468
  774MPD2    N111483   0.302   4.635  13.902 -0.0120 -0.1314  0.2226
  774MPD2    H711484   0.277   4.545  13.941  0.9247 -0.1052  0.8749
  775MPD2     C11485   1.365   1.783  15.302 -0.2169  0.3019 -0.5456
  775MPD2    C111486   1.358   1.875  15.414 -0.2247 -0.4826  0.3861
  775MPD2    C211487   1.468   1.957  15.424  0.0891 -0.4915 -0.1239
  775MPD2    C311488   1.577   1.936  15.343  0.0510  0.1987  0.0482
  775MPD2    C411489   1.579   1.846  15.235 -0.2297 -0.1298 -0.5288
  775MPD2    C511490   1.465   1.782  15.213  0.2251 -0.3176  0.7093
  775MPD2     H11491   1.471   2.035  15.499  0.0035 -0.8608  0.2659
  775MPD2    H111492   1.664   1.831  15.170 -0.5092  0.2555 -0.9871
  775MPD2    H211493   1.287   1.709  15.298 -0.1952  0.2191  0.7606
  775MPD2    H311494   1.459   1.713  15.130  1.2031  2.2530 -1.5149
  775MPD2     N11495   1.694   2.009  15.351  0.0559 -0.0998  0.0043
  775MPD2    H511496   1.758   2.002  15.272 -0.3225  1.5185 -0.4461
  775MPD2    N111497   1.251   1.864  15.506 -0.3135  0.1984 -0.2601
  775MPD2    H711498   1.174   1.802  15.484  0.6810 -0.3192 -2.3321
  776MPD2     C11499   1.165   1.951  11.624 -0.5093  0.7439 -0.1635
  776MPD2    C111500   1.246   1.899  11.526  0.8516 -0.7340  0.3572
  776MPD2    C211501   1.346   1.972  11.478 -1.0944 -0.2141  0.4173
  776MPD2    C311502   1.372   2.098  11.526  0.5700 -0.7300  0.3203
  776MPD2    C411503   1.299   2.150  11.623  0.0637  0.0089  0.6390
  776MPD2    C511504   1.195   2.077  11.669 -0.3274 -0.3437 -0.3871
  776MPD2     H11505   1.413   1.930  11.403 -0.2885  0.2479  0.8749
  776MPD2    H111506   1.323   2.243  11.673 -3.0236  0.2296  1.6406
  776MPD2    H211507   1.080   1.904  11.672 -0.4983 -0.9373 -1.8331
  776MPD2    H311508   1.129   2.120  11.743 -0.7863 -3.0614  0.7951
  776MPD2     N11509   1.482   2.176  11.479  0.2575  0.2987  0.1332
  776MPD2    H511510   1.492   2.269  11.518  2.3045  0.5898 -1.0562
  776MPD2    N111511   1.213   1.775  11.469 -0.0354  0.2200  0.1948
  776MPD2    H711512   1.120   1.743  11.490 -0.6783  1.5398 -0.6317
  777MPD2     C11513   0.927   4.468   0.278  0.1931  0.7031  0.4138
  777MPD2    C111514   0.969   4.400   0.389  0.0457 -0.4129  0.7001
  777MPD2    C211515   0.957   4.261   0.388  0.4052  0.1815  0.1182
  777MPD2    C311516   0.911   4.192   0.279  0.5016 -0.2519 -0.4105
  777MPD2    C411517   0.848   4.270   0.181  0.7162 -0.1431 -0.5069
  777MPD2    C511518   0.855   4.405   0.181  0.5291  0.3248  0.2119
  777MPD2     H11519   0.981   4.205   0.478 -0.9627 -1.6887 -0.6905
  777MPD2    H111520   0.799   4.230   0.092 -1.7259  1.2872  0.1914
  777MPD2    H211521   0.939   4.576   0.274 -0.9795  0.7853 -1.0757
  777MPD2    H311522   0.805   4.464   0.106 -1.6653  1.3307  2.4710
  777MPD2     N11523   0.885   4.054   0.291  0.1306 -0.4505  0.1918
  777MPD2    H511524   0.897   4.014   0.383 -2.9825 -0.7703  0.4509
  777MPD2    N111525   1.017   4.476   0.496 -0.3742 -0.6082 -0.0611
  777MPD2    H711526   1.033   4.575   0.482 -1.3990 -0.6676 -1.6135
  778MPD2     C11527   2.092   0.032  14.722 -0.0259  0.1122 -0.1295
  778MPD2    C111528   2.101   4.648  14.670 -0.1015  0.0703 -0.2696
  778MPD2    C211529   2.170   4.628  14.556  0.1590 -0.1446 -0.6779
  778MPD2    C311530   2.233   4.735  14.489 -0.1515 -0.2338  0.1571
  778MPD2    C411531   2.221   0.116  14.548 -0.6586  0.1832  0.2392
  778MPD2    C511532   2.148   0.133  14.661 -0.0543  0.0700 -0.4755
  778MPD2     H11533   2.182   4.530  14.512  0.6900 -0.2717 -0.2466
  778MPD2    H111534   2.281   0.200  14.513  0.2878 -0.2185  0.9015
  778MPD2    H211535   2.044   0.055  14.816  0.4223  2.4321 -0.4533
  778MPD2    H311536   2.149   0.233  14.703  0.8133 -1.5467  3.3050
  778MPD2     N11537   2.329   4.712  14.381 -0.1172  0.1053  0.3606
  778MPD2    H511538   2.340   4.621  14.337 -0.4530  0.6917 -0.9278
  778MPD2    N111539   2.052   4.539  14.743  0.1735  0.1137  0.8762
  778MPD2    H711540   2.050   4.456  14.684  0.7092  0.2381  0.6806
  779MPD2     C11541   1.583   3.087  14.397 -0.2073  0.3648 -0.6696
  779MPD2    C111542   1.707   3.061  14.349  0.0532  0.0925 -0.5659
  779MPD2    C211543   1.795   3.163  14.319 -0.1976 -0.1272 -0.6068
  779MPD2    C311544   1.752   3.290  14.311  0.3889  0.6643 -0.1741
  779MPD2    C411545   1.630   3.320  14.356  0.5463  0.1286 -0.2350
  779MPD2    C511546   1.545   3.223  14.399  0.4681  1.0101 -0.1272
  779MPD2     H11547   1.899   3.137  14.303 -0.2860  0.9005 -2.8207
  779MPD2    H111548   1.586   3.419  14.361  0.4469  0.0399  0.6391
  779MPD2    H211549   1.521   3.002  14.425  0.3338  0.9804  2.4155
  779MPD2    H311550   1.445   3.250  14.431 -0.1735 -1.1126 -0.3472
  779MPD2     N11551   1.848   3.387  14.273 -0.2951  0.2773  0.1584
  779MPD2    H511552   1.939   3.351  14.247 -0.8902 -0.0775 -1.4154
  779MPD2    N111553   1.757   2.929  14.335 -0.2096  0.2972 -0.1114
  779MPD2    H711554   1.848   2.929  14.291  0.0327  1.0387  0.3819
  780MPD2     C11555   2.173   3.182   1.105 -0.6010 -0.8053  0.3143
  780MPD2    C111556   2.046   3.246   1.116 -0.4003  0.7564  0.3975
  780MPD2    C211557   1.997   3.319   1.005  0.8462 -0.0641  0.0467
  780MPD2    C311558   2.074   3.324   0.889 -0.2490 -0.6170  0.1191
  780MPD2    C411559   2.201   3.273   0.884  0.6104 -0.0114  0.7330
  780MPD2    C511560   2.252   3.206   1.000 -0.0192  0.3674 -0.4492
  780MPD2     H11561   1.895   3.355   1.004  0.8597 -0.0290 -0.2593
  780MPD2    H111562   2.261   3.301   0.798  0.6910  0.1289  0.8337
  780MPD2    H211563   2.222   3.123   1.181 -1.0454  0.8580  1.9096
  780MPD2    H311564   2.351   3.163   0.993  0.1754  0.7659 -0.1092
  780MPD2     N11565   2.024   3.374   0.768  0.1647  0.0606 -0.0330
  780MPD2    H511566   2.078   3.352   0.685  0.4742 -0.6920  0.3705
  780MPD2    N111567   1.962   3.230   1.227 -0.0095  0.2825  0.0617
  780MPD2    H711568   1.998   3.170   1.301  0.2690  0.6740  0.2423
  781MPD2     C11569   3.936   0.046  11.949 -0.9385  0.7932  0.7067
  781MPD2    C111570   3.997   4.714  12.049  0.1858 -0.8887  0.4773
  781MPD2    C211571   4.108   4.638  12.012 -0.2217 -0.4669  0.0815
  781MPD2    C311572   4.156   4.644  11.883  0.2949 -0.0067  0.2378
  781MPD2    C411573   4.089   4.720  11.788 -0.1987  0.3487 -0.2515
  781MPD2    C511574   3.981   0.049  11.820 -0.3415 -0.7001 -0.3413
  781MPD2     H11575   4.160   4.579  12.087  0.6263  1.2718  0.8636
  781MPD2    H111576   4.111   4.721  11.682  1.5123  0.0053  0.1062
  781MPD2    H211577   3.851   0.111  11.967  1.1874  2.7690  3.6419
  781MPD2    H311578   3.931   0.109  11.744  0.0533  2.3806  1.8490
  781MPD2     N11579   4.273   4.569  11.843 -0.5772 -0.2749  0.0836
  781MPD2    H511580   4.304   4.569  11.746  0.9157 -1.1009  0.5553
  781MPD2    N111581   3.952   4.712  12.184 -0.0945  0.2296 -0.4013
  781MPD2    H711582   4.008   4.661  12.252 -3.6464  0.5858  2.8519
  782MPD2     C11583   2.204   0.428  10.209 -0.3278  0.4840  0.6508
  782MPD2    C111584   2.159   0.380  10.327  0.1153 -0.2700  0.4635
  782MPD2    C211585   2.145   0.471  10.431  0.6285  0.1717  0.5516
  782MPD2    C311586   2.177   0.604  10.422  0.2243  0.2836 -0.3027
  782MPD2    C411587   2.218   0.649  10.301 -0.0050 -0.5235 -0.5828
  782MPD2    C511588   2.223   0.566  10.193 -1.2771 -0.2075  0.0698
  782MPD2     H11589   2.112   0.436  10.529  0.8119 -3.6213 -0.7502
  782MPD2    H111590   2.242   0.753  10.284 -0.4975 -0.1819  0.7551
  782MPD2    H211591   2.230   0.362  10.127 -3.1553 -0.5711  0.6016
  782MPD2    H311592   2.257   0.590  10.093  1.8747  1.9735  1.6935
  782MPD2     N11593   2.186   0.691  10.535  0.3419 -0.2429  0.2315
  782MPD2    H511594   2.236   0.778  10.515  0.5171 -0.8424 -1.8774
  782MPD2    N111595   2.117   0.250  10.351  0.0992 -0.1771  0.0204
  782MPD2    H711596   2.075   0.238  10.442 -0.3357  0.8239 -0.0502
  783MPD2     C11597   1.633   4.693  10.955 -0.4615  0.1181  0.2262
  783MPD2    C111598   1.671   0.074  10.910  0.0798  0.7779 -0.0508
  783MPD2    C211599   1.779   0.080  10.818 -0.6697 -1.1536 -0.3519
  783MPD2    C311600   1.849   4.711  10.779  0.2080 -0.2052 -0.0779
  783MPD2    C411601   1.817   4.588  10.833 -0.0733 -0.1625  0.0813
  783MPD2    C511602   1.708   4.584  10.914  0.4566 -0.2083  0.8109
  783MPD2     H11603   1.800   0.180  10.784 -0.9877 -0.5463  1.2391
  783MPD2    H111604   1.873   4.496  10.818 -0.2448 -0.3204  0.4217
  783MPD2    H211605   1.552   4.681  11.026 -0.4935 -0.5176  0.0902
  783MPD2    H311606   1.678   4.483  10.939 -0.4817  0.2940  1.6873
  783MPD2     N11607   1.962   4.729  10.700  0.0840  0.2116 -0.0037
  783MPD2    H511608   1.965   0.078  10.655  1.0023  0.1541 -0.0531
  783MPD2    N111609   1.601   0.191  10.958  0.0802  0.0991 -0.0515
  783MPD2    H711610   1.517   0.178  11.014 -0.3789  1.0416 -0.5318
  784MPD2     C11611   3.334   1.248   0.562 -0.4158  0.8446  0.4096
  784MPD2    C111612   3.331   1.343   0.662 -0.5675 -0.0070 -0.5431
  784MPD2    C211613   3.215   1.420   0.678  0.1145 -0.7438 -0.5210
  784MPD2    C311614   3.105   1.401   0.600  0.5449  0.4130 -0.5949
  784MPD2    C411615   3.108   1.313   0.499  0.0716  0.0239 -0.1280
  784MPD2    C511616   3.218   1.229   0.488  0.3070 -0.8047  0.5933
  784MPD2     H11617   3.226   1.503   0.746 -2.3205 -2.1700  1.5877
  784MPD2    H111618   3.022   1.287   0.438  0.6290  1.8956 -1.6933
  784MPD2    H211619   3.421   1.190   0.532 -0.2945  1.9611 -1.4140
  784MPD2    H311620   3.218   1.144   0.420  1.1614 -0.3793  0.0624
  784MPD2     N11621   2.989   1.483   0.624 -0.4780  0.1468  0.5105
  784MPD2    H511622   2.999   1.555   0.695 -1.2231  2.1245 -1.3990
  784MPD2    N111623   3.453   1.371   0.735 -0.0783  0.4177 -0.4342
  784MPD2    H711624   3.441   1.449   0.798 -1.5059  0.4844 -0.7881
  785MPD2     C11625   4.474   4.086  10.634  0.0181 -0.1242 -0.2313
  785MPD2    C111626   4.490   4.204  10.564  0.1546 -0.8602 -0.8052
  785MPD2    C211627   4.380   4.271  10.511  0.5832  0.5430 -0.4545
  785MPD2    C311628   4.257   4.216  10.512 -0.7717 -0.3616 -0.4820
  785MPD2    C411629   4.247   4.086  10.567 -0.1052  0.0782  0.5275
  785MPD2    C511630   4.356   4.025  10.623 -0.3709 -0.3064  0.9173
  785MPD2     H11631   4.387   4.375  10.484  0.4030 -0.1249 -3.0712
  785MPD2    H111632   4.151   4.035  10.562  1.1994 -2.1621 -2.0484
  785MPD2    H211633   4.558   4.028  10.670  0.1978 -0.7663 -1.6921
  785MPD2    H311634   4.341   3.923  10.656 -2.8783  0.5853  2.5897
  785MPD2     N11635   4.144   4.295  10.492 -0.9525 -0.3349  0.0083
  785MPD2    H511636   4.162   4.387  10.453  1.2704 -2.1369 -3.2058
  785MPD2    N111637   4.616   4.270  10.574  0.5176  0.0711  0.1094
  785MPD2    H711638   4.678   4.249  10.652  0.1082 -3.1970 -0.4294
  786MPD2     C11639   2.188   2.519  14.578 -0.0560 -0.5839  0.3020
  786MPD2    C111640   2.296   2.438  14.566  0.1623 -0.1703  0.8774
  786MPD2    C211641   2.388   2.420  14.671 -0.3698  0.4079 -0.1386
  786MPD2    C311642   2.362   2.481  14.794 -0.3345  0.4129  0.3174
  786MPD2    C411643   2.258   2.565  14.805 -0.2723  0.0710 -0.2479
  786MPD2    C511644   2.176   2.586  14.696  0.0312 -0.3163  0.4655
  786MPD2     H11645   2.475   2.357  14.657  0.6471  1.7237  0.2863
  786MPD2    H111646   2.241   2.614  14.900 -2.6811 -1.6325  0.1994
  786MPD2    H211647   2.113   2.528  14.499  0.4671  4.3393  0.3702
  786MPD2    H311648   2.091   2.649  14.718 -1.2969 -2.3953  1.2787
  786MPD2     N11649   2.447   2.466  14.910  0.1456 -0.6453  0.2980
  786MPD2    H511650   2.441   2.517  14.997 -0.5397 -0.6280  0.2420
  786MPD2    N111651   2.317   2.363  14.452 -0.0242 -0.1653  0.4683
  786MPD2    H711652   2.406   2.314  14.444  0.2314  0.3738 -0.0249
  787MPD2     C11653   2.677   2.053  14.650 -0.1779  0.8314 -0.1197
  787MPD2    C111654   2.658   1.974  14.543  0.4443  0.0376 -0.5803
  787MPD2    C211655   2.716   1.845  14.540  0.2751 -0.2851  0.5367
  787MPD2    C311656   2.778   1.793  14.649 -0.5818  0.1349  0.1084
  787MPD2    C411657   2.799   1.882  14.753  0.5973 -0.5662 -0.1073
  787MPD2    C511658   2.755   2.011  14.753  0.2460 -0.6234  0.0685
  787MPD2     H11659   2.709   1.777  14.456 -1.3710 -0.0008  0.4449
  787MPD2    H111660   2.870   1.854  14.831  0.4657  0.2738  0.3149
  787MPD2    H211661   2.647   2.157  14.653  1.2638  1.2834 -1.3177
  787MPD2    H311662   2.761   2.077  14.839  2.4064  0.4809 -0.9347
  787MPD2     N11663   2.849   1.676  14.644  0.1655 -0.6388  0.3470
  787MPD2    H511664   2.880   1.641  14.554  0.4110  0.4104  0.0227
  787MPD2    N111665   2.574   2.021  14.441  0.1786 -0.3741 -0.4123
  787MPD2    H711666   2.556   2.121  14.444  1.7969 -0.0850 -0.2591
  788MPD2     C11667   4.567   1.578   0.778 -0.1804 -0.6898 -0.0908
  788MPD2    C111668   4.580   1.570   0.639  0.3840  0.4113 -0.4330
  788MPD2    C211669   4.526   1.678   0.568  0.4823 -0.9748  0.0842
  788MPD2    C311670   4.457   1.774   0.632  0.4323  0.4977  0.3941
  788MPD2    C411671   4.461   1.787   0.768  0.9933 -0.1401 -0.3121
  788MPD2    C511672   4.520   1.687   0.838 -0.0417  0.5855  0.3292
  788MPD2     H11673   4.525   1.662   0.461 -0.9768 -0.7782  0.0592
  788MPD2    H111674   4.428   1.874   0.825  1.4463 -0.0705 -0.1531
  788MPD2    H211675   4.611   1.497   0.835 -0.2513 -0.2978  0.5153
  788MPD2    H311676   4.531   1.694   0.945  0.8898  0.9345  0.2154
  788MPD2     N11677   4.365   1.857   0.548  0.0721 -0.0799 -0.1497
  788MPD2    H511678   4.309   1.923   0.602  3.2933  0.2354  2.7869
  788MPD2    N111679   4.612   1.452   0.569 -0.2950  0.6051  0.2557
  788MPD2    H711680   4.616   1.458   0.467  1.8514 -0.6156  0.2916
  789MPD2     C11681   4.589   0.765  16.336  0.2378  0.1400 -0.7803
  789MPD2    C111682   4.546   0.719  16.460 -0.3159  0.7074  0.2189
  789MPD2    C211683   4.451   0.789  16.530  0.3547  1.3262 -0.4659
  789MPD2    C311684   4.403   0.908  16.476 -0.0235 -0.2132  0.0889
  789MPD2    C411685   4.437   0.943  16.342  0.2824  0.2402  1.0632
  789MPD2    C511686   4.530   0.874  16.273  0.5355 -0.0032  0.2813
  789MPD2     H11687   4.417   0.758  16.628  2.0932  0.6412 -0.0849
  789MPD2    H111688   4.406   1.039  16.301 -0.6216 -0.3395  0.4110
  789MPD2    H211689   4.661   0.712  16.274  0.5341  0.7838 -0.9920
  789MPD2    H311690   4.559   0.893  16.171 -2.0712  0.6549 -0.3251
  789MPD2     N11691   4.320   1.000  16.549 -0.2746 -0.4232  0.2997
  789MPD2    H511692   4.280   1.074  16.492 -0.0560 -2.1778 -2.0966
  789MPD2    N111693   4.591   0.599  16.522  0.1412  0.1684 -0.7560
  789MPD2    H711694   4.536   0.556  16.596 -2.2302  0.9307 -2.0875
  790MPD2     C11695   1.303   2.531  13.255  0.4990 -0.2238  0.5294
  790MPD2    C111696   1.224   2.420  13.216 -0.0724  0.7490  0.2340
  790MPD2    C211697   1.199   2.394  13.083 -0.0558 -0.0789 -0.0620
  790MPD2    C311698   1.230   2.483  12.987  0.3989 -0.2550  0.2535
  790MPD2    C411699   1.307   2.591  13.026 -0.1645  0.5365 -0.5405
  790MPD2    C511700   1.349   2.612  13.160 -0.4106  0.1486 -0.0546
  790MPD2     H11701   1.141   2.307  13.054  0.7639 -0.6329 -0.0339
  790MPD2    H111702   1.348   2.666  12.959  0.1806  0.9923  0.1802
  790MPD2    H211703   1.327   2.547  13.360  2.7947 -0.3890  0.0136
  790MPD2    H311704   1.404   2.704  13.179 -0.3752  0.3172 -0.9452
  790MPD2     N11705   1.197   2.451  12.851  0.3524 -0.7826  0.1090
  790MPD2    H511706   1.131   2.375  12.837 -2.0655  1.7163 -1.9454
  790MPD2    N111707   1.180   2.342  13.322 -0.1501  0.3482  0.2885
  790MPD2    H711708   1.197   2.383  13.413 -1.5284  0.1923  0.6266
  791MPD2     C11709   0.539   2.578  12.521  0.8009  0.1203  0.1197
  791MPD2    C111710   0.634   2.475  12.526 -0.0319 -0.0866 -0.6504
  791MPD2    C211711   0.584   2.356  12.578 -0.4089 -0.2252  0.1398
  791MPD2    C311712   0.456   2.337  12.624 -0.6111 -0.4073 -0.0750
  791MPD2    C411713   0.366   2.442  12.618 -0.6164 -0.2761  0.3143
  791MPD2    C511714   0.414   2.561  12.571 -0.5888 -0.4575  0.3974
  791MPD2     H11715   0.653   2.275  12.596 -1.0886 -1.1391 -1.4267
  791MPD2    H111716   0.266   2.443  12.658 -0.1658 -0.4163  1.4379
  791MPD2    H211717   0.567   2.677  12.486 -0.4492  1.1835  2.1819
  791MPD2    H311718   0.353   2.650  12.575 -0.5314 -0.4039  0.1292
  791MPD2     N11719   0.434   2.215  12.681  0.3704  0.2258 -0.6581
  791MPD2    H511720   0.511   2.150  12.690  1.4895  1.2564 -2.9616
  791MPD2    N111721   0.771   2.493  12.488  0.0166 -0.2002 -0.1098
  791MPD2    H711722   0.806   2.588  12.475  0.3709 -0.0411  2.1054
  792MPD2     C11723   2.138   1.255  10.858  0.8553 -0.3637 -0.3939
  792MPD2    C111724   2.019   1.305  10.908 -0.0792 -0.4576  0.2365
  792MPD2    C211725   1.899   1.243  10.874 -0.4509  0.4713  0.1771
  792MPD2    C311726   1.895   1.137  10.785  0.3794 -0.3417  0.3621
  792MPD2    C411727   2.018   1.086  10.732  0.4651 -0.3968 -0.0416
  792MPD2    C511728   2.131   1.152  10.770 -0.3961 -0.4971 -0.3766
  792MPD2     H11729   1.807   1.280  10.919 -0.1686  0.8926  0.4114
  792MPD2    H111730   2.011   0.993  10.676  0.1584 -0.2533 -0.2416
  792MPD2    H211731   2.229   1.307  10.885  1.8551 -0.5007 -3.5512
  792MPD2    H311732   2.221   1.100  10.738 -0.2676 -0.6119  0.1722
  792MPD2     N11733   1.770   1.072  10.761  0.0695 -0.4411  0.2714
  792MPD2    H511734   1.766   0.982  10.714 -2.4365  0.3688 -1.0597
  792MPD2    N111735   2.021   1.408  11.005  0.1261 -0.9853  0.5259
  792MPD2    H711736   2.103   1.446  11.051 -0.7852  2.5407 -0.7302
  793MPD2     C11737   0.868   1.455  10.954 -0.3801  0.3103  0.6514
  793MPD2    C111738   0.988   1.497  10.894  0.4569  0.0329 -0.5807
  793MPD2    C211739   1.079   1.399  10.879  0.3085 -0.2818 -0.0602
  793MPD2    C311740   1.072   1.267  10.906  0.3883 -0.0150 -0.1784
  793MPD2    C411741   0.947   1.230  10.960  0.1819  0.1115 -0.7539
  793MPD2    C511742   0.852   1.319  10.982  0.4734 -0.2123  0.1062
  793MPD2     H11743   1.174   1.434  10.840 -0.3886  1.8933  0.2195
  793MPD2    H111744   0.928   1.126  10.987  0.9225 -0.6982 -3.3096
  793MPD2    H211745   0.784   1.522  10.970 -0.5070  0.0502  1.0918
  793MPD2    H311746   0.758   1.284  11.023 -0.3647  1.5215 -0.3236
  793MPD2     N11747   1.180   1.190  10.871  0.2926 -0.3445  0.4358
  793MPD2    H511748   1.248   1.231  10.808  0.5714 -1.9555 -0.3192
  793MPD2    N111749   1.014   1.632  10.851  0.1673 -0.0923  0.1289
  793MPD2    H711750   1.105   1.648  10.808 -0.0168  0.9137  0.1096
  794MPD2     C11751   0.403   1.296  16.412 -0.0189  0.2493  0.6819
  794MPD2    C111752   0.310   1.369  16.484 -0.3849  0.3996  0.4421
  794MPD2    C211753   0.215   1.439  16.417  0.1472 -0.3956  0.0105
  794MPD2    C311754   0.214   1.437  16.277  0.0413 -0.4024  0.2969
  794MPD2    C411755   0.311   1.367  16.208  0.7714 -0.3852  0.2815
  794MPD2    C511756   0.408   1.299  16.275 -0.0572  0.3240 -0.6696
  794MPD2     H11757   0.151   1.508  16.470  0.0666 -0.4974  0.0473
  794MPD2    H111758   0.302   1.367  16.099  1.1500  0.2365  0.2470
  794MPD2    H211759   0.474   1.228  16.459 -0.6662  0.4827  1.9897
  794MPD2    H311760   0.479   1.240  16.219 -2.2491 -2.3465 -0.6284
  794MPD2     N11761   0.121   1.504  16.191  0.0803 -0.5321  0.6694
  794MPD2    H511762   0.131   1.484  16.092  1.4467  1.6106  0.3871
  794MPD2    N111763   0.306   1.379  16.626 -0.4438 -0.0054  0.5906
  794MPD2    H711764   0.223   1.418  16.669 -0.3082 -0.6999  1.4918
  795MPD2     C11765   3.084   3.338  13.670 -0.5325  0.2461 -0.9187
  795MPD2    C111766   3.164   3.354  13.556 -0.0645 -0.2011  0.1594
  795MPD2    C211767   3.287   3.288  13.542  0.0876 -0.1883 -0.2692
  795MPD2    C311768   3.332   3.216  13.652  0.2717  0.2237 -0.1566
  795MPD2    C411769   3.244   3.187  13.761 -0.0154  0.0771  0.7769
  795MPD2    C511770   3.123   3.251  13.768  0.0494 -0.2095  0.4606
  795MPD2     H11771   3.358   3.307  13.462 -0.6032 -1.3568 -1.1530
  795MPD2    H111772   3.277   3.122  13.841 -0.1062  0.0790  0.8155
  795MPD2    H211773   2.985   3.380  13.680 -1.5487 -1.8382 -2.1635
  795MPD2    H311774   3.065   3.230  13.857 -0.7540 -0.5983 -0.1533
  795MPD2     N11775   3.460   3.151  13.653 -0.2692  0.2820  0.0140
  795MPD2    H511776   3.483   3.102  13.739 -3.1053 -1.2557 -0.0966
  795MPD2    N111777   3.118   3.434  13.453 -0.0255 -0.0414 -0.4722
  795MPD2    H711778   3.167   3.442  13.365 -0.5467 -0.7786 -0.8219
  796MPD2     C11779   2.220   0.365  15.622  0.0096 -0.5728  0.5021
  796MPD2    C111780   2.325   0.421  15.687  0.4767 -0.9540  1.0556
  796MPD2    C211781   2.389   0.534  15.625 -0.1819  0.1979 -0.0685
  796MPD2    C311782   2.348   0.580  15.503 -0.5326  0.0764  0.4133
  796MPD2    C411783   2.247   0.512  15.433  0.0799 -0.0633  1.2912
  796MPD2    C511784   2.184   0.408  15.497  0.1350 -0.4697  0.5463
  796MPD2     H11785   2.475   0.581  15.673 -1.1413  1.8934  0.0057
  796MPD2    H111786   2.215   0.535  15.332 -0.4718  0.4682  1.5835
  796MPD2    H211787   2.165   0.285  15.670 -0.4873 -1.7035 -1.9379
  796MPD2    H311788   2.108   0.363  15.434  1.2936  0.0067 -1.2097
  796MPD2     N11789   2.418   0.690  15.452 -0.4583 -0.1259 -0.0969
  796MPD2    H511790   2.498   0.728  15.501 -1.1081  0.5521  0.4424
  796MPD2    N111791   2.349   0.373  15.817 -0.3839  0.0399  0.2125
  796MPD2    H711792   2.278   0.308  15.849 -2.3814  1.8064 -0.6605
  797MPD2     C11793   3.775   0.359  16.976 -0.5910  0.6089 -0.2544
  797MPD2    C111794   3.707   0.477  16.989  0.1811 -0.2163  0.0760
  797MPD2    C211795   3.572   0.480  16.959  0.4513 -0.2832  0.3475
  797MPD2    C311796   3.499   0.364  16.948 -1.1393 -0.3051  0.7632
  797MPD2    C411797   3.567   0.242  16.938  0.5259  0.2913 -0.7315
  797MPD2    C511798   3.704   0.240  16.945 -0.1287  0.3767 -0.4968
  797MPD2     H11799   3.520   0.574  16.953  0.0501 -0.4320  1.6189
  797MPD2    H111800   3.513   0.151  16.915 -0.2558  0.5716  0.0014
  797MPD2    H211801   3.882   0.357  16.990 -0.7147  0.7784  0.7500
  797MPD2    H311802   3.752   0.144  16.930  0.7543  1.0455 -1.9778
  797MPD2     N11803   3.361   0.355  16.956  0.0905 -0.2662 -0.2583
  797MPD2    H511804   3.312   0.265  16.957  2.1020 -1.3721 -1.8785
  797MPD2    N111805   3.768   0.602  17.023 -0.0506  0.1275  0.0640
  797MPD2    H711806   3.700   0.676  17.038  0.8077  1.0701 -0.7011
  798MPD2     C11807   3.278   0.638  17.513 -0.6794 -0.2214  0.5929
  798MPD2    C111808   3.317   0.619  17.383 -0.6581 -0.2703  0.2152
  798MPD2    C211809   3.448   0.630  17.342 -0.4103  0.4293  0.0565
  798MPD2    C311810   3.544   0.656  17.442  0.0891 -0.5800  0.2397
  798MPD2    C411811   3.509   0.671  17.570  1.1818 -0.2053  0.0471
  798MPD2    C511812   3.377   0.658  17.604 -0.1560 -0.1641  0.1033
  798MPD2     H11813   3.486   0.606  17.243 -0.1987  0.4253  0.1384
  798MPD2    H111814   3.583   0.680  17.649 -0.3300  2.7601  1.1233
  798MPD2    H211815   3.179   0.630  17.555 -0.3916 -2.7944  0.7910
  798MPD2    H311816   3.363   0.665  17.711  0.1516 -1.7857  0.2456
  798MPD2     N11817   3.673   0.679  17.386  0.7754 -0.0444  0.1250
  798MPD2    H511818   3.685   0.652  17.289 -0.6064  2.7730 -0.8120
  798MPD2    N111819   3.221   0.583  17.283  0.2314 -0.1295  0.3712
  798MPD2    H711820   3.248   0.562  17.188  1.2525  0.6117  0.4894
  799MPD2     C11821   2.658   1.384  14.604  0.0201  0.1785  0.1950
  799MPD2    C111822   2.668   1.303  14.498 -0.4168 -0.4597  0.2228
  799MPD2    C211823   2.618   1.345  14.377  0.7409 -0.2245  0.1665
  799MPD2    C311824   2.569   1.478  14.355 -0.2515 -0.2921  0.0460
  799MPD2    C411825   2.544   1.545  14.472 -0.7200 -0.0320 -0.4929
  799MPD2    C511826   2.594   1.499  14.589 -0.2161  0.5579 -0.3803
  799MPD2     H11827   2.648   1.287  14.290  0.0396 -1.0198  0.4536
  799MPD2    H111828   2.511   1.647  14.461 -0.0358  0.1458 -0.9038
  799MPD2    H211829   2.684   1.349  14.703 -0.8665  1.0058  0.7315
  799MPD2    H311830   2.578   1.557  14.679 -1.3958  2.0618 -1.5744
  799MPD2     N11831   2.539   1.539  14.229 -0.1448  0.7212 -0.5190
  799MPD2    H511832   2.524   1.640  14.232  0.3990  0.8289 -1.6591
  799MPD2    N111833   2.729   1.177  14.507 -0.1479  0.4504 -0.7842
  799MPD2    H711834   2.733   1.126  14.419  2.2295  0.3816 -0.6389
  800MPD2     C11835   3.373   2.816  14.770  0.4652 -0.1245  0.8182
  800MPD2    C111836   3.470   2.819  14.670  0.4462 -0.1756 -0.2421
  800MPD2    C211837   3.465   2.730  14.566  0.2764 -0.7018 -0.4527
  800MPD2    C311838   3.360   2.645  14.550 -0.0345 -0.1125 -0.3111
  800MPD2    C411839   3.257   2.644  14.640 -0.2454 -0.3378  0.3620
  800MPD2    C511840   3.272   2.730  14.754 -0.2925  0.2064  0.1372
  800MPD2     H11841   3.537   2.730  14.485 -0.6068  0.8153 -1.2302
  800MPD2    H111842   3.163   2.590  14.630 -0.5812  0.8384 -2.8084
  800MPD2    H211843   3.377   2.878  14.859 -0.6886 -0.9180  1.4235
  800MPD2    H311844   3.190   2.734  14.825 -2.2767 -1.6097 -2.0166
  800MPD2     N11845   3.364   2.565  14.434  0.5049 -0.1186  0.7423
  800MPD2    H511846   3.448   2.574  14.378  0.7833 -1.1399  0.9987
  800MPD2    N111847   3.579   2.901  14.693  0.4613 -0.3397  0.5201
  800MPD2    H711848   3.579   2.955  14.779 -0.2750  0.7288 -0.1489
  801MPD2     C11849   3.570   3.478  14.328  0.2901  0.2195  0.4798
  801MPD2    C111850   3.545   3.434  14.452  0.1227 -0.6578 -0.1244
  801MPD2    C211851   3.420   3.445  14.507 -0.6942 -0.3132  0.2382
  801MPD2    C311852   3.313   3.496  14.429 -0.2897  0.0849  0.2080
  801MPD2    C411853   3.346   3.548  14.302  0.1374  0.4288 -0.9855
  801MPD2    C511854   3.472   3.529  14.248 -0.5654 -0.8023 -0.5722
  801MPD2     H11855   3.398   3.400  14.604  1.8950 -0.1110  0.9158
  801MPD2    H111856   3.271   3.580  14.230  0.5466 -2.2001 -2.5982
  801MPD2    H211857   3.670   3.476  14.286  0.0008  1.0223 -0.2424
  801MPD2    H311858   3.493   3.546  14.144  0.6134 -0.3796 -0.2656
  801MPD2     N11859   3.183   3.499  14.470  0.2030 -0.8273 -0.0276
  801MPD2    H511860   3.113   3.512  14.399 -1.7074  0.1505  2.0238
  801MPD2    N111861   3.634   3.367  14.529 -0.3738 -0.2700 -0.0707
  801MPD2    H711862   3.594   3.337  14.617 -0.1922  0.5681  0.3023
  802MPD2     C11863   2.255   3.960  17.684  0.5902 -0.8650 -0.0559
  802MPD2    C111864   2.341   3.932   0.018 -0.4722  0.2713 -0.9052
  802MPD2    C211865   2.363   3.804   0.053 -0.0683  0.4637 -0.0518
  802MPD2    C311866   2.303   3.701  17.754  0.7098 -0.2128 -0.2463
  802MPD2    C411867   2.216   3.729  17.654 -0.2598  0.2646  0.2511
  802MPD2    C511868   2.193   3.860  17.615 -0.4914  0.9153  0.7394
  802MPD2     H11869   2.439   3.782   0.127  0.4364  3.4999  0.3583
  802MPD2    H111870   2.180   3.648  17.591 -1.7810  0.5245  0.7840
  802MPD2    H211871   2.252   4.061  17.643  0.7305 -1.2316 -0.9639
  802MPD2    H311872   2.126   3.880  17.531 -1.1153 -0.7145  0.8485
  802MPD2     N11873   2.351   3.569   0.017  0.1469 -0.6774  0.4293
  802MPD2    H511874   2.428   3.563   0.083  0.3561 -1.8992  0.0603
  802MPD2    N111875   2.417   4.032   0.088 -0.2731  0.1400  0.7760
  802MPD2    H711876   2.456   4.005   0.178  0.4698 -0.6406  0.2245
  803MPD2     C11877   3.842   1.208  12.083  0.1253 -0.3879  0.2941
  803MPD2    C111878   3.821   1.339  12.108  1.1739  0.0400 -0.0173
  803MPD2    C211879   3.821   1.384  12.239  0.6176 -0.8320 -0.1560
  803MPD2    C311880   3.845   1.300  12.348  0.0883 -0.7244  0.2115
  803MPD2    C411881   3.871   1.168  12.321 -0.5757  0.1243 -0.0648
  803MPD2    C511882   3.870   1.123  12.191  0.2794 -0.2169 -0.4195
  803MPD2     H11883   3.784   1.485  12.245  1.9048 -0.5107  2.2498
  803MPD2    H111884   3.909   1.097  12.394 -2.4598  0.2549  1.0628
  803MPD2    H211885   3.854   1.162  11.986  2.0581  0.8227 -0.0130
  803MPD2    H311886   3.882   1.017  12.174  2.1215 -0.3817  1.9250
  803MPD2     N11887   3.860   1.348  12.485  0.7045  0.4551 -0.3880
  803MPD2    H511888   3.898   1.281  12.551 -1.1973 -1.6599 -1.4449
  803MPD2    N111889   3.793   1.431  12.005 -0.2937 -0.8021  0.3663
  803MPD2    H711890   3.809   1.529  12.027 -2.7086  0.0418 -1.6227
  804MPD2     C11891   2.954   3.453  16.926  0.2144 -0.0979  0.4187
  804MPD2    C111892   2.984   3.427  17.058 -0.3097  0.6743 -0.6511
  804MPD2    C211893   3.063   3.520  17.134  0.7306  0.0637  0.3627
  804MPD2    C311894   3.098   3.638  17.079  0.1298  0.0080  0.2888
  804MPD2    C411895   3.063   3.668  16.955  0.3234  0.2231  0.2424
  804MPD2    C511896   3.003   3.572  16.879 -0.3528 -0.8119 -0.0250
  804MPD2     H11897   3.093   3.501  17.236  0.3132 -0.2547  0.4268
  804MPD2    H111898   3.093   3.759  16.904 -1.4102  0.3302 -0.5625
  804MPD2    H211899   2.909   3.383  16.857 -0.6319  0.3823  0.4773
  804MPD2    H311900   2.994   3.597  16.774  0.4596  1.0251  0.3477
  804MPD2     N11901   3.180   3.727  17.161  0.1407 -0.0336 -0.0922
  804MPD2    H511902   3.203   3.695  17.254  1.0554 -0.3127 -0.4144
  804MPD2    N111903   2.942   3.312  17.122  0.0737 -0.0202  0.8090
  804MPD2    H711904   2.971   3.311  17.219  2.6276 -3.0521 -0.0041
  805MPD2     C11905   2.137   1.994  15.394  0.9371  0.0939 -0.3963
  805MPD2    C111906   2.234   1.955  15.307 -0.6045  0.5654  0.3675
  805MPD2    C211907   2.362   1.953  15.351  0.6934 -0.2258 -0.3905
  805MPD2    C311908   2.398   2.000  15.476  0.3050  0.0473  0.2975
  805MPD2    C411909   2.298   2.059  15.557  0.1193  0.1142 -0.0214
  805MPD2    C511910   2.168   2.054  15.515  0.0276  0.3544  0.7072
  805MPD2     H11911   2.443   1.910  15.292 -0.2476 -2.6225  0.0924
  805MPD2    H111912   2.313   2.094  15.658  0.3759  1.4701 -0.5176
  805MPD2    H211913   2.030   1.994  15.372  1.1726  0.4148 -1.5236
  805MPD2    H311914   2.096   2.089  15.588  0.2221  1.4355  0.3915
  805MPD2     N11915   2.527   1.984  15.527  0.4643 -0.2645 -0.0534
  805MPD2    H511916   2.594   1.952  15.458 -1.3704  0.3109 -2.1087
  805MPD2    N111917   2.208   1.908  15.178 -0.5677 -0.2159 -0.1862
  805MPD2    H711918   2.287   1.883  15.118 -0.0875  0.0686  0.3257
  806MPD2     C11919   2.397   0.923   0.918 -0.1921 -0.1006  0.1184
  806MPD2    C111920   2.527   0.955   0.885 -0.5998  0.3166 -0.3452
  806MPD2    C211921   2.559   0.990   0.760  0.4880  0.6191  0.3325
  806MPD2    C311922   2.459   1.011   0.664 -0.5343 -0.2579 -0.7238
  806MPD2    C411923   2.327   0.974   0.695 -0.7505 -0.0397 -0.7193
  806MPD2    C511924   2.300   0.928   0.825 -0.1313 -0.5674  0.0908
  806MPD2     H11925   2.657   1.032   0.742 -0.4653  3.0100  0.7982
  806MPD2    H111926   2.242   0.982   0.629 -2.3037 -0.1650  1.2813
  806MPD2    H211927   2.357   0.900   1.016 -0.8384 -1.1064 -0.3746
  806MPD2    H311928   2.200   0.908   0.861 -0.4108  0.4340 -0.1409
  806MPD2     N11929   2.496   1.072   0.543 -0.0382  0.3601 -0.2190
  806MPD2    H511930   2.594   1.082   0.521  0.2983 -2.1666  0.1284
  806MPD2    N111931   2.622   0.955   0.993 -0.7846 -0.0634 -0.6487
  806MPD2    H711932   2.586   0.931   1.085  0.7920 -1.4732 -0.4100
  807MPD2     C11933   2.617   1.190   1.690 -0.4697 -0.2200 -0.0716
  807MPD2    C111934   2.575   1.105   1.594  0.1386 -0.1577  0.5121
  807MPD2    C211935   2.449   1.050   1.604 -0.7605 -0.0704  0.3584
  807MPD2    C311936   2.355   1.084   1.703 -0.3829 -0.1927  0.1102
  807MPD2    C411937   2.408   1.168   1.803 -0.0773  0.1009 -0.1773
  807MPD2    C511938   2.530   1.221   1.795  0.5719  0.0023 -0.2292
  807MPD2     H11939   2.415   0.984   1.525 -0.8513 -1.0382  1.2038
  807MPD2    H111940   2.344   1.207   1.881 -0.6566  0.2864 -0.7382
  807MPD2    H211941   2.712   1.242   1.688 -1.0295  0.7786 -0.8527
  807MPD2    H311942   2.576   1.289   1.866 -1.0027 -0.0423  0.8222
  807MPD2     N11943   2.224   1.037   1.709 -0.0136 -0.2348  0.7746
  807MPD2    H511944   2.210   0.968   1.637  0.8424  0.5290 -0.1213
  807MPD2    N111945   2.647   1.061   1.479  0.0754  0.0488  0.5014
  807MPD2    H711946   2.602   1.001   1.410 -0.5668  1.3224 -0.1924
  808MPD2     C11947   3.394   2.671   9.721  0.2791  0.3099 -0.2854
  808MPD2    C111948   3.411   2.634   9.857  0.1810 -0.1756  0.0345
  808MPD2    C211949   3.450   2.736   9.946  1.0902 -0.3958  0.0551
  808MPD2    C311950   3.485   2.863   9.891  0.5969  0.5417  0.1406
  808MPD2    C411951   3.452   2.899   9.763  0.8934 -0.0501 -0.8511
  808MPD2    C511952   3.406   2.805   9.683 -0.0986 -0.5564  0.5181
  808MPD2     H11953   3.457   2.716  10.052  1.5769 -1.3284 -0.1489
  808MPD2    H111954   3.458   3.000   9.724  0.2494  1.1581  2.1334
  808MPD2    H211955   3.360   2.597   9.650 -0.4148  2.4369 -2.1711
  808MPD2    H311956   3.380   2.834   9.582  0.3567  0.1210  0.5936
  808MPD2     N11957   3.528   2.973   9.962  0.1519  0.1374 -0.3652
  808MPD2    H511958   3.523   3.063   9.915  0.1782  0.5914  0.5153
  808MPD2    N111959   3.381   2.503   9.912  0.0399 -0.1159  0.1257
  808MPD2    H711960   3.416   2.490  10.006 -1.5526  0.1369  0.7563
  809MPD2     C11961   3.866   2.758  10.780 -0.5302  0.5832 -0.6774
  809MPD2    C111962   3.967   2.819  10.699 -0.1325 -0.4005  0.2769
  809MPD2    C211963   3.930   2.922  10.619 -1.0603  0.5468  0.1714
  809MPD2    C311964   3.801   2.964  10.620  0.5804  1.0021 -0.4130
  809MPD2    C411965   3.700   2.898  10.678  0.0697 -0.1695  0.1803
  809MPD2    C511966   3.735   2.794  10.760 -0.6951  0.2009 -0.4790
  809MPD2     H11967   4.008   2.976  10.565 -2.6230  0.7837 -1.8356
  809MPD2    H111968   3.596   2.928  10.670  0.5140  1.0796 -0.8493
  809MPD2    H211969   3.885   2.689  10.862 -0.1969 -0.6711 -1.8136
  809MPD2    H311970   3.661   2.748  10.825 -2.0026  0.6701 -1.6362
  809MPD2     N11971   3.756   3.069  10.531 -0.4639  0.2094 -0.3756
  809MPD2    H511972   3.657   3.064  10.509 -0.0147 -2.8101 -1.6667
  809MPD2    N111973   4.107   2.796  10.709  0.1695 -0.1452  0.4241
  809MPD2    H711974   4.166   2.840  10.639 -2.4345  1.3717 -0.8205
  810MPD2     C11975   3.520   1.762  10.802 -0.0692 -0.1110  0.1441
  810MPD2    C111976   3.465   1.809  10.686  0.1234 -0.1416 -0.2645
  810MPD2    C211977   3.428   1.940  10.679  0.4151 -0.2555  0.8466
  810MPD2    C311978   3.444   2.021  10.789 -1.1490  0.1998  0.3178
  810MPD2    C411979   3.518   1.978  10.893 -0.0755 -0.0403 -0.4904
  810MPD2    C511980   3.551   1.846  10.904  0.1474  0.2484 -0.0895
  810MPD2     H11981   3.400   1.977  10.580  2.1907  0.1176  0.4890
  810MPD2    H111982   3.537   2.037  10.981  1.8973  0.5911 -1.3554
  810MPD2    H211983   3.557   1.660  10.813 -0.9051 -0.2211  1.9380
  810MPD2    H311984   3.601   1.805  10.991  1.3983 -0.5572 -1.2007
  810MPD2     N11985   3.381   2.149  10.793 -0.4069  0.2479  0.3872
  810MPD2    H511986   3.403   2.205  10.875  3.2613 -1.4085  0.5545
  810MPD2    N111987   3.445   1.726  10.577  0.7741 -0.6226 -0.3851
  810MPD2    H711988   3.402   1.770  10.497  0.5166  1.3348  0.8417
  811MPD2     C11989   2.945   1.697   9.936  0.2692 -0.0383  0.0324
  811MPD2    C111990   3.012   1.739  10.045  0.3740 -0.4896 -0.2176
  811MPD2    C211991   2.987   1.868  10.085  0.3853  0.3235 -0.9573
  811MPD2    C311992   2.893   1.949  10.026 -0.6786  0.2329  0.3819
  811MPD2    C411993   2.837   1.903   9.909 -0.2464  0.0842  0.3305
  811MPD2    C511994   2.864   1.776   9.864  0.4262 -0.0988  0.6660
  811MPD2     H11995   3.031   1.907  10.177  2.1583 -1.1571 -1.1801
  811MPD2    H111996   2.782   1.963   9.838 -0.3444  1.0126  1.1975
  811MPD2    H211997   2.976   1.608   9.882  2.4338  0.8051 -0.1345
  811MPD2    H311998   2.827   1.741   9.769 -0.9690 -1.8750  1.8723
  811MPD2     N11999   2.867   2.082  10.073 -0.3377  0.2004 -0.5897
  811MPD2    H512000   2.926   2.119  10.147 -0.3933  0.8326 -0.8649
  811MPD2    N112001   3.109   1.652  10.102  0.0724 -0.7277  0.2543
  811MPD2    H712002   3.120   1.558  10.065 -1.3300 -0.3691 -1.0903
  812MPD2     C12003   2.182   1.559  12.118 -0.8875  0.2945  0.4956
  812MPD2    C112004   2.109   1.662  12.172 -0.3284 -0.0183  0.3195
  812MPD2    C212005   2.018   1.630  12.266 -0.1396 -0.5222 -0.3459
  812MPD2    C312006   1.973   1.500  12.281 -0.6984  0.1216  0.2750
  812MPD2    C412007   2.032   1.394  12.210  0.4744 -0.1089  0.2068
  812MPD2    C512008   2.139   1.428  12.131 -0.6186 -0.1295 -0.3858
  812MPD2     H12009   1.962   1.708  12.316 -0.2936  0.0447 -1.4149
  812MPD2    H112010   2.011   1.288  12.217  1.0453 -0.2836 -0.6812
  812MPD2    H212011   2.267   1.583  12.056 -0.4569  3.1944  2.2085
  812MPD2    H312012   2.195   1.349  12.082  1.8364 -0.9045  3.7659
  812MPD2     N12013   1.869   1.495  12.379 -0.4491  0.3659 -0.3070
  812MPD2    H512014   1.858   1.580  12.432 -1.4048  0.7346 -1.1040
  812MPD2    N112015   2.154   1.792  12.135  0.0772  0.1767 -0.3015
  812MPD2    H712016   2.225   1.797  12.063  0.6436  1.2147  0.3112
  813MPD2     C12017   1.451   3.901  13.552  0.1898  0.0861 -0.1061
  813MPD2    C112018   1.353   3.951  13.471  0.3131  0.0045 -0.0653
  813MPD2    C212019   1.252   3.867  13.427  0.1835 -0.1492  1.0018
  813MPD2    C312020   1.246   3.737  13.478  0.2452  0.5028  0.5184
  813MPD2    C412021   1.346   3.695  13.557  0.2214 -0.7689  0.0399
  813MPD2    C512022   1.448   3.772  13.590 -0.0807 -0.3233 -0.5598
  813MPD2     H12023   1.169   3.910  13.374  1.8940  2.4794  0.4741
  813MPD2    H112024   1.347   3.591  13.588  2.3578 -1.3523 -1.9834
  813MPD2    H212025   1.535   3.964  13.578  2.2145 -1.3795 -3.1840
  813MPD2    H312026   1.540   3.724  13.622 -0.6609  0.0675  1.6350
  813MPD2     N12027   1.127   3.664  13.463  0.6815  0.5579  0.1124
  813MPD2    H512028   1.070   3.684  13.381 -1.2078  1.9180  1.7529
  813MPD2    N112029   1.360   4.090  13.452 -0.1445  0.9045 -0.5649
  813MPD2    H712030   1.424   4.147  13.507  0.4116 -0.5830  0.3272
  814MPD2     C12031   1.854   4.555  12.310  0.3093  0.3168  0.6428
  814MPD2    C112032   1.827   4.645  12.206 -0.6589  0.3906  0.0651
  814MPD2    C212033   1.846   0.036  12.238  0.3299 -0.0093  0.1723
  814MPD2    C312034   1.899   0.076  12.364  0.8160 -0.3326 -0.0505
  814MPD2    C412035   1.926   4.722  12.459  0.4306  0.4914 -0.0650
  814MPD2    C512036   1.901   4.591  12.434  0.4103  0.0162 -1.1222
  814MPD2     H12037   1.837   0.109  12.158 -0.8374  0.5839  0.8507
  814MPD2    H112038   1.957   0.010  12.558 -0.2511 -1.4706  0.7526
  814MPD2    H212039   1.836   4.451  12.287  0.1807 -0.3931  4.0735
  814MPD2    H312040   1.916   4.516  12.511  1.2965  0.5283 -0.7981
  814MPD2     N12041   1.908   0.216  12.401  0.6283 -0.3451 -0.2019
  814MPD2    H512042   1.918   0.221  12.502 -1.5415 -0.3210  0.0188
  814MPD2    N112043   1.773   4.608  12.082 -0.7091  0.6474 -0.0236
  814MPD2    H712044   1.754   4.675  12.008 -2.0193 -0.1757 -0.4493
  815MPD2     C12045   2.399   2.616  12.287 -0.2935  0.2900 -0.5878
  815MPD2    C112046   2.373   2.676  12.167  0.2291 -0.5797  0.2035
  815MPD2    C212047   2.249   2.749  12.160 -0.1273 -0.7427 -0.0054
  815MPD2    C312048   2.167   2.775  12.263  0.4036  0.3658  0.4881
  815MPD2    C412049   2.193   2.705  12.380 -0.1110  0.2563  0.6596
  815MPD2    C512050   2.303   2.627  12.385 -0.6431 -0.2313 -1.1676
  815MPD2     H12051   2.213   2.798  12.069  2.3490  0.5190 -0.3064
  815MPD2    H112052   2.144   2.724  12.474 -1.9817  0.0955 -0.2909
  815MPD2    H212053   2.480   2.543  12.295 -0.0175  0.9426  2.3355
  815MPD2    H312054   2.324   2.575  12.478 -0.5726  0.7976 -0.6150
  815MPD2     N12055   2.063   2.863  12.245  0.3008  0.7077 -0.7269
  815MPD2    H512056   2.045   2.905  12.154  0.0772 -0.3089 -1.1509
  815MPD2    N112057   2.469   2.675  12.064 -0.4254 -0.0426 -0.2479
  815MPD2    H712058   2.557   2.631  12.089 -0.6240 -1.7235 -2.5284
  816MPD2     C12059   2.233   2.949  17.217  0.3621 -0.1648  0.0775
  816MPD2    C112060   2.144   2.939  17.110 -0.1396  0.4807  1.3636
  816MPD2    C212061   2.201   2.892  16.991 -0.0126  0.2641  0.6882
  816MPD2    C312062   2.335   2.855  16.988  0.0048 -0.2548  0.3050
  816MPD2    C412063   2.419   2.868  17.096  0.1647 -0.9780  0.9221
  816MPD2    C512064   2.368   2.909  17.216 -0.5416 -1.0510  0.7999
  816MPD2     H12065   2.143   2.868  16.903 -0.8355 -0.3108  1.3894
  816MPD2    H112066   2.527   2.860  17.091  0.2895 -0.1562  2.3294
  816MPD2    H212067   2.197   2.981  17.314  0.1606  0.4621 -0.2039
  816MPD2    H312068   2.433   2.913  17.302  0.2720 -0.3620  0.1518
  816MPD2     N12069   2.400   2.834  16.863 -0.6453  0.0395  0.6190
  816MPD2    H512070   2.348   2.863  16.781  1.8312 -0.6242 -1.1757
  816MPD2    N112071   2.005   2.961  17.125 -0.2482 -0.0370 -0.1579
  816MPD2    H712072   1.973   3.032  17.190 -0.4924  0.4860 -0.8549
  817MPD2     C12073   1.533   3.943  10.194  0.5942  0.0636 -0.3132
  817MPD2    C112074   1.558   3.902  10.066 -0.2935 -0.4897  0.0920
  817MPD2    C212075   1.581   3.998   9.965 -0.1615 -0.1930  0.1984
  817MPD2    C312076   1.570   4.133   9.988  0.0497  0.3375  0.2560
  817MPD2    C412077   1.545   4.173  10.123 -0.0701  0.0177  1.0372
  817MPD2    C512078   1.533   4.076  10.223  0.4925 -0.0950  0.4347
  817MPD2     H12079   1.600   3.970   9.862  0.3271 -1.2529  0.5837
  817MPD2    H112080   1.535   4.277  10.154  1.3009  0.4834 -0.1387
  817MPD2    H212081   1.505   3.868  10.266  0.9287  0.2572  0.0166
  817MPD2    H312082   1.527   4.102  10.328 -5.2974 -0.9287  0.3222
  817MPD2     N12083   1.579   4.230   9.880 -0.2809  0.1626 -0.0237
  817MPD2    H512084   1.590   4.198   9.785 -1.0477  0.7101 -0.2905
  817MPD2    N112085   1.545   3.767  10.024 -0.3067 -0.7764 -0.3149
  817MPD2    H712086   1.553   3.742   9.926  0.5587 -4.2409  0.6394
  818MPD2     C12087   0.659   4.422   9.791 -0.4759  0.6099  0.1317
  818MPD2    C112088   0.652   4.311   9.867  0.6960  0.5589 -0.4178
  818MPD2    C212089   0.731   4.206   9.826  0.4740 -0.0763 -0.2458
  818MPD2    C312090   0.802   4.205   9.705  0.8291 -0.2831  0.1059
  818MPD2    C412091   0.801   4.318   9.627 -0.3728  0.0545  0.5119
  818MPD2    C512092   0.728   4.429   9.671 -0.1079  0.1679  0.6153
  818MPD2     H12093   0.733   4.120   9.891  1.7173  1.3659  1.6167
  818MPD2    H112094   0.868   4.327   9.542  0.5228 -0.6958  1.1490
  818MPD2    H212095   0.608   4.515   9.812 -0.1305  0.5131  1.3812
  818MPD2    H312096   0.728   4.525   9.621 -0.3166  0.2228  0.7230
  818MPD2     N12097   0.869   4.085   9.656 -0.3979  0.2455  0.7310
  818MPD2    H512098   0.895   4.092   9.559  1.6833 -1.9314  1.1475
  818MPD2    N112099   0.576   4.298   9.990 -0.6832 -0.3280 -0.7006
  818MPD2    H712100   0.586   4.213  10.045 -2.3229 -0.0905 -0.0358
  819MPD2     C12101   2.968   1.344  15.389  0.3003 -0.4091 -0.3098
  819MPD2    C112102   2.993   1.214  15.341  0.1499 -0.0611  0.4176
  819MPD2    C212103   3.097   1.143  15.408  0.0160  0.2515  0.5773
  819MPD2    C312104   3.160   1.193  15.520 -0.1212  0.3341 -0.1742
  819MPD2    C412105   3.131   1.325  15.561 -0.1896 -0.0865 -0.5096
  819MPD2    C512106   3.028   1.402  15.499  0.0770  0.0284 -0.3606
  819MPD2     H12107   3.135   1.053  15.362 -1.4219  0.5170 -1.1606
  819MPD2    H112108   3.176   1.373  15.647  3.2796 -2.2155 -1.1511
  819MPD2    H212109   2.899   1.411  15.340 -1.7678 -0.6174  2.3283
  819MPD2    H312110   3.001   1.503  15.528  0.9237  0.7222 -2.0260
  819MPD2     N12111   3.256   1.110  15.586 -0.4731 -0.1458 -0.0474
  819MPD2    H512112   3.268   1.020  15.541 -0.8657 -0.9619  1.4890
  819MPD2    N112113   2.921   1.167  15.232 -0.2657 -0.0042  0.2353
  819MPD2    H712114   2.861   1.234  15.184 -1.2276 -0.9498  0.0941
  820MPD2     C12115   2.272   1.328  14.548 -0.2782  1.0516 -0.2868
  820MPD2    C112116   2.288   1.373  14.675  0.8410 -0.8601 -0.2782
  820MPD2    C212117   2.356   1.295  14.770  0.4712  0.7993 -0.7747
  820MPD2    C312118   2.399   1.170  14.732  0.6102  0.4202  0.2642
  820MPD2    C412119   2.378   1.119  14.604  0.4999  0.2992  0.2690
  820MPD2    C512120   2.313   1.199  14.516 -0.1627 -0.0934 -0.2894
  820MPD2     H12121   2.378   1.329  14.870 -2.0563 -0.3273  0.1593
  820MPD2    H112122   2.414   1.023  14.569  0.1310 -0.9495  3.3183
  820MPD2    H212123   2.217   1.390  14.479 -2.1739 -1.1595 -0.7538
  820MPD2    H312124   2.283   1.164  14.418 -0.1006  0.6028 -0.5509
  820MPD2     N12125   2.474   1.092  14.819  0.1545  0.0264  0.1569
  820MPD2    H512126   2.494   0.996  14.792 -2.1246 -0.4367  0.1517
  820MPD2    N112127   2.233   1.501  14.703  0.5661 -0.8598  0.2022
  820MPD2    H712128   2.171   1.554  14.642 -1.6631 -4.1079 -0.3718
  821MPD2     C12129   3.300   2.788  13.693  0.2793 -0.4528 -0.0697
  821MPD2    C112130   3.386   2.678  13.707 -0.0305 -0.2459  0.2964
  821MPD2    C212131   3.477   2.634  13.608 -0.0676  0.1627 -0.1601
  821MPD2    C312132   3.483   2.701  13.488  0.4756  0.4136 -0.0436
  821MPD2    C412133   3.405   2.811  13.477  0.2361  0.2454 -0.6000
  821MPD2    C512134   3.328   2.861  13.582 -0.2573 -0.3997 -0.7574
  821MPD2     H12135   3.543   2.552  13.632 -0.6243 -0.3116 -0.2466
  821MPD2    H112136   3.405   2.862  13.382  1.6913 -0.6042 -1.0737
  821MPD2    H212137   3.228   2.832  13.760  0.0013 -0.5868 -0.2775
  821MPD2    H312138   3.283   2.958  13.568  4.3121  1.7875 -0.2366
  821MPD2     N12139   3.574   2.672  13.385  0.0442 -0.2009 -0.4603
  821MPD2    H512140   3.573   2.743  13.312  0.2143 -1.0139 -1.2533
  821MPD2    N112141   3.395   2.596  13.822  0.0563  0.1048 -0.4505
  821MPD2    H712142   3.459   2.519  13.832  0.9249  1.0004  0.8849
  822MPD2     C12143   3.581   2.710  15.772 -0.0992  0.1485  0.3365
  822MPD2    C112144   3.578   2.681  15.911 -0.3162 -0.0711 -0.0715
  822MPD2    C212145   3.507   2.765  15.993 -0.1785 -0.1117  0.1030
  822MPD2    C312146   3.444   2.878  15.952  0.1184  0.3603  0.2571
  822MPD2    C412147   3.441   2.907  15.822 -0.0079 -0.3527  0.7558
  822MPD2    C512148   3.509   2.822  15.734  0.1011  0.9577  0.0446
  822MPD2     H12149   3.516   2.748  16.100 -0.7162 -0.2503  0.1260
  822MPD2    H112150   3.404   3.001  15.782 -2.1128 -2.1668 -1.5627
  822MPD2    H212151   3.637   2.661  15.693  0.5470  1.9316 -0.3063
  822MPD2    H312152   3.501   2.839  15.627  0.4882 -2.0854 -0.4710
  822MPD2     N12153   3.403   2.968  16.057 -0.1364  0.5071  0.1322
  822MPD2    H512154   3.415   2.924  16.148 -1.5955  1.2197  0.6811
  822MPD2    N112155   3.646   2.570  15.967  0.0659 -0.6553  1.0572
  822MPD2    H712156   3.628   2.545  16.064 -3.1472  2.4931  1.2558
  823MPD2     C12157   3.168   3.123  16.873 -0.4490 -0.0894  0.4966
  823MPD2    C112158   3.215   3.043  16.767  1.2474 -0.0485 -0.0333
  823MPD2    C212159   3.241   2.911  16.784 -0.0370 -0.8019 -0.4235
  823MPD2    C312160   3.237   2.853  16.905  0.3909 -0.6814 -0.2221
  823MPD2    C412161   3.191   2.930  17.014 -0.0804  0.1401 -0.4744
  823MPD2    C512162   3.161   3.062  16.995 -1.2709 -0.0573 -0.0903
  823MPD2     H12163   3.260   2.846  16.700 -0.7246 -1.3450 -0.1612
  823MPD2    H112164   3.184   2.879  17.109 -1.5451 -0.5039 -0.9226
  823MPD2    H212165   3.142   3.225  16.850  0.2915 -0.0265 -0.0528
  823MPD2    H312166   3.139   3.127  17.079 -1.0416  0.6250 -0.5600
  823MPD2     N12167   3.271   2.722  16.939  0.6278  0.4794  0.1534
  823MPD2    H512168   3.250   2.692  17.034 -0.0006  1.7215  0.4031
  823MPD2    N112169   3.221   3.094  16.630  0.3984  0.5662 -0.0413
  823MPD2    H712170   3.196   3.192  16.624 -3.1316 -0.2812  0.6079
  824MPD2     C12171   4.061   1.748  16.062  0.5848  0.6065 -0.0491
  824MPD2    C112172   4.081   1.854  15.979 -0.1570  0.3991 -0.0806
  824MPD2    C212173   4.167   1.844  15.876  0.0522 -0.6982 -0.1928
  824MPD2    C312174   4.251   1.734  15.869 -0.5663 -0.1247 -0.2623
  824MPD2    C412175   4.246   1.642  15.971 -0.3821 -0.4384 -0.2546
  824MPD2    C512176   4.145   1.639  16.061 -0.5550 -0.0351 -0.2265
  824MPD2     H12177   4.177   1.918  15.798 -0.1022  1.2259  1.6233
  824MPD2    H112178   4.301   1.549  15.975 -0.9814 -0.7322  1.0878
  824MPD2    H212179   3.990   1.764  16.143  0.4660  0.1533 -0.0644
  824MPD2    H312180   4.131   1.553  16.126 -1.7444  0.9990  0.8996
  824MPD2     N12181   4.342   1.721  15.762  0.5384  0.1732 -0.4047
  824MPD2    H512182   4.336   1.796  15.694 -1.0222 -1.4080 -2.0511
  824MPD2    N112183   3.995   1.959  16.003 -0.1831  0.4269 -0.0964
  824MPD2    H712184   3.932   1.951  16.082 -0.1498  2.4133  0.1342
  825MPD2     C12185   0.015   2.031  15.102 -0.3892  0.1173  0.0566
  825MPD2    C112186   4.726   2.048  15.233  0.6647 -0.2048  0.4992
  825MPD2    C212187   0.015   2.160  15.295 -0.9053 -0.6773  0.1054
  825MPD2    C312188   0.085   2.260  15.226  0.5048  0.2773 -0.4333
  825MPD2    C412189   0.108   2.244  15.092  0.3370  0.1393  0.2324
  825MPD2    C512190   0.074   2.132  15.032  0.7314  0.3697  0.1145
  825MPD2     H12191   0.013   2.162  15.404  0.4979  0.7077  0.0956
  825MPD2    H112192   0.163   2.324  15.043  0.5923  1.0117  1.9352
  825MPD2    H212193   4.722   1.950  15.040 -1.4523  0.3339  0.3823
  825MPD2    H312194   0.085   2.123  14.925  1.3297  0.2786  0.1833
  825MPD2     N12195   0.124   2.382  15.283  0.2583 -0.1185  0.1619
  825MPD2    H512196   0.150   2.452  15.214 -1.4973 -0.6037 -1.0030
  825MPD2    N112197   4.667   1.931  15.292 -0.3744  0.4818  0.2437
  825MPD2    H712198   4.659   1.842  15.244 -3.9182 -0.1216  1.9304
  826MPD2     C12199   0.094   2.146  13.696 -0.0637  0.5148  0.7476
  826MPD2    C112200   0.035   2.021  13.723  0.5437 -0.2447 -0.3830
  826MPD2    C212201   4.649   1.987  13.673  0.5848  0.2011 -0.0302
  826MPD2    C312202   4.572   2.091  13.622  0.0708 -0.2518  0.2912
  826MPD2    C412203   4.632   2.209  13.593 -0.1054  0.1377  0.0234
  826MPD2    C512204   0.021   2.241  13.629 -0.2343 -0.6831  0.4132
  826MPD2     H12205   4.601   1.892  13.696  2.6370 -0.2803  2.1289
  826MPD2    H112206   4.567   2.285  13.551  2.1282  0.4057 -3.0199
  826MPD2    H212207   0.182   2.177  13.750  0.3739 -0.4156  0.5780
  826MPD2    H312208   0.057   2.342  13.614  1.7995 -1.5806 -0.7031
  826MPD2     N12209   4.433   2.076  13.596 -0.2360  0.0648  0.5360
  826MPD2    H512210   4.380   2.161  13.576  1.2283  0.2240 -2.6559
  826MPD2    N112211   0.108   1.923  13.801  0.2014 -0.4051 -0.0813
  826MPD2    H712212   0.202   1.953  13.825  0.4282 -1.1568 -0.0444
  827MPD2     C12213   1.167   2.805  10.244 -0.2906  0.7062  0.3952
  827MPD2    C112214   1.105   2.746  10.351  0.5734 -0.0043  0.4569
  827MPD2    C212215   0.967   2.725  10.343  0.0201 -1.0515 -0.5539
  827MPD2    C312216   0.895   2.770  10.234  0.9640  0.9290  0.6221
  827MPD2    C412217   0.954   2.842  10.124  0.0832  0.0113 -0.2804
  827MPD2    C512218   1.092   2.860  10.136 -0.5031 -0.1504  0.7426
  827MPD2     H12219   0.920   2.670  10.424 -1.7366  1.0518 -0.1481
  827MPD2    H112220   0.896   2.891  10.048 -1.3996  1.1417  1.5693
  827MPD2    H212221   1.275   2.815  10.243 -0.1694 -0.8506 -1.8440
  827MPD2    H312222   1.146   2.915  10.060  0.3236 -1.0377  0.6791
  827MPD2     N12223   0.754   2.744  10.233 -0.3255  0.2221  0.2547
  827MPD2    H512224   0.718   2.699  10.316  2.0535  1.7316  2.1174
  827MPD2    N112225   1.181   2.702  10.458  0.2743  0.2858  0.0315
  827MPD2    H712226   1.281   2.717  10.448 -0.0456  2.5550  0.2017
  828MPD2     C12227   3.962   2.599  12.262  0.4448  0.1226  0.0208
  828MPD2    C112228   3.914   2.657  12.146  0.2766  0.2891 -0.0052
  828MPD2    C212229   3.986   2.639  12.028 -0.5988  0.1853 -0.3172
  828MPD2    C312230   4.103   2.565  12.034  0.5573 -0.1209  1.2188
  828MPD2    C412231   4.148   2.495  12.143  0.0774  0.1982 -0.1226
  828MPD2    C512232   4.079   2.523  12.258  0.3881 -0.2678 -0.0033
  828MPD2     H12233   3.943   2.673  11.935  1.0343 -0.8826 -1.4626
  828MPD2    H112234   4.234   2.430  12.135  1.8991  2.1794  2.8751
  828MPD2    H212235   3.931   2.614  12.365  0.1654 -1.0502  0.1065
  828MPD2    H312236   4.103   2.485  12.357  1.4256 -0.7296 -0.4328
  828MPD2     N12237   4.194   2.554  11.927  0.9848  0.0916 -0.0305
  828MPD2    H512238   4.273   2.491  11.940  0.0564 -1.4512 -1.7575
  828MPD2    N112239   3.781   2.719  12.150 -0.8674 -0.2230  0.7060
  828MPD2    H712240   3.750   2.748  12.058  2.9645  1.2773 -0.1346
  829MPD2     C12241   3.658   3.426  11.699 -0.4928 -0.3839 -0.7831
  829MPD2    C112242   3.533   3.397  11.735 -0.2308 -0.0352 -0.1710
  829MPD2    C212243   3.513   3.297  11.829 -0.8785 -0.3088 -0.0591
  829MPD2    C312244   3.616   3.244  11.895 -0.1032  0.3415 -0.8299
  829MPD2    C412245   3.746   3.274  11.857 -0.6426 -0.3437  0.2468
  829MPD2    C512246   3.763   3.360  11.751  0.2590 -0.1426  0.3269
  829MPD2     H12247   3.413   3.263  11.851 -0.1043 -2.5946 -0.0353
  829MPD2    H112248   3.829   3.222  11.904  0.7715  0.3873 -1.4670
  829MPD2    H212249   3.674   3.505  11.626 -0.1864 -0.0303 -0.3294
  829MPD2    H312250   3.866   3.390  11.742  0.4958 -1.2628 -0.6458
  829MPD2     N12251   3.601   3.151  12.009  1.2413 -0.0714  0.4192
  829MPD2    H512252   3.688   3.120  12.052  1.2877 -1.7894 -0.8987
  829MPD2    N112253   3.428   3.465  11.668 -0.0813  0.2714  0.1321
  829MPD2    H712254   3.445   3.521  11.585 -1.6637  0.4174 -0.0974
  830MPD2     C12255   3.671   0.902  15.227  0.4089 -0.1448  0.2104
  830MPD2    C112256   3.737   0.912  15.347 -0.0230 -0.0879  0.2740
  830MPD2    C212257   3.876   0.904  15.345 -0.7535  0.3645 -0.2644
  830MPD2    C312258   3.949   0.901  15.226 -0.0512 -0.1654 -0.4196
  830MPD2    C412259   3.885   0.900  15.105  0.3047 -0.0287  0.2668
  830MPD2    C512260   3.747   0.899  15.106 -0.6094  1.0633 -1.0944
  830MPD2     H12261   3.926   0.901  15.441 -0.7037  1.0582 -0.2729
  830MPD2    H112262   3.934   0.896  15.009  0.7202 -0.2558  0.4916
  830MPD2    H212263   3.565   0.883  15.231  0.5562 -0.6651  1.6003
  830MPD2    H312264   3.694   0.893  15.013 -0.6167 -0.6463 -0.9670
  830MPD2     N12265   4.089   0.905  15.214 -0.1172 -0.0883 -1.0003
  830MPD2    H512266   4.121   0.900  15.118  1.2250  0.8464 -0.6044
  830MPD2    N112267   3.660   0.909  15.466  0.1257  0.1344  0.2203
  830MPD2    H712268   3.559   0.915  15.458  0.3335  1.2040 -1.5158
  831MPD2     C12269   3.739   3.010  16.357 -0.4223  0.8809 -0.2645
  831MPD2    C112270   3.752   2.896  16.283 -0.8127  0.7363  0.1044
  831MPD2    C212271   3.672   2.789  16.319 -0.4714  0.3869 -0.0928
  831MPD2    C312272   3.562   2.803  16.405 -0.5280 -0.6047 -0.9067
  831MPD2    C412273   3.568   2.908  16.494  0.1332 -0.0082 -0.4067
  831MPD2    C512274   3.659   3.014  16.472  0.2243  0.2305  0.3406
  831MPD2     H12275   3.689   2.694  16.269  2.6790  0.8457  0.0935
  831MPD2    H112276   3.518   2.910  16.590 -0.2667 -0.5522 -0.6051
  831MPD2    H212277   3.802   3.097  16.340  3.2918 -2.0004 -0.9691
  831MPD2    H312278   3.656   3.102  16.536 -1.3133 -0.3884  1.1187
  831MPD2     N12279   3.460   2.706  16.410 -0.3423 -0.4613 -0.2863
  831MPD2    H512280   3.377   2.735  16.460  0.2776  1.2125 -0.2259
  831MPD2    N112281   3.844   2.896  16.174  0.2440 -0.4929 -0.4063
  831MPD2    H712282   3.888   2.980  16.140  0.8300 -0.5020  0.3448
  832MPD2     C12283   2.257   3.601  17.354 -0.5620  0.1054 -0.2973
  832MPD2    C112284   2.259   3.732  17.326  0.2600 -0.0287 -0.3950
  832MPD2    C212285   2.156   3.799  17.253  0.9084 -0.6435 -0.0929
  832MPD2    C312286   2.044   3.731  17.210 -0.5048 -0.1556 -0.2675
  832MPD2    C412287   2.041   3.594  17.245 -0.2960  0.6170  0.7232
  832MPD2    C512288   2.139   3.540  17.321 -0.5323 -0.9783  0.1130
  832MPD2     H12289   2.166   3.901  17.219  2.2402 -1.4924 -2.2285
  832MPD2    H112290   1.955   3.530  17.227 -0.1574  1.3336 -2.4974
  832MPD2    H212291   2.325   3.543  17.415  1.2617  2.9786  0.3996
  832MPD2    H312292   2.135   3.436  17.351 -0.5820 -0.1546  2.9262
  832MPD2     N12293   1.941   3.773  17.132  0.3287  0.1351 -0.2004
  832MPD2    H512294   1.872   3.702  17.110  1.6740 -0.7528 -1.5084
  832MPD2    N112295   2.376   3.803  17.370 -0.2810  0.6033  0.0260
  832MPD2    H712296   2.439   3.744  17.424 -1.8420 -0.8495  0.2569
  833MPD2     C12297   4.579   0.461  12.792 -0.3495 -0.0428 -0.4881
  833MPD2    C112298   4.615   0.556  12.702  0.5850  0.1070 -0.1038
  833MPD2    C212299   4.653   0.507  12.577 -0.0677  0.4563  0.0202
  833MPD2    C312300   4.639   0.377  12.540  0.7121 -0.4994 -0.6141
  833MPD2    C412301   4.612   0.281  12.637 -0.1763 -0.2248  0.5811
  833MPD2    C512302   4.585   0.323  12.767  0.4729  0.0079 -0.8588
  833MPD2     H12303   4.686   0.581  12.505 -0.5008 -0.4133 -1.0746
  833MPD2    H112304   4.605   0.177  12.608 -1.2503  0.0700 -0.2062
  833MPD2    H212305   4.550   0.482  12.894 -0.2001 -0.1675 -0.4193
  833MPD2    H312306   4.567   0.251  12.846  1.5516 -1.5595 -2.0491
  833MPD2     N12307   4.671   0.326  12.413 -0.0519 -0.4759 -0.1208
  833MPD2    H512308   4.663   0.226  12.396 -0.5035 -0.3812 -0.4604
  833MPD2    N112309   4.619   0.692  12.739 -0.7222 -0.0697 -0.2590
  833MPD2    H712310   4.574   0.718  12.826  3.0851  1.1260  1.3353
  834MPD2     C12311   0.509   4.439  11.960 -0.0984 -0.0470  0.4828
  834MPD2    C112312   0.455   4.498  11.853 -0.4541  0.2765 -0.1903
  834MPD2    C212313   0.400   4.625  11.876 -0.6920  0.0889  0.6027
  834MPD2    C312314   0.399   4.677  12.008 -0.0532  0.1817  0.3691
  834MPD2    C412315   0.466   4.613  12.113  0.2013  0.6529 -0.4323
  834MPD2    C512316   0.519   4.493  12.086  0.4784  0.2381  0.0234
  834MPD2     H12317   0.350   4.680  11.797 -1.2105 -2.5993 -0.9285
  834MPD2    H112318   0.496   4.663  12.205 -3.1887 -0.8034  1.4433
  834MPD2    H212319   0.550   4.339  11.951  2.7792  0.8925  2.9008
  834MPD2    H312320   0.575   4.443  12.165 -1.4284 -0.8989  0.6452
  834MPD2     N12321   0.324   0.054  12.034  0.4732 -0.4127  0.2572
  834MPD2    H512322   0.288   0.094  11.948  1.3828  1.0218  0.5571
  834MPD2    N112323   0.462   4.441  11.728  0.0690 -0.2045  0.5574
  834MPD2    H712324   0.520   4.358  11.718  0.5146  0.2766 -0.9270
  835MPD2     C12325   0.588   2.482  11.287  0.8590 -1.0001  0.6237
  835MPD2    C112326   0.461   2.438  11.250  0.0875  0.0875  0.5208
  835MPD2    C212327   0.386   2.362  11.340  0.2960  0.1986 -0.4754
  835MPD2    C312328   0.441   2.336  11.463 -0.1990  0.4328  0.5743
  835MPD2    C412329   0.577   2.361  11.489  0.0814  0.5141  0.5167
  835MPD2    C512330   0.650   2.433  11.398  0.5463 -0.0482 -0.7998
  835MPD2     H12331   0.284   2.331  11.320  0.7235  1.4749 -4.5341
  835MPD2    H112332   0.630   2.331  11.579 -1.2157 -1.9041  0.4730
  835MPD2    H212333   0.651   2.519  11.207 -1.8457  1.8879 -0.1828
  835MPD2    H312334   0.754   2.459  11.418  0.2077  0.0441  0.8524
  835MPD2     N12335   0.361   2.284  11.573  0.7941 -0.1671  0.0533
  835MPD2    H512336   0.410   2.255  11.657  2.0601 -1.2331 -1.0688
  835MPD2    N112337   0.403   2.480  11.124  0.1367  0.1699 -0.1291
  835MPD2    H712338   0.311   2.442  11.106 -0.2415 -0.2696  2.7127
  836MPD2     C12339   0.064   2.541  12.354 -0.3055 -0.3830 -0.2341
  836MPD2    C112340   4.741   2.528  12.232  0.7141 -0.0594 -0.0606
  836MPD2    C212341   4.620   2.599  12.218  0.4775 -0.1777 -0.4409
  836MPD2    C312342   4.571   2.676  12.322  0.1192  0.1062 -0.1897
  836MPD2    C412343   4.633   2.675  12.445 -0.1640  0.1724 -0.0985
  836MPD2    C512344   0.013   2.615  12.455  0.3936  0.1634  0.2328
  836MPD2     H12345   4.569   2.593  12.123  0.1934 -1.6709 -0.2057
  836MPD2    H112346   4.605   2.742  12.526 -1.6220  0.0769 -0.5271
  836MPD2    H212347   0.160   2.495  12.372  0.9287  2.6818  1.0832
  836MPD2    H312348   0.077   2.617  12.543  1.0808 -1.8003 -0.2158
  836MPD2     N12349   4.457   2.753  12.326  0.4538 -0.3245  0.5286
  836MPD2    H512350   4.444   2.815  12.405 -0.5226  0.5371 -0.3097
  836MPD2    N112351   0.060   2.453  12.133  0.2730  0.3319 -0.1744
  836MPD2    H712352   0.148   2.410  12.160  0.6810  0.9476 -0.5421
  837MPD2     C12353   3.130   2.814  10.246  0.2919 -0.1379 -0.8228
  837MPD2    C112354   3.008   2.802  10.298  0.0005 -0.4271 -1.2905
  837MPD2    C212355   2.937   2.908  10.339 -0.9241 -0.3370 -0.2130
  837MPD2    C312356   2.988   3.031  10.327 -0.1080  0.0851  0.6944
  837MPD2    C412357   3.114   3.048  10.277  0.1285 -0.6759 -0.1526
  837MPD2    C512358   3.184   2.938  10.231  0.3155 -0.0382  0.4703
  837MPD2     H12359   2.839   2.897  10.384 -0.9246 -1.1468 -0.4244
  837MPD2    H112360   3.145   3.151  10.260  0.6510 -1.0078 -1.2043
  837MPD2    H212361   3.193   2.735  10.209  0.8957  0.9870 -2.2077
  837MPD2    H312362   3.277   2.952  10.177 -0.1515  1.7345  0.1306
  837MPD2     N12363   2.902   3.140  10.351  0.7497 -0.2971  0.4657
  837MPD2    H512364   2.811   3.115  10.388  0.2678  1.2470  0.3386
  837MPD2    N112365   2.934   2.678  10.289 -0.1339 -0.8418 -0.6324
  837MPD2    H712366   2.840   2.676  10.326  0.6841 -0.5476  1.4499
  838MPD2     C12367   1.111   1.364  11.678 -0.1883 -0.7302  0.5316
  838MPD2    C112368   1.130   1.233  11.706  0.9394  0.3415 -0.4917
  838MPD2    C212369   1.035   1.162  11.776  0.6648  0.3267 -0.8430
  838MPD2    C312370   0.919   1.217  11.822  0.2207  0.1848 -0.0279
  838MPD2    C412371   0.891   1.344  11.782 -0.1410 -0.0167  0.7665
  838MPD2    C512372   0.987   1.413  11.710  0.1798  0.6859  0.0178
  838MPD2     H12373   1.048   1.057  11.803 -0.2698  0.3949 -0.1213
  838MPD2    H112374   0.791   1.387  11.787 -0.4068 -0.5426  0.1101
  838MPD2    H212375   1.186   1.421  11.624 -0.4529 -1.3276 -0.4526
  838MPD2    H312376   0.951   1.507  11.673 -1.1702  0.3884  0.5792
  838MPD2     N12377   0.832   1.139  11.901  0.1027  0.0333  0.6731
  838MPD2    H512378   0.859   1.042  11.910  3.6403  1.0838  1.0662
  838MPD2    N112379   1.250   1.165  11.677  0.1178  0.4523  0.0189
  838MPD2    H712380   1.258   1.067  11.704 -0.2046  0.5416  0.4328
  839MPD2     C12381   1.342   0.243  11.768 -0.1111 -0.3636 -0.5637
  839MPD2    C112382   1.247   0.341  11.738  0.6182 -0.2380  0.1862
  839MPD2    C212383   1.280   0.456  11.670 -0.2823 -0.3278  0.6435
  839MPD2    C312384   1.415   0.499  11.653 -0.7708  0.0443  0.2229
  839MPD2    C412385   1.511   0.407  11.699  0.3254  0.0575  0.0173
  839MPD2    C512386   1.472   0.285  11.743 -0.0189  0.0850  0.1166
  839MPD2     H12387   1.202   0.524  11.638  0.3944  0.4216  0.5870
  839MPD2    H112388   1.616   0.430  11.685  0.5727  0.9505  3.2574
  839MPD2    H212389   1.316   0.153  11.822 -1.7604  0.9901  0.9165
  839MPD2    H312390   1.547   0.209  11.762  0.0466  0.3039  0.7317
  839MPD2     N12391   1.459   0.624  11.605 -0.2984 -0.7581 -0.9447
  839MPD2    H512392   1.557   0.647  11.598 -0.8882  2.4504  1.6910
  839MPD2    N112393   1.110   0.325  11.754  0.6665 -0.0107  0.0266
  839MPD2    H712394   1.048   0.394  11.714  1.4157  0.4707 -0.2927
  840MPD2     C12395   1.543   3.159  10.605 -0.2171 -0.2947  0.4683
  840MPD2    C112396   1.585   3.054  10.689 -0.1654  0.0029 -0.2647
  840MPD2    C212397   1.717   3.046  10.717  0.1925  0.4289 -0.2505
  840MPD2    C312398   1.799   3.153  10.689  0.1844  0.1768  0.1193
  840MPD2    C412399   1.757   3.260  10.611  0.2261  0.3077 -0.2678
  840MPD2    C512400   1.632   3.256  10.559 -0.4937  0.5267 -0.1367
  840MPD2     H12401   1.764   2.963  10.768 -0.5091  0.0885 -0.1592
  840MPD2    H112402   1.823   3.342  10.587 -1.5931  2.0140  0.5704
  840MPD2    H212403   1.436   3.171  10.595 -0.3581  0.1560  2.4328
  840MPD2    H312404   1.602   3.343  10.502  1.0667  0.8194 -0.4937
  840MPD2     N12405   1.933   3.167  10.728  0.5550  0.3713  0.5180
  840MPD2    H512406   1.976   3.253  10.697  1.5836 -0.4772 -0.4103
  840MPD2    N112407   1.494   2.947  10.715 -0.3849  0.4746 -0.1462
  840MPD2    H712408   1.399   2.960  10.682  0.0309 -0.4023 -1.7011
  841MPD2     C12409   0.689   3.016  14.504 -0.1737  0.0094  0.2443
  841MPD2    C112410   0.808   2.956  14.461  0.7763  0.2904 -0.1285
  841MPD2    C212411   0.933   3.005  14.506  0.9692 -0.0907  0.3292
  841MPD2    C312412   0.941   3.124  14.569 -0.2635  0.5541  1.0436
  841MPD2    C412413   0.830   3.183  14.615 -0.1217 -0.3514 -0.3234
  841MPD2    C512414   0.706   3.125  14.587 -0.8392  0.5625 -0.5518
  841MPD2     H12415   1.022   2.952  14.474  1.0236 -0.2201  0.7031
  841MPD2    H112416   0.832   3.271  14.679 -0.1230 -0.2551 -0.4546
  841MPD2    H212417   0.589   2.982  14.477 -0.8070  0.9062  1.4567
  841MPD2    H312418   0.625   3.193  14.611 -2.9522 -1.7067 -1.1891
  841MPD2     N12419   1.074   3.161  14.603  0.1977 -0.1681  0.7059
  841MPD2    H512420   1.151   3.094  14.605  0.4031  0.1407  2.8411
  841MPD2    N112421   0.812   2.841  14.384 -0.3591  0.5535 -0.3655
  841MPD2    H712422   0.896   2.802  14.343 -0.3875  0.2342 -0.1122
  842MPD2     C12423   1.073   3.691  16.543 -0.1498 -0.3189 -0.2738
  842MPD2    C112424   0.953   3.705  16.481 -1.2396  0.1337  0.5242
  842MPD2    C212425   0.844   3.632  16.524  0.0699  0.5377  0.0955
  842MPD2    C312426   0.852   3.559  16.642 -0.2186 -0.7453  0.4688
  842MPD2    C412427   0.972   3.548  16.703  0.1496  0.3201  0.3334
  842MPD2    C512428   1.083   3.604  16.650  0.6824 -0.3805  0.0579
  842MPD2     H12429   0.745   3.659  16.489 -0.2976  2.0197  2.3137
  842MPD2    H112430   0.991   3.481  16.786 -0.2984  1.6916  1.5532
  842MPD2    H212431   1.162   3.732  16.497 -0.7158 -0.2002 -1.2667
  842MPD2    H312432   1.178   3.579  16.695  1.7081 -0.0334 -1.9092
  842MPD2     N12433   0.746   3.485  16.700 -0.0767 -0.0407  0.4287
  842MPD2    H512434   0.765   3.455  16.795 -1.7176 -0.7691  0.5264
  842MPD2    N112435   0.944   3.791  16.373  0.0442 -0.2994  0.4480
  842MPD2    H712436   1.014   3.861  16.354  2.4178 -2.3127  1.7663
  843MPD2     C12437   3.664   0.289  17.657 -0.3925 -0.6434  0.4496
  843MPD2    C112438   3.766   0.349  17.587  0.3789 -0.1417 -0.7432
  843MPD2    C212439   3.856   0.436  17.655  0.5871 -0.5829  0.0465
  843MPD2    C312440   3.830   0.477   0.018 -0.1677  0.1941  0.4848
  843MPD2    C412441   3.731   0.410   0.091 -0.3398  0.5023  0.2848
  843MPD2    C512442   3.648   0.315   0.030 -0.6597  0.0034 -0.0864
  843MPD2     H12443   3.926   0.494  17.596  0.4311  1.4531  1.8791
  843MPD2    H112444   3.716   0.449   0.191 -0.4292 -0.1918  0.5378
  843MPD2    H212445   3.596   0.227  17.600  1.4310 -1.3366 -0.9836
  843MPD2    H312446   3.567   0.270   0.085 -1.1485 -0.7101 -1.3740
  843MPD2     N12447   3.918   0.563   0.097 -0.6424  0.2181 -0.7515
  843MPD2    H512448   3.889   0.574   0.194 -1.2525  2.7970 -1.2204
  843MPD2    N112449   3.781   0.297  17.458 -0.2409  0.4475 -0.6308
  843MPD2    H712450   3.727   0.213  17.436 -1.8477  1.7213 -1.5131
  844MPD2     C12451   1.795   3.485  16.356  0.7310 -0.5650  0.3493
  844MPD2    C112452   1.929   3.472  16.331  0.9068  0.0538  0.3111
  844MPD2    C212453   2.018   3.510  16.436 -0.3249  0.1970  0.4187
  844MPD2    C312454   1.973   3.570  16.551  0.2094 -0.3244  0.0440
  844MPD2    C412455   1.834   3.578  16.571 -0.4823 -0.2914  0.3453
  844MPD2    C512456   1.751   3.534  16.477 -0.3138 -0.2820  0.0403
  844MPD2     H12457   2.124   3.508  16.411 -0.3332  1.3961  0.3020
  844MPD2    H112458   1.779   3.623  16.652  0.1014 -1.7181  1.5240
  844MPD2    H212459   1.722   3.448  16.285  3.0461 -1.3787 -1.5768
  844MPD2    H312460   1.646   3.532  16.502 -0.6158 -0.8906 -1.2736
  844MPD2     N12461   2.068   3.619  16.640 -0.3658 -0.1234 -0.4235
  844MPD2    H512462   2.163   3.583  16.639 -0.2388  0.1733  1.5306
  844MPD2    N112463   1.983   3.433  16.206  0.0404 -0.0544  0.1216
  844MPD2    H712464   2.084   3.434  16.211  0.0739 -0.4032 -0.4808
  845MPD2     C12465   2.452   4.513  17.130 -0.6861 -0.0596  0.1711
  845MPD2    C112466   2.327   4.461  17.140 -1.2080  0.7943 -0.1383
  845MPD2    C212467   2.302   4.335  17.087  0.6490  0.5583  0.2857
  845MPD2    C312468   2.398   4.263  17.013  0.4971  0.0263 -0.0801
  845MPD2    C412469   2.522   4.328  17.002  0.5574 -0.6092 -0.0014
  845MPD2    C512470   2.548   4.449  17.060  0.2980  0.5540  0.3564
  845MPD2     H12471   2.200   4.299  17.092  1.0096 -0.1413  2.6347
  845MPD2    H112472   2.596   4.282  16.936  0.8137  1.1848 -0.9542
  845MPD2    H212473   2.482   4.605  17.179 -0.5081  0.9171 -1.7839
  845MPD2    H312474   2.646   4.497  17.051  0.1690  0.8627  0.6003
  845MPD2     N12475   2.374   4.140  16.947  0.2274 -0.0214  0.0890
  845MPD2    H512476   2.456   4.086  16.922 -1.0010 -2.2732  1.0088
  845MPD2    N112477   2.233   4.535  17.212  0.0605  0.1876  0.7280
  845MPD2    H712478   2.262   4.627  17.242  0.4000  0.8481 -1.5725
  846MPD2     C12479   4.085   0.160  14.013 -0.7689  0.5083  0.0690
  846MPD2    C112480   3.959   0.190  13.963 -0.2260 -0.0137  0.1499
  846MPD2    C212481   3.850   0.197  14.051 -0.4408 -0.3028 -0.1144
  846MPD2    C312482   3.855   0.151  14.179  0.3286  0.3253 -0.2283
  846MPD2    C412483   3.980   0.111  14.227  0.0784  0.0807  0.8403
  846MPD2    C512484   4.093   0.125  14.147 -0.2589 -0.0393 -0.8066
  846MPD2     H12485   3.750   0.217  14.013 -1.2078  0.3962  2.3051
  846MPD2    H112486   3.983   0.077  14.330 -1.2439 -0.4669  0.6984
  846MPD2    H212487   4.169   0.152  13.945  0.1722  2.8157  0.9701
  846MPD2    H312488   4.186   0.091  14.190 -0.9191  0.0311  0.7019
  846MPD2     N12489   3.733   0.143  14.249 -0.7225  0.1973 -1.0250
  846MPD2    H512490   3.648   0.151  14.194 -0.7378 -1.8809 -1.3295
  846MPD2    N112491   3.937   0.233  13.837  0.0051 -0.0704 -0.8087
  846MPD2    H712492   3.845   0.274  13.823 -0.0215  0.5874  1.2451
  847MPD2     C12493   4.102   1.323  13.985 -0.2916 -0.1536 -0.8331
  847MPD2    C112494   4.188   1.345  14.086 -0.9795 -0.2440 -0.3206
  847MPD2    C212495   4.262   1.241  14.133  0.2830 -0.0025 -0.4037
  847MPD2    C312496   4.247   1.115  14.084 -0.2718 -0.9049  0.3809
  847MPD2    C412497   4.159   1.091  13.980 -0.9954  0.9352  0.6453
  847MPD2    C512498   4.093   1.201  13.923  0.4165 -0.0945 -0.2695
  847MPD2     H12499   4.336   1.255  14.212 -0.5596  0.1310  0.3654
  847MPD2    H112500   4.148   0.996  13.930 -1.6619  1.6758 -0.6382
  847MPD2    H212501   4.035   1.393  13.937 -0.9339 -0.5865 -0.5528
  847MPD2    H312502   4.035   1.200  13.831 -0.4060  1.9739  0.2297
  847MPD2     N12503   4.311   1.016  14.160 -0.1639 -0.3584  0.2589
  847MPD2    H512504   4.378   1.054  14.227 -0.8895  1.7283 -0.1990
  847MPD2    N112505   4.199   1.462  14.161  0.2180 -0.0160 -0.1237
  847MPD2    H712506   4.260   1.466  14.242 -1.4612  0.9220  1.0766
  848MPD2     C12507   1.641   4.040  16.416 -0.4077  0.2525 -0.3362
  848MPD2    C112508   1.697   4.125  16.509 -0.6502 -0.5437 -0.2548
  848MPD2    C212509   1.728   4.256  16.479 -0.0747  0.1890  1.1166
  848MPD2    C312510   1.682   4.308  16.360  0.7203 -0.2217  0.2111
  848MPD2    C412511   1.623   4.219  16.267 -0.6605 -0.7752 -0.2226
  848MPD2    C512512   1.605   4.088  16.296  0.6440 -0.3614  0.3235
  848MPD2     H12513   1.776   4.317  16.555 -0.3172  0.9616  0.6499
  848MPD2    H112514   1.584   4.258  16.174  0.4085  1.7839  0.3996
  848MPD2    H212515   1.644   3.932  16.424 -1.6724  0.2787  0.4769
  848MPD2    H312516   1.556   4.028  16.221  0.6796  1.4369 -1.1526
  848MPD2     N12517   1.690   4.443  16.320  0.0922  0.2588  0.1269
  848MPD2    H512518   1.649   4.468  16.231 -1.5464 -2.1871  0.1787
  848MPD2    N112519   1.730   4.082  16.640 -0.4411 -0.1769 -0.1773
  848MPD2    H712520   1.786   4.141  16.700 -0.9966  1.7934 -1.5861
  849MPD2     C12521   0.477   3.613  14.482 -0.3573  0.5218  0.0290
  849MPD2    C112522   0.551   3.711  14.421  0.3256 -0.2845 -0.4198
  849MPD2    C212523   0.687   3.723  14.441 -0.0412 -0.1948  0.1230
  849MPD2    C312524   0.752   3.617  14.507 -0.4974  0.5301 -0.0547
  849MPD2    C412525   0.678   3.511  14.544  0.6180 -0.7232 -0.1309
  849MPD2    C512526   0.541   3.512  14.533  0.3635 -0.2022 -0.2656
  849MPD2     H12527   0.739   3.814  14.412  0.3583  0.0291  1.5281
  849MPD2    H112528   0.731   3.426  14.586  1.1685 -0.3863 -0.1490
  849MPD2    H212529   0.371   3.596  14.462  0.0744 -3.2136  0.8499
  849MPD2    H312530   0.481   3.428  14.567 -0.8577 -0.1728 -2.3439
  849MPD2     N12531   0.896   3.607  14.521  0.1146  1.1375  0.4247
  849MPD2    H512532   0.948   3.524  14.546  0.5311  0.8755 -1.3004
  849MPD2    N112533   0.486   3.787  14.325  0.2341 -0.2187  0.3676
  849MPD2    H712534   0.390   3.761  14.304 -0.7022  1.9818  1.8989
  850MPD2     C12535   3.776   1.549  14.719  0.0912  0.3206 -0.1487
  850MPD2    C112536   3.728   1.651  14.797 -0.7731 -0.7706 -0.1845
  850MPD2    C212537   3.817   1.739  14.866 -0.5010  0.3180  0.3443
  850MPD2    C312538   3.950   1.709  14.876 -0.1260 -0.3081 -0.2107
  850MPD2    C412539   3.994   1.605  14.793  0.3125  0.0828  1.0780
  850MPD2    C512540   3.914   1.529  14.715 -0.4707  0.9465  0.4258
  850MPD2     H12541   3.768   1.829  14.902  0.9726  0.6867  1.4089
  850MPD2    H112542   4.096   1.570  14.803  0.0274 -0.5604  1.6651
  850MPD2    H212543   3.707   1.499  14.652 -0.9986  3.2008 -1.1877
  850MPD2    H312544   3.964   1.450  14.660  1.6497  2.1181  0.6765
  850MPD2     N12545   4.046   1.787  14.946 -0.1007 -0.0979  0.1235
  850MPD2    H512546   4.143   1.758  14.942  0.2760  1.4135 -2.1298
  850MPD2    N112547   3.583   1.660  14.800  0.2471  0.5931 -0.3046
  850MPD2    H712548   3.538   1.617  14.721  1.0386 -0.9044  0.0628
  851MPD2     C12549   3.964   1.628  15.564 -0.1827  0.0430 -0.0675
  851MPD2    C112550   3.962   1.603  15.429 -0.0185  0.8149 -0.4301
  851MPD2    C212551   4.058   1.519  15.372  0.0912 -0.0608  0.4812
  851MPD2    C312552   4.152   1.455  15.451  0.5020 -0.2783  0.0816
  851MPD2    C412553   4.152   1.473  15.592 -0.1841 -0.1069 -0.2996
  851MPD2    C512554   4.063   1.565  15.641 -0.3382 -0.0103 -0.5160
  851MPD2     H12555   4.051   1.514  15.264  0.3088 -0.4766  0.4860
  851MPD2    H112556   4.211   1.422  15.668  0.7417  0.0494 -0.9144
  851MPD2    H212557   3.888   1.690  15.610 -0.5714  0.0627 -0.7325
  851MPD2    H312558   4.061   1.575  15.748 -1.7308 -2.0022 -0.3508
  851MPD2     N12559   4.239   1.362  15.386  0.1738 -0.1704 -0.3107
  851MPD2    H512560   4.228   1.354  15.285 -2.9223  0.4208  0.0061
  851MPD2    N112561   3.864   1.667  15.354 -0.9576  0.3267  0.1624
  851MPD2    H712562   3.826   1.748  15.401  4.2753  2.6006  0.4168
  852MPD2     C12563   3.892   4.663   9.910  0.0972 -0.4976  0.2417
  852MPD2    C112564   3.998   4.684  10.001  0.5277  0.4490 -0.9080
  852MPD2    C212565   4.111   0.009   9.962 -0.9305  0.3816 -0.4406
  852MPD2    C312566   4.126   0.059   9.833  0.6147 -0.3737  0.0643
  852MPD2    C412567   4.028   0.027   9.745 -0.9179  0.0309  0.3994
  852MPD2    C512568   3.914   4.692   9.773 -0.5334  0.1931 -0.2360
  852MPD2     H12569   4.190   0.031  10.033 -2.3485  0.9234  0.9678
  852MPD2    H112570   4.040   0.074   9.648  2.6140 -1.3246  0.1973
  852MPD2    H212571   3.805   4.603   9.933 -0.1139 -0.9443 -1.6604
  852MPD2    H312572   3.841   4.674   9.695 -2.0568 -1.6013  1.6295
  852MPD2     N12573   4.245   0.139   9.802  0.4297 -0.1869  0.9240
  852MPD2    H512574   4.316   0.149   9.874  1.0191 -1.2442  0.4850
  852MPD2    N112575   3.987   4.639  10.131 -0.2597  0.3021  0.4720
  852MPD2    H712576   4.059   4.674  10.194 -0.6219  0.6561  0.6849
  853MPD2     C12577   1.035   4.086  12.659 -0.3662 -0.0979  1.1365
  853MPD2    C112578   0.932   4.158  12.604 -0.9219  0.5534 -0.2215
  853MPD2    C212579   0.908   4.172  12.466  0.0042 -0.5026 -0.2377
  853MPD2    C312580   0.995   4.105  12.375  0.2786  0.0684  0.1384
  853MPD2    C412581   1.102   4.035  12.431  0.4429  0.2229 -0.0796
  853MPD2    C512582   1.121   4.029  12.568 -0.7150 -0.3620 -0.2272
  853MPD2     H12583   0.811   4.213  12.438 -0.1651 -1.5013 -1.0943
  853MPD2    H112584   1.169   3.987  12.361  2.0718 -0.3293  1.8548
  853MPD2    H212585   1.051   4.068  12.764 -0.3433 -0.5459  1.0554
  853MPD2    H312586   1.209   3.975  12.601  0.3212  1.4368 -0.0593
  853MPD2     N12587   0.978   4.107  12.234  0.2731  0.0689  0.3615
  853MPD2    H512588   1.057   4.071  12.181 -0.4175  0.5632 -0.9890
  853MPD2    N112589   0.848   4.211  12.701 -0.6961  0.0317  0.3246
  853MPD2    H712590   0.869   4.205  12.801  0.4995 -1.7661 -0.0419
  854MPD2     C12591   2.451   4.621  12.978 -0.1831 -0.1320  0.2571
  854MPD2    C112592   2.557   4.610  12.888  0.2523  1.1720  0.2585
  854MPD2    C212593   2.678   4.558  12.937 -0.2799  0.3332 -0.2621
  854MPD2    C312594   2.693   4.503  13.060 -0.3470 -0.5011 -0.7179
  854MPD2    C412595   2.590   4.513  13.144 -0.1789 -0.7154  0.9109
  854MPD2    C512596   2.477   4.577  13.104  0.5618  0.1276  0.5398
  854MPD2     H12597   2.766   4.569  12.875 -0.4375  0.4718 -0.4634
  854MPD2    H112598   2.598   4.469  13.243 -1.7556 -2.1584  0.3988
  854MPD2    H212599   2.359   4.675  12.960  0.6873  1.2034 -0.2086
  854MPD2    H312600   2.406   4.606  13.180 -0.5202  1.7435 -1.0966
  854MPD2     N12601   2.807   4.433  13.096 -0.0902 -0.2139 -0.3599
  854MPD2    H512602   2.801   4.381  13.184 -1.2429  1.0499  0.3143
  854MPD2    N112603   2.540   4.649  12.754 -0.0904  0.0821  0.5754
  854MPD2    H712604   2.447   4.688  12.739  0.1838 -0.7886 -3.4433
  855MPD2     C12605   3.057   4.407  13.913 -0.0601  0.2348  1.1045
  855MPD2    C112606   3.023   4.283  13.868 -0.2459  0.2342  0.8672
  855MPD2    C212607   3.017   4.255  13.736 -0.6703 -0.0977 -0.4558
  855MPD2    C312608   3.060   4.349  13.642  0.2214 -0.0428  0.8968
  855MPD2    C412609   3.100   4.469  13.694 -0.0883 -0.1671 -0.1708
  855MPD2    C512610   3.110   4.501  13.828  0.1723 -0.1312 -0.0286
  855MPD2     H12611   2.968   4.168  13.692  1.7283 -2.0038  0.6351
  855MPD2    H112612   3.120   4.553  13.628  1.5083  0.3389  0.9437
  855MPD2    H212613   3.060   4.416  14.021  0.3402  2.8901  0.8734
  855MPD2    H312614   3.154   4.597  13.854 -2.0267  0.7759  0.3066
  855MPD2     N12615   3.043   4.327  13.503  0.2866 -0.9598 -0.2221
  855MPD2    H512616   3.050   4.411  13.448 -1.2007 -1.4819 -1.2054
  855MPD2    N112617   2.962   4.203  13.971 -0.0516 -0.7615  0.2192
  855MPD2    H712618   2.983   4.206  14.070 -0.6425 -0.7314  0.3422
  856MPD2     C12619   0.111   0.437  14.013 -0.8614  0.8828  0.4204
  856MPD2    C112620   0.193   0.552  14.015 -0.2377 -0.2577 -0.0055
  856MPD2    C212621   0.127   0.674  13.981 -0.7961  0.9229  0.4486
  856MPD2    C312622   4.733   0.680  13.943 -0.7370 -0.2239 -0.2035
  856MPD2    C412623   4.669   0.561  13.931 -0.2365  0.7801  0.2027
  856MPD2    C512624   4.724   0.449  13.980  0.1228  0.1493 -0.1725
  856MPD2     H12625   0.183   0.765  13.964 -0.8296 -0.0376 -4.9368
  856MPD2    H112626   4.566   0.560  13.898  0.1331  0.3110 -0.9318
  856MPD2    H212627   0.148   0.337  14.036 -0.8067  1.1110  1.3064
  856MPD2    H312628   4.662   0.360  13.981  1.9362 -1.0964  0.0629
  856MPD2     N12629   4.659   0.797  13.912  0.1889  0.7923 -0.4573
  856MPD2    H512630   4.563   0.794  13.879  0.5501 -0.4629 -1.4343
  856MPD2    N112631   0.331   0.551  14.038  0.1899 -0.5478  0.3998
  856MPD2    H712632   0.381   0.635  14.011 -1.4514  1.1982  2.8498
  857MPD2     C12633   1.877   2.154  13.149 -0.1592 -0.0923  0.3839
  857MPD2    C112634   1.966   2.215  13.060 -0.6515 -0.1528  0.5534
  857MPD2    C212635   2.039   2.328  13.097  0.1479 -0.1936  0.5290
  857MPD2    C312636   2.011   2.386  13.218 -0.6532  0.0183 -0.2565
  857MPD2    C412637   1.934   2.319  13.313  0.0098  0.6546 -0.2740
  857MPD2    C512638   1.868   2.203  13.278  0.4205 -0.1248 -0.4507
  857MPD2     H12639   2.116   2.369  13.033 -1.7702  3.7629  0.8067
  857MPD2    H112640   1.930   2.350  13.417  0.8752 -1.7657  0.4754
  857MPD2    H212641   1.828   2.063  13.116  1.4831 -1.2367  1.1146
  857MPD2    H312642   1.803   2.154  13.350  1.6485 -0.7887  0.2081
  857MPD2     N12643   2.075   2.508  13.242 -0.1071  0.4261  0.3291
  857MPD2    H512644   2.141   2.539  13.171  0.3644  0.8889  0.9669
  857MPD2    N112645   1.991   2.147  12.936 -0.3907 -0.2456  0.0182
  857MPD2    H712646   1.922   2.077  12.910 -0.7560 -0.1886  0.8197
  858MPD2     C12647   2.444   2.086  16.360  0.2776  0.5828 -0.2218
  858MPD2    C112648   2.377   1.964  16.372 -0.1390 -0.7969  0.3218
  858MPD2    C212649   2.305   1.945  16.491  0.3072  0.2254  0.9220
  858MPD2    C312650   2.298   2.049  16.586 -0.0099 -0.1287 -0.5672
  858MPD2    C412651   2.365   2.166  16.567  0.0102  0.7227 -0.2905
  858MPD2    C512652   2.443   2.185  16.455  0.6687  0.3875  1.2175
  858MPD2     H12653   2.248   1.853  16.499 -0.1561  0.1831 -2.5897
  858MPD2    H112654   2.368   2.237  16.649  0.6406 -0.4025  0.6626
  858MPD2    H212655   2.498   2.103  16.268  0.0538  0.8438 -0.3038
  858MPD2    H312656   2.500   2.275  16.436  0.5661  0.2683  0.3280
  858MPD2     N12657   2.229   2.033  16.711 -0.1467 -0.0751 -0.0370
  858MPD2    H512658   2.228   2.119  16.765 -1.8568  0.1135 -0.3627
  858MPD2    N112659   2.386   1.874  16.257 -0.1169  0.1641 -0.3998
  858MPD2    H712660   2.440   1.900  16.174  0.0231  0.6070 -0.1702
  859MPD2     C12661   0.598   3.306  15.739 -0.4193  0.1123  0.0841
  859MPD2    C112662   0.690   3.310  15.630 -0.1537  0.2315 -0.1112
  859MPD2    C212663   0.791   3.213  15.626  0.8030 -0.3420 -0.5695
  859MPD2    C312664   0.800   3.105  15.711  0.4930 -0.1762 -0.8624
  859MPD2    C412665   0.706   3.107  15.808  0.5807 -0.2365 -0.4958
  859MPD2    C512666   0.613   3.206  15.824 -0.0219 -0.7526  0.6101
  859MPD2     H12667   0.861   3.224  15.544 -0.7232  1.7201 -1.6202
  859MPD2    H112668   0.712   3.026  15.879  0.6398  0.8314  0.7076
  859MPD2    H212669   0.517   3.378  15.748  0.2204  0.6246  1.6690
  859MPD2    H312670   0.552   3.203  15.914 -0.3170  0.0640  0.4326
  859MPD2     N12671   0.896   3.000  15.706 -0.1095  0.3308  0.8919
  859MPD2    H512672   0.885   2.929  15.777 -2.9367  0.7958  0.9090
  859MPD2    N112673   0.665   3.400  15.523 -0.0575 -0.2142  0.0995
  859MPD2    H712674   0.587   3.463  15.535  0.9801  0.9201  0.7951
  860MPD2     C12675   3.765   3.848  11.583  0.1255 -0.1687 -0.2056
  860MPD2    C112676   3.785   3.947  11.673  0.0713 -0.1863 -0.2664
  860MPD2    C212677   3.689   3.965  11.764  0.6517 -0.6232  0.0903
  860MPD2    C312678   3.567   3.893  11.771 -0.4059  0.3263  0.8156
  860MPD2    C412679   3.542   3.797  11.673  0.6559  0.4003 -0.3543
  860MPD2    C512680   3.647   3.777  11.580  0.2784 -0.1225 -0.2211
  860MPD2     H12681   3.695   4.056  11.823  0.8406 -0.3901 -0.2927
  860MPD2    H112682   3.447   3.747  11.662 -0.6591  2.5649  1.1135
  860MPD2    H212683   3.851   3.829  11.519 -0.8087  0.7046 -1.7281
  860MPD2    H312684   3.632   3.705  11.500 -2.8366 -0.9105  1.0805
  860MPD2     N12685   3.476   3.918  11.871  0.6931 -0.6154 -0.0149
  860MPD2    H512686   3.498   4.007  11.915 -0.0305 -0.6951  0.5082
  860MPD2    N112687   3.887   4.042  11.674  0.5056 -0.1384 -0.3418
  860MPD2    H712688   3.883   4.115  11.745  0.0117  0.1530 -0.6717
  861MPD2     C12689   3.154   1.921  10.992 -0.3280 -0.0090  0.1872
  861MPD2    C112690   3.054   1.926  11.087  0.0148 -0.7627  0.1227
  861MPD2    C212691   2.921   1.934  11.047 -0.5852  0.1372 -0.4554
  861MPD2    C312692   2.893   1.957  10.914  0.5149 -0.3446  0.4188
  861MPD2    C412693   2.995   1.961  10.820 -0.0820 -0.2154  0.3357
  861MPD2    C512694   3.122   1.923  10.854  0.7553  1.0746 -0.2913
  861MPD2     H12695   2.843   1.942  11.121 -0.2927 -1.4414  0.0378
  861MPD2    H112696   2.973   1.978  10.715 -1.6629 -2.4704  0.3192
  861MPD2    H212697   3.255   1.895  11.021  0.3092  0.0616 -1.9831
  861MPD2    H312698   3.197   1.913  10.776 -0.9899 -0.5071 -1.7678
  861MPD2     N12699   2.760   1.983  10.872 -0.0686 -0.5197 -0.4344
  861MPD2    H512700   2.750   2.015  10.776 -1.4489 -0.5995 -0.3106
  861MPD2    N112701   3.090   1.923  11.229  0.2660 -0.1200  0.3327
  861MPD2    H712702   3.014   1.935  11.295  1.1444  1.1468  1.1275
  862MPD2     C12703   2.132   2.167  10.447 -0.3424  0.5249 -0.1472
  862MPD2    C112704   2.215   2.071  10.494 -0.2693 -0.3902 -0.1801
  862MPD2    C212705   2.201   1.938  10.456  0.1793  0.8345  0.1545
  862MPD2    C312706   2.084   1.901  10.394 -0.3891 -0.3145 -0.3414
  862MPD2    C412707   1.993   2.001  10.357 -0.5988  0.1457 -0.0478
  862MPD2    C512708   2.021   2.134  10.379 -0.7095  0.6397  0.3439
  862MPD2     H12709   2.271   1.866  10.494 -1.6419  0.0876  2.0673
  862MPD2    H112710   1.891   1.987  10.322  0.2850 -1.8527 -1.8548
  862MPD2    H212711   2.148   2.272  10.470  1.9728  0.2042 -0.3023
  862MPD2    H312712   1.947   2.206  10.345  0.3089  1.2487 -0.5652
  862MPD2     N12713   2.045   1.766  10.384 -0.4680 -0.2483 -0.2330
  862MPD2    H512714   1.949   1.747  10.359 -1.0958  2.3872  0.1910
  862MPD2    N112715   2.326   2.107  10.577 -1.0362  0.1878 -0.2480
  862MPD2    H712716   2.372   2.020  10.605  1.6309  1.7128  0.1285
  863MPD2     C12717   0.140   0.729  16.751 -0.2146  0.1421  0.1231
  863MPD2    C112718   0.233   0.771  16.662 -0.1772  0.3215  0.1358
  863MPD2    C212719   0.363   0.732  16.676 -1.4545  1.1321 -0.4722
  863MPD2    C312720   0.404   0.657  16.784  0.2190  0.3879 -0.1949
  863MPD2    C412721   0.307   0.605  16.864 -0.4730  0.3203  0.4803
  863MPD2    C512722   0.172   0.641  16.854  0.5490  0.2585 -0.0730
  863MPD2     H12723   0.424   0.772  16.596 -0.3613  0.8765  0.2282
  863MPD2    H112724   0.323   0.526  16.937  1.5386  0.2851  0.0056
  863MPD2    H212725   0.041   0.766  16.728 -0.1558  0.4636  0.3967
  863MPD2    H312726   0.097   0.611  16.926  3.1368 -0.4842  2.3004
  863MPD2     N12727   0.544   0.641  16.817  0.9848  0.2348 -0.2949
  863MPD2    H512728   0.564   0.585  16.899  0.3913 -0.0416 -0.3336
  863MPD2    N112729   0.207   0.865  16.567  0.2216 -0.2505  0.3314
  863MPD2    H712730   0.282   0.886  16.502  1.2186 -1.2943  1.1469
  864MPD2     C12731   0.883   1.869  17.037  0.7497 -0.0567  0.6750
  864MPD2    C112732   0.955   1.802  16.940  0.7283  1.0433 -0.3527
  864MPD2    C212733   1.069   1.861  16.895 -0.2608 -0.0393 -0.2166
  864MPD2    C312734   1.116   1.985  16.939  0.3787  0.2177 -0.3163
  864MPD2    C412735   1.040   2.045  17.036 -0.4069 -1.0450 -0.8565
  864MPD2    C512736   0.925   1.988  17.082 -0.8404 -0.0449 -0.2439
  864MPD2     H12737   1.130   1.813  16.819  0.8895 -1.9810  1.9500
  864MPD2    H112738   1.068   2.139  17.083 -0.8248 -1.2792 -0.1387
  864MPD2    H212739   0.786   1.832  17.070  0.9307 -0.2927  0.9431
  864MPD2    H312740   0.872   2.040  17.160 -0.4942 -0.9216  0.5806
  864MPD2     N12741   1.229   2.053  16.881  0.2912 -0.0281  0.0788
  864MPD2    H512742   1.244   2.140  16.931  1.6967  0.0532 -0.5003
  864MPD2    N112743   0.900   1.685  16.888  0.3877 -0.2544 -0.6353
  864MPD2    H712744   0.833   1.642  16.951 -1.7349  2.6173 -0.9346
  865MPD2     C12745   1.096   2.453  16.090 -0.2839  0.1932 -0.5598
  865MPD2    C112746   1.124   2.323  16.103 -0.0805  0.2006 -0.2283
  865MPD2    C212747   1.171   2.281  16.230  0.3939  0.3829  0.0996
  865MPD2    C312748   1.212   2.364  16.330 -0.0527 -0.0261 -0.8526
  865MPD2    C412749   1.198   2.504  16.303 -0.0645 -0.7625  0.4267
  865MPD2    C512750   1.136   2.542  16.184  0.6056  0.3144 -0.3125
  865MPD2     H12751   1.194   2.178  16.255 -0.0939  0.0040 -1.0272
  865MPD2    H112752   1.234   2.585  16.365  1.3416  0.5492 -2.1021
  865MPD2    H212753   1.069   2.489  15.991 -0.0259 -1.0132 -1.0758
  865MPD2    H312754   1.131   2.647  16.159  1.8625  0.8888  1.8631
  865MPD2     N12755   1.267   2.309  16.449 -0.5030 -0.0634  0.3220
  865MPD2    H512756   1.265   2.208  16.463 -0.0602 -0.1576 -0.2881
  865MPD2    N112757   1.096   2.229  16.000 -0.0034 -0.5401 -0.5567
  865MPD2    H712758   1.070   2.264  15.909  1.6565 -0.4685 -1.0040
  866MPD2     C12759   3.636   2.199  11.315 -0.6307 -0.2172 -0.4096
  866MPD2    C112760   3.589   2.255  11.194 -0.2257  0.4845 -0.5227
  866MPD2    C212761   3.456   2.276  11.179 -0.8018 -0.0860  0.6193
  866MPD2    C312762   3.378   2.280  11.298 -1.0638  0.5466  0.3492
  866MPD2    C412763   3.429   2.243  11.423  0.1583 -0.2391 -0.3404
  866MPD2    C512764   3.561   2.205  11.424  0.2903 -0.3068  0.4375
  866MPD2     H12765   3.421   2.313  11.083  1.2410 -0.8415 -0.4138
  866MPD2    H112766   3.372   2.228  11.514 -1.3227  3.1606 -0.7035
  866MPD2    H212767   3.739   2.168  11.320 -0.5582  0.0406 -0.3293
  866MPD2    H312768   3.599   2.163  11.517  0.3602 -0.4986  0.3222
  866MPD2     N12769   3.237   2.322  11.288 -0.1457 -0.0153  0.5556
  866MPD2    H512770   3.182   2.321  11.373 -0.7200 -2.6187  0.1432
  866MPD2    N112771   3.689   2.276  11.093 -0.3411  0.4704 -0.0357
  866MPD2    H712772   3.775   2.239  11.131 -0.2411 -0.2734 -0.9822
  867MPD2     C12773   4.307   2.232  15.980 -1.0379 -0.3101  0.0543
  867MPD2    C112774   4.347   2.140  16.074  0.1171 -0.3819  0.2200
  867MPD2    C212775   4.325   2.163  16.212  0.1055  0.4984  0.1419
  867MPD2    C312776   4.269   2.280  16.254 -0.0535 -0.4685  0.7626
  867MPD2    C412777   4.230   2.373  16.151  0.1765 -0.2290  0.1854
  867MPD2    C512778   4.249   2.353  16.017 -0.0009  0.5779 -0.8091
  867MPD2     H12779   4.381   2.094  16.275 -2.0175 -0.1001  1.3918
  867MPD2    H112780   4.178   2.464  16.180  2.4537  1.8418 -2.2369
  867MPD2    H212781   4.332   2.217  15.875 -2.2998  2.1829 -0.6262
  867MPD2    H312782   4.207   2.419  15.942  0.6670  1.9089 -0.0192
  867MPD2     N12783   4.261   2.317  16.387  0.3351  0.2671 -0.1387
  867MPD2    H512784   4.237   2.411  16.416 -0.7972  0.5980 -2.1381
  867MPD2    N112785   4.408   2.019  16.036  0.1068  0.3119 -0.6519
  867MPD2    H712786   4.441   2.018  15.940 -1.0372 -0.8250 -1.0273
  868MPD2     C12787   2.202   1.124  12.576 -0.2656 -0.2563  0.1692
  868MPD2    C112788   2.242   1.051  12.690 -0.5801 -0.5606 -0.0156
  868MPD2    C212789   2.147   1.034  12.789  0.4915  0.8490  0.5304
  868MPD2    C312790   2.021   1.085  12.778  0.3923 -0.1852  0.0858
  868MPD2    C412791   1.988   1.163  12.666  0.3558 -0.2503  0.0449
  868MPD2    C512792   2.080   1.184  12.563  0.0803  0.4069  0.2403
  868MPD2     H12793   2.184   0.997  12.885 -2.4101 -1.6022  0.6868
  868MPD2    H112794   1.899   1.224  12.666  0.0138 -0.7468 -0.4265
  868MPD2    H212795   2.274   1.140  12.497 -1.6849  0.2275 -1.0321
  868MPD2    H312796   2.059   1.246  12.476 -0.5310  0.2461  0.2733
  868MPD2     N12797   1.947   1.096  12.900  0.1522 -0.3207  0.2730
  868MPD2    H512798   1.982   1.059  12.988 -0.4157  0.3942  0.7995
  868MPD2    N112799   2.372   1.001  12.697 -0.0447 -0.0586  0.0378
  868MPD2    H712800   2.435   1.028  12.622 -1.7021  0.7369 -1.0624
  869MPD2     C12801   3.013   3.968   0.625 -0.4546  0.1466  0.6319
  869MPD2    C112802   3.065   3.936   0.499 -0.2668 -0.4507 -0.3149
  869MPD2    C212803   3.159   4.020   0.446  0.2395 -0.7620 -0.0759
  869MPD2    C312804   3.194   4.131   0.521 -0.2583 -0.1756  0.6441
  869MPD2    C412805   3.142   4.159   0.651 -0.4446 -0.6999 -0.6313
  869MPD2    C512806   3.056   4.070   0.706 -0.3609  0.6205  0.4105
  869MPD2     H12807   3.189   4.001   0.344  2.4942 -0.4980  0.5406
  869MPD2    H112808   3.182   4.238   0.713  2.0771 -1.4458 -1.3158
  869MPD2    H212809   2.939   3.906   0.674  0.8993 -0.0351  2.4495
  869MPD2    H312810   3.024   4.080   0.809 -0.7668 -1.8043  0.5080
  869MPD2     N12811   3.294   4.220   0.485  0.0989  0.3597 -0.1498
  869MPD2    H512812   3.302   4.306   0.538  1.9794  1.1711 -1.7711
  869MPD2    N112813   3.001   3.821   0.441 -0.0469 -0.0680  0.8216
  869MPD2    H712814   2.925   3.782   0.495 -0.1261 -0.9851  0.0380
  870MPD2     C12815   3.029   2.424   1.314 -0.3250 -0.0683 -0.0061
  870MPD2    C112816   2.922   2.352   1.256  0.1166 -0.2525  0.3081
  870MPD2    C212817   2.791   2.399   1.251 -0.2124  0.1408  0.1231
  870MPD2    C312818   2.757   2.519   1.313  0.3112 -0.2644 -0.3538
  870MPD2    C412819   2.861   2.585   1.371 -0.4003  0.3091  0.9367
  870MPD2    C512820   2.995   2.543   1.364 -0.2166 -0.1156 -0.9418
  870MPD2     H12821   2.711   2.333   1.219  1.6427 -0.8038 -2.5550
  870MPD2    H112822   2.841   2.669   1.437 -1.2507  1.3044 -0.6002
  870MPD2    H212823   3.130   2.383   1.317  0.7395  2.5954 -0.0364
  870MPD2    H312824   3.074   2.602   1.409 -1.0183 -2.0163  3.0288
  870MPD2     N12825   2.622   2.553   1.315  0.4041  0.1982 -0.2794
  870MPD2    H512826   2.568   2.509   1.241 -1.6050  1.5999  0.3267
  870MPD2    N112827   2.963   2.232   1.194  0.0261  0.4986 -0.1332
  870MPD2    H712828   3.059   2.206   1.212 -0.4392 -1.3939 -0.4250
  871MPD2     C12829   3.519   2.214  16.403  0.5131 -0.1639 -0.0899
  871MPD2    C112830   3.461   2.147  16.514  0.6102 -0.3727  0.7170
  871MPD2    C212831   3.445   2.012  16.509 -0.2045  0.1903 -0.1128
  871MPD2    C312832   3.475   1.945  16.395 -0.2635  0.0229  0.6173
  871MPD2    C412833   3.512   2.015  16.281 -0.4430  0.0435  0.1604
  871MPD2    C512834   3.521   2.154  16.281 -0.1310  0.3396 -0.3381
  871MPD2     H12835   3.433   1.960  16.604  2.7680  0.4858  0.4327
  871MPD2    H112836   3.537   1.972  16.184  1.3044  0.9814  0.1890
  871MPD2    H212837   3.554   2.316  16.412 -2.0755  0.8037 -1.0167
  871MPD2    H312838   3.551   2.208  16.192  0.8719 -0.5452 -0.5359
  871MPD2     N12839   3.468   1.802  16.397 -0.5221  0.5272  0.3436
  871MPD2    H512840   3.438   1.757  16.483 -0.9663  1.5328  0.7155
  871MPD2    N112841   3.450   2.221  16.637 -0.0270 -1.4189  0.1767
  871MPD2    H712842   3.459   2.322  16.629  1.1390 -1.3353  2.6661
  872MPD2     C12843   0.331   4.130  14.429 -0.6643  0.3796  0.3812
  872MPD2    C112844   0.277   4.232  14.348 -0.1589 -0.7164 -0.2101
  872MPD2    C212845   0.142   4.263  14.357 -0.0278  0.0836 -1.0015
  872MPD2    C312846   0.057   4.186  14.431 -0.1374 -0.1911  0.4501
  872MPD2    C412847   0.114   4.083  14.506 -0.6335  0.1509  0.7101
  872MPD2    C512848   0.248   4.057  14.508  0.9586 -0.1029  0.0160
  872MPD2     H12849   0.103   4.339  14.289 -2.0410  1.2735  1.4699
  872MPD2    H112850   0.042   4.021  14.558  0.2449 -2.0098 -0.6366
  872MPD2    H212851   0.437   4.108  14.425 -0.8924 -0.6415 -0.0322
  872MPD2    H312852   0.286   3.980  14.574  0.3256  1.8047  2.6169
  872MPD2     N12853   4.659   4.202  14.435 -0.4354 -0.4198  0.0054
  872MPD2    H512854   4.607   4.152  14.507 -1.0341  0.5781  0.2631
  872MPD2    N112855   0.356   4.321  14.266 -0.3944  0.5132 -0.3271
  872MPD2    H712856   0.309   4.384  14.202  0.3497  0.9593 -0.4314
  873MPD2     C12857   1.376   4.552   0.308  0.5552  0.7403  0.3220
  873MPD2    C112858   1.439   4.480   0.408  0.0054  0.5697  0.4981
  873MPD2    C212859   1.395   4.354   0.433 -0.5707 -0.0669  0.8034
  873MPD2    C312860   1.298   4.294   0.347  0.1871  0.6479  0.2477
  873MPD2    C412861   1.243   4.366   0.242  0.0792 -0.5085  0.4257
  873MPD2    C512862   1.283   4.496   0.232  0.8356 -0.1647  0.0052
  873MPD2     H12863   1.444   4.300   0.512 -1.5706 -0.3832  1.2140
  873MPD2    H112864   1.165   4.318   0.184 -1.5889  2.3086  0.3784
  873MPD2    H212865   1.392   4.657   0.289 -2.0632  1.2717  0.9657
  873MPD2    H312866   1.252   4.554   0.145  2.0658 -0.8138 -0.8668
  873MPD2     N12867   1.276   4.151   0.350  0.1997 -0.5912  0.0652
  873MPD2    H512868   1.229   4.118   0.266 -1.1438 -0.8294  0.9165
  873MPD2    N112869   1.546   4.547   0.475 -0.3548  0.5124 -0.3068
  873MPD2    H712870   1.571   4.636   0.434 -0.9558  0.8173 -0.0125
  874MPD2     C12871   0.937   4.559  16.063  0.5424 -0.4262  0.0243
  874MPD2    C112872   0.981   4.484  16.166 -0.0208 -0.7635 -0.7667
  874MPD2    C212873   1.090   4.523  16.243 -0.5757 -0.1201 -0.0774
  874MPD2    C312874   1.158   4.638  16.211 -0.2968  0.2814  0.4267
  874MPD2    C412875   1.119   4.711  16.103 -0.9486 -0.2203 -0.7230
  874MPD2    C512876   1.008   4.667  16.029 -0.1048 -0.2235  0.1160
  874MPD2     H12877   1.119   4.466  16.331 -1.1010  0.5468  0.5222
  874MPD2    H112878   1.172   0.052  16.058  0.5341 -0.7657  0.0024
  874MPD2    H212879   0.848   4.534  16.006  0.0773  0.9607  0.1410
  874MPD2    H312880   0.967   4.723  15.946 -0.6956 -0.5743  0.1676
  874MPD2     N12881   1.275   4.674  16.282 -1.0826  0.0170  0.4079
  874MPD2    H512882   1.313   4.621  16.359 -0.2925  0.0374  0.0320
  874MPD2    N112883   0.906   4.364  16.186  0.2443  1.0917  0.0944
  874MPD2    H712884   0.818   4.356  16.136  0.3591  1.2532 -0.1343
  875MPD2     C12885   2.366   2.624  14.249  0.3060  0.4202  0.8410
  875MPD2    C112886   2.283   2.710  14.307  0.5302 -0.7229  0.6716
  875MPD2    C212887   2.336   2.786  14.411  0.3918  0.7446  0.4477
  875MPD2    C312888   2.454   2.750  14.480  0.1534  0.2187  0.0812
  875MPD2    C412889   2.534   2.666  14.419  0.3890 -0.3479 -0.3636
  875MPD2    C512890   2.490   2.609  14.302 -0.2244 -0.9135 -0.1916
  875MPD2     H12891   2.269   2.865  14.441 -1.3681  0.0656 -1.7166
  875MPD2    H112892   2.636   2.646  14.448  0.2218  0.2545  0.6589
  875MPD2    H212893   2.335   2.569  14.161  1.5822  0.2343  0.4989
  875MPD2    H312894   2.551   2.537  14.249  3.7783  3.6843 -1.8741
  875MPD2     N12895   2.484   2.815  14.604  0.5139  0.1155  0.1141
  875MPD2    H512896   2.410   2.878  14.634 -1.3163  0.1629 -4.3966
  875MPD2    N112897   2.156   2.745  14.253 -0.0892  0.0819 -0.2279
  875MPD2    H712898   2.098   2.813  14.302  0.2244 -0.2373  0.5810
  876MPD2     C12899   1.259   4.330  15.962 -0.3009  0.5873 -0.5827
  876MPD2    C112900   1.269   4.241  15.858  0.0961  0.4181  0.8229
  876MPD2    C212901   1.266   4.109  15.879  0.4345 -0.3669 -1.1164
  876MPD2    C312902   1.237   4.055  16.003 -0.3897 -0.3027 -0.0948
  876MPD2    C412903   1.228   4.140  16.107  0.3430 -0.7947 -0.4605
  876MPD2    C512904   1.243   4.279  16.088 -0.7083  0.9616 -0.1495
  876MPD2     H12905   1.296   4.047  15.795  0.4210 -1.4115 -0.3452
  876MPD2    H112906   1.226   4.104  16.209 -0.3034 -0.7509 -0.4580
  876MPD2    H212907   1.252   4.437  15.947 -0.1590  0.6109 -0.4884
  876MPD2    H312908   1.245   4.339  16.178  1.6462 -0.1752  0.5220
  876MPD2     N12909   1.258   3.914  16.015  0.0599 -0.4365 -0.1803
  876MPD2    H512910   1.269   3.860  15.930 -0.3946  0.5817 -0.8890
  876MPD2    N112911   1.266   4.277  15.721 -0.4187 -0.1307  0.0081
  876MPD2    H712912   1.242   4.201  15.658 -0.1388 -1.8807  2.0055
  877MPD2     C12913   1.688   4.699  15.074  0.2015 -0.3525 -0.4245
  877MPD2    C112914   1.587   4.620  15.038  0.1723 -0.4805  0.0377
  877MPD2    C212915   1.562   4.602  14.902 -0.0570 -0.4691 -0.0659
  877MPD2    C312916   1.642   4.650  14.803  0.6433  0.0079  0.9290
  877MPD2    C412917   1.750   4.736  14.839 -1.3661 -0.6131  0.1304
  877MPD2    C512918   1.761   0.020  14.971 -0.2233  0.2274 -0.2000
  877MPD2     H12919   1.466   4.560  14.873 -0.9237  0.3349  1.6627
  877MPD2    H112920   1.798   0.047  14.758  0.6058 -0.4805  1.3964
  877MPD2    H212921   1.709   4.728  15.176 -2.0083  0.1958 -0.1274
  877MPD2    H312922   1.824   0.105  14.994  0.2699 -0.6905  1.8858
  877MPD2     N12923   1.601   4.644  14.667  0.0388 -0.0886  0.4482
  877MPD2    H512924   1.655   4.690  14.594  0.4996  1.8945  2.0317
  877MPD2    N112925   1.491   4.568  15.132  0.0441  0.4210 -0.1840
  877MPD2    H712926   1.410   4.526  15.087  0.7489 -1.7156  0.5335
  878MPD2     C12927   0.648   4.544  13.624 -0.4393 -0.0215 -0.6519
  878MPD2    C112928   0.748   4.443  13.614 -0.0760  0.8234  0.4228
  878MPD2    C212929   0.718   4.321  13.658 -0.4687  0.6485  0.1592
  878MPD2    C312930   0.595   4.290  13.716 -0.0454 -0.3148 -0.3758
  878MPD2    C412931   0.491   4.380  13.712  0.2319  1.0397  0.8833
  878MPD2    C512932   0.527   4.504  13.667 -0.4381  0.4878 -0.3701
  878MPD2     H12933   0.792   4.244  13.675 -1.9535 -0.8296 -0.0373
  878MPD2    H112934   0.392   4.359  13.751 -1.2480  2.0541 -2.3343
  878MPD2    H212935   0.663   4.644  13.585  1.2079  0.8233  2.0996
  878MPD2    H312936   0.446   4.576  13.660 -1.1182 -0.3874 -1.4623
  878MPD2     N12937   0.598   4.161  13.771  0.2075  0.1445 -0.1832
  878MPD2    H512938   0.688   4.116  13.785  0.0577  0.3421  1.4651
  878MPD2    N112939   0.880   4.473  13.579  0.3306 -0.2065 -0.4012
  878MPD2    H712940   0.883   4.572  13.556 -0.2847  0.5681  2.7746
  879MPD2     C12941   0.766   4.564  17.479 -0.5778  0.5961 -0.5914
  879MPD2    C112942   0.793   4.658  17.380  0.1355  0.0672 -0.0877
  879MPD2    C212943   0.744   4.641  17.253  0.6994  0.3495  0.1853
  879MPD2    C312944   0.657   4.536  17.223  0.4066 -0.3351 -0.2977
  879MPD2    C412945   0.625   4.452  17.322  0.7523 -0.5440  0.1971
  879MPD2    C512946   0.679   4.461  17.447 -0.3666  0.3428  0.5141
  879MPD2     H12947   0.762   4.707  17.168  0.0255  0.3533  0.0491
  879MPD2    H112948   0.551   4.374  17.309  0.9103 -0.2357 -2.6927
  879MPD2    H212949   0.830   4.553  17.566 -1.1476  0.1327 -0.2360
  879MPD2    H312950   0.660   4.381  17.517  2.6742 -1.0986 -0.3361
  879MPD2     N12951   0.614   4.519  17.088 -0.0125 -0.1753 -0.2052
  879MPD2    H512952   0.676   4.559  17.018 -1.0442  0.9290 -0.4837
  879MPD2    N112953   0.900   0.000  17.406  0.6018  0.3208  0.3235
  879MPD2    H712954   0.934   0.004  17.501  0.1063 -0.4471  0.5277
  880MPD2     C12955   2.067   1.938   0.315  0.2127 -0.4854  0.9964
  880MPD2    C112956   2.177   2.017   0.336 -0.5541 -0.0583  0.0023
  880MPD2    C212957   2.281   1.960   0.397  0.4112 -0.6486 -0.2003
  880MPD2    C312958   2.294   1.825   0.426  0.1729 -0.0296  0.1447
  880MPD2    C412959   2.187   1.739   0.394  0.2370 -0.0848  0.9852
  880MPD2    C512960   2.080   1.803   0.343  0.3684 -0.2423  0.5371
  880MPD2     H12961   2.370   2.021   0.412 -0.8867  0.2303  4.0519
  880MPD2    H112962   2.183   1.631   0.398 -1.8341 -0.0863 -0.7824
  880MPD2    H212963   1.976   1.977   0.269  0.9471  0.3580  0.2760
  880MPD2    H312964   1.999   1.742   0.305  1.0649 -1.0539  0.3508
  880MPD2     N12965   2.412   1.779   0.498 -0.2308  0.1442 -0.1918
  880MPD2    H512966   2.486   1.846   0.515  2.1839 -3.0030  1.6266
  880MPD2    N112967   2.174   2.147   0.286  0.5760 -0.3141  0.3405
  880MPD2    H712968   2.088   2.189   0.253  0.4025 -1.3901 -0.5680
  881MPD2     C12969   2.696   3.097   0.048  0.5790  0.1348  0.2209
  881MPD2    C112970   2.658   2.995  17.727 -0.7042  0.2885 -0.7220
  881MPD2    C212971   2.597   2.885   0.014  0.4541  0.0625 -0.4745
  881MPD2    C312972   2.559   2.883   0.153 -0.3261 -0.6190  0.3090
  881MPD2    C412973   2.589   2.996   0.228  0.6062 -0.0666 -1.2685
  881MPD2    C512974   2.656   3.104   0.178 -0.4927  1.1070 -0.2162
  881MPD2     H12975   2.562   2.813  17.706  1.8551 -0.3725 -0.7102
  881MPD2    H112976   2.554   3.007   0.330 -1.3072  1.3202 -2.0517
  881MPD2    H212977   2.757   3.178   0.009 -0.4737  0.1889 -1.2956
  881MPD2    H312978   2.665   3.188   0.245 -0.0050  0.4736  0.5055
  881MPD2     N12979   2.469   2.788   0.210 -0.2521 -0.2017  0.1035
  881MPD2    H512980   2.436   2.819   0.301  0.3137  0.8688 -0.0600
  881MPD2    N112981   2.710   2.984  17.598 -0.2123 -0.8367 -0.0646
  881MPD2    H712982   2.682   2.907  17.538  0.8366  0.7307 -2.5431
  882MPD2     C12983   1.195   4.119  14.231  0.0273  1.0506  0.4813
  882MPD2    C112984   1.155   4.237  14.293  0.8264 -0.0481 -0.2030
  882MPD2    C212985   1.027   4.240  14.343  0.0682  0.5640  0.2086
  882MPD2    C312986   0.956   4.126  14.346  0.8606  0.7171  0.3274
  882MPD2    C412987   0.992   4.008  14.277  1.6109 -0.3374  0.6819
  882MPD2    C512988   1.121   4.006  14.224 -0.0732  0.3858 -0.5827
  882MPD2     H12989   0.986   4.328  14.391  2.3591  0.7595  1.8435
  882MPD2    H112990   0.934   3.917  14.288 -0.3415  1.3178  4.0010
  882MPD2    H212991   1.295   4.112  14.191  0.2546  0.6296  1.1325
  882MPD2    H312992   1.161   3.913  14.184 -1.6496 -0.8944  0.8065
  882MPD2     N12993   0.841   4.117  14.425  0.3339  0.4704  0.0357
  882MPD2    H512994   0.794   4.027  14.432 -1.1511  1.5326  3.3623
  882MPD2    N112995   1.246   4.342  14.288  0.0746 -0.0729  0.4497
  882MPD2    H712996   1.336   4.318  14.246 -0.3542  1.5323 -1.4006
  883MPD2     C12997   2.959   0.501  16.261 -0.7223  0.3567  0.0291
  883MPD2    C112998   3.063   0.426  16.208 -0.3234  0.2303  0.0313
  883MPD2    C212999   3.192   0.445  16.254  0.0044 -0.1973  0.7357
  883MPD2    C313000   3.224   0.545  16.352  0.3385 -0.3308 -0.7284
  883MPD2    C413001   3.117   0.624  16.387 -0.2124  0.4797 -0.2285
  883MPD2    C513002   2.985   0.608  16.336  0.2266  0.1219 -0.1355
  883MPD2     H13003   3.275   0.383  16.221  0.7038  1.6494 -0.9265
  883MPD2    H113004   3.139   0.700  16.460  0.7738  2.0217 -2.1152
  883MPD2    H213005   2.855   0.486  16.235 -1.4851  1.9533  2.2240
  883MPD2    H313006   2.905   0.666  16.380 -0.4833  0.7119 -2.2049
  883MPD2     N13007   3.360   0.552  16.402  0.1598  0.1616  0.5381
  883MPD2    H513008   3.431   0.493  16.360  0.1464  0.1532  0.5271
  883MPD2    N113009   3.042   0.328  16.103 -0.6092  0.0545  0.2904
  883MPD2    H713010   3.123   0.298  16.051 -0.9415 -2.4988  1.2413
  884MPD2     C13011   0.620   0.325  14.964 -1.0137  0.2702  0.2447
  884MPD2    C113012   0.651   0.448  15.025 -0.3708  0.1595  0.1959
  884MPD2    C213013   0.543   0.534  15.062  0.5999 -0.7149 -0.1456
  884MPD2    C313014   0.409   0.505  15.036 -0.1650  0.2783  0.7185
  884MPD2    C413015   0.388   0.376  14.973  0.0054  0.2555  0.2229
  884MPD2    C513016   0.488   0.287  14.949 -0.5522 -0.2119  0.0537
  884MPD2     H13017   0.572   0.629  15.105 -0.1644 -0.9219  0.8250
  884MPD2    H113018   0.286   0.348  14.950 -0.4488  1.7360  0.4464
  884MPD2    H213019   0.693   0.255  14.926 -1.2673  0.1820 -0.0756
  884MPD2    H313020   0.466   0.193  14.898  0.0137 -0.6967  0.7030
  884MPD2     N13021   0.308   0.596  15.080  0.2229  0.2695  0.5396
  884MPD2    H513022   0.340   0.682  15.123  1.5419 -0.1686  0.4377
  884MPD2    N113023   0.783   0.498  15.026  0.2021  0.2407 -0.1684
  884MPD2    H713024   0.786   0.598  15.041 -2.2264  0.1437  1.0521
  885MPD2     C13025   3.173   0.867   0.394 -0.0569  0.2963 -0.4601
  885MPD2    C113026   3.288   0.858   0.327  0.0345  0.1561  0.5560
  885MPD2    C213027   3.291   0.878   0.189 -0.0595  0.5059 -0.7694
  885MPD2    C313028   3.179   0.898   0.117  0.3177 -0.0960  0.5029
  885MPD2    C413029   3.063   0.908   0.194 -0.2034  0.2929  0.0546
  885MPD2    C513030   3.060   0.883   0.322  0.6754  0.2249 -0.2289
  885MPD2     H13031   3.390   0.868   0.146  1.1449  0.9726  1.8885
  885MPD2    H113032   2.966   0.915   0.146 -0.3311  1.0299  0.4361
  885MPD2    H213033   3.169   0.847   0.500  0.3666 -1.1053 -0.7105
  885MPD2    H313034   2.970   0.886   0.383  0.5975  1.7227 -0.4315
  885MPD2     N13035   3.186   0.908  17.737  0.1258 -0.1818  0.3528
  885MPD2    H513036   3.276   0.940  17.702  1.0371 -1.2571  1.7103
  885MPD2    N113037   3.399   0.820   0.401  0.4234  0.0507 -0.3185
  885MPD2    H713038   3.386   0.821   0.502 -2.0793 -1.0039 -0.6296
  886MPD2     C13039   4.478   3.986  15.331 -0.3758 -0.3184  0.0114
  886MPD2    C113040   4.583   4.015  15.418 -0.0692  0.2757  0.4500
  886MPD2    C213041   4.611   4.149  15.461  0.2235  0.2272  0.0725
  886MPD2    C313042   4.546   4.251  15.393  0.5587  0.9704 -0.2934
  886MPD2    C413043   4.450   4.220  15.300  0.1215  0.0976  0.4565
  886MPD2    C513044   4.409   4.090  15.282 -0.1131 -0.3505 -0.3898
  886MPD2     H13045   4.693   4.169  15.529  0.8745 -1.4153 -0.2433
  886MPD2    H113046   4.404   4.297  15.239 -1.6070 -0.6758  0.7577
  886MPD2    H213047   4.464   3.889  15.285 -1.5010  0.4789 -1.3202
  886MPD2    H313048   4.327   4.079  15.211  1.6517 -0.2349 -2.4615
  886MPD2     N13049   4.579   4.387  15.396  0.4521 -0.2280  0.0865
  886MPD2    H513050   4.531   4.449  15.332  0.3498 -0.5539 -0.1495
  886MPD2    N113051   4.671   3.916  15.466 -0.1002  0.7878 -0.2177
  886MPD2    H713052   0.008   3.957  15.513  2.1761 -2.2483 -1.4206
  887MPD2     C13053   0.665   3.834  15.534 -0.5080  0.4644 -0.2726
  887MPD2    C113054   0.556   3.918  15.537 -0.8213  0.6915 -0.5044
  887MPD2    C213055   0.577   4.057  15.546  0.8638 -0.2600  0.8707
  887MPD2    C313056   0.699   4.109  15.556  0.5595  0.2518 -0.1523
  887MPD2    C413057   0.807   4.021  15.546 -0.7281 -0.2462  0.2291
  887MPD2    C513058   0.792   3.885  15.538  0.8020 -0.4427 -0.2146
  887MPD2     H13059   0.488   4.118  15.552 -0.1317 -1.5998 -0.3429
  887MPD2    H113060   0.909   4.055  15.559 -0.4772 -1.0865  0.4797
  887MPD2    H213061   0.650   3.727  15.539 -4.0502  1.0316  1.2293
  887MPD2    H313062   0.872   3.813  15.556  0.6302 -0.9964 -1.6855
  887MPD2     N13063   0.714   4.244  15.570  0.8411  0.4074 -0.4343
  887MPD2    H513064   0.629   4.300  15.573  0.6776  0.2005 -1.1877
  887MPD2    N113065   0.422   3.868  15.549  0.2612  0.3003 -0.0834
  887MPD2    H713066   0.342   3.931  15.555 -1.4459 -1.7470 -1.4733
  888MPD2     C13067   2.453   4.168  15.334 -0.4728  0.7828  0.0961
  888MPD2    C113068   2.407   4.151  15.204 -1.0737  0.4955 -0.0773
  888MPD2    C213069   2.408   4.262  15.114 -0.6421 -0.2281  0.4955
  888MPD2    C313070   2.433   4.392  15.158  0.3755 -0.6990  0.1730
  888MPD2    C413071   2.478   4.403  15.288  0.4565 -0.5264 -0.3421
  888MPD2    C513072   2.489   4.295  15.374 -0.0309 -0.3583 -0.8918
  888MPD2     H13073   2.357   4.244  15.020 -1.9738 -2.5481  1.6495
  888MPD2    H113074   2.507   4.501  15.324  0.0416 -1.0245  1.3217
  888MPD2    H213075   2.441   4.087  15.405  1.6180  0.2322 -0.1525
  888MPD2    H313076   2.494   4.319  15.480  2.9974  0.8974 -1.3324
  888MPD2     N13077   2.430   4.497  15.063 -0.3310  0.4325 -0.6666
  888MPD2    H513078   2.448   4.591  15.095 -3.3816  0.2181  1.6222
  888MPD2    N113079   2.343   4.028  15.165  0.0894  0.1651  0.0284
  888MPD2    H713080   2.309   4.013  15.070  0.7667  0.8689 -0.3199
  889MPD2     C13081   2.391   3.032  13.841  0.3053 -0.2944 -0.6582
  889MPD2    C113082   2.377   3.082  13.712 -0.3835 -0.3823 -0.4906
  889MPD2    C213083   2.331   3.209  13.697 -0.6502  0.0507 -0.1085
  889MPD2    C313084   2.343   3.301  13.794 -0.0118  0.1270  0.1955
  889MPD2    C413085   2.398   3.260  13.916 -0.3889 -0.4687  0.0403
  889MPD2    C513086   2.417   3.124  13.936  0.1392 -0.3079  0.3549
  889MPD2     H13087   2.292   3.243  13.602 -0.6650  0.4846  0.0542
  889MPD2    H113088   2.413   3.321  14.003 -1.3181 -0.2276  0.0388
  889MPD2    H213089   2.434   2.938  13.874  1.0327 -0.2165 -1.3780
  889MPD2    H313090   2.456   3.085  14.029 -0.9274 -1.5234  0.2909
  889MPD2     N13091   2.286   3.436  13.778  0.4872  0.2643  0.2636
  889MPD2    H513092   2.272   3.471  13.684 -1.1398 -0.1471  0.3592
  889MPD2    N113093   2.351   2.998  13.603  0.1728  0.2801  0.1540
  889MPD2    H713094   2.317   3.047  13.521 -1.9319  0.5890  1.2196
  890MPD2     C13095   0.917   0.876  14.498 -0.4823  0.4722  1.0439
  890MPD2    C113096   1.056   0.904  14.501  0.0792  0.0020 -0.4777
  890MPD2    C213097   1.146   0.812  14.544 -0.0684 -0.3429  0.3213
  890MPD2    C313098   1.097   0.699  14.602 -0.3750 -0.5942  0.2330
  890MPD2    C413099   0.958   0.672  14.605  0.3607  0.0824 -0.0770
  890MPD2    C513100   0.876   0.757  14.540  0.1394  0.6034 -0.2491
  890MPD2     H13101   1.253   0.824  14.543 -0.1076 -0.1814 -1.6282
  890MPD2    H113102   0.928   0.573  14.636  0.0501 -0.3759 -1.8422
  890MPD2    H213103   0.845   0.943  14.453  0.9504  1.5893  0.4102
  890MPD2    H313104   0.774   0.725  14.525  0.2319 -0.2889  0.9608
  890MPD2     N13105   1.194   0.604  14.652  0.1926 -0.4013  0.0544
  890MPD2    H513106   1.293   0.625  14.641  0.1906 -0.6631 -0.4934
  890MPD2    N113107   1.087   1.031  14.445  0.0432  0.3054 -0.6003
  890MPD2    H713108   1.007   1.090  14.425 -1.6549 -1.4615  0.9457
  891MPD2     C13109   3.963   3.831  16.481 -0.1555  0.0142 -0.3763
  891MPD2    C113110   3.921   3.890  16.599 -0.0695  0.0161 -1.1722
  891MPD2    C213111   3.975   3.859  16.720  1.0114 -0.0618  0.5590
  891MPD2    C313112   4.074   3.760  16.730 -0.7493 -1.0134 -0.2869
  891MPD2    C413113   4.109   3.698  16.616 -0.2665 -0.7101 -0.0628
  891MPD2    C513114   4.060   3.732  16.488 -0.1506 -0.0687  0.4954
  891MPD2     H13115   3.946   3.913  16.810  0.8327 -0.8475  0.9689
  891MPD2    H113116   4.176   3.612  16.616 -0.5935 -0.9557 -1.4289
  891MPD2    H213117   3.899   3.843  16.394  0.9490 -1.1102 -1.3342
  891MPD2    H313118   4.099   3.689  16.396  0.8587  0.5621  0.6324
  891MPD2     N13119   4.119   3.724  16.862  0.1436  0.0817 -0.2103
  891MPD2    H513120   4.080   3.786  16.932  0.2331  0.8506 -0.8462
  891MPD2    N113121   3.828   3.991  16.576 -0.1735  0.0235  0.5207
  891MPD2    H713122   3.787   4.008  16.485 -0.0599  0.3168  0.5242
  892MPD2     C13123   0.449   4.677  15.203  0.0529  0.2081  0.0426
  892MPD2    C113124   0.388   4.683  15.083 -0.8798 -0.6071 -0.3046
  892MPD2    C213125   0.415   4.583  14.993  0.4358 -0.0022 -0.0753
  892MPD2    C313126   0.493   4.475  15.027  0.6026  0.1098 -0.3008
  892MPD2    C413127   0.557   4.480  15.144  0.0664 -0.1022  0.1935
  892MPD2    C513128   0.545   4.585  15.229 -0.0606 -0.2872 -0.0125
  892MPD2     H13129   0.355   4.583  14.903 -1.2268  1.3274  1.0404
  892MPD2    H113130   0.615   4.395  15.177  1.9777  0.7210 -1.0669
  892MPD2    H213131   0.425   0.011  15.276 -0.7672 -0.9021  0.9271
  892MPD2    H313132   0.594   4.582  15.326 -1.9004  0.9775  0.9614
  892MPD2     N13133   0.513   4.364  14.940  0.0804  0.0362 -0.0528
  892MPD2    H513134   0.577   4.291  14.971 -1.9137 -1.8323 -0.3512
  892MPD2    N113135   0.286   0.037  15.062 -0.0579  0.3805  0.5408
  892MPD2    H713136   0.258   0.089  15.144  1.5034  1.5862  0.3079
  893MPD2     C13137   1.699   3.812   0.922  0.2435 -0.1102  0.6563
  893MPD2    C113138   1.756   3.821   1.044 -0.4573  0.0640  0.2715
  893MPD2    C213139   1.705   3.907   1.142 -0.8892  0.2284 -0.5234
  893MPD2    C313140   1.591   3.972   1.118 -0.3249  0.3790 -0.0240
  893MPD2    C413141   1.532   3.955   0.993 -0.1871  0.5603  0.1896
  893MPD2    C513142   1.592   3.888   0.894  0.1881 -1.0802 -0.8566
  893MPD2     H13143   1.761   3.927   1.233  0.3240 -1.4771 -0.8911
  893MPD2    H113144   1.440   4.008   0.970 -0.6299  0.2549  1.2398
  893MPD2    H213145   1.737   3.738   0.851  2.2662  0.7804  0.7950
  893MPD2    H313146   1.554   3.882   0.792  0.8767  1.0808 -1.2266
  893MPD2     N13147   1.518   4.042   1.214 -0.4758 -0.0871 -0.0433
  893MPD2    H513148   1.431   4.080   1.180 -0.1149  1.2243  0.5091
  893MPD2    N113149   1.866   3.738   1.073  0.0509 -0.2558 -0.5034
  893MPD2    H713150   1.904   3.696   0.989  2.0671 -0.0041  0.2595
  894MPD2     C13151   0.113   1.078   0.748  0.0396  0.4890  0.7317
  894MPD2    C113152   0.082   1.103   0.877  0.3988  0.0356 -0.1281
  894MPD2    C213153   0.094   1.240   0.917 -0.0270 -0.0692 -0.0064
  894MPD2    C313154   0.153   1.343   0.838 -0.3561  0.7098  0.2490
  894MPD2    C413155   0.193   1.311   0.703  0.6289 -0.4386  0.1466
  894MPD2    C513156   0.171   1.178   0.668 -0.0189 -0.6287 -0.2543
  894MPD2     H13157   0.048   1.261   1.012 -1.5790 -0.5126 -0.6607
  894MPD2    H113158   0.233   1.381   0.630 -3.0034  0.5445 -0.9537
  894MPD2    H213159   0.085   0.985   0.700  0.2521  0.2110  1.1402
  894MPD2    H313160   0.196   1.138   0.571  0.9843 -1.0693  0.1838
  894MPD2     N13161   0.161   1.473   0.894  0.4088  0.8353 -0.6193
  894MPD2    H513162   0.136   1.481   0.992  0.5746 -2.2133 -0.3130
  894MPD2    N113163   0.016   1.017   0.961 -0.0765 -0.3565 -0.1551
  894MPD2    H713164   4.737   1.064   1.048  0.8045 -2.8754  1.4305
  895MPD2     C13165   4.080   4.291  13.640  0.3611  0.2204 -0.2116
  895MPD2    C113166   4.025   4.210  13.547 -0.2779  0.5589  0.1014
  895MPD2    C213167   4.104   4.133  13.471 -0.4306  0.5979  0.5012
  895MPD2    C313168   4.243   4.142  13.474  0.9941  0.4281  0.0749
  895MPD2    C413169   4.301   4.223  13.571 -0.6336 -0.0729  0.1020
  895MPD2    C513170   4.216   4.291  13.658 -0.2743 -0.2592  0.2809
  895MPD2     H13171   4.055   4.074  13.396  0.3233  1.0566 -0.3520
  895MPD2    H113172   4.407   4.232  13.593 -0.6877  1.8937 -0.4658
  895MPD2    H213173   4.020   4.338  13.717 -1.1870 -2.4509  0.2005
  895MPD2    H313174   4.255   4.339  13.747  0.0079 -1.3867  0.7672
  895MPD2     N13175   4.309   4.064  13.377 -0.3847  0.0559  0.4268
  895MPD2    H513176   4.248   4.021  13.309  0.5711 -1.1371  0.3230
  895MPD2    N113177   3.889   4.199  13.527 -0.1425 -0.1092  0.8604
  895MPD2    H713178   3.854   4.139  13.453 -0.0717  0.3246  0.4813
  896MPD2     C13179   2.003   1.757   1.534 -0.1707  0.5363 -0.2206
  896MPD2    C113180   1.901   1.720   1.438 -0.5462  0.0882 -0.2174
  896MPD2    C213181   1.770   1.725   1.476  0.1167  0.2176 -0.3289
  896MPD2    C313182   1.734   1.755   1.604 -0.6349 -0.2525  0.0112
  896MPD2    C413183   1.836   1.797   1.693  0.0675  0.4195 -0.0818
  896MPD2    C513184   1.966   1.802   1.657 -0.2162  0.3713 -0.1376
  896MPD2     H13185   1.700   1.716   1.394 -0.6679 -1.3763  0.5192
  896MPD2    H113186   1.812   1.851   1.785 -2.7507  0.1251 -0.6500
  896MPD2    H213187   2.109   1.747   1.516 -0.2195 -2.2360  0.9559
  896MPD2    H313188   2.047   1.826   1.725 -0.6929  0.7240  0.3079
  896MPD2     N13189   1.596   1.744   1.636 -0.3913  0.2923 -0.2097
  896MPD2    H513190   1.532   1.734   1.558 -0.6591  0.5547 -0.0267
  896MPD2    N113191   1.941   1.670   1.307  0.1883  0.2890 -0.1626
  896MPD2    H713192   2.040   1.663   1.287  0.2466  0.1062  0.1858
  897MPD2     C13193   3.628   3.485  10.532  0.6477 -0.7633  0.2296
  897MPD2    C113194   3.518   3.447  10.459 -0.1516  0.2257 -0.7294
  897MPD2    C213195   3.433   3.349  10.493  0.3618 -0.3283 -0.0535
  897MPD2    C313196   3.471   3.267  10.599  0.0156  0.5874 -1.2436
  897MPD2    C413197   3.585   3.301  10.676 -0.0438  0.2241  0.0815
  897MPD2    C513198   3.665   3.410  10.644  0.0168  0.4479 -0.2455
  897MPD2     H13199   3.356   3.323  10.421  0.6707  1.0968 -0.9012
  897MPD2    H113200   3.613   3.230  10.753  1.7353 -0.8533 -1.5501
  897MPD2    H213201   3.689   3.569  10.505 -0.1081 -0.3755 -0.2846
  897MPD2    H313202   3.753   3.431  10.704  0.0647 -0.5551  0.0268
  897MPD2     N13203   3.390   3.158  10.631  0.3187  0.3847 -0.5401
  897MPD2    H513204   3.326   3.127  10.558 -0.8390 -1.3811  1.2203
  897MPD2    N113205   3.483   3.536  10.354 -0.6544 -0.6540  0.2697
  897MPD2    H713206   3.539   3.620  10.342 -1.7883 -0.0461 -0.8153
  898MPD2     C13207   0.272   0.149  17.180  0.4947  0.3373 -0.5192
  898MPD2    C113208   0.243   0.111  17.307 -0.1292 -0.7940 -0.4007
  898MPD2    C213209   0.194   0.200  17.393 -0.6617 -0.3900  0.0728
  898MPD2    C313210   0.173   0.328  17.360  0.9249 -0.6115  0.0479
  898MPD2    C413211   0.203   0.369  17.232 -0.8321 -0.2005  0.1211
  898MPD2    C513212   0.264   0.281  17.142  0.3719 -0.2387  0.6693
  898MPD2     H13213   0.173   0.165  17.493 -0.9837 -1.3611 -0.3300
  898MPD2    H113214   0.196   0.471  17.197 -0.5800  0.4746  2.0948
  898MPD2    H213215   0.303   0.074  17.108  2.4690  2.6188 -2.0498
  898MPD2    H313216   0.303   0.321  17.049  2.7659  1.4555  2.4112
  898MPD2     N13217   0.108   0.413  17.458 -0.4155 -0.0808 -0.0942
  898MPD2    H513218   0.081   0.371  17.546  3.0631  0.6041  1.3118
  898MPD2    N113219   0.247   4.713  17.350 -0.2596  0.1054 -0.4767
  898MPD2    H713220   0.215   4.694  17.445  1.1159 -4.1010 -0.8614
  899MPD2     C13221   0.650   0.259  17.262 -0.5658  0.0650 -0.6770
  899MPD2    C113222   0.697   0.388  17.288  0.4048 -0.0762  0.7521
  899MPD2    C213223   0.659   0.448  17.403  0.2167  0.2204 -0.7662
  899MPD2    C313224   0.583   0.385  17.497  0.1747  0.2155 -0.5993
  899MPD2    C413225   0.544   0.259  17.480  0.1734  0.0990  0.2816
  899MPD2    C513226   0.571   0.203  17.360  0.7876 -0.5615 -0.2483
  899MPD2     H13227   0.690   0.552  17.406  1.4068 -0.1546 -0.2197
  899MPD2    H113228   0.477   0.209  17.550 -1.3968  0.1795 -1.1694
  899MPD2    H213229   0.667   0.201  17.172 -1.8854 -0.9159 -0.2886
  899MPD2    H313230   0.533   0.104  17.336  1.0051 -0.9029  0.8249
  899MPD2     N13231   0.528   0.456  17.604  0.8293 -0.0100  0.3724
  899MPD2    H513232   0.466   0.403  17.664  0.6959 -1.5326 -1.0922
  899MPD2    N113233   0.771   0.453  17.184  0.3929 -0.4565  0.0008
  899MPD2    H713234   0.795   0.397  17.103 -1.1675 -2.3804  0.8656
  900MPD2     C13235   1.100   1.594  12.426  0.1263 -0.0762 -0.2392
  900MPD2    C113236   0.986   1.556  12.489 -0.0498  0.6607  0.4991
  900MPD2    C213237   0.876   1.640  12.485 -0.2550  0.2263  0.2114
  900MPD2    C313238   0.875   1.760  12.411 -0.0921 -0.6613  0.3279
  900MPD2    C413239   0.992   1.788  12.349  0.1121  0.1179 -0.0951
  900MPD2    C513240   1.105   1.714  12.354 -0.4027 -0.1765 -0.9561
  900MPD2     H13241   0.793   1.624  12.553  0.0558 -1.3424  0.2263
  900MPD2    H113242   0.999   1.882  12.296 -2.1476 -0.9602 -2.2620
  900MPD2    H213243   1.193   1.538  12.425 -0.2069 -0.6492  1.4421
  900MPD2    H313244   1.197   1.721  12.297 -0.5150  0.3383 -1.0712
  900MPD2     N13245   0.759   1.840  12.415 -0.3991  0.7030  0.2176
  900MPD2    H513246   0.686   1.814  12.482 -0.7565  0.1797 -0.3772
  900MPD2    N113247   0.990   1.429  12.544  0.1468  0.1304  0.3444
  900MPD2    H713248   1.073   1.373  12.526  0.7447  2.0964 -3.0309
  901MPD2     C13249   0.402   0.548  12.666  0.2879 -0.0094 -0.1284
  901MPD2    C113250   0.528   0.512  12.662  0.4555  0.7330  0.0632
  901MPD2    C213251   0.622   0.608  12.675 -0.2017 -0.3427 -0.0429
  901MPD2    C313252   0.588   0.738  12.696 -0.9488  0.2917  0.5109
  901MPD2    C413253   0.456   0.774  12.708  0.5115 -0.1302  1.0831
  901MPD2    C513254   0.363   0.678  12.691 -0.1162 -0.1100 -0.5943
  901MPD2     H13255   0.725   0.582  12.656 -0.6392 -1.2051 -1.2732
  901MPD2    H113256   0.427   0.876  12.730 -0.6239 -0.6528  2.0055
  901MPD2    H213257   0.322   0.475  12.654  0.5415 -0.2498 -0.3823
  901MPD2    H313258   0.261   0.708  12.710 -0.0672 -1.2149  1.3858
  901MPD2     N13259   0.695   0.830  12.714 -0.4393 -0.4122 -0.0012
  901MPD2    H513260   0.785   0.785  12.720 -0.9740 -1.4702  0.0388
  901MPD2    N113261   0.563   0.381  12.628 -0.1385  0.2798 -0.2626
  901MPD2    H713262   0.486   0.323  12.596 -0.3997 -0.0498  0.9315
  902MPD2     C13263   4.588   4.728  13.125 -0.2891 -0.2774  0.0146
  902MPD2    C113264   4.526   4.706  13.002 -1.2475  0.0330  0.2456
  902MPD2    C213265   4.578   4.619  12.912 -0.2096 -0.0362 -0.0747
  902MPD2    C313266   4.701   4.559  12.944 -1.1148 -0.8501 -0.5380
  902MPD2    C413267   0.009   4.575  13.072 -0.4740 -0.3846  0.1419
  902MPD2    C513268   4.697   4.665  13.162  0.2689 -0.3223 -0.2145
  902MPD2     H13269   4.521   4.598  12.822 -0.8238  2.1427 -0.1774
  902MPD2    H113270   0.099   4.520  13.095 -0.7058 -0.3468  1.1331
  902MPD2    H213271   4.539   0.048  13.198  0.7056  0.6618 -0.1245
  902MPD2    H313272   4.728   4.679  13.265  0.6199  0.5105 -0.4419
  902MPD2     N13273   0.019   4.469  12.856 -0.2050  0.4145  0.1627
  902MPD2    H513274   0.104   4.418  12.881  0.0132  0.1409 -1.1233
  902MPD2    N113275   4.415   0.050  12.978 -0.1766  0.2701 -0.7135
  902MPD2    H713276   4.411   0.137  13.031  1.6848  0.3195 -0.6508
  903MPD2     C13277   0.137   4.006  12.043 -0.0292 -0.0724  0.3985
  903MPD2    C113278   0.058   4.076  12.129 -0.2871 -0.0861 -0.2592
  903MPD2    C213279   4.664   4.083  12.088 -0.7664 -0.2640 -0.0681
  903MPD2    C313280   4.613   4.041  11.967  0.1645 -0.0375  0.1404
  903MPD2    C413281   4.702   3.983  11.877  0.6915 -0.2574 -0.8604
  903MPD2    C513282   0.089   3.963  11.920 -0.9116  0.1571 -0.2600
  903MPD2     H13283   4.591   4.126  12.157  0.1374  0.3404  0.5065
  903MPD2    H113284   4.673   3.954  11.777  1.2525  0.5856 -1.2679
  903MPD2    H213285   0.241   3.986  12.063 -0.6628 -0.5238  3.2098
  903MPD2    H313286   0.156   3.912  11.852 -1.4061  0.2721 -0.8331
  903MPD2     N13287   4.476   4.073  11.926 -0.0336  0.4213 -0.1292
  903MPD2    H513288   4.406   4.089  11.997  2.0034  0.1439  1.9322
  903MPD2    N113289   0.110   4.125  12.253 -0.5578 -0.9232 -0.1653
  903MPD2    H713290   0.204   4.099  12.280 -0.5143 -3.4285 -2.6563
  904MPD2     C13291   4.088   3.072  13.979  0.3842 -1.1897 -0.1949
  904MPD2    C113292   4.134   3.197  13.962  0.5658  0.4689 -0.6241
  904MPD2    C213293   4.268   3.224  13.972 -0.0500  0.0687 -0.3136
  904MPD2    C313294   4.368   3.124  14.002  0.5386  0.4554 -0.0902
  904MPD2    C413295   4.323   2.998  14.014 -0.5825  0.5861  0.1235
  904MPD2    C513296   4.184   2.980  14.005 -0.5812 -0.0148 -0.4634
  904MPD2     H13297   4.282   3.331  13.958  1.2722  0.1374  1.4396
  904MPD2    H113298   4.383   2.909  14.025  1.0230  1.6686  0.1371
  904MPD2    H213299   3.986   3.036  13.985  0.2634 -0.7565  0.2931
  904MPD2    H313300   4.150   2.877  14.012  0.7681 -0.4070  0.1450
  904MPD2     N13301   4.503   3.160  14.028  0.3785 -0.2492 -0.2223
  904MPD2    H513302   4.520   3.260  14.039 -0.1818 -0.1455 -0.2715
  904MPD2    N113303   4.049   3.309  13.941 -0.3336  0.1828  0.4364
  904MPD2    H713304   4.094   3.396  13.916  0.5561 -0.6852 -1.0037
  905MPD2     C13305   3.820   3.454  13.309 -0.1060  0.5515 -0.3794
  905MPD2    C113306   3.891   3.538  13.389  0.0040  0.3482  1.6177
  905MPD2    C213307   3.990   3.607  13.326  0.0538 -0.5031  0.8362
  905MPD2    C313308   4.025   3.588  13.189  0.2274 -0.1793  0.0768
  905MPD2    C413309   3.958   3.487  13.117 -0.2986 -0.2963  0.3673
  905MPD2    C513310   3.853   3.428  13.181  0.8259  0.6561  0.0162
  905MPD2     H13311   4.045   3.675  13.390 -0.0304 -0.3626  0.7593
  905MPD2    H113312   3.971   3.472  13.011  1.1793  0.5848  0.4214
  905MPD2    H213313   3.730   3.402  13.340  0.6650 -0.1494  0.6801
  905MPD2    H313314   3.803   3.353  13.121 -0.0633  1.5671 -0.3783
  905MPD2     N13315   4.130   3.658  13.124  0.4132 -0.0934  0.3462
  905MPD2    H513316   4.156   3.637  13.029 -1.2435 -1.4317  0.1986
  905MPD2    N113317   3.849   3.548  13.524  0.0576 -0.8683 -0.3393
  905MPD2    H713318   3.767   3.503  13.563  1.4689 -2.7464  0.4451
  906MPD2     C13319   2.290   3.067  11.453  0.9373 -0.6713  0.1900
  906MPD2    C113320   2.183   3.084  11.367  0.0150  0.3482  0.0501
  906MPD2    C213321   2.058   3.055  11.413 -0.6871 -0.4608  0.3527
  906MPD2    C313322   2.033   3.018  11.551 -0.2128 -1.3446 -0.4771
  906MPD2    C413323   2.136   3.017  11.638 -0.4091 -0.0072  0.1416
  906MPD2    C513324   2.261   3.031  11.587  0.0597  0.6741 -0.6350
  906MPD2     H13325   1.985   3.063  11.334  1.4231  1.6695 -1.3698
  906MPD2    H113326   2.135   2.989  11.743  1.3569 -1.3348 -0.1983
  906MPD2    H213327   2.392   3.082  11.421  0.6212 -1.5204 -1.1913
  906MPD2    H313328   2.343   3.009  11.654  0.2105  0.1608 -0.9855
  906MPD2     N13329   1.905   2.993  11.600  0.6265 -0.4827  0.1851
  906MPD2    H513330   1.893   2.975  11.699 -1.5465  0.2338  0.0576
  906MPD2    N113331   2.196   3.096  11.227  0.1683  0.0971  0.1541
  906MPD2    H713332   2.105   3.108  11.184 -1.1645 -0.6701  2.7829
  907MPD2     C13333   4.672   2.916  15.918  0.0725  0.1154 -0.8020
  907MPD2    C113334   0.035   2.823  15.905 -0.0502  0.4291 -0.2872
  907MPD2    C213335   0.104   2.780  16.013 -0.0342 -0.8018 -0.4615
  907MPD2    C313336   0.078   2.832  16.141  0.2284  0.4855  0.0257
  907MPD2    C413337   4.738   2.941  16.150  0.3903  0.7954 -0.2956
  907MPD2    C513338   4.659   2.977  16.041 -0.0335  0.4567 -0.4773
  907MPD2     H13339   0.182   2.705  16.001  0.2319 -0.7399  0.8729
  907MPD2    H113340   4.716   2.993  16.242  1.3387  1.9586 -0.7399
  907MPD2    H213341   4.620   2.954  15.831  0.6029  2.0120 -0.2809
  907MPD2    H313342   4.598   3.067  16.040  1.1174  1.2235 -3.6543
  907MPD2     N13343   0.151   2.778  16.244  0.5095 -0.7422 -0.1617
  907MPD2    H513344   0.192   2.687  16.225  0.8878 -1.0848  2.3579
  907MPD2    N113345   0.068   2.756  15.784 -0.6252 -0.2724 -0.1837
  907MPD2    H713346   0.140   2.686  15.788  2.5610  3.0053 -0.1090
  908MPD2     C13347   2.838   3.554   9.589 -0.7079 -0.2517  0.0320
  908MPD2    C113348   2.822   3.508   9.716  0.8240  1.5290 -0.5044
  908MPD2    C213349   2.930   3.534   9.795 -0.0435 -0.1665  0.2879
  908MPD2    C313350   3.030   3.619   9.765  0.2924 -0.3091  0.2363
  908MPD2    C413351   3.036   3.678   9.640  0.2830 -0.0722 -0.0779
  908MPD2    C513352   2.939   3.642   9.554  0.2669  0.3957 -0.3542
  908MPD2     H13353   2.934   3.505   9.900 -0.9496 -0.6499  0.1906
  908MPD2    H113354   3.098   3.762   9.611  1.3049  0.0093  2.2803
  908MPD2    H213355   2.769   3.548   9.505  1.4126 -2.2605 -1.5466
  908MPD2    H313356   2.936   3.706   9.467 -0.4995  2.8956  1.5373
  908MPD2     N13357   3.128   3.640   9.864 -0.3791  0.3729 -0.8736
  908MPD2    H513358   3.115   3.581   9.945 -0.9888  1.6785 -0.0072
  908MPD2    N113359   2.705   3.431   9.740 -0.9718  0.0705 -0.0349
  908MPD2    H713360   2.642   3.419   9.661  0.9296 -1.2905 -1.3528
  909MPD2     C13361   3.702   0.771  11.957 -0.0856 -0.1905 -0.2434
  909MPD2    C113362   3.684   0.896  11.905  0.2800  1.5439 -0.1719
  909MPD2    C213363   3.597   0.978  11.975 -0.2720 -0.0755  0.4297
  909MPD2    C313364   3.543   0.942  12.094  0.2309  0.1839  0.9417
  909MPD2    C413365   3.564   0.817  12.152  0.4295  0.3873 -1.1301
  909MPD2    C513366   3.650   0.732  12.077  0.4391  0.1414  0.4717
  909MPD2     H13367   3.590   1.077  11.930 -2.2080 -0.1829  0.4701
  909MPD2    H113368   3.534   0.794  12.254  1.9417  0.9013 -0.5527
  909MPD2    H213369   3.758   0.688  11.914 -2.6684 -0.5008 -3.0374
  909MPD2    H313370   3.687   0.638  12.117  1.7320 -0.1315 -1.3533
  909MPD2     N13371   3.488   1.047  12.170 -0.3701 -0.2005  0.1326
  909MPD2    H513372   3.471   1.133  12.118  1.5685 -0.1513 -0.4110
  909MPD2    N113373   3.754   0.947  11.794 -0.2583  0.2413  0.8184
  909MPD2    H713374   3.731   1.042  11.768  0.2170 -0.2203 -1.3611
  910MPD2     C13375   4.360   3.396  16.401 -0.0147  0.4756 -0.4112
  910MPD2    C113376   4.346   3.272  16.342  0.2521  0.2705  0.0197
  910MPD2    C213377   4.300   3.264  16.212  0.9012  0.4073  0.3915
  910MPD2    C313378   4.272   3.380  16.140 -0.7696 -0.5453  0.1080
  910MPD2    C413379   4.300   3.505  16.191 -0.0042  0.3548 -0.5180
  910MPD2    C513380   4.350   3.507  16.323 -0.6208 -0.5270  0.0229
  910MPD2     H13381   4.276   3.166  16.171 -0.5338  0.2249  1.6572
  910MPD2    H113382   4.276   3.598  16.140  1.0743  1.4383  0.9208
  910MPD2    H213383   4.388   3.406  16.505  3.3716  0.3472 -1.3007
  910MPD2    H313384   4.361   3.606  16.365  1.4318 -1.2624  1.2076
  910MPD2     N13385   4.220   3.381  16.012  0.1990 -0.0992  0.1836
  910MPD2    H513386   4.207   3.476  15.980  3.1221  0.6405  1.1591
  910MPD2    N113387   4.387   3.146  16.399 -0.1724 -0.1874 -0.8187
  910MPD2    H713388   4.358   3.063  16.348  0.7729 -0.6207 -0.6429
  911MPD2     C13389   2.168   3.884  16.431  0.4281 -0.1205  0.2823
  911MPD2    C113390   2.231   4.002  16.438 -0.2221  0.0152  0.3997
  911MPD2    C213391   2.166   4.108  16.373  0.5847 -0.6621 -0.3238
  911MPD2    C313392   2.048   4.096  16.316  0.1237  0.2130  0.0822
  911MPD2    C413393   1.995   3.976  16.314 -0.2474 -0.2882 -0.5575
  911MPD2    C513394   2.048   3.869  16.375  0.0858 -0.4826 -0.3925
  911MPD2     H13395   2.207   4.208  16.378  1.6436 -1.2002  1.8231
  911MPD2    H113396   1.904   3.949  16.261  0.9190 -1.1230 -2.1170
  911MPD2    H213397   2.223   3.796  16.465 -0.1339 -0.2663  0.8164
  911MPD2    H313398   1.997   3.775  16.359  1.1644 -1.5653  2.5076
  911MPD2     N13399   1.982   4.197  16.235 -0.1356  0.9602  0.6290
  911MPD2    H513400   1.901   4.162  16.184  1.1998 -0.7752 -0.3082
  911MPD2    N113401   2.357   4.016  16.497 -0.4546  0.1877  0.2666
  911MPD2    H713402   2.402   3.932  16.532  1.7491  2.2962  2.4471
  912MPD2     C13403   1.923   4.052  15.493  0.1313 -0.5766 -0.3998
  912MPD2    C113404   1.905   4.049  15.628 -0.5520  0.2027 -0.1820
  912MPD2    C213405   1.939   3.939  15.697 -0.3413 -0.4601  0.6156
  912MPD2    C313406   2.000   3.828  15.634 -0.2790  0.0118 -0.4867
  912MPD2    C413407   2.023   3.837  15.504 -0.5321  0.3528 -0.0498
  912MPD2    C513408   1.984   3.946  15.434  0.2342  0.2698  0.9260
  912MPD2     H13409   1.928   3.939  15.804  0.6874 -0.3034  0.7221
  912MPD2    H113410   2.077   3.759  15.450 -0.1464  0.0852  0.7216
  912MPD2    H213411   1.898   4.136  15.430 -1.4102  0.0195  0.9938
  912MPD2    H313412   2.008   3.938  15.328  1.8905 -0.8549  1.3757
  912MPD2     N13413   2.017   3.713  15.713  0.1854  0.3543 -0.0746
  912MPD2    H513414   1.984   3.720  15.808 -0.1214 -0.1413 -0.1473
  912MPD2    N113415   1.861   4.168  15.687  0.2479 -0.0689 -0.5522
  912MPD2    H713416   1.838   4.250  15.630 -1.0592 -1.8241 -2.5792
  913MPD2     C13417   3.662   0.026  10.549 -0.0486  0.0782 -0.1082
  913MPD2    C113418   3.745   0.135  10.553 -0.1920 -0.1776  0.7663
  913MPD2    C213419   3.785   0.206  10.438 -0.1840 -0.3897 -0.4734
  913MPD2    C313420   3.724   0.173  10.315 -0.3215 -0.0110 -0.4714
  913MPD2    C413421   3.647   0.056  10.304 -0.3752  0.1555 -0.0217
  913MPD2    C513422   3.612   4.733  10.419  0.0575  0.1474  0.5111
  913MPD2     H13423   3.848   0.294  10.438 -2.2109  1.0416  0.8132
  913MPD2    H113424   3.600   0.030  10.210 -0.6969  0.5628  0.0256
  913MPD2    H213425   3.619   4.717  10.635 -1.3228  2.0212  0.4250
  913MPD2    H313426   3.541   4.652  10.413  1.6824 -1.2979  0.7220
  913MPD2     N13427   3.736   0.253  10.196 -0.4982 -0.0471  0.3913
  913MPD2    H513428   3.677   0.230  10.117 -0.0074  1.7936 -0.5066
  913MPD2    N113429   3.812   0.162  10.677 -0.3044 -0.1684 -0.0131
  913MPD2    H713430   3.773   0.109  10.754 -2.2453  2.2612  0.6693
  914MPD2     C13431   0.520   0.408  11.792  0.6476 -0.3337 -0.7138
  914MPD2    C113432   0.559   0.490  11.894 -0.6917  0.6508 -0.9162
  914MPD2    C213433   0.617   0.438  12.011  0.5356  0.3416  0.3750
  914MPD2    C313434   0.614   0.301  12.033  0.6920  0.0685 -0.1961
  914MPD2    C413435   0.579   0.221  11.922  0.4259  0.2493 -0.1602
  914MPD2    C513436   0.528   0.271  11.809 -0.0311 -0.4788  0.5327
  914MPD2     H13437   0.663   0.512  12.075 -0.7697  0.8873  0.6874
  914MPD2    H113438   0.585   0.114  11.933  0.6315  0.3886  1.1080
  914MPD2    H213439   0.485   0.452  11.699 -0.2296 -1.0002 -0.6877
  914MPD2    H313440   0.493   0.211  11.725  2.6550 -1.6969  0.2731
  914MPD2     N13441   0.650   0.251  12.160  0.2217  0.1432  0.1180
  914MPD2    H513442   0.655   0.323  12.232 -1.3311  0.2005  0.1768
  914MPD2    N113443   0.551   0.624  11.864 -0.0114  0.2939  0.2512
  914MPD2    H713444   0.535   0.635  11.765 -1.4572 -0.1844  0.4395
  915MPD2     C13445   3.502   0.649  15.850 -0.0719  0.1697 -0.5062
  915MPD2    C113446   3.369   0.628  15.816  0.7289 -0.2577  0.1141
  915MPD2    C213447   3.272   0.688  15.897 -0.2727 -0.6155  0.4142
  915MPD2    C313448   3.309   0.766  16.004  0.2304  0.2090 -0.3769
  915MPD2    C413449   3.444   0.768  16.047  0.5442  0.3978 -0.3865
  915MPD2    C513450   3.538   0.720  15.966  0.4115 -0.4044 -0.3728
  915MPD2     H13451   3.170   0.682  15.862 -0.1635  0.9704 -0.1854
  915MPD2    H113452   3.475   0.818  16.138  0.4029  1.1301 -0.7414
  915MPD2    H213453   3.579   0.595  15.795 -0.6610 -1.3453  0.1833
  915MPD2    H313454   3.638   0.704  16.003 -0.0405  0.6804  1.2815
  915MPD2     N13455   3.210   0.836  16.070 -0.2572  0.3232 -0.6467
  915MPD2    H513456   3.113   0.828  16.040 -0.6404 -0.2793  0.7704
  915MPD2    N113457   3.344   0.548  15.704 -0.4623 -0.3842 -0.0207
  915MPD2    H713458   3.420   0.538  15.637 -0.6266 -3.6195  0.2722
  916MPD2     C13459   1.670   3.703  15.651 -0.6625  0.6219 -0.4423
  916MPD2    C113460   1.655   3.585  15.722  0.2110  0.1457 -0.9049
  916MPD2    C213461   1.695   3.462  15.668 -0.1759 -0.0327 -0.2045
  916MPD2    C313462   1.766   3.464  15.541  0.8367  0.2857 -0.4686
  916MPD2    C413463   1.785   3.589  15.480  0.0825 -0.3976  0.6637
  916MPD2    C513464   1.738   3.704  15.534  0.2287 -0.0237 -0.0521
  916MPD2     H13465   1.700   3.371  15.727 -2.0958  0.2457  0.3644
  916MPD2    H113466   1.836   3.600  15.386  1.8912  0.7639  1.7766
  916MPD2    H213467   1.628   3.796  15.687 -1.1545  0.7733 -1.4063
  916MPD2    H313468   1.742   3.802  15.489  0.4539 -1.0555 -2.2907
  916MPD2     N13469   1.827   3.343  15.505 -0.1984 -0.3858 -0.3690
  916MPD2    H513470   1.818   3.269  15.575 -0.5850  1.0476  1.1032
  916MPD2    N113471   1.579   3.595  15.846 -0.2333 -0.1969 -0.5538
  916MPD2    H713472   1.556   3.688  15.880 -1.6312 -0.5295 -0.6183
  917MPD2     C13473   2.398   0.515  11.008  0.4057  0.3933 -0.5902
  917MPD2    C113474   2.423   0.615  11.099  0.2634 -0.0832 -0.2618
  917MPD2    C213475   2.530   0.704  11.081 -0.0195  0.2910 -0.4481
  917MPD2    C313476   2.630   0.674  10.981  0.7619  0.8838  0.1643
  917MPD2    C413477   2.605   0.573  10.888 -0.0277 -0.1492 -0.2658
  917MPD2    C513478   2.485   0.501  10.900  0.3832  0.1405 -0.2045
  917MPD2     H13479   2.543   0.791  11.144 -3.2306  0.1105  0.4921
  917MPD2    H113480   2.680   0.536  10.819 -1.2113  0.1016 -1.6705
  917MPD2    H213481   2.313   0.448  11.019  1.6258 -0.4514  3.6746
  917MPD2    H313482   2.478   0.410  10.841 -1.4444  0.3979 -0.3836
  917MPD2     N13483   2.732   0.766  10.954  0.2454  0.6788 -0.0259
  917MPD2    H513484   2.751   0.844  11.016 -2.8235 -0.0428  1.8333
  917MPD2    N113485   2.342   0.608  11.216  0.2602  0.5257  0.2551
  917MPD2    H713486   2.272   0.535  11.219  2.2309 -1.3905 -0.9270
  918MPD2     C13487   2.267   1.342  11.807 -0.2147 -0.6971  0.8460
  918MPD2    C113488   2.362   1.247  11.813  0.4610 -0.2764 -0.0246
  918MPD2    C213489   2.339   1.116  11.781  1.4025 -0.2490  0.7494
  918MPD2    C313490   2.215   1.077  11.739  0.6147 -0.1023  0.0017
  918MPD2    C413491   2.112   1.170  11.731 -0.1241 -0.5209  0.1755
  918MPD2    C513492   2.138   1.301  11.764 -0.3087 -0.4072 -0.0349
  918MPD2     H13493   2.416   1.039  11.787  1.6106 -0.2593 -1.9865
  918MPD2    H113494   2.011   1.151  11.696  0.2644 -1.4776 -0.4290
  918MPD2    H213495   2.282   1.447  11.826 -0.2439 -0.5387 -0.0028
  918MPD2    H313496   2.053   1.368  11.761  0.1762  0.1719 -0.7221
  918MPD2     N13497   2.202   0.944  11.694  0.0709  0.4202  0.1758
  918MPD2    H513498   2.287   0.891  11.678 -2.0754 -2.7370 -0.7230
  918MPD2    N113499   2.499   1.270  11.847  0.2354  0.5404 -0.2655
  918MPD2    H713500   2.563   1.191  11.855 -0.3513  0.0051 -0.9217
  919MPD2     C13501   3.036   4.687  11.494 -0.2024  0.6224  0.8822
  919MPD2    C113502   3.115   4.577  11.510  0.1962  0.4676 -0.4353
  919MPD2    C213503   3.196   4.537  11.400  0.2635  0.1395  0.0892
  919MPD2    C313504   3.174   4.595  11.277 -0.7771  0.6508 -1.3647
  919MPD2    C413505   3.099   4.708  11.265  0.2026 -0.0279  0.6437
  919MPD2    C513506   3.041   0.016  11.380 -0.2787  0.3052 -0.1062
  919MPD2     H13507   3.269   4.458  11.413 -1.2905 -1.8476 -3.4009
  919MPD2    H113508   3.088   0.016  11.169 -0.2071 -1.5939 -0.1351
  919MPD2    H213509   2.971   4.719  11.574 -1.0335  0.0513  0.4438
  919MPD2    H313510   2.972   0.098  11.362 -0.0555  0.6181  0.4631
  919MPD2     N13511   3.233   4.548  11.152 -0.1547 -0.0822  0.3711
  919MPD2    H513512   3.216   4.604  11.069  0.3695  2.4352  1.9394
  919MPD2    N113513   3.113   4.496  11.619 -0.6400 -0.8929  0.0336
  919MPD2    H713514   3.167   4.409  11.614 -1.9328 -1.7093  0.2471
  920MPD2     C13515   3.138   0.073  10.274  0.4865 -0.4217  0.0239
  920MPD2    C113516   3.072   4.698  10.282 -0.3949 -0.2210 -0.5741
  920MPD2    C213517   3.113   4.600  10.377  0.7530 -0.3893  0.8808
  920MPD2    C313518   3.221   4.627  10.467  0.7123  0.6214  0.5358
  920MPD2    C413519   3.278   0.004  10.454  0.4414  0.8593  0.0257
  920MPD2    C513520   3.242   0.098  10.360  0.4148 -0.1484  0.1925
  920MPD2     H13521   3.049   4.513  10.377 -0.2657  0.3491  0.7750
  920MPD2    H113522   3.352   0.038  10.526  1.9653  0.1996 -1.2270
  920MPD2    H213523   3.109   0.142  10.195  1.1521 -1.3171 -1.0047
  920MPD2    H313524   3.294   0.192  10.349 -0.8890  0.7087  1.4135
  920MPD2     N13525   3.244   4.543  10.581  0.0839  0.2447  0.6606
  920MPD2    H513526   3.183   4.462  10.585  1.4478 -0.7402  1.2714
  920MPD2    N113527   2.969   4.656  10.198  0.3042  0.5165  0.4298
  920MPD2    H713528   2.926   4.568  10.221  0.0311  1.1796  2.4664
  921MPD2     C13529   3.186   4.660  16.722  0.6230  0.4018 -0.3489
  921MPD2    C113530   3.232   4.530  16.720  0.1301 -0.0374  0.9188
  921MPD2    C213531   3.147   4.428  16.736  0.4614  0.1991 -0.3011
  921MPD2    C313532   3.010   4.453  16.741 -0.0276  0.3705  0.3035
  921MPD2    C413533   2.960   4.587  16.745 -0.2297 -0.4984 -0.3957
  921MPD2    C513534   3.051   4.690  16.744  0.3638 -0.7825  0.0231
  921MPD2     H13535   3.188   4.328  16.734 -0.7736 -0.3942  4.1529
  921MPD2    H113536   2.857   4.615  16.759 -0.3738  0.2365 -2.9492
  921MPD2    H213537   3.263   4.735  16.737 -0.7784  1.8723 -0.4965
  921MPD2    H313538   3.018   0.051  16.755  1.2740 -0.3870 -0.9765
  921MPD2     N13539   2.921   4.345  16.730 -0.1766 -0.8375 -0.0585
  921MPD2    H513540   2.964   4.258  16.701  0.0088 -1.2512  1.4748
  921MPD2    N113541   3.368   4.503  16.701 -0.4417 -0.4476  0.6979
  921MPD2    H713542   3.422   4.582  16.667  1.4077 -1.0829  2.1434
  922MPD2     C13543   3.475   1.882  17.224 -0.3148 -0.0178 -0.3537
  922MPD2    C113544   3.361   1.915  17.291 -0.3119  0.2581  0.1126
  922MPD2    C213545   3.256   1.826  17.293  0.4168  0.0037 -0.1022
  922MPD2    C313546   3.267   1.705  17.230 -0.1665 -0.6386  0.7211
  922MPD2    C413547   3.378   1.674  17.154 -0.0007 -0.0761  0.2495
  922MPD2    C513548   3.481   1.764  17.153  0.0921 -0.4916 -0.4393
  922MPD2     H13549   3.165   1.845  17.349 -0.1662 -1.2564 -0.6342
  922MPD2    H113550   3.386   1.585  17.092  2.3676  0.2486  0.0670
  922MPD2    H213551   3.562   1.947  17.223 -0.1908 -0.0908  3.9283
  922MPD2    H313552   3.566   1.730  17.096 -0.7042  0.0607 -1.9442
  922MPD2     N13553   3.163   1.620  17.252  0.5608 -0.8263  0.4893
  922MPD2    H513554   3.087   1.647  17.313 -1.7208  0.2617 -2.8131
  922MPD2    N113555   3.344   2.037  17.365 -0.7429 -0.2768 -0.4077
  922MPD2    H713556   3.260   2.034  17.422  0.2893  0.3863  1.1447
  923MPD2     C13557   1.281   3.411   9.321 -0.1754 -0.1611  0.3080
  923MPD2    C113558   1.261   3.512   9.414  0.5197 -0.0803 -0.3679
  923MPD2    C213559   1.248   3.481   9.554 -0.8779  0.1606 -0.0250
  923MPD2    C313560   1.261   3.348   9.589 -0.2832  0.4376  1.0058
  923MPD2    C413561   1.299   3.254   9.491 -0.2082 -0.2843 -0.0061
  923MPD2    C513562   1.315   3.285   9.361  0.1512  0.1010  0.4465
  923MPD2     H13563   1.227   3.557   9.628  2.3125  0.6156  0.4039
  923MPD2    H113564   1.300   3.149   9.521 -0.6384 -0.5805 -1.0481
  923MPD2    H213565   1.275   3.430   9.214  1.6026 -1.7581 -0.0708
  923MPD2    H313566   1.339   3.199   9.299  2.7136  1.4841 -0.4709
  923MPD2     N13567   1.230   3.295   9.714  0.3756  0.5816 -0.1106
  923MPD2    H513568   1.206   3.198   9.726  0.8059  0.5373  0.4028
  923MPD2    N113569   1.238   3.640   9.355  0.4067 -0.1148  0.1886
  923MPD2    H713570   1.232   3.643   9.253  0.7494 -0.0376  0.1708
  924MPD2     C13571   0.374   2.082  16.154 -0.0379  0.5364 -0.2347
  924MPD2    C113572   0.393   2.089  16.291 -0.5346  0.2866  0.3222
  924MPD2    C213573   0.416   2.209  16.353  0.2860 -0.5958  0.0863
  924MPD2    C313574   0.433   2.322  16.277 -0.0842  0.3691  0.2450
  924MPD2    C413575   0.418   2.309  16.137 -0.2438  0.0574  0.9528
  924MPD2    C513576   0.373   2.192  16.074  1.2826 -0.0306 -0.0317
  924MPD2     H13577   0.413   2.217  16.461 -0.2244 -0.5541  0.0680
  924MPD2    H113578   0.421   2.394  16.069 -1.3322  1.2548  2.4077
  924MPD2    H213579   0.341   1.987  16.113  0.4402  0.1965  0.1601
  924MPD2    H313580   0.339   2.192  15.972  1.1521  0.9726  0.0154
  924MPD2     N13581   0.455   2.454  16.333 -0.3513 -0.2399  0.1035
  924MPD2    H513582   0.455   2.533  16.269 -0.5570  1.1578  1.8369
  924MPD2    N113583   0.377   1.966  16.358  0.1252  0.1390  0.2156
  924MPD2    H713584   0.316   1.900  16.311 -2.2875  1.6420  1.2185
  925MPD2     C13585   4.279   4.468  15.036 -0.3642  0.1283  0.2620
  925MPD2    C113586   4.180   4.433  14.947 -0.7985 -0.5449  0.3015
  925MPD2    C213587   4.042   4.441  14.977 -0.4254 -0.1373 -0.5789
  925MPD2    C313588   4.007   4.455  15.108  0.4064  0.2906  0.4766
  925MPD2    C413589   4.106   4.482  15.200 -0.0429 -0.2695  0.6261
  925MPD2    C513590   4.240   4.498  15.161  0.1104 -1.1974  0.4247
  925MPD2     H13591   3.974   4.435  14.893 -3.3218  1.0140  1.7090
  925MPD2    H113592   4.099   4.488  15.308  0.9219  1.8368  0.5731
  925MPD2    H213593   4.383   4.477  15.009 -0.0276  1.7562  2.1128
  925MPD2    H313594   4.318   4.520  15.233 -0.2690 -0.7220  0.6842
  925MPD2     N13595   3.875   4.436  15.151 -0.2721 -0.2240 -0.5709
  925MPD2    H513596   3.865   4.452  15.251  1.3585  1.4570 -0.6687
  925MPD2    N113597   4.208   4.397  14.811 -0.2771  0.3374 -0.9280
  925MPD2    H713598   4.130   4.371  14.752  1.5825 -2.9164 -1.9860
  926MPD2     C13599   3.248   3.082  13.246  0.3182  0.8265 -0.9219
  926MPD2    C113600   3.127   3.083  13.181  0.1613  0.0354 -0.1642
  926MPD2    C213601   3.115   3.123  13.051 -0.7641  0.4879  0.1388
  926MPD2    C313602   3.231   3.170  12.984 -0.1118  0.8239  0.1885
  926MPD2    C413603   3.351   3.166  13.055 -0.5077 -0.3604  0.4635
  926MPD2    C513604   3.364   3.112  13.180 -0.6085  0.2965 -0.1064
  926MPD2     H13605   3.022   3.123  12.996  0.0629  0.4126 -1.2665
  926MPD2    H113606   3.444   3.187  13.004 -0.9042  0.3203  0.0246
  926MPD2    H213607   3.251   3.059  13.352 -0.6553  0.4509 -0.9760
  926MPD2    H313608   3.462   3.100  13.225 -0.4655  1.7792 -0.0382
  926MPD2     N13609   3.239   3.206  12.848  0.2833  0.0477  0.3789
  926MPD2    H513610   3.326   3.249  12.816  0.0690 -0.1733 -0.4979
  926MPD2    N113611   3.008   3.065  13.255 -0.1045  0.2739 -0.1983
  926MPD2    H713612   2.923   3.105  13.216  0.1617  0.7957 -0.2475
  927MPD2     C13613   2.075   0.200  17.712 -0.3792 -0.8219 -0.0611
  927MPD2    C113614   2.107   0.328  17.689 -0.2497 -0.4602 -0.0762
  927MPD2    C213615   2.206   0.358  17.590 -0.5290  0.3942  0.5824
  927MPD2    C313616   2.277   0.254  17.534  0.6026 -0.3381 -0.4270
  927MPD2    C413617   2.241   0.119  17.556 -0.2253  0.1130 -0.3213
  927MPD2    C513618   2.137   0.098  17.640  0.7847  0.0322  0.0362
  927MPD2     H13619   2.232   0.461  17.569  1.2087  0.2840  2.2075
  927MPD2    H113620   2.296   0.036  17.514  2.6604  1.8545 -0.0304
  927MPD2    H213621   2.014   0.170   0.030 -0.0732  1.1433  0.8676
  927MPD2    H313622   2.112   4.736  17.653  0.7917 -0.2086 -1.8488
  927MPD2     N13623   2.388   0.289  17.453 -0.7907 -0.0348  0.8641
  927MPD2    H513624   2.393   0.389  17.438  1.4610 -0.4456 -1.1218
  927MPD2    N113625   2.031   0.432  17.766  0.0356 -0.0357  0.2846
  927MPD2    H713626   1.974   0.400   0.077  0.4409  2.8686  1.7921
  928MPD2     C13627   0.484   3.438   0.921 -0.1929  0.2052  0.1898
  928MPD2    C113628   0.494   3.570   0.904  0.0051 -0.4161  0.1171
  928MPD2    C213629   0.531   3.616   0.780 -0.1105 -0.5202  0.2638
  928MPD2    C313630   0.543   3.542   0.670 -0.7222 -0.7654 -0.3798
  928MPD2    C413631   0.522   3.408   0.686  0.0003  0.4930  0.8671
  928MPD2    C513632   0.492   3.354   0.814 -0.0763  0.7364  0.2246
  928MPD2     H13633   0.559   3.721   0.776  0.0288 -0.5632  0.0979
  928MPD2    H113634   0.530   3.343   0.599  0.3170  2.1754 -0.3636
  928MPD2    H213635   0.451   3.393   1.014 -0.5511 -0.7969 -0.4266
  928MPD2    H313636   0.467   3.250   0.826 -1.0388  1.1610  1.8769
  928MPD2     N13637   0.605   3.583   0.548  0.3974  0.7714  0.2020
  928MPD2    H513638   0.645   3.516   0.483 -0.1957  1.0275 -0.4370
  928MPD2    N113639   0.490   3.648   1.024 -0.7653  0.2841 -0.3682
  928MPD2    H713640   0.477   3.601   1.112  3.0910 -0.9932 -0.5250
  929MPD2     C13641   0.873   3.556  10.351 -0.2079  0.1881 -0.4906
  929MPD2    C113642   0.852   3.451  10.261 -0.2289 -0.0783 -0.6110
  929MPD2    C213643   0.851   3.476  10.124  0.0723 -0.2279  0.9174
  929MPD2    C313644   0.865   3.607  10.071  0.2165 -0.1073  0.7743
  929MPD2    C413645   0.890   3.707  10.161  0.2099  0.4649  0.5341
  929MPD2    C513646   0.888   3.681  10.300 -0.4514  0.6571  0.1425
  929MPD2     H13647   0.805   3.400  10.062  1.2837  1.0624 -1.5625
  929MPD2    H113648   0.896   3.808  10.122 -0.3733  0.3024  0.0279
  929MPD2    H213649   0.885   3.536  10.457 -2.8720 -2.3282 -0.6571
  929MPD2    H313650   0.920   3.757  10.370  0.3005 -1.1902  1.8082
  929MPD2     N13651   0.878   3.639   9.935 -0.1026  0.7557  0.2227
  929MPD2    H513652   0.895   3.738   9.922  0.0316  0.6742 -0.2056
  929MPD2    N113653   0.828   3.316  10.311  0.0594 -0.4199 -0.0995
  929MPD2    H713654   0.810   3.313  10.411  1.0876 -0.6544  0.0803
  930MPD2     C13655   2.386   1.101  13.865  0.3019 -0.0203 -0.1631
  930MPD2    C113656   2.503   1.104  13.794  0.0195  0.6520 -0.0493
  930MPD2    C213657   2.511   1.045  13.673  0.1036  0.3358  0.7429
  930MPD2    C313658   2.397   0.984  13.615  1.1904 -0.5885  0.7047
  930MPD2    C413659   2.284   0.974  13.690 -0.5907 -0.0954  0.9034
  930MPD2    C513660   2.270   1.036  13.813  0.6543  0.3373  0.5309
  930MPD2     H13661   2.597   1.050  13.607 -0.2368  0.7026  0.3342
  930MPD2    H113662   2.201   0.926  13.638  2.9450 -1.7223 -3.1924
  930MPD2    H213663   2.372   1.157  13.956 -2.2727  1.6003 -1.5438
  930MPD2    H313664   2.172   1.026  13.858  0.1776  2.0906 -0.1205
  930MPD2     N13665   2.402   0.927  13.486  0.3187  0.2909 -0.0721
  930MPD2    H513666   2.312   0.912  13.441  1.5082 -1.2121 -1.9582
  930MPD2    N113667   2.606   1.196  13.846 -0.4428 -0.9249 -0.0923
  930MPD2    H713668   2.588   1.238  13.937 -0.2560  3.2849 -1.9926
  931MPD2     C13669   2.535   0.857   0.282  0.3240  0.4069 -0.4429
  931MPD2    C113670   2.438   0.784   0.351  0.7813  0.0761 -0.4575
  931MPD2    C213671   2.489   0.702   0.449  0.5358 -0.4046 -0.0762
  931MPD2    C313672   2.624   0.682   0.467  0.0321 -0.3983 -0.1630
  931MPD2    C413673   2.712   0.756   0.397  0.0315  0.3306  0.0949
  931MPD2    C513674   2.667   0.846   0.306 -0.0312 -0.0200  0.0117
  931MPD2     H13675   2.421   0.646   0.512  2.1579  1.0611  3.0003
  931MPD2    H113676   2.818   0.738   0.416  0.3826 -0.1702 -2.3553
  931MPD2    H213677   2.512   0.919   0.196  2.2198 -0.6913 -1.7291
  931MPD2    H313678   2.741   0.907   0.256 -0.2556 -0.5951 -1.0089
  931MPD2     N13679   2.686   0.594   0.553 -0.2375  0.5642  0.0679
  931MPD2    H513680   2.787   0.587   0.557 -0.4156 -1.6129  0.8792
  931MPD2    N113681   2.301   0.788   0.309 -0.0473  0.7767 -0.1713
  931MPD2    H713682   2.278   0.833   0.220  0.6270 -1.0158 -1.2568
  932MPD2     C13683   0.265   3.794  11.658 -0.1383  0.4330  0.5738
  932MPD2    C113684   0.379   3.869  11.658 -0.2570 -0.4878  0.9541
  932MPD2    C213685   0.483   3.829  11.739  0.0696 -0.2391 -0.1499
  932MPD2    C313686   0.478   3.722  11.827 -0.3908  0.7257 -0.0838
  932MPD2    C413687   0.369   3.640  11.819 -0.1010  0.1196  0.0956
  932MPD2    C513688   0.262   3.680  11.740 -0.2236  0.1796  0.2043
  932MPD2     H13689   0.566   3.897  11.752  1.0941 -1.8863  1.8859
  932MPD2    H113690   0.372   3.545  11.871  0.9699 -0.8824 -1.8018
  932MPD2    H213691   0.178   3.816  11.596 -0.2194  2.1919  1.3118
  932MPD2    H313692   0.169   3.624  11.753 -0.7257  1.2707  1.2776
  932MPD2     N13693   0.584   3.679  11.906  0.2007 -0.4995 -0.0152
  932MPD2    H513694   0.571   3.605  11.975  0.9614 -0.9776 -0.3759
  932MPD2    N113695   0.389   3.990  11.583  0.3169  0.3670 -0.0484
  932MPD2    H713696   0.474   4.044  11.598  0.0376  0.5699  0.7960
  933MPD2     C13697   0.193   4.199   1.658 -0.1470 -0.4340  0.0123
  933MPD2    C113698   0.231   4.234   1.527  0.1621  0.0884 -0.0803
  933MPD2    C213699   0.183   4.344   1.457 -0.0413 -0.1222  0.0760
  933MPD2    C313700   0.088   4.424   1.517  0.5426 -0.1906  0.4343
  933MPD2    C413701   0.034   4.383   1.638 -0.5246  0.2661 -0.3333
  933MPD2    C513702   0.098   4.278   1.709 -0.2895  0.2483  0.3505
  933MPD2     H13703   0.231   4.384   1.369 -0.6158  1.5135  0.5092
  933MPD2    H113704   4.707   4.444   1.695 -0.6834 -0.7841  0.5948
  933MPD2    H213705   0.246   4.124   1.715 -1.6127 -2.3653 -1.1665
  933MPD2    H313706   0.059   4.256   1.808 -1.8222  3.0940  0.3906
  933MPD2     N13707   0.048   4.547   1.453 -0.0874 -0.3113 -0.1586
  933MPD2    H513708   0.107   4.582   1.378  0.0137  1.0851  0.5752
  933MPD2    N113709   0.327   4.145   1.460  0.8771  0.4087 -0.3158
  933MPD2    H713710   0.390   4.090   1.517 -0.0395  0.5669  0.8282
  934MPD2     C13711   1.214   1.554   2.073 -0.6681 -0.1381 -0.1541
  934MPD2    C113712   1.307   1.491   1.994  0.2573  0.4664  0.3262
  934MPD2    C213713   1.253   1.411   1.893  0.0054 -0.6872 -0.1487
  934MPD2    C313714   1.116   1.400   1.872 -0.7883  0.2871  0.1570
  934MPD2    C413715   1.030   1.482   1.944  0.4945 -0.1750  0.0512
  934MPD2    C513716   1.082   1.549   2.054  0.2054 -0.2587  0.0465
  934MPD2     H13717   1.325   1.348   1.842  2.4600  0.6567  1.6776
  934MPD2    H113718   0.923   1.479   1.926  0.8191 -0.0668 -1.9274
  934MPD2    H213719   1.237   1.611   2.163  0.6703 -0.9870  0.0523
  934MPD2    H313720   1.018   1.608   2.119  0.4525 -1.4593  1.3658
  934MPD2     N13721   1.049   1.322   1.774  0.0421  0.1416  0.8969
  934MPD2    H513722   0.948   1.323   1.773  0.0241 -1.5395  0.6017
  934MPD2    N113723   1.450   1.502   2.012 -0.5751 -0.1286  0.4598
  934MPD2    H713724   1.512   1.449   1.950 -0.4276 -2.1956  2.3764
  935MPD2     C13725   1.232   0.419   1.330  0.1056 -0.1574 -0.7669
  935MPD2    C113726   1.178   0.501   1.227  0.1727  0.4168  0.0995
  935MPD2    C213727   1.126   0.624   1.270  0.6211 -0.4114 -0.2799
  935MPD2    C313728   1.115   0.669   1.409 -0.0993 -0.2897 -0.1449
  935MPD2    C413729   1.179   0.585   1.503  0.2719 -0.0711  0.4586
  935MPD2    C513730   1.223   0.466   1.458  0.0364 -0.3538  0.2087
  935MPD2     H13731   1.091   0.693   1.194 -1.3243 -2.4420 -1.2524
  935MPD2    H113732   1.184   0.607   1.609 -2.9120  0.3741  0.5311
  935MPD2    H213733   1.274   0.323   1.302  3.4944  1.2896 -0.5975
  935MPD2    H313734   1.249   0.389   1.530  1.8858  0.7469  0.7254
  935MPD2     N13735   1.058   0.796   1.455  0.6152 -0.6789 -0.0172
  935MPD2    H513736   1.063   0.815   1.555  0.9365 -0.2067 -0.1218
  935MPD2    N113737   1.175   0.467   1.091  0.1027 -0.4986  0.8360
  935MPD2    H713738   1.141   0.547   1.039 -0.0029 -1.0124  0.1274
  936MPD2     C13739   0.379   3.119  12.989  0.5536 -0.1828  0.7265
  936MPD2    C113740   0.411   2.984  12.965 -0.3353 -0.5334 -0.7805
  936MPD2    C213741   0.525   2.955  12.900  0.2720 -0.6155  0.6362
  936MPD2    C313742   0.615   3.053  12.857 -0.5035 -0.2491 -0.0819
  936MPD2    C413743   0.579   3.180  12.887 -0.6389 -0.4325 -0.6337
  936MPD2    C513744   0.467   3.212  12.951 -0.1771  0.2057  0.4418
  936MPD2     H13745   0.539   2.847  12.893  1.0736 -0.5511  1.2175
  936MPD2    H113746   0.641   3.266  12.867 -3.0746  1.8504  1.6948
  936MPD2    H213747   0.298   3.152  13.052  0.5857  1.1434  0.0852
  936MPD2    H313748   0.440   3.314  12.975 -1.9913 -0.1950  0.0537
  936MPD2     N13749   0.740   3.025  12.802  0.2401  0.2559  0.9167
  936MPD2    H513750   0.805   3.102  12.813  1.2610 -0.6275  1.1328
  936MPD2    N113751   0.341   2.879  13.015 -0.3564  0.4057 -0.3435
  936MPD2    H713752   0.378   2.785  13.017 -0.0454  0.5719  1.5064
  937MPD2     C13753   3.202   3.892  11.492 -0.8224  0.2865  0.1981
  937MPD2    C113754   3.268   4.001  11.549 -0.6498 -0.2018 -0.1512
  937MPD2    C213755   3.375   4.051  11.482  0.1213 -0.3111 -0.1630
  937MPD2    C313756   3.420   3.988  11.367 -0.3347  0.3807  0.3440
  937MPD2    C413757   3.352   3.869  11.320  0.6222  0.1355  0.3173
  937MPD2    C513758   3.239   3.830  11.384 -0.2687 -0.5572 -0.3574
  937MPD2     H13759   3.420   4.141  11.524 -1.3201  0.6544 -0.7087
  937MPD2    H113760   3.400   3.815  11.239  0.5606  1.8002 -0.8320
  937MPD2    H213761   3.114   3.848  11.539 -1.3876  1.0249 -0.1585
  937MPD2    H313762   3.192   3.747  11.332  0.7933 -0.6569 -1.1683
  937MPD2     N13763   3.521   4.044  11.297 -0.3103 -0.1751  0.5726
  937MPD2    H513764   3.547   4.131  11.341  1.3872  0.5599 -1.9207
  937MPD2    N113765   3.211   4.076  11.649  0.1189 -0.2068 -0.5578
  937MPD2    H713766   3.255   4.163  11.675 -0.5228  0.2014 -0.8118
  938MPD2     C13767   0.567   1.533   0.435  0.5864  0.0695  0.2380
  938MPD2    C113768   0.538   1.494   0.559  0.1774  0.0264 -0.2623
  938MPD2    C213769   0.524   1.356   0.588 -0.8396 -0.1741 -0.1487
  938MPD2    C313770   0.523   1.262   0.489 -0.7176  0.2808 -0.5591
  938MPD2    C413771   0.544   1.302   0.360 -0.2243  0.1373  0.3354
  938MPD2    C513772   0.568   1.436   0.338 -0.2107 -0.3662 -0.2038
  938MPD2     H13773   0.516   1.331   0.693  0.8870 -0.6494 -0.1426
  938MPD2    H113774   0.552   1.230   0.279  0.8245  0.1616  0.4182
  938MPD2    H213775   0.583   1.638   0.413  1.3445 -0.3318 -1.1369
  938MPD2    H313776   0.597   1.472   0.240  1.1155  1.6884  0.9544
  938MPD2     N13777   0.508   1.123   0.520  0.2746  0.5127  0.7126
  938MPD2    H513778   0.526   1.059   0.443  1.0445 -0.2675  1.5374
  938MPD2    N113779   0.549   1.584   0.674 -0.1107 -0.0505  0.1270
  938MPD2    H713780   0.557   1.541   0.765 -1.1567 -0.3274  0.0840
  939MPD2     C13781   1.324   2.261   0.772  0.1849  0.2934 -1.2690
  939MPD2    C113782   1.458   2.253   0.733  0.2982  0.4116  0.1475
  939MPD2    C213783   1.477   2.253   0.604  0.2731 -0.0387 -0.6977
  939MPD2    C313784   1.375   2.258   0.515  0.0780  0.0411 -0.3347
  939MPD2    C413785   1.246   2.270   0.545 -0.4870  0.0858 -0.6769
  939MPD2    C513786   1.223   2.278   0.681  0.5124  0.2162 -0.2359
  939MPD2     H13787   1.579   2.237   0.568  0.9607 -0.3790  1.3769
  939MPD2    H113788   1.166   2.281   0.473 -2.1695 -1.6382  0.9557
  939MPD2    H213789   1.299   2.280   0.876  1.3473 -0.5975 -0.8326
  939MPD2    H313790   1.128   2.309   0.723  0.0311  0.3599 -1.4203
  939MPD2     N13791   1.419   2.241   0.383  0.0084  0.6355 -0.0978
  939MPD2    H513792   1.520   2.240   0.368 -0.0745 -0.5591 -0.5636
  939MPD2    N113793   1.557   2.232   0.831 -0.3421  0.3168 -0.0496
  939MPD2    H713794   1.533   2.229   0.930 -2.2818  1.2142 -0.5007
  940MPD2     C13795   1.702   3.021  12.888  0.1412  0.5300  0.0794
  940MPD2    C113796   1.573   2.988  12.921 -0.8510  0.1279 -0.1481
  940MPD2    C213797   1.490   2.934  12.826  0.0487  0.1296  0.3545
  940MPD2    C313798   1.535   2.902  12.700 -0.2933 -0.2596  0.9480
  940MPD2    C413799   1.663   2.944  12.666 -0.2235  0.5015 -0.1999
  940MPD2    C513800   1.737   3.007  12.755 -0.8002 -0.3723 -0.0950
  940MPD2     H13801   1.392   2.898  12.855  0.1297 -1.7312 -1.7266
  940MPD2    H113802   1.708   2.915  12.572 -0.7868 -2.4926  0.4653
  940MPD2    H213803   1.766   3.074  12.958 -0.8723  0.3259  1.1677
  940MPD2    H313804   1.841   3.015  12.726 -0.7673 -0.8839 -0.1189
  940MPD2     N13805   1.438   2.837  12.611  0.0347  0.2225 -0.2165
  940MPD2    H513806   1.349   2.807  12.649  0.2909  0.9807  0.9727
  940MPD2    N113807   1.510   3.017  13.044 -0.8389 -0.3086 -0.7827
  940MPD2    H713808   1.409   3.010  13.051 -0.5994 -1.1337  1.5987
  941MPD2     C13809   0.125   1.538  10.154 -0.5415 -0.5541  0.0188
  941MPD2    C113810   0.262   1.544  10.166  0.2306 -0.3462  0.3073
  941MPD2    C213811   0.329   1.457  10.249 -0.0036  0.2210 -0.5755
  941MPD2    C313812   0.266   1.374  10.333  0.8624 -0.7513  0.4847
  941MPD2    C413813   0.125   1.358  10.321 -0.5397  0.0527  0.1059
  941MPD2    C513814   0.059   1.450  10.240  0.2429 -0.1682 -0.0850
  941MPD2     H13815   0.434   1.480  10.264 -0.7314  1.3734  2.5781
  941MPD2    H113816   0.076   1.277  10.375  0.9897 -2.0761 -1.6863
  941MPD2    H213817   0.065   1.599  10.087  0.7288  0.1156 -0.5106
  941MPD2    H313818   4.693   1.436  10.240  0.1719  0.3875 -1.1674
  941MPD2     N13819   0.334   1.297  10.428 -0.2379  0.5236  0.4406
  941MPD2    H513820   0.275   1.240  10.488  0.3081 -1.9656 -1.3859
  941MPD2    N113821   0.341   1.637  10.100 -0.3307  0.0811  0.2635
  941MPD2    H713822   0.440   1.629  10.121 -0.1953  0.4910 -0.2210
  942MPD2     C13823   4.732   3.334   9.947  0.0661  1.1328  0.1469
  942MPD2    C113824   4.661   3.435   9.887 -0.1851 -0.7476 -0.7639
  942MPD2    C213825   4.705   3.486   9.766 -0.5974  0.3179 -0.3894
  942MPD2    C313826   0.072   3.432   9.702 -0.0289  0.3427  0.3097
  942MPD2    C413827   0.141   3.329   9.769 -0.4189 -0.0549 -0.1246
  942MPD2    C513828   0.107   3.284   9.892 -0.8928 -0.1829 -0.0993
  942MPD2     H13829   4.652   3.572   9.728 -0.2213 -0.1056 -1.8652
  942MPD2    H113830   0.227   3.290   9.716  0.0445  1.4147 -0.4482
  942MPD2    H213831   4.708   3.296  10.046 -1.0068 -0.3370 -0.6810
  942MPD2    H313832   0.169   3.217   9.951  0.9613 -0.7309 -2.6517
  942MPD2     N13833   0.102   3.465   9.567 -0.1847 -0.8542 -0.1884
  942MPD2    H513834   0.170   3.405   9.522 -0.3367 -2.0187  1.1228
  942MPD2    N113835   4.552   3.500   9.945 -0.4273  0.4216  0.1007
  942MPD2    H713836   4.509   3.582   9.903  1.6691  0.2246 -2.4344
  943MPD2     C13837   3.638   2.083   9.749  0.4972  0.6896  0.1897
  943MPD2    C113838   3.691   1.976   9.813 -0.2697  0.1327  0.6311
  943MPD2    C213839   3.736   1.984   9.942 -0.1453 -0.1942 -0.3477
  943MPD2    C313840   3.741   2.104  10.014 -1.3374 -0.9669  0.3192
  943MPD2    C413841   3.683   2.210   9.949  0.4596  0.3911 -0.0273
  943MPD2    C513842   3.636   2.202   9.820 -0.7636  0.2167  0.7765
  943MPD2     H13843   3.767   1.898  10.000  2.5331  0.2670 -1.1302
  943MPD2    H113844   3.683   2.305  10.001 -4.0293 -0.2265  1.1457
  943MPD2    H213845   3.602   2.068   9.648  0.8311 -1.4903  0.3903
  943MPD2    H313846   3.600   2.294   9.775 -2.1336 -0.0279  1.3857
  943MPD2     N13847   3.798   2.126  10.144  0.6367 -0.0837  0.6014
  943MPD2    H513848   3.790   2.220  10.180 -0.3818 -0.0340  0.2344
  943MPD2    N113849   3.688   1.853   9.742 -0.0272  0.1904 -0.6647
  943MPD2    H713850   3.654   1.858   9.646  3.5287 -3.7887 -2.1530
  944MPD2     C13851   4.033   0.572  11.248 -0.0555  0.1171  0.2868
  944MPD2    C113852   4.077   0.674  11.165  0.1450 -0.1958 -0.0439
  944MPD2    C213853   4.005   0.786  11.154  0.0185 -0.5337  0.0977
  944MPD2    C313854   3.886   0.802  11.222  0.3077  0.6230 -0.1180
  944MPD2    C413855   3.839   0.699  11.298  0.2613 -0.3386  0.4184
  944MPD2    C513856   3.907   0.582  11.309 -0.0623  0.9908  0.3051
  944MPD2     H13857   4.039   0.870  11.093 -0.4725 -0.2258  0.2468
  944MPD2    H113858   3.745   0.702  11.353 -0.6535 -1.4870 -1.0920
  944MPD2    H213859   4.085   0.478  11.254  0.2561  0.3637  1.3947
  944MPD2    H313860   3.863   0.502  11.366 -3.1646  2.4146 -0.1047
  944MPD2     N13861   3.831   0.931  11.222  0.1169  0.0358 -0.0101
  944MPD2    H513862   3.886   1.000  11.172 -0.1860 -0.2890 -0.8016
  944MPD2    N113863   4.198   0.671  11.093 -0.4643  0.1191  0.3167
  944MPD2    H713864   4.212   0.734  11.014 -2.8518 -0.6297 -0.7098
    1TMC1    C113865   0.517   1.797  14.396 -0.3828  0.2849  0.4154
    1TMC1    C213866   0.432   1.688  14.408  0.5614  0.3463 -0.3048
    1TMC1    C313867   0.309   1.696  14.359  0.2193  0.9357  0.0129
    1TMC1    C413868   0.463   1.919  14.351  0.6143  0.5132  0.4382
    1TMC1    C513869   0.331   1.928  14.330  0.1358 -0.2531  0.3704
    1TMC1    C613870   0.254   1.815  14.314 -0.4931 -0.2140  0.3974
    1TMC1     C13871   0.657   1.775  14.382 -0.2119  0.0161 -0.1347
    1TMC1     O13872   0.691   1.661  14.377 -0.1489 -0.1329 -0.3577
    1TMC1     H13873   0.475   1.595  14.444 -1.5858 -0.2691  0.6153
    1TMC1    H113874   0.527   2.001  14.321  0.6955  0.3463  0.1498
    1TMC1    H213875   0.147   1.827  14.306 -0.9442 -5.4150 -1.0600
    1TMC1    C713876   0.278   2.033  14.249  0.7181  0.2871  0.1766
    1TMC1    C813877   0.217   1.604  14.416  0.1993  0.1464  0.4501
    1TMC1    O113878   0.272   2.021  14.126 -0.0983 -0.1846 -0.1707
    1TMC1    O213879   0.108   1.606  14.359  0.3825  0.1452 -0.2719
    1TMC1    O313880   0.317   2.146  14.318 -0.4634  0.1974 -0.3403
    1TMC1    H313881   0.316   2.123  14.413  0.7639  1.2799 -0.0739
    1TMC1    O513882   0.237   1.608  14.551  0.3081 -0.1758  0.1966
    1TMC1    H513883   0.327   1.636  14.579 -0.5782  0.9258  2.0140
    2MPD2     C13884   1.122   1.934  14.245 -0.4908 -0.5524  0.5924
    2MPD2    C113885   1.061   2.038  14.308 -0.4478 -0.1427 -0.3514
    2MPD2    C213886   0.930   2.018  14.342  0.4537 -0.5015  0.0032
    2MPD2    C313887   0.869   1.892  14.336 -0.5014  0.7619 -0.2658
    2MPD2    C413888   0.941   1.788  14.274  0.6868  0.1589  1.0207
    2MPD2    C513889   1.060   1.815  14.222  0.1468 -0.2636 -0.3748
    2MPD2     H13890   0.878   2.091  14.403  1.2905  0.9250 -0.9939
    2MPD2    H113891   0.891   1.694  14.255 -0.0607  0.9789 -1.0875
    2MPD2    H213892   1.221   1.956  14.205 -1.5382  3.6558  0.3289
    2MPD2    H313893   1.111   1.740  14.164  1.3825 -0.6096  1.1496
    2MPD2     N13894   0.736   1.893  14.374  0.6868 -0.4131 -0.8558
    2MPD2    H513895   0.698   1.977  14.415  2.7930  1.0651 -1.9418
    2MPD2    N113896   1.138   2.161  14.315  0.1732  0.3728 -0.3981
    2MPD2    H713897   1.227   2.167  14.267  0.3291 -0.1538 -0.1792
    3TMC2    C113898   1.189   2.396  14.357  0.3128  0.1921 -0.5177
    3TMC2    C213899   1.314   2.360  14.399 -0.0029 -0.9776  0.0966
    3TMC2    C313900   1.395   2.464  14.428  0.2224 -0.3785 -0.2456
    3TMC2    C413901   1.150   2.519  14.336 -0.7695 -0.1616  0.4059
    3TMC2    C513902   1.230   2.624  14.369 -0.1514  0.1399  0.2871
    3TMC2    C613903   1.358   2.594  14.413  0.4827  0.2325 -0.6528
    3TMC2     C13904   1.088   2.293  14.353 -0.6677 -0.8193 -0.2751
    3TMC2     O13905   0.970   2.319  14.375 -0.6752  0.6228  0.5055
    3TMC2     H13906   1.344   2.260  14.429  0.5894 -0.9421 -0.3763
    3TMC2    H113907   1.049   2.538  14.301 -1.2770 -0.1656  1.8521
    3TMC2    H213908   1.416   2.679  14.446  0.7412 -0.4313  0.5852
    3TMC2    C713909   1.186   2.759  14.324  0.1889 -0.3889  0.1420
    3TMC2    C813910   1.499   2.429  14.531  1.0841 -0.8336 -0.2255
    3TMC2    O113911   1.065   2.765  14.301  0.3963 -0.2764 -0.2167
    3TMC2    O213912   1.614   2.472  14.525  0.1512  0.3274 -0.2493
    3TMC2    O513913   1.429   2.382  14.633 -0.3096  0.1944 -0.2638
    3TMC2    H513914   1.334   2.370  14.614  0.3591 -2.3831 -2.0378
    4TMC2    C113915   1.809   3.379  13.849 -0.0463  0.1407 -0.6333
    4TMC2    C213916   1.939   3.340  13.882 -0.3485  1.0926 -0.1033
    4TMC2    C313917   1.955   3.214  13.939 -0.0479 -0.8967  0.2936
    4TMC2    C413918   1.697   3.319  13.900  0.2111  0.0742  0.1322
    4TMC2    C513919   1.718   3.194  13.958 -0.9462 -0.2973  0.1590
    4TMC2    C613920   1.843   3.142  13.975 -0.1888 -0.4625 -0.0608
    4TMC2     C13921   1.795   3.446  13.721 -0.2667 -0.2276  0.2421
    4TMC2     O13922   1.877   3.521  13.675  0.1023 -0.8176  0.4353
    4TMC2     H13923   2.024   3.397  13.848  0.6980  0.7155  1.8814
    4TMC2    H113924   1.596   3.354  13.884 -0.0712 -0.1973  1.3520
    4TMC2    H213925   1.847   3.049  14.031 -0.2752  0.3457  1.2578
    4TMC2    C713926   1.600   3.119  13.994 -0.2797  0.7650  0.0374
    4TMC2    C813927   2.069   3.204  14.031  0.3888 -0.1299 -0.0925
    4TMC2    O113928   1.616   2.999  13.993  0.2380  0.3118 -0.6844
    4TMC2    O213929   2.067   3.287  14.120  0.0184 -0.6818  0.3547
    4TMC2    O513930   2.090   3.072  14.039 -0.3996 -0.6065 -0.4857
    4TMC2    H513931   2.067   3.015  13.963  2.6062  1.2363 -2.7798
    5MPD2     C13932   1.538   3.494  13.267 -0.1260  0.3109  0.1358
    5MPD2    C113933   1.458   3.434  13.367  0.4515 -0.0529 -0.4612
    5MPD2    C213934   1.510   3.424  13.494  1.1018 -0.5066  0.6521
    5MPD2    C313935   1.638   3.461  13.528 -0.2225  0.3793  0.1112
    5MPD2    C413936   1.716   3.522  13.431 -0.2073 -0.3526  0.2831
    5MPD2    C513937   1.661   3.539  13.304 -0.2047  0.2250 -0.0308
    5MPD2     H13938   1.435   3.386  13.564 -0.0330 -0.4547 -0.5286
    5MPD2    H113939   1.818   3.557  13.446  0.6135 -2.4186 -0.4703
    5MPD2    H213940   1.499   3.504  13.167  1.0083 -1.8331 -0.5121
    5MPD2    H313941   1.728   3.583  13.231  2.1232 -0.5648  1.6171
    5MPD2     N13942   1.680   3.421  13.651 -0.3091  0.1800 -0.1465
    5MPD2    H513943   1.611   3.360  13.695 -0.4679  0.8741  0.5666
    5MPD2    N113944   1.338   3.379  13.323 -0.2711 -0.0236 -0.8082
    5MPD2    H713945   1.311   3.408  13.230 -1.5817 -0.0668 -0.4333
    6MPD1     C13946   0.143   3.897  14.176  1.3291 -0.8173 -0.3199
    6MPD1    C113947   0.154   3.763  14.217 -0.3761 -0.4008  0.8080
    6MPD1    C213948   0.162   3.666  14.114 -0.2123  0.2045  0.6410
    6MPD1    C313949   0.145   3.704  13.985 -0.0810 -0.6608  0.0736
    6MPD1    C413950   0.139   3.838  13.950  0.0366  0.3303 -0.6885
    6MPD1    C513951   0.147   3.932  14.041 -0.5439 -0.1752  0.7021
    6MPD1     H13952   0.166   3.562  14.144 -0.5001  0.2450  0.8190
    6MPD1    H113953   0.122   3.873  13.848  1.8984  0.9970 -0.7879
    6MPD1    H213954   0.158   3.973  14.252  0.7025 -0.3808 -0.6335
    6MPD1    H313955   0.155   4.036  14.011 -0.4554 -1.1178 -2.5083
    6MPD1     N13956   0.131   3.608  13.881 -0.7132 -0.2515  0.2220
    6MPD1    H513957   0.099   3.644  13.791  0.0160 -1.8401 -0.6789
    6MPD1    N113958   0.181   3.734  14.354  0.1740 -0.4920  0.4641
    6MPD1    H613959   0.159   3.640  14.388 -0.3462 -1.4901 -2.5787
    6MPD1    H713960   0.136   3.802  14.414  2.4493  2.3829 -1.1113
    7MPD2     C13961   0.519   2.938  13.757 -0.2025  0.0651  0.4335
    7MPD2    C113962   0.493   3.030  13.654  0.0990  0.1380  0.2783
    7MPD2    C213963   0.598   3.055  13.568 -0.6597  0.7694  0.3306
    7MPD2    C313964   0.727   3.003  13.587 -0.0446  0.2174 -0.0974
    7MPD2    C413965   0.754   2.931  13.701  0.4286  0.4058 -0.0426
    7MPD2    C513966   0.646   2.894  13.781  0.4323  0.0169  0.2302
    7MPD2     H13967   0.581   3.113  13.478 -0.2784  0.3483 -0.0158
    7MPD2    H113968   0.853   2.906  13.737  1.2925  2.0815 -1.2751
    7MPD2    H213969   0.443   2.915  13.831 -0.6740 -0.3036 -0.1627
    7MPD2    H313970   0.655   2.841  13.875 -0.4681 -0.3646  0.1009
    7MPD2     N13971   0.833   3.025  13.497  0.0121 -0.7228  0.2008
    7MPD2    H513972   0.929   3.017  13.528  0.0609  0.0619  0.2682
    7MPD2    N113973   0.383   3.098  13.624 -1.2322  0.5286  0.0687
    7MPD2    H713974   0.388   3.170  13.553 -0.1866  1.7288  1.3609
    8TMC3    C113975   0.951   3.120  13.304  0.2138 -0.0273 -0.0536
    8TMC3    C213976   1.059   3.153  13.378 -0.4120  0.1982  0.0223
    8TMC3    C313977   1.134   3.252  13.317 -0.7234  0.1841 -0.7046
    8TMC3    C413978   0.923   3.168  13.183  0.4050  0.2226 -0.8472
    8TMC3    C513979   0.979   3.284  13.145 -0.6531  0.1475  0.6085
    8TMC3    C613980   1.092   3.321  13.208 -0.2438 -0.0787  0.3247
    8TMC3     C13981   0.822   3.079  13.370  0.4374  0.0113 -0.7032
    8TMC3     O13982   0.722   3.124  13.318  0.2303 -0.1084  1.0024
    8TMC3     H13983   1.084   3.124  13.479 -0.6417 -1.9444 -0.5223
    8TMC3    H113984   0.839   3.128  13.127 -0.0919 -1.8068  1.3419
    8TMC3    H213985   1.126   3.424  13.196 -4.3926  1.0514 -1.7648
    8TMC3    C713986   0.880   3.394  13.114 -0.3218  0.4845 -0.9418
    8TMC3    C813987   1.253   3.298  13.396  0.9154  0.1531  0.7157
    8TMC3    O113988   0.923   3.504  13.074 -0.2182  0.0114  0.5192
    8TMC3    O213989   1.252   3.262  13.514  0.0599  0.4274  0.2939
    9TMC3    C113990   0.128   3.411  13.767 -0.2506  0.5010  0.5342
    9TMC3    C213991   0.147   3.477  13.648 -0.7630  0.0861  0.8785
    9TMC3    C313992   0.189   3.401  13.539 -0.0166 -0.5654  0.1290
    9TMC3    C413993   0.145   3.276  13.771  0.0401 -0.3732 -0.1649
    9TMC3    C513994   0.182   3.204  13.661  0.1269 -0.1909 -0.1416
    9TMC3    C613995   0.210   3.267  13.543 -0.5369  0.0292 -1.0397
    9TMC3     C13996   0.155   3.479  13.889 -0.8843  0.4963 -0.4813
    9TMC3     O13997   0.195   3.408  13.982  0.5011  0.2344  0.1256
    9TMC3     H13998   0.164   3.584  13.635 -2.2917  0.2482  0.1739
    9TMC3    H113999   0.130   3.227  13.866  0.3296  0.6514  0.4042
    9TMC3    H214000   0.243   3.210  13.456  0.0443  0.3345 -1.0203
    9TMC3    C714001   0.268   3.096  13.698  0.0035  0.1717 -0.3743
    9TMC3    C814002   0.245   3.478  13.430  0.5947 -0.2304  0.0052
    9TMC3    O114003   0.248   3.045  13.808  0.2310  0.2871 -0.0378
    9TMC3    O214004   0.213   3.597  13.411 -0.3971 -0.5977  0.0703
   10MPD2     C14005   0.633   3.572  13.110 -0.6763 -0.0427 -0.4870
   10MPD2    C114006   0.646   3.442  13.163 -0.0002  0.3038 -0.8401
   10MPD2    C214007   0.538   3.395  13.230  0.3403  0.3075 -0.2055
   10MPD2    C314008   0.429   3.467  13.262 -0.3508  1.2400 -0.3473
   10MPD2    C414009   0.419   3.592  13.206 -0.0979 -0.4925 -0.3109
   10MPD2    C514010   0.513   3.635  13.118 -0.0937 -0.2520 -0.2346
   10MPD2     H14011   0.551   3.293  13.264 -0.7072 -0.2585 -1.5309
   10MPD2    H114012   0.331   3.653  13.219 -0.5258 -0.9546 -1.0154
   10MPD2    H214013   0.718   3.617  13.061  1.0830 -1.0947  1.5838
   10MPD2    H314014   0.501   3.737  13.082  4.0026  1.3391  2.8993
   10MPD2     N14015   0.344   3.408  13.361 -1.0187  0.2699  0.1523
   10MPD2    H514016   0.364   3.314  13.392 -2.8716 -0.7834 -1.8440
   10MPD2    N114017   0.760   3.361  13.162 -0.1435 -0.2771  0.8724
   10MPD2    H714018   0.756   3.264  13.193  0.5879 -0.7999 -0.6832
   11MPD2     C14019   1.138   3.025  14.210  0.7711 -0.2063 -0.5422
   11MPD2    C114020   1.260   2.965  14.217 -0.2044  0.2788 -0.0621
   11MPD2    C214021   1.367   3.012  14.141 -0.0688 -0.3363  0.7810
   11MPD2    C314022   1.361   3.137  14.077  0.3578  0.3412 -0.1344
   11MPD2    C414023   1.240   3.200  14.076  1.0781  0.0887  0.3731
   11MPD2    C514024   1.132   3.144  14.144  0.1817 -0.1694 -0.6725
   11MPD2     H14025   1.461   2.961  14.156  0.2336 -0.0829 -0.3008
   11MPD2    H114026   1.229   3.293  14.022 -2.6043 -1.2637 -1.1730
   11MPD2    H214027   1.049   2.991  14.261  1.1762 -1.9507 -0.9862
   11MPD2    H314028   1.040   3.201  14.133  1.5265  1.9219 -0.9459
   11MPD2     N14029   1.482   3.192  14.017 -0.7604  0.0918  0.4743
   11MPD2    H514030   1.483   3.293  14.017 -0.9879  0.0882 -2.0777
   11MPD2    N114031   1.284   2.844  14.287  0.3014  0.0985 -0.2860
   11MPD2    H714032   1.382   2.820  14.292  0.8704  3.3125  3.7730
    1MPD1     C14033   4.343   4.278  16.647 -0.1955 -0.6682  0.3014
    1MPD1    C114034   4.212   4.273  16.663 -0.0175 -0.0905  0.2350
    1MPD1    C214035   4.136   4.385  16.630  0.3832  0.3028 -0.3584
    1MPD1    C314036   4.184   4.493  16.555 -0.3280 -0.2700  0.8093
    1MPD1    C414037   4.319   4.489  16.530  0.7726  0.4040 -0.0070
    1MPD1    C514038   4.397   4.383  16.577 -0.0237 -0.2115  0.3710
    1MPD1     H14039   4.029   4.383  16.646  0.7310  0.2216  1.9376
    1MPD1    H114040   4.370   4.561  16.467 -0.6524  0.9974 -0.4819
    1MPD1    H214041   4.407   4.196  16.675  1.2338  0.1825 -0.4986
    1MPD1    H314042   4.504   4.377  16.559  0.1897  1.5178  1.0978
    1MPD1     N14043   4.110   4.597  16.501 -0.2743  0.0104 -0.5080
    1MPD1    H514044   4.154   4.655  16.430  0.9414 -0.3556 -0.0585
    1MPD1    N114045   4.145   4.165  16.724  0.1370  0.3697  1.0219
    1MPD1    H614046   4.054   4.144  16.683 -0.4355  0.6395  2.1544
    1MPD1    H714047   4.206   4.088  16.695  0.0632  0.5705  0.3207
    2MPD1     C14048   4.505   0.485  16.131  1.0868  0.2052 -0.6274
    2MPD1    C114049   4.531   0.367  16.194 -0.0297 -0.5326  0.2041
    2MPD1    C214050   4.427   0.296  16.257  0.5028 -0.3218 -0.7421
    2MPD1    C314051   4.294   0.343  16.260 -0.0696 -0.2700  0.5068
    2MPD1    C414052   4.270   0.469  16.200 -0.3138 -0.8197 -0.6902
    2MPD1    C514053   4.379   0.537  16.149 -0.3324 -0.1203  0.3335
    2MPD1     H14054   4.457   0.206  16.309 -1.4931 -0.0334  0.9460
    2MPD1    H114055   4.175   0.522  16.207  0.2589  0.1221 -0.1183
    2MPD1    H214056   4.577   0.549  16.080 -0.5593 -0.1001 -3.3545
    2MPD1    H314057   4.356   0.633  16.106  0.2470 -0.4006 -0.5950
    2MPD1     N14058   4.195   0.259  16.303 -0.3666  0.3192  0.2705
    2MPD1    H514059   4.218   0.163  16.327  0.8390  0.7804  0.9603
    2MPD1    N114060   4.655   0.304  16.165 -0.1186  0.5855  0.0579
    2MPD1    H614061   4.731   0.367  16.140  0.2090  0.5899  1.0700
    2MPD1    H714062   4.676   0.245  16.246 -1.5759  0.5178  0.3827
    3TMC3    C114063   3.966   0.182  16.336  0.3736 -0.0137  0.3248
    3TMC3    C214064   3.842   0.186  16.288 -0.4891 -0.5169  0.2679
    3TMC3    C314065   3.755   0.084  16.327  0.2970 -0.1575  0.4562
    3TMC3    C414066   4.009   0.074  16.405 -0.2704  0.0794  0.6871
    3TMC3    C514067   3.922   4.719  16.438 -0.1028  0.4056 -0.2974
    3TMC3    C614068   3.791   4.719  16.402  0.1878 -0.2800  0.2414
    3TMC3     C14069   4.062   0.292  16.310  0.1362  0.2021 -0.0515
    3TMC3     O14070   4.004   0.400  16.300 -0.0072 -0.0605 -0.0932
    3TMC3     H14071   3.807   0.274  16.236  1.0260  0.4450  0.8629
    3TMC3    H114072   4.097   0.086  16.468 -1.4164  1.0571  2.0767
    3TMC3    H214073   3.722   4.640  16.428 -1.5763  1.2503  0.1928
    3TMC3    C714074   3.971   4.605  16.507 -0.0465 -0.3922 -0.6211
    3TMC3    C814075   3.613   0.117  16.309  0.0994 -0.2684 -0.2279
    3TMC3    O114076   3.887   4.527  16.548  0.0532  0.3966  0.2662
    3TMC3    O214077   3.576   0.237  16.302  0.2417 -0.3247 -0.0249
    4MPD1     C14078   3.136   4.691  16.212 -0.0738  0.2331  0.2019
    4MPD1    C114079   3.222   4.587  16.206 -0.0567 -0.2622 -0.1706
    4MPD1    C214080   3.353   4.602  16.250 -0.3529  0.4791 -0.5779
    4MPD1    C314081   3.405   4.728  16.270  0.1013  0.2484 -0.6315
    4MPD1    C414082   3.321   0.094  16.261  0.1020  0.4196 -0.5162
    4MPD1    C514083   3.190   0.075  16.242  0.1534 -0.2380  0.2741
    4MPD1     H14084   3.414   4.513  16.263 -1.5403 -0.4319 -1.2351
    4MPD1    H114085   3.361   0.194  16.280  1.2679 -0.1445  0.0029
    4MPD1    H214086   3.028   4.674  16.216  0.0746 -0.3885  2.0049
    4MPD1    H314087   3.123   0.158  16.257 -2.7144 -2.3472 -0.8167
    4MPD1     N14088   3.545   4.741  16.293 -0.4008  0.4570 -0.3077
    4MPD1    H514089   3.606   4.663  16.270  0.1500  1.2240 -1.4280
    4MPD1    N114090   3.169   4.459  16.175 -0.4210 -0.4766  0.3476
    4MPD1    H614091   3.080   4.468  16.126  1.2461 -0.7913 -2.7352
    4MPD1    H714092   3.228   4.404  16.114 -1.7918 -0.5472 -0.9135
    1TCq1    O114093   1.493   3.602  12.206  0.0169  0.5711 -0.4203
    1TCq1    C114094   1.430   3.625  12.331  0.1924 -0.2549 -0.0559
    1TCq1    O214095   1.442   3.732  12.395 -0.1559  1.4163 -0.1264
    1TCq1    C214096   1.317   3.538  12.336  0.3493  0.0262  0.3864
    1TCq1    C314097   1.324   3.405  12.298  0.0534 -1.2324  0.3074
    1TCq1    C414098   1.223   3.324  12.333  0.6524 -0.0373  0.0229
    1TCq1    C514099   1.125   3.371  12.415 -0.0289 -0.1069 -0.3284
    1TCq1    C614100   1.111   3.502  12.448 -0.6415 -0.3295  0.5629
    1TCq1    C714101   1.204   3.584  12.393 -0.8592  0.6853 -0.4354
    1TCq1    C814102   0.987   3.548  12.504  0.3153 -0.4493  0.6223
    1TCq1    O414103   0.974   3.663  12.546 -0.0633 -0.7044  0.4805
    1TCq1    C914104   1.249   3.180  12.343 -0.1555  0.1781  0.0471
    1TCq1    O514105   1.368   3.141  12.321  0.1936 -0.0197  0.2190
    1TCq1    O614106   1.150   3.112  12.375  0.3206  0.0819 -0.4627
    1TCq1    H114107   1.447   3.536  12.150 -0.9827  0.6644  0.2960
    1TCq1    H214108   1.421   3.361  12.279  0.4718 -0.4808  0.6999
    1TCq1    H314109   1.073   3.306  12.484  1.5364 -0.8236  0.1651
    1TCq1    H414110   1.204   3.689  12.421 -0.3868  1.0760 -1.8960
    2MPD1     C14111   0.520   3.444  12.682  0.4435 -0.1270 -0.0356
    2MPD1    C114112   0.548   3.357  12.579  0.1515 -0.4396 -0.3305
    2MPD1    C214113   0.664   3.371  12.513 -0.5711 -0.1314 -0.6045
    2MPD1    C314114   0.764   3.463  12.559 -0.1208 -0.2998 -0.8201
    2MPD1    C414115   0.738   3.541  12.661 -0.1345 -0.3195 -0.5304
    2MPD1    C514116   0.616   3.539  12.724  0.0521 -0.4193 -0.7906
    2MPD1     H14117   0.681   3.314  12.422 -1.1816 -0.7507 -0.3304
    2MPD1    H114118   0.820   3.601  12.698 -0.5677  0.9878 -1.6961
    2MPD1    H214119   0.429   3.442  12.741 -1.1931 -0.2500 -2.6017
    2MPD1    H314120   0.604   3.596  12.815 -0.6825 -0.9127 -0.5796
    2MPD1     N14121   0.887   3.455  12.489  0.3353  0.7658 -0.3283
    2MPD1    H514122   0.911   3.382  12.423 -0.3836  0.9080 -0.7469
    2MPD1    N114123   0.443   3.287  12.516  0.2363 -0.3883  0.1283
    2MPD1    H614124   0.384   3.237  12.582 -1.0233 -1.1024 -1.5147
    2MPD1    H714125   0.489   3.209  12.469  0.8209 -1.0082  1.7282
    1TMC1    C114126   2.105   1.155   0.149  0.4674 -0.4825 -0.1961
    1TMC1    C214127   2.075   1.287   0.125 -0.4326 -0.2262  0.1472
    1TMC1    C314128   1.991   1.354   0.209 -0.0948 -0.7081  0.8921
    1TMC1    C414129   2.052   1.088   0.254  0.9196 -0.6284  0.1975
    1TMC1    C514130   1.972   1.164   0.340 -0.4782 -0.6767 -0.2702
    1TMC1    C614131   1.934   1.293   0.316 -0.8790  0.2854 -0.2629
    1TMC1     C14132   2.207   1.082   0.074  0.7988  0.3710  0.3707
    1TMC1     O14133   2.246   0.976   0.127  0.0962  0.2023 -0.3587
    1TMC1     H14134   2.137   1.333   0.049 -0.1247 -0.8982 -0.0102
    1TMC1    H114135   2.070   0.984   0.278  2.4713 -0.2969  0.4413
    1TMC1    H214136   1.878   1.356   0.384 -1.4811  0.4681 -0.9247
    1TMC1    C714137   1.942   1.107   0.468 -0.1636  0.4329 -0.0362
    1TMC1    C814138   1.960   1.498   0.187  0.7146  0.1389  0.4900
    1TMC1    O114139   1.910   0.993   0.503 -0.5999 -0.6780  0.8233
    1TMC1    O214140   1.855   1.549   0.226  0.9555  0.4281 -0.0288
    1TMC1    O314141   1.987   1.206   0.550  0.0184 -0.3274 -0.6003
    1TMC1    H314142   2.027   1.290   0.518 -0.4656  0.1849  0.1307
    1TMC1    O514143   2.040   1.550   0.095  0.2996 -0.1030 -0.2337
    1TMC1    H514144   2.125   1.504   0.107  0.3528  0.1110  0.2003
    2MPD1     C14145   2.512   1.020  17.434  0.1940 -0.3853 -0.4242
    2MPD1    C114146   2.407   1.106  17.406  0.2808  0.3281 -0.3063
    2MPD1    C214147   2.315   1.142  17.500 -0.1570  0.2547  0.0219
    2MPD1    C314148   2.319   1.077  17.623  0.0497 -0.6743  0.0303
    2MPD1    C414149   2.428   0.994  17.658  0.1140 -0.1728  0.0464
    2MPD1    C514150   2.530   0.974  17.564 -0.4446  0.6737 -0.4085
    2MPD1     H14151   2.239   1.209  17.463 -1.0781 -0.5674  0.4251
    2MPD1    H114152   2.440   0.947  17.755  1.3394 -1.0667 -0.5413
    2MPD1    H214153   2.585   0.996  17.358 -4.2524 -0.6889 -4.5801
    2MPD1    H314154   2.616   0.910  17.582 -0.0324  1.6124  0.9635
    2MPD1     N14155   2.222   1.126  17.714  0.1835 -0.0110  0.1671
    2MPD1    H514156   2.160   1.200  17.684  0.9969  1.1761  1.4378
    2MPD1    N114157   2.391   1.146  17.274 -0.4299  0.2453  0.2205
    2MPD1    H614158   2.339   1.234  17.273  1.2124  1.2025 -0.3498
    2MPD1    H714159   2.473   1.174  17.221  0.4429 -0.7074  1.0919
    1MPD1     C14160   1.781   4.042  11.652 -1.0248 -0.6728 -0.3036
    1MPD1    C114161   1.825   4.045  11.782 -0.1171  0.5006  0.0461
    1MPD1    C214162   1.954   4.006  11.810  0.0179  0.0534  0.2533
    1MPD1    C314163   2.042   3.976  11.707  0.7493 -0.5581  0.8191
    1MPD1    C414164   2.001   3.980  11.577 -0.1769 -0.1380 -0.2900
    1MPD1    C514165   1.867   4.016  11.550  0.0910  0.4643 -0.2110
    1MPD1     H14166   1.981   4.001  11.915 -1.1733  0.7606  0.5968
    1MPD1    H114167   2.069   3.987  11.493  1.9438  2.7560  1.6706
    1MPD1    H214168   1.680   4.070  11.624 -1.1349 -0.6868  0.0650
    1MPD1    H314169   1.843   4.023  11.444  1.3944 -2.1402 -0.6687
    1MPD1     N14170   2.176   3.942  11.748  0.2626  0.7738  0.2268
    1MPD1    H514171   2.206   3.948  11.845  2.8743  0.2131 -0.5471
    1MPD1    N114172   1.724   4.062  11.877 -0.3388  0.3488 -0.7066
    1MPD1    H614173   1.631   4.096  11.856 -0.4746 -1.0679 -2.3412
    1MPD1    H714174   1.751   4.091  11.971 -2.1868 -3.1938  0.9342
    2MPD1     C14175   2.179   4.229   9.365 -0.3464  0.0987  0.3316
    2MPD1    C114176   2.162   4.142   9.474  0.1258  0.2541 -0.0143
    2MPD1    C214177   2.253   4.153   9.585 -0.0372 -1.0653  0.5782
    2MPD1    C314178   2.363   4.241   9.574  0.5819  0.3299 -0.6439
    2MPD1    C414179   2.372   4.321   9.463 -0.1664  0.3910  0.6127
    2MPD1    C514180   2.280   4.325   9.362 -0.3892 -0.5704  0.4292
    2MPD1     H14181   2.237   4.091   9.673 -2.3561  0.3304  1.1494
    2MPD1    H114182   2.453   4.393   9.463 -0.2232  0.4498  0.1122
    2MPD1    H214183   2.125   4.216   9.272  1.1852 -1.1045 -0.3982
    2MPD1    H314184   2.291   4.393   9.279 -1.0135 -2.0967 -0.9153
    2MPD1     N14185   2.468   4.252   9.671  0.1416  1.2615  0.1491
    2MPD1    H514186   2.540   4.321   9.654  0.7161  0.6414  0.0557
    2MPD1    N114187   2.082   4.025   9.463 -0.6573 -0.0163  0.5758
    2MPD1    H614188   2.046   4.003   9.556  1.1078  0.9257  1.4909
    2MPD1    H714189   2.002   4.040   9.402  0.5382 -0.2353 -1.0527
    3MPD1     C14190   3.226   4.625   9.518 -0.1306  0.5654 -0.4082
    3MPD1    C114191   3.132   4.562   9.441  0.3918  0.3845  0.4657
    3MPD1    C214192   3.046   4.476   9.506  0.2127  0.3219  0.0657
    3MPD1    C314193   3.032   4.473   9.643 -0.3156  0.2384  0.2197
    3MPD1    C414194   3.106   4.568   9.719  0.2239 -0.5435 -0.1897
    3MPD1    C514195   3.196   4.645   9.652  0.6072 -0.0037  0.9742
    3MPD1     H14196   2.978   4.412   9.451  0.7814 -0.0403 -0.2194
    3MPD1    H114197   3.111   4.570   9.827  0.3588 -0.3547 -0.1996
    3MPD1    H214198   3.305   4.681   9.469 -0.1836 -0.3649 -1.5517
    3MPD1    H314199   3.259   4.712   9.709  1.2740  1.1121 -1.0771
    3MPD1     N14200   2.931   4.388   9.702  0.1522 -0.2501  0.1667
    3MPD1    H514201   2.881   4.315   9.652 -0.9499  0.9173 -0.4227
    3MPD1    N114202   3.140   4.552   9.305 -0.2929  0.4520 -0.0103
    3MPD1    H614203   3.057   4.509   9.264 -0.5723  1.0105 -0.0313
    3MPD1    H714204   3.135   4.641   9.255 -1.1499  1.5175  1.9728
    4MPD2     C14205   2.735   4.333  11.560 -0.1986 -0.3277 -0.2435
    4MPD2    C114206   2.772   4.204  11.550 -0.0048 -0.1868 -0.4661
    4MPD2    C214207   2.843   4.171  11.432 -0.0664 -0.4116 -0.8171
    4MPD2    C314208   2.887   4.264  11.340  0.2983 -0.8498  0.0397
    4MPD2    C414209   2.855   4.397  11.359  0.1165 -0.1946  0.3290
    4MPD2    C514210   2.772   4.432  11.469 -0.9666 -0.0781 -0.3862
    4MPD2     H14211   2.878   4.069  11.417 -1.1354 -0.8749 -0.0918
    4MPD2    H114212   2.883   4.470  11.284 -0.5730 -0.6091 -0.3385
    4MPD2    H214213   2.677   4.348  11.651  1.1945 -1.7936  0.8817
    4MPD2    H314214   2.748   4.535  11.495  3.6661  1.3659 -1.7250
    4MPD2     N14215   2.955   4.215  11.226  0.0287  0.4812 -0.4946
    4MPD2    H514216   2.971   4.115  11.229 -2.8395 -0.0032 -1.3006
    4MPD2    N114217   2.733   4.103  11.637  0.8286  0.0057 -0.5507
    4MPD2    H714218   2.755   4.011  11.599  0.4799 -0.7665  1.1380
    5TMC3    C114219   2.600   3.978  11.772  0.3855  0.2822 -0.4516
    5TMC3    C214220   2.464   3.974  11.773 -0.0416 -0.4562  0.2087
    5TMC3    C314221   2.403   3.861  11.715  0.4517  0.1788  0.7880
    5TMC3    C414222   2.671   3.871  11.729  0.8332  0.3236  0.4003
    5TMC3    C514223   2.611   3.772  11.655 -0.5027 -0.1784  0.1812
    5TMC3    C614224   2.472   3.762  11.657 -0.2074  0.0118 -0.7594
    5TMC3     C14225   2.655   4.105  11.748 -0.2321 -0.6458 -0.0443
    5TMC3     O14226   2.600   4.202  11.807  0.3596 -0.3774 -0.0520
    5TMC3     H14227   2.412   4.062  11.809  1.2164  1.1167 -1.8331
    5TMC3    H114228   2.779   3.864  11.726  0.7701 -0.5267  0.0917
    5TMC3    H214229   2.422   3.693  11.590  1.8300 -1.5997 -0.5914
    5TMC3    C714230   2.689   3.758  11.536  0.6049 -0.6594  0.2335
    5TMC3    C814231   2.270   3.895  11.657 -0.2626  0.2748 -0.3778
    5TMC3    O114232   2.759   3.852  11.511 -0.2367  0.0433  0.8492
    5TMC3    O214233   2.272   3.876  11.537 -0.2389 -0.2236 -0.4283
    6TMC3    C114234   2.596   4.199   9.860 -0.5048  0.2371  0.3999
    6TMC3    C214235   2.704   4.262   9.804 -0.1545 -0.1412  0.0895
    6TMC3    C314236   2.816   4.284   9.889  0.1837  0.0310 -0.5225
    6TMC3    C414237   2.612   4.133   9.982  0.3277 -0.3852 -1.3552
    6TMC3    C514238   2.730   4.145  10.048 -0.0938  0.0226 -0.4750
    6TMC3    C614239   2.833   4.219  10.008 -0.2321 -0.4116 -0.2338
    6TMC3     C14240   2.475   4.190   9.792 -0.4071  0.5476  0.1805
    6TMC3     O14241   2.385   4.123   9.843  0.0296  0.5575 -0.5719
    6TMC3     H14242   2.699   4.306   9.705  0.4714 -0.4719 -0.0880
    6TMC3    H114243   2.528   4.074  10.018 -2.1674  3.8843 -0.2403
    6TMC3    H214244   2.925   4.232  10.064 -0.6533 -0.2774  0.4347
    6TMC3    C714245   2.749   4.089  10.181  0.2046 -0.5699  0.6233
    6TMC3    C814246   2.921   4.365   9.835 -0.5018  0.3114 -0.2985
    6TMC3    O114247   2.840   4.143  10.244  0.3314  0.1217  0.2278
    6TMC3    O214248   2.979   4.422   9.925  0.2812  0.8458  0.3985
    7MPD2     C14249   2.876   3.525  11.132 -0.1554  0.6643 -0.1169
    7MPD2    C114250   2.887   3.656  11.163  0.7839  0.3094  0.2005
    7MPD2    C214251   2.823   3.696  11.281  1.1686  0.9991 -0.5587
    7MPD2    C314252   2.739   3.606  11.349  0.4406 -0.2923  0.1603
    7MPD2    C414253   2.720   3.476  11.302 -0.1328 -0.5317 -1.1660
    7MPD2    C514254   2.797   3.436  11.198  0.4233  0.5066  0.2979
    7MPD2     H14255   2.841   3.794  11.324 -1.4814  1.8711 -1.4618
    7MPD2    H114256   2.660   3.396  11.344 -2.7059  2.0084  0.0461
    7MPD2    H214257   2.919   3.491  11.039  0.2537 -1.1863  0.7600
    7MPD2    H314258   2.797   3.332  11.166 -2.0810  0.3475  0.8551
    7MPD2     N14259   2.667   3.641  11.467 -0.3671  0.0940 -0.3209
    7MPD2    H514260   2.599   3.575  11.502 -0.0365  0.7205  1.5029
    7MPD2    N114261   2.959   3.748  11.080 -0.3811 -0.0282  0.3468
    7MPD2    H714262   3.011   3.711  11.001  1.5863 -0.5764  1.9028
    8TMC3    C114263   3.055   3.958  11.016 -0.0282 -0.0504 -0.4595
    8TMC3    C214264   2.984   3.948  10.897  0.5276 -0.9027 -0.0745
    8TMC3    C314265   2.935   4.064  10.844  0.0977 -0.0845  0.6778
    8TMC3    C414266   3.090   4.081  11.066 -0.1163 -0.3556  0.1612
    8TMC3    C514267   3.036   4.188  11.013 -0.4341 -0.0057  0.8556
    8TMC3    C614268   2.962   4.181  10.900  0.0907  0.0881  0.1890
    8TMC3     C14269   2.992   3.875  11.114  0.5907 -0.2663  0.5227
    8TMC3     O14270   2.946   3.945  11.202 -0.0962 -0.1048 -0.9535
    8TMC3     H14271   2.965   3.854  10.846  1.7779 -1.0474 -0.2551
    8TMC3    H114272   3.158   4.085  11.151 -0.6870  0.0901  0.5929
    8TMC3    H214273   2.905   4.266  10.865 -0.4861  0.6219  2.4154
    8TMC3    C714274   2.989   4.285  11.112 -0.6229 -0.4876  0.3321
    8TMC3    C814275   2.851   4.073  10.720  0.1390 -0.2187 -0.5835
    8TMC3    O114276   2.970   4.400  11.078  0.9391  0.5057  0.2082
    8TMC3    O214277   2.851   4.179  10.656 -0.3750  0.4491  0.5561
    9MPD2     C14278   2.597   3.839  10.598 -0.5495  0.4033 -0.1920
    9MPD2    C114279   2.702   3.931  10.581  0.0675 -0.1306  0.0665
    9MPD2    C214280   2.721   3.984  10.453 -0.5862  0.2279  0.2506
    9MPD2    C314281   2.636   3.944  10.348  0.6083  0.3389  0.0225
    9MPD2    C414282   2.542   3.845  10.369  0.5740  0.0699  0.4272
    9MPD2    C514283   2.514   3.800  10.498 -0.7156 -0.1018  0.0781
    9MPD2     H14284   2.797   4.061  10.447 -0.9052  0.6593  1.9743
    9MPD2    H114285   2.471   3.828  10.289  0.3816  1.2284  0.3572
    9MPD2    H214286   2.567   3.789  10.689  0.5600 -1.1601 -0.6988
    9MPD2    H314287   2.436   3.729  10.524 -0.6628 -0.5580 -0.9990
    9MPD2     N14288   2.644   4.010  10.225  0.5292  0.8184 -0.6622
    9MPD2    H514289   2.592   3.964  10.151  0.8761  1.1498 -1.1125
    9MPD2    N114290   2.772   3.958  10.695  0.8454  0.5031 -0.3609
    9MPD2    H714291   2.742   3.907  10.777  1.9670  2.0888  1.0438
    1MPD1     C14292   1.552   2.978  15.580 -0.9026  0.5927  0.6088
    1MPD1    C114293   1.472   3.087  15.565  0.0150  0.5125  0.4125
    1MPD1    C214294   1.387   3.122  15.668  0.3687 -0.6997 -0.3622
    1MPD1    C314295   1.394   3.064  15.795  0.3199  1.4927 -0.4103
    1MPD1    C414296   1.491   2.970  15.812 -0.5073  0.3463  0.4098
    1MPD1    C514297   1.571   2.936  15.706  0.5314  0.3719  0.9727
    1MPD1     H14298   1.320   3.203  15.642  1.3337  0.2849  0.2237
    1MPD1    H114299   1.513   2.919  15.904  4.1623  1.5595 -0.0499
    1MPD1    H214300   1.615   2.937  15.502 -0.7704 -0.9019  1.5030
    1MPD1    H314301   1.639   2.853  15.722 -1.1959 -1.0190  1.1041
    1MPD1     N14302   1.311   3.090  15.907  0.1794  0.2068 -0.2126
    1MPD1    H514303   1.341   3.049  15.995  0.4578  1.4635  0.2615
    1MPD1    N114304   1.453   3.136  15.434 -0.1241  0.1215  0.0982
    1MPD1    H614305   1.407   3.227  15.428 -2.8732 -1.2546  0.3091
    1MPD1    H714306   1.537   3.142  15.378  0.1467  4.2429  0.9316
    2TMC2    C114307   0.924   3.173  16.110 -0.1960 -0.1287  0.1622
    2TMC2    C214308   0.939   3.058  16.187 -0.2116 -0.6298 -0.0719
    2TMC2    C314309   1.064   3.001  16.185  0.0134 -0.9063 -0.1269
    2TMC2    C414310   1.019   3.227  16.026  0.0634  0.0840 -0.3563
    2TMC2    C514311   1.142   3.173  16.038 -0.5280 -0.0444 -0.0662
    2TMC2    C614312   1.170   3.069  16.123  0.6388  0.2273 -1.0170
    2TMC2     C14313   0.797   3.247  16.121 -0.7336 -0.5933  0.4803
    2TMC2     O14314   0.714   3.204  16.198  0.3978  0.2079  0.1733
    2TMC2     H14315   0.865   3.024  16.259 -0.0472  1.2821  1.0076
    2TMC2    H114316   1.007   3.312  15.960 -1.2146  0.4886  0.3993
    2TMC2    H214317   1.270   3.041  16.154 -0.0737  0.2129  1.2481
    2TMC2    C714318   1.207   3.172  15.908  0.6251 -0.5247 -0.1743
    2TMC2    C814319   1.106   2.928  16.304 -0.5810  0.2062  0.4749
    2TMC2    O114320   1.149   3.229  15.811 -0.3593  0.1159  0.1699
    2TMC2    O214321   1.217   2.925  16.361 -0.3505  0.2280  0.0049
    2TMC2    O514322   0.996   2.862  16.338  0.6457 -0.4216 -0.0282
    2TMC2    H514323   0.953   2.850  16.250  1.5635  2.5927 -0.8741
    3MPD1     C14324   0.471   3.623  16.003  0.3193 -0.1632  0.1905
    3MPD1    C114325   0.587   3.647  15.943  0.4619 -0.1125  0.6644
    3MPD1    C214326   0.693   3.559  15.947 -0.1023 -0.1769  0.3769
    3MPD1    C314327   0.677   3.445  16.025 -0.1408 -0.2957 -0.3463
    3MPD1    C414328   0.550   3.419  16.090 -0.8134 -0.9400 -0.0063
    3MPD1    C514329   0.455   3.515  16.081 -0.6118 -0.1263 -0.1585
    3MPD1     H14330   0.785   3.577  15.892  0.1016  1.0076  1.1136
    3MPD1    H114331   0.530   3.327  16.144 -1.6610 -1.0324 -0.4764
    3MPD1    H214332   0.391   3.696  15.992  0.1530 -0.1843  1.3428
    3MPD1    H314333   0.356   3.493  16.118 -1.1511  0.6482 -1.1422
    3MPD1     N14334   0.786   3.350  16.033 -0.2475  0.3237 -0.3258
    3MPD1    H514335   0.869   3.370  15.978  1.4708 -1.1461  1.7574
    3MPD1    N114336   0.597   3.758  15.861 -0.3851  0.4047 -0.6554
    3MPD1    H614337   0.623   3.730  15.766 -1.3361  0.9099 -1.0608
    3MPD1    H714338   0.516   3.819  15.855  1.0034  2.5388  2.0885
    1TMC1    C114339   4.328   2.372  12.823  0.4139  0.9350  0.3212
    1TMC1    C214340   4.249   2.351  12.717 -0.1018 -0.1259  0.1672
    1TMC1    C314341   4.200   2.226  12.694  0.3784  1.0524  0.2059
    1TMC1    C414342   4.355   2.272  12.912 -0.1549  0.0149 -0.7852
    1TMC1    C514343   4.314   2.142  12.879 -0.3616  0.0921 -0.9689
    1TMC1    C614344   4.236   2.116  12.765  0.1885  0.2014 -0.6971
    1TMC1     C14345   4.416   2.489  12.819 -0.4741  0.1753 -0.0948
    1TMC1     O14346   4.379   2.582  12.756  0.1936  0.1169  0.4282
    1TMC1     H14347   4.228   2.433  12.649 -0.7835  0.1538  0.7063
    1TMC1    H114348   4.407   2.284  13.007 -2.0448 -0.8150  0.3594
    1TMC1    H214349   4.205   2.015  12.739 -2.6275  1.2245 -1.3523
    1TMC1    C714350   4.378   2.028  12.939 -0.8292 -0.5381  0.1799
    1TMC1    C814351   4.158   2.202  12.559  0.1159  0.6392 -0.6753
    1TMC1    O114352   4.485   2.063  12.995 -0.4472  0.5538  0.6501
    1TMC1    O214353   4.165   2.087  12.515 -0.9303 -0.0615 -0.1148
    1TMC1    O314354   4.284   1.954  12.989 -0.2190 -0.2858 -0.3367
    1TMC1    H314355   4.201   1.941  12.940 -0.0663  0.2616 -0.7443
    1TMC1    O514356   4.075   2.299  12.521 -0.2737  0.1872  0.5398
    1TMC1    H514357   4.082   2.379  12.577  1.2282  1.2408 -1.1598
    2MPD2     C14358   4.655   2.665  12.820  0.3748 -0.1537  0.0379
    2MPD2    C114359   4.648   2.541  12.879  0.4886 -0.4051 -0.3537
    2MPD2    C214360   0.024   2.488  12.932 -0.3276  1.1616 -0.1753
    2MPD2    C314361   0.144   2.552  12.908  0.5423 -0.1047 -0.1935
    2MPD2    C414362   0.142   2.672  12.851  0.3861 -0.1907  0.3396
    2MPD2    C514363   0.025   2.730  12.818 -0.2894 -0.7461  0.1647
    2MPD2     H14364   0.016   2.394  12.986 -1.0074  0.3612 -1.6635
    2MPD2    H114365   0.232   2.730  12.835  0.8816 -1.3161 -0.9016
    2MPD2    H214366   4.570   2.712  12.771  0.7287  0.4264 -0.0167
    2MPD2    H314367   0.033   2.830  12.776 -0.0466  0.0659  2.1560
    2MPD2     N14368   0.263   2.495  12.956 -0.2607 -0.0786 -0.5315
    2MPD2    H514369   0.250   2.403  12.998 -1.0088  0.6730  0.9083
    2MPD2    N114370   4.536   2.459  12.886  0.1395 -0.1220 -0.5192
    2MPD2    H714371   4.554   2.362  12.908 -0.8546 -0.2999 -0.5112
    3TCq1    O114372   0.884   2.234  12.913  0.2566  0.1539  0.2285
    3TCq1    C114373   0.814   2.322  12.836 -0.5732  0.7764 -0.7745
    3TCq1    O214374   0.869   2.412  12.775 -0.1070  0.0372 -0.1832
    3TCq1    C214375   0.683   2.315  12.886 -1.5157 -0.4951 -0.1458
    3TCq1    C314376   0.641   2.201  12.950 -0.3423 -0.7533 -0.4269
    3TCq1    C414377   0.531   2.207  13.024 -0.3949 -0.0816 -0.5537
    3TCq1    C514378   0.457   2.321  13.031 -0.2494 -0.0021  0.0468
    3TCq1    C614379   0.493   2.428  12.964 -0.2089 -0.0131 -0.2164
    3TCq1    C714380   0.615   2.435  12.904  0.0078 -0.0352  0.3312
    3TCq1    C814381   0.396   2.531  12.938 -0.3813 -0.5582  0.6238
    3TCq1    O414382   0.429   2.642  12.902 -0.2088  0.8161  0.2006
    3TCq1    C914383   0.488   2.088  13.102 -0.6690 -0.5516 -0.4001
    3TCq1    O514384   0.369   2.095  13.152 -0.1464 -0.2029 -0.4003
    3TCq1    O614385   0.564   1.986  13.119  0.6485  0.0606 -0.6171
    3TCq1    H114386   0.814   2.167  12.928 -0.6791  1.2303  0.6134
    3TCq1    H214387   0.685   2.103  12.957 -2.7263 -1.8137 -0.4523
    3TCq1    H314388   0.367   2.317  13.092  0.1245 -1.6917  0.4750
    3TCq1    H414389   0.645   2.527  12.856  0.6831  0.3151  1.4365
    1MPD2     C14390   4.380   2.853  14.783 -0.1663  0.4492  0.0433
    1MPD2    C114391   4.253   2.829  14.818 -0.6577  0.2158  0.6197
    1MPD2    C214392   4.174   2.735  14.751 -0.1452  0.0608 -0.4148
    1MPD2    C314393   4.237   2.660  14.650  0.3517 -0.0520  0.1668
    1MPD2    C414394   4.374   2.673  14.625 -0.0066 -0.7096  0.3279
    1MPD2    C514395   4.443   2.771  14.694 -0.2640 -0.9157  0.0920
    1MPD2     H14396   4.068   2.724  14.770  0.1008  2.3303  2.3752
    1MPD2    H114397   4.432   2.626  14.546  0.1573 -1.2323  0.7638
    1MPD2    H214398   4.446   2.925  14.831  1.2482 -0.6645 -0.2366
    1MPD2    H314399   4.550   2.784  14.681 -0.3814 -1.7584 -1.6252
    1MPD2     N14400   4.161   2.574  14.562  0.8144 -0.7038  0.1204
    1MPD2    H514401   4.210   2.519  14.493  1.2203  1.7802 -1.5653
    1MPD2    N114402   4.191   2.900  14.927 -0.8559  0.6869 -0.4056
    1MPD2    H714403   4.248   2.974  14.968 -2.7867  1.2405  1.2182
    2TMC3    C114404   4.033   2.964  15.086  0.4019 -0.0263 -0.6092
    2TMC3    C214405   3.955   2.896  15.178 -0.1160  0.1181  0.4041
    2TMC3    C314406   3.840   2.944  15.220  0.5067  0.4229 -0.4540
    2TMC3    C414407   3.989   3.080  15.030 -0.0356  0.5825  0.0253
    2TMC3    C514408   3.891   3.145  15.101  0.1175  0.2594  0.1187
    2TMC3    C614409   3.812   3.071  15.182 -0.1051 -0.3930  0.0955
    2TMC3     C14410   4.080   2.859  14.994 -0.2299 -0.5728  0.0710
    2TMC3     O14411   4.028   2.750  14.993 -0.2617  0.6232  0.7677
    2TMC3     H14412   3.981   2.796  15.210  0.4618  0.4925  1.0943
    2TMC3    H114413   4.032   3.120  14.939  0.9753  1.3616  0.8276
    2TMC3    H214414   3.724   3.118  15.225 -0.5953 -0.2415 -1.0814
    2TMC3    C714415   3.827   3.264  15.048  0.3302 -0.0811 -1.1660
    2TMC3    C814416   3.728   2.860  15.193 -0.0471 -0.3670  0.2950
    2TMC3    O114417   3.716   3.296  15.088 -0.1589 -0.1103 -0.2375
    2TMC3    O214418   3.614   2.910  15.201  0.2543  0.3814  0.3482
    3TCq1    O114419   4.099   4.103  14.200 -0.1344  0.3092  0.4190
    3TCq1    C114420   4.218   4.048  14.218 -0.2378 -0.9125  0.6852
    3TCq1    O214421   4.319   4.101  14.176  0.2087  0.0968  0.7647
    3TCq1    C214422   4.214   3.993  14.356  0.1586  0.4766  0.4142
    3TCq1    C314423   4.328   4.001  14.431  0.1801 -0.4523 -0.6072
    3TCq1    C414424   4.323   3.949  14.558  0.2309  0.1557  0.4139
    3TCq1    C514425   4.217   3.876  14.597  0.2400  0.5227  0.2482
    3TCq1    C614426   4.105   3.858  14.517 -0.4503 -0.0888 -0.5615
    3TCq1    C714427   4.099   3.924  14.395  0.5069 -0.5179  0.6646
    3TCq1    C814428   3.981   3.809  14.577  0.5838 -0.2911  0.1813
    3TCq1    O414429   3.873   3.866  14.555 -0.5573  0.0673  0.3386
    3TCq1    C914430   4.432   3.958  14.645  0.7997 -0.0280  0.2797
    3TCq1    O514431   4.537   4.013  14.601 -0.2922  0.0660  0.0123
    3TCq1    O614432   4.420   3.899  14.757 -0.0878 -0.1778 -0.2528
    3TCq1    H114433   4.022   4.043  14.208  0.3209 -0.0036  2.3921
    3TCq1    H214434   4.416   4.054  14.395  1.6777 -2.4926  0.0061
    3TCq1    H314435   4.224   3.823  14.692 -0.3489  1.3248  0.7360
    3TCq1    H414436   4.021   3.886  14.331  1.8440 -1.3945 -0.4392
    4MPD2     C14437   3.767   3.648  14.722 -0.2974  0.0692  0.5073
    4MPD2    C114438   3.900   3.630  14.736  0.0480  0.1720  0.4267
    4MPD2    C214439   3.948   3.522  14.810  0.8865 -0.0910  0.2082
    4MPD2    C314440   3.863   3.435  14.866  0.2993  0.4865  0.0985
    4MPD2    C414441   3.729   3.454  14.847 -0.4481  0.7738  1.1394
    4MPD2    C514442   3.679   3.559  14.776  0.1123  0.1773  0.4004
    4MPD2     H14443   4.053   3.503  14.829  0.6711 -2.0385 -0.5422
    4MPD2    H114444   3.654   3.391  14.894  0.9521 -1.5965  0.2500
    4MPD2    H214445   3.720   3.717  14.653 -0.6400 -0.1637  0.5056
    4MPD2    H314446   3.572   3.569  14.758  0.2538 -1.9205 -1.6956
    4MPD2     N14447   3.908   3.331  14.955 -0.0575  0.6376  0.4383
    4MPD2    H514448   4.005   3.300  14.958 -1.0399 -2.3863  0.4605
    4MPD2    N114449   4.000   3.706  14.669  0.5808  0.3225  0.1868
    4MPD2    H714450   4.094   3.669  14.678  0.2213 -1.3337 -2.9751
    5TMC2    C114451   3.792   2.330  14.567 -0.0734  0.7245  0.0416
    5TMC2    C214452   3.859   2.230  14.634 -0.1726 -0.0863  0.2908
    5TMC2    C314453   3.997   2.244  14.635 -0.1752 -0.2358  0.0292
    5TMC2    C414454   3.854   2.425  14.495  0.0466  0.2554  0.5821
    5TMC2    C514455   3.995   2.439  14.507  0.0859 -0.4092 -0.2896
    5TMC2    C614456   4.064   2.350  14.577 -0.0871  0.2948 -0.1235
    5TMC2     C14457   3.691   2.381  14.660 -0.2830  1.1595  0.5432
    5TMC2     O14458   3.606   2.301  14.695  0.3703  0.2867 -0.0814
    5TMC2     H14459   3.811   2.176  14.714  1.2292 -1.4677  0.1957
    5TMC2    H114460   3.794   2.500  14.444 -1.2034 -1.4204 -0.4311
    5TMC2    H214461   4.172   2.346  14.585 -0.1505 -2.2088 -0.2778
    5TMC2    C714462   4.029   2.562  14.562  0.5573 -0.3120 -0.9782
    5TMC2    C814463   4.073   2.176  14.735  0.1498 -0.3408  0.4386
    5TMC2    O114464   3.932   2.627  14.598  0.1479 -0.6487  0.2517
    5TMC2    O214465   4.190   2.210  14.755 -0.4317  0.3283  0.1998
    5TMC2    O514466   4.024   2.047  14.733 -0.0489 -0.3679 -0.1759
    5TMC2    H514467   3.944   2.028  14.680 -1.3962  1.4907  1.2041
    6MPD2     C14468   3.544   2.657  15.057  0.6479  0.1344  0.0432
    6MPD2    C114469   3.674   2.689  15.019  0.0681  0.4781  0.6083
    6MPD2    C214470   3.731   2.639  14.906 -0.3435  0.3078  0.6604
    6MPD2    C314471   3.659   2.546  14.832  0.3648  0.4023  1.1064
    6MPD2    C414472   3.530   2.520  14.872  0.0376  0.1097 -0.0117
    6MPD2    C514473   3.466   2.583  14.975 -0.5848 -0.5135 -0.2705
    6MPD2     H14474   3.831   2.666  14.875  0.0872 -0.2328  1.5890
    6MPD2    H114475   3.466   2.461  14.807  0.4356 -1.8209  1.3494
    6MPD2    H214476   3.494   2.691  15.147  2.0675  0.1699  0.8205
    6MPD2    H314477   3.360   2.579  14.998 -0.1593 -1.2982  1.5339
    6MPD2     N14478   3.733   2.489  14.725  0.0023  0.1514  0.0745
    6MPD2    H514479   3.825   2.529  14.708 -0.4282  0.9316 -0.4245
    6MPD2    N114480   3.763   2.770  15.092 -0.1648  0.7377  0.0012
    6MPD2    H714481   3.857   2.770  15.055 -0.4078  0.0415 -0.6185
  945NH4     N114482   3.625   2.992   2.127  0.2509 -0.0525 -0.2987
  945NH4     H214483   3.622   3.017   2.026  0.2098  0.7593 -0.1000
  945NH4     H314484   3.559   2.912   2.128 -1.9373  1.7539 -0.9918
  945NH4     H414485   3.591   3.071   2.186  1.5597  0.1224  0.2113
  945NH4     H514486   3.714   2.948   2.158 -0.4836 -0.1704  1.6313
  946SOD     NA14487   1.634   2.707   7.339 -0.3216 -0.2564  0.0708
  947SOD     NA14488   3.240   2.015  14.155 -0.0621  0.1471 -0.5657
  948SOD     NA14489   2.548   3.260  11.996 -0.1236  0.3084 -0.3057
  949SOD     NA14490   1.930   1.274   7.303  0.4348  0.1574  0.3395
  950SOD     NA14491   4.490   0.843  17.171 -0.5212  0.3433  0.0657
  951SOD     NA14492   2.462   0.662   4.566  0.2150  0.1108 -0.1451
  952SOD     NA14493   0.973   0.051  14.061 -0.3127  0.2937  0.4097
  953SOL     OW14494   0.796   2.734  15.835  0.0334 -0.1050  0.4450
  953SOL    HW114495   0.725   2.779  15.790 -0.1069 -0.2155  0.5596
  953SOL    HW214496   0.817   2.670  15.767  0.2017  0.4846 -0.0534
  954SOL     OW14497   2.133   3.491   5.126  0.0892 -0.5255 -0.4324
  954SOL    HW114498   2.126   3.545   5.048  2.9186 -2.2836 -1.8726
  954SOL    HW214499   2.043   3.459   5.136  0.4727 -1.5381 -0.2708
  955SOL     OW14500   0.057   2.531  17.753  0.4179 -0.1954 -0.4466
  955SOL    HW114501   0.010   2.598  17.703 -0.7911  0.3090  1.3655
  955SOL    HW214502   0.103   2.484  17.683  1.4177 -0.3816  0.3306
  956SOL     OW14503   1.195   3.572   3.128  0.3379 -0.0551  0.7298
  956SOL    HW114504   1.109   3.581   3.168  0.3343  0.2038  0.6617
  956SOL    HW214505   1.211   3.479   3.113 -2.4611 -0.5125  0.5369
  957SOL     OW14506   2.312   0.540   4.697 -0.0001 -0.0984  0.5262
  957SOL    HW114507   2.312   0.457   4.746 -1.3893 -1.7631 -2.3254
  957SOL    HW214508   2.244   0.587   4.747 -2.6616 -1.6517 -1.6350
  958SOL     OW14509   0.563   2.718  16.966  0.5856 -0.0779 -0.1542
  958SOL    HW114510   0.617   2.723  16.887 -1.0594 -2.8765 -1.4420
  958SOL    HW214511   0.608   2.783  17.019  0.3289  1.0835 -1.3562
  959SOL     OW14512   4.182   4.005  12.915 -0.2690 -0.1122 -0.2940
  959SOL    HW114513   4.134   3.934  12.870 -1.7043  0.2044  0.7438
  959SOL    HW214514   4.129   4.077  12.880 -0.0699 -1.1156 -2.6965
  960SOL     OW14515   1.461   0.723   6.288  0.5429 -0.0437  0.5919
  960SOL    HW114516   1.452   0.788   6.218 -0.6566 -0.8463 -0.0107
  960SOL    HW214517   1.383   0.671   6.268  0.9395 -0.8369  1.1110
  961SOL     OW14518   2.756   4.387   4.747  0.1951  0.2720 -0.2911
  961SOL    HW114519   2.679   4.443   4.750  0.8201  1.2829 -3.2451
  961SOL    HW214520   2.725   4.314   4.801 -1.8036 -0.1268 -1.9838
  962SOL     OW14521   2.354   0.678   1.386  0.2199 -0.3758  0.1458
  962SOL    HW114522   2.426   0.619   1.409 -0.8584 -1.7356  0.0392
  962SOL    HW214523   2.292   0.629   1.333 -0.0799 -0.8541  0.9335
  963SOL     OW14524   1.130   4.388   8.904 -0.3996  0.1476  0.1088
  963SOL    HW114525   1.151   4.459   8.843  1.1260 -1.5954 -1.3772
  963SOL    HW214526   1.220   4.370   8.933 -0.8718 -1.6698  0.4409
  964SOL     OW14527   4.208   2.929   1.781  0.3183 -0.6613  0.3433
  964SOL    HW114528   4.193   3.006   1.835 -0.4587 -0.6251  0.0901
  964SOL    HW214529   4.208   2.979   1.699  1.7122  0.6468  1.1378
  965SOL     OW14530   2.398   0.850   4.950  0.0199 -0.0006  0.0766
  965SOL    HW114531   2.375   0.758   4.964  2.9818 -1.0303 -1.7497
  965SOL    HW214532   2.318   0.898   4.934  0.7490  1.2554  0.1849
  966SOL     OW14533   2.427   4.469  10.860  0.3771 -0.1208 -0.0590
  966SOL    HW114534   2.487   4.436  10.926 -1.2071  0.4793  1.6743
  966SOL    HW214535   2.366   4.528  10.905 -0.4588  0.1400 -1.5084
  967SOL     OW14536   4.690   3.681  16.312  0.4602  0.4315 -0.7202
  967SOL    HW114537   4.654   3.683  16.224 -1.1536 -0.5681 -0.0856
  967SOL    HW214538   4.692   3.586  16.322 -0.7276  0.3739 -1.0735
  968SOL     OW14539   3.917   2.829   3.384  0.1359  0.1726  0.4562
  968SOL    HW114540   3.995   2.780   3.357  1.2498  2.8884 -1.2812
  968SOL    HW214541   3.848   2.763   3.374  1.0560 -0.6474 -0.5966
  969SOL     OW14542   0.473   4.391  15.501  0.4203 -0.0725  0.5438
  969SOL    HW114543   0.415   4.338  15.446  0.3408  1.0751 -0.4791
  969SOL    HW214544   0.407   4.448  15.541  0.5355  1.3390 -1.2795
  970SOL     OW14545   1.695   2.337   9.267  0.2008 -1.0163 -0.5071
  970SOL    HW114546   1.600   2.332   9.278  0.0389  1.9083 -0.7016
  970SOL    HW214547   1.714   2.250   9.232 -0.2371 -1.3685  0.1180
  971SOL     OW14548   4.216   2.427   9.247  0.3635  0.3079  0.4978
  971SOL    HW114549   4.217   2.335   9.271  0.0062  0.0575 -0.4399
  971SOL    HW214550   4.194   2.408   9.156 -2.7270 -2.1467  1.7855
  972SOL     OW14551   0.903   3.902   7.110 -0.4097 -0.5345  0.6584
  972SOL    HW114552   0.824   3.941   7.147 -0.0707  1.0998 -0.3232
  972SOL    HW214553   0.918   3.829   7.169  2.7616 -0.6524 -0.3303
  973SOL     OW14554   0.720   3.367   0.408 -0.6289  0.2988 -0.6660
  973SOL    HW114555   0.805   3.377   0.365  0.1044  1.5405  1.0394
  973SOL    HW214556   0.669   3.311   0.350 -2.6815  0.0414  1.3782
  974SOL     OW14557   0.732   3.530   1.783  0.7611 -0.4517 -0.0062
  974SOL    HW114558   0.735   3.446   1.830 -0.9828 -0.0705  0.7810
  974SOL    HW214559   0.636   3.538   1.784  0.7667 -0.6092  1.7960
  975SOL     OW14560   0.552   2.828   9.329  0.3270  0.1092  0.2645
  975SOL    HW114561   0.514   2.915   9.342 -2.7033 -1.5100  2.1069
  975SOL    HW214562   0.476   2.775   9.354  1.2541 -1.1545  0.3916
  976SOL     OW14563   3.568   0.704  11.119 -0.0389 -0.1645 -0.2691
  976SOL    HW114564   3.526   0.764  11.057  0.3194  0.4217  0.0509
  976SOL    HW214565   3.624   0.760  11.173  0.5090  1.0005 -2.0607
  977SOL     OW14566   3.098   1.407   4.720  0.2047  0.0202  0.1970
  977SOL    HW114567   3.072   1.401   4.628 -1.5334 -1.5396  0.7825
  977SOL    HW214568   3.026   1.365   4.767 -0.5912  1.6223  0.3828
  978SOL     OW14569   3.722   3.858  14.989 -0.6730  0.4797 -0.8338
  978SOL    HW114570   3.788   3.791  15.008 -0.1778  1.0617 -0.5142
  978SOL    HW214571   3.731   3.909  15.070  0.0142  0.8562 -1.1528
  979SOL     OW14572   2.337   1.190   2.976  0.1852 -0.4580 -0.3416
  979SOL    HW114573   2.411   1.141   3.011 -0.4687 -1.2542 -0.0703
  979SOL    HW214574   2.368   1.195   2.885 -0.5701  0.2777 -0.5624
  980SOL     OW14575   0.590   0.549   1.889  0.2454 -0.2334 -0.5341
  980SOL    HW114576   0.625   0.553   1.978  2.0102 -0.1130 -1.2391
  980SOL    HW214577   0.634   0.474   1.848  2.8990  0.1067  1.6673
  981SOL     OW14578   3.504   2.774   6.576 -0.4821 -0.4113 -0.4535
  981SOL    HW114579   3.481   2.828   6.652  1.4922 -0.6290  0.2890
  981SOL    HW214580   3.416   2.738   6.562 -0.3644 -0.8955  0.0341
  982SOL     OW14581   4.280   0.190   3.747  0.7268 -0.1881 -0.1612
  982SOL    HW114582   4.339   0.172   3.674  0.2049  0.8173 -0.8358
  982SOL    HW214583   4.336   0.185   3.825 -1.4942  0.0859  1.4349
  983SOL     OW14584   0.508   4.438   7.901  0.5827  0.1159 -0.0916
  983SOL    HW114585   0.521   4.488   7.820 -0.5570  2.5827  1.2282
  983SOL    HW214586   0.495   4.512   7.961 -0.4330 -1.5061  1.6806
  984SOL     OW14587   3.234   3.113  14.455  0.2642  0.5174 -0.0358
  984SOL    HW114588   3.327   3.113  14.478  0.1324 -1.9835  0.4417
  984SOL    HW214589   3.248   3.126  14.361 -1.5942  1.4145 -0.1930
  985SOL     OW14590   3.224   1.160   5.602  0.2214 -0.0262  0.3307
  985SOL    HW114591   3.242   1.066   5.594  0.1182 -0.1857  1.9031
  985SOL    HW214592   3.294   1.177   5.665  0.2312  0.3662  0.2130
  986SOL     OW14593   0.033   1.560  17.000 -0.0605  0.4846 -0.2009
  986SOL    HW114594   4.721   1.485  17.025  1.7042 -0.9750 -0.6881
  986SOL    HW214595   0.071   1.540  16.914 -1.6899  0.7900 -0.9800
  987SOL     OW14596   3.989   3.037   7.779  0.0465  0.0439 -0.6358
  987SOL    HW114597   3.994   3.083   7.695  1.8054 -0.1751 -0.6698
  987SOL    HW214598   3.925   3.083   7.832  0.7436 -0.1084  0.3509
  988SOL     OW14599   3.680   3.098   7.136  0.5812  0.6525 -0.0146
  988SOL    HW114600   3.703   3.059   7.051 -0.6960  1.4744 -0.7390
  988SOL    HW214601   3.697   3.190   7.115  1.7720  1.1067  2.9525
  989SOL     OW14602   0.670   4.170   6.332  0.1887 -0.3344  0.0745
  989SOL    HW114603   0.679   4.250   6.384  0.0796 -0.1670 -0.1615
  989SOL    HW214604   0.575   4.163   6.326  0.0688  0.8554  0.6041
  990SOL     OW14605   0.672   2.863  17.328 -0.1732  0.2159 -0.6760
  990SOL    HW114606   0.646   2.807  17.401 -1.3861  0.3477 -1.0177
  990SOL    HW214607   0.589   2.873  17.282  0.1252 -0.5551 -1.3898
  991SOL     OW14608   4.361   2.682   9.192  0.3503  0.0066  0.7229
  991SOL    HW114609   4.329   2.599   9.227 -1.2748 -1.2272 -3.6245
  991SOL    HW214610   4.313   2.693   9.109  0.6210  0.1451  0.5839
  992SOL     OW14611   3.113   0.068  14.863 -0.2391  0.1484  0.7133
  992SOL    HW114612   3.197   0.023  14.874 -0.1272 -0.1939 -1.6361
  992SOL    HW214613   3.143   0.158  14.848 -0.0671  0.1071  0.8102
  993SOL     OW14614   2.571   1.849   8.513  0.1296 -0.5661 -0.4704
  993SOL    HW114615   2.562   1.840   8.608  0.8505  0.2908 -0.3255
  993SOL    HW214616   2.542   1.939   8.499 -0.6236 -0.9231 -1.1969
  994SOL     OW14617   1.910   3.623   9.011  0.0243  0.0418  0.1097
  994SOL    HW114618   1.858   3.595   9.087 -1.1911  1.6829 -0.1179
  994SOL    HW214619   2.001   3.613   9.039 -0.1819  0.2344  0.8560
  995SOL     OW14620   0.964   1.278  17.545  0.6020  0.1219 -0.0860
  995SOL    HW114621   1.014   1.358  17.529  0.2698 -0.1208 -2.3520
  995SOL    HW214622   0.934   1.257  17.456 -0.5513  0.0778  0.3162
  996SOL     OW14623   0.151   1.547   5.957  0.0287 -0.5461 -0.1908
  996SOL    HW114624   0.170   1.481   6.023  0.2753  0.1101  0.3982
  996SOL    HW214625   0.225   1.537   5.897 -0.9568  3.5098 -2.1341
  997SOL     OW14626   1.408   1.092   1.512 -0.4735 -0.0229  0.0091
  997SOL    HW114627   1.410   1.001   1.544  1.0882  0.4819  1.3710
  997SOL    HW214628   1.335   1.114   1.570  1.1362  1.2519  1.5405
  998SOL     OW14629   0.471   0.523  17.149 -0.4617  0.0255  0.0929
  998SOL    HW114630   0.446   0.575  17.225 -0.6488 -1.1012  0.7941
  998SOL    HW214631   0.477   0.435  17.187 -2.6476 -0.3889 -0.5410
  999SOL     OW14632   2.660   2.466  12.183 -0.5498  0.1333  0.0531
  999SOL    HW114633   2.746   2.479  12.223 -0.7720 -0.0381  0.5792
  999SOL    HW214634   2.633   2.378  12.210  0.1167 -0.1353 -0.1610
 1000SOL     OW14635   3.571   2.875   2.816 -0.8293 -0.2695  0.2568
 1000SOL    HW114636   3.479   2.854   2.835 -0.4473 -2.0047  0.1348
 1000SOL    HW214637   3.562   2.865   2.722  1.2561 -2.2315  0.2831
 1001SOL     OW14638   1.807   4.355   7.450 -0.1038 -0.0133  0.3004
 1001SOL    HW114639   1.841   4.415   7.516 -0.2638  1.5033 -0.9806
 1001SOL    HW214640   1.771   4.281   7.498  3.1415 -1.7799 -0.0372
 1002SOL     OW14641   3.107   1.438  10.726  0.2369 -0.0102 -0.0112
 1002SOL    HW114642   3.022   1.411  10.693  0.9246  0.8040 -2.4198
 1002SOL    HW214643   3.113   1.529  10.697 -0.1955 -0.2070 -0.7160
 1003SOL     OW14644   4.252   4.396   0.440 -0.1882 -0.2875 -0.0609
 1003SOL    HW114645   4.208   4.473   0.476  0.4088 -0.6910  1.5065
 1003SOL    HW214646   4.235   4.414   0.347  0.2344 -1.8181 -0.4256
 1004SOL     OW14647   1.172   3.111  17.196 -0.1779  0.0522  0.0199
 1004SOL    HW114648   1.100   3.067  17.150 -0.0959  0.2754 -0.3203
 1004SOL    HW214649   1.174   3.192  17.145  0.3060 -0.9383 -1.5318
 1005SOL     OW14650   4.515   3.860   0.183  0.0156 -0.6781 -0.7760
 1005SOL    HW114651   4.543   3.811   0.105  0.5038 -1.1189 -0.3220
 1005SOL    HW214652   4.567   3.821   0.253  0.3511 -0.7037 -1.0382
 1006SOL     OW14653   0.572   0.928  17.638  0.0499  0.6805 -0.0740
 1006SOL    HW114654   0.640   0.862  17.646  0.1391  0.8410  0.5558
 1006SOL    HW214655   0.618   1.003  17.601  1.8990 -0.2756  0.3030
 1007SOL     OW14656   2.144   0.963   4.908  0.1894 -0.0164  0.1427
 1007SOL    HW114657   2.181   1.032   4.853  3.3700 -2.2760 -0.5042
 1007SOL    HW214658   2.054   0.997   4.912 -1.2565 -3.8658  0.7303
 1008SOL     OW14659   0.706   0.594   3.335 -0.8411 -0.2436 -0.1557
 1008SOL    HW114660   0.789   0.581   3.381 -1.2019  1.7670  1.0840
 1008SOL    HW214661   0.677   0.670   3.384 -0.9709  1.6268 -3.1737
 1009SOL     OW14662   3.520   0.345  16.061  0.0190 -0.3537 -0.2342
 1009SOL    HW114663   3.584   0.408  16.028 -1.2751  0.8533 -0.4388
 1009SOL    HW214664   3.560   0.323  16.145 -0.9899 -1.9250 -0.1778
 1010SOL     OW14665   1.565   4.655   8.173 -0.0576 -0.6355 -0.0997
 1010SOL    HW114666   1.582   4.642   8.267 -1.3578  0.8917  0.3420
 1010SOL    HW214667   1.592   0.004   8.165 -0.7383 -0.3654  0.7773
 1011SOL     OW14668   0.570   4.001   4.210 -0.0160 -0.1426 -0.6990
 1011SOL    HW114669   0.535   4.048   4.134  3.3281  3.1052 -0.2132
 1011SOL    HW214670   0.544   4.057   4.283  1.7762  0.2404 -0.3604
 1012SOL     OW14671   1.232   2.811   7.780  0.3564  0.2787  0.3239
 1012SOL    HW114672   1.171   2.863   7.832  1.7104  0.9694  1.2314
 1012SOL    HW214673   1.301   2.874   7.758 -0.6770  0.1601 -3.2315
 1013SOL     OW14674   3.433   0.017   8.471 -0.3532  0.0536  0.3595
 1013SOL    HW114675   3.465   0.076   8.403  1.0683 -0.6248  0.4446
 1013SOL    HW214676   3.338   0.020   8.456 -0.1738  1.2333 -0.5347
 1014SOL     OW14677   4.470   2.886   5.372 -0.4923  0.6410 -0.2598
 1014SOL    HW114678   4.426   2.845   5.297  1.2217 -3.1283  0.7964
 1014SOL    HW214679   4.466   2.811   5.431  0.7441  0.6958 -0.1002
 1015SOL     OW14680   2.650   1.026   6.355 -0.5448 -0.1673 -0.7120
 1015SOL    HW114681   2.735   1.067   6.372 -1.4745  1.3637  0.1839
 1015SOL    HW214682   2.595   1.082   6.409  1.7903  1.2020  0.2259
 1016SOL     OW14683   2.979   2.353   1.890 -0.5355 -0.1015  0.3477
 1016SOL    HW114684   3.012   2.263   1.886 -1.5063 -0.3717 -1.1838
 1016SOL    HW214685   2.975   2.371   1.796  0.1928  2.0235  0.7245
 1017SOL     OW14686   2.227   3.139   8.980 -0.3248  0.0839  0.1568
 1017SOL    HW114687   2.224   3.203   9.052 -1.4679 -0.4782  0.6056
 1017SOL    HW214688   2.317   3.151   8.949 -0.1804  1.1748  0.9594
 1018SOL     OW14689   1.187   4.032  17.053  0.2117 -0.4070 -0.4378
 1018SOL    HW114690   1.176   3.937  17.042 -0.1250 -0.5904  1.5408
 1018SOL    HW214691   1.138   4.060  16.975 -0.6326 -0.9801 -0.1161
 1019SOL     OW14692   1.091   2.569   1.035 -0.1580  0.3535  0.1361
 1019SOL    HW114693   1.161   2.503   1.041 -0.4289  0.0449 -0.1062
 1019SOL    HW214694   1.057   2.556   0.947 -1.5014 -0.1912  0.7436
 1020SOL     OW14695   0.645   3.078  12.347  0.1445  0.3921  0.1172
 1020SOL    HW114696   0.597   3.017  12.404 -0.0308 -1.3342 -1.8744
 1020SOL    HW214697   0.639   3.035  12.262  1.0531  1.0621 -0.2819
 1021SOL     OW14698   2.049   3.446   7.538 -0.9606 -0.3629  0.0721
 1021SOL    HW114699   2.131   3.415   7.579 -0.7840  0.3159  0.2269
 1021SOL    HW214700   1.985   3.440   7.608 -0.3528  1.0385  0.7469
 1022SOL     OW14701   1.511   0.502   3.644 -0.1489  0.4477  0.1848
 1022SOL    HW114702   1.453   0.576   3.662 -0.2348 -0.1816  2.4104
 1022SOL    HW214703   1.471   0.452   3.572 -3.2943  2.0136  0.8373
 1023SOL     OW14704   0.322   2.260   7.073  0.5554 -0.5894  0.5233
 1023SOL    HW114705   0.361   2.336   7.116  1.6935  0.4939 -2.4511
 1023SOL    HW214706   0.299   2.295   6.988 -0.9213  0.3910  1.3239
 1024SOL     OW14707   3.603   4.065   0.066  0.2411  0.0922  0.2554
 1024SOL    HW114708   3.683   4.014   0.072  0.6302  0.4522 -1.9559
 1024SOL    HW214709   3.546   4.008   0.119  2.4036 -0.9501  1.4605
 1025SOL     OW14710   1.428   4.342   3.294 -0.5835  0.0810 -0.2579
 1025SOL    HW114711   1.349   4.370   3.338 -0.6843  0.5664 -0.7467
 1025SOL    HW214712   1.447   4.420   3.242 -1.1778 -0.2677 -1.0044
 1026SOL     OW14713   0.634   2.860   8.679  0.0058 -0.8098  0.0291
 1026SOL    HW114714   0.712   2.878   8.626 -0.7354 -1.7647 -1.3729
 1026SOL    HW214715   0.642   2.923   8.751 -1.4457  0.4530 -0.9071
 1027SOL     OW14716   4.053   0.655   3.224  0.5189  0.7215 -0.1832
 1027SOL    HW114717   4.059   0.613   3.310 -2.3275  0.5257 -0.0750
 1027SOL    HW214718   4.032   0.746   3.245  1.0136  0.8573 -0.2914
 1028SOL     OW14719   2.231   0.353   6.162  0.1269  0.4507  0.7087
 1028SOL    HW114720   2.269   0.410   6.230 -0.1042  1.4267  0.0140
 1028SOL    HW214721   2.151   0.327   6.207 -0.5776  0.6368 -0.4414
 1029SOL     OW14722   3.067   2.428  11.547  0.1857  0.6523 -0.3926
 1029SOL    HW114723   2.985   2.420  11.596  0.3554 -4.6598 -0.9008
 1029SOL    HW214724   3.112   2.490  11.604  0.9185 -1.6371  1.5350
 1030SOL     OW14725   2.344   3.583   5.268  0.3655 -0.8172 -0.5211
 1030SOL    HW114726   2.285   3.632   5.326 -0.2706 -1.4243 -0.6558
 1030SOL    HW214727   2.275   3.551   5.211  0.8694  1.4232 -2.3938
 1031SOL     OW14728   0.505   3.676  16.366 -0.6325 -0.0435  0.2240
 1031SOL    HW114729   0.528   3.597  16.415 -0.4966 -0.1972 -0.0878
 1031SOL    HW214730   0.565   3.682  16.292 -2.7319 -0.3068 -1.4831
 1032SOL     OW14731   2.044   4.151   2.156 -0.2273 -0.7843 -0.2144
 1032SOL    HW114732   2.029   4.243   2.181 -0.8295 -0.5539 -1.4194
 1032SOL    HW214733   2.125   4.160   2.107  0.6958  0.7943  1.5571
 1033SOL     OW14734   1.191   2.658   8.658 -0.0352  0.0894  0.0840
 1033SOL    HW114735   1.121   2.717   8.685  1.4648  2.2030 -0.6998
 1033SOL    HW214736   1.163   2.574   8.695  0.6285  0.7030  1.9761
 1034SOL     OW14737   2.488   4.147  14.434 -0.5217  0.1204  0.7713
 1034SOL    HW114738   2.542   4.076  14.400  1.2744  1.6696  0.3935
 1034SOL    HW214739   2.441   4.174  14.355 -0.8594 -2.5196  0.0834
 1035SOL     OW14740   2.781   1.827   3.869 -0.0247  0.0643 -0.4756
 1035SOL    HW114741   2.751   1.864   3.786 -0.4366  0.8624  0.0390
 1035SOL    HW214742   2.710   1.773   3.902 -0.2811  0.9072  0.3319
 1036SOL     OW14743   0.239   0.719   2.271  0.1413  0.7394 -0.3404
 1036SOL    HW114744   0.267   0.702   2.181 -1.2613 -0.5267 -0.5366
 1036SOL    HW214745   0.320   0.720   2.322 -0.0253  2.3973 -0.0946
 1037SOL     OW14746   1.788   4.554   2.986 -0.2504  0.2140 -0.2821
 1037SOL    HW114747   1.860   4.578   3.044 -0.5102  0.1696  0.0601
 1037SOL    HW214748   1.744   4.639   2.983 -2.3617 -0.8918 -0.9824
 1038SOL     OW14749   2.462   3.368   9.194  0.4104  0.1341  0.3464
 1038SOL    HW114750   2.379   3.329   9.222  0.6202 -0.6857 -0.1783
 1038SOL    HW214751   2.489   3.424   9.266 -1.2227  2.4849 -0.8544
 1039SOL     OW14752   3.402   4.078   6.908  0.1577 -0.2197  0.5531
 1039SOL    HW114753   3.369   4.087   6.819 -2.0429  1.3226  1.5410
 1039SOL    HW214754   3.373   4.159   6.949 -1.4608 -1.8465  2.6187
 1040SOL     OW14755   1.321   4.713  10.961 -0.1791 -0.2448 -0.1512
 1040SOL    HW114756   1.283   4.742  10.879 -2.0505  0.7554  1.0692
 1040SOL    HW214757   1.328   0.049  11.015 -0.6070 -0.5851  0.4011
 1041SOL     OW14758   3.372   3.797   6.318 -0.0706 -0.4447  0.1384
 1041SOL    HW114759   3.394   3.765   6.405 -4.0138 -1.4727  0.7621
 1041SOL    HW214760   3.318   3.720   6.297 -0.4564 -0.4808  1.2226
 1042SOL     OW14761   3.721   0.786   2.349  0.0704  0.1436 -0.7635
 1042SOL    HW114762   3.769   0.832   2.418  0.9364  0.9642 -1.9310
 1042SOL    HW214763   3.649   0.758   2.406 -0.6516  1.4293 -1.0287
 1043SOL     OW14764   1.804   1.494  13.988  0.4441 -0.2686  0.1196
 1043SOL    HW114765   1.841   1.582  13.995  0.8764 -0.5304  1.3116
 1043SOL    HW214766   1.869   1.452  14.045  1.4991  0.6187 -0.4139
 1044SOL     OW14767   1.759   0.425   3.357 -0.5451  0.3746  0.1828
 1044SOL    HW114768   1.757   0.405   3.263 -0.4616  0.3704  0.1817
 1044SOL    HW214769   1.682   0.381   3.392 -1.0085  1.2685  0.2759
 1045SOL     OW14770   0.375   4.485   2.992  0.0182 -0.2133 -0.3050
 1045SOL    HW114771   0.407   4.549   3.056  0.1235  0.9794 -1.5400
 1045SOL    HW214772   0.332   4.424   3.052 -0.5441  0.0583 -0.4252
 1046SOL     OW14773   1.208   1.192   6.275 -0.3691 -0.3820  0.0497
 1046SOL    HW114774   1.152   1.129   6.229  1.3606 -0.8933 -1.3463
 1046SOL    HW214775   1.200   1.266   6.214  1.5779 -1.2540 -1.2469
 1047SOL     OW14776   2.205   0.810   5.235  0.1108  0.1684 -0.3558
 1047SOL    HW114777   2.115   0.800   5.264  0.3799 -1.6311 -0.1110
 1047SOL    HW214778   2.234   0.898   5.259 -0.9673  0.6607 -0.8704
 1048SOL     OW14779   3.683   2.679   3.403 -0.4165  0.2931  0.4088
 1048SOL    HW114780   3.640   2.615   3.346 -2.6219  0.4903  1.8561
 1048SOL    HW214781   3.663   2.650   3.492  0.9068  1.8217  1.2064
 1049SOL     OW14782   4.180   0.471  13.744  0.0750 -0.3850  0.6329
 1049SOL    HW114783   4.189   0.482  13.838 -0.7281  2.6520  0.3652
 1049SOL    HW214784   4.272   0.446  13.730 -0.3153 -0.7892 -1.2301
 1050SOL     OW14785   3.430   4.391   8.751  0.4875  0.4349 -0.0292
 1050SOL    HW114786   3.467   4.308   8.782  2.1929  1.7702  1.5215
 1050SOL    HW214787   3.363   4.394   8.819  0.7394 -0.6407  0.2555
 1051SOL     OW14788   1.027   2.154   4.089 -0.1560 -0.2690 -0.0191
 1051SOL    HW114789   1.115   2.184   4.108 -1.0355  0.5157  2.7161
 1051SOL    HW214790   0.985   2.206   4.157  0.2747  1.0049 -0.7378
 1052SOL     OW14791   4.524   3.673   4.397  0.2984 -0.1402 -0.0273
 1052SOL    HW114792   4.470   3.701   4.471 -1.6166  0.1430 -1.5259
 1052SOL    HW214793   4.565   3.599   4.443 -0.7979 -1.1887 -0.7205
 1053SOL     OW14794   0.977   3.698   0.661 -0.5102 -0.7346 -0.2295
 1053SOL    HW114795   0.919   3.633   0.701 -0.3133  0.8328  2.6147
 1053SOL    HW214796   1.043   3.702   0.730 -0.6642 -0.9129 -0.0702
 1054SOL     OW14797   3.161   3.180   5.020 -0.1279 -0.3021 -0.3243
 1054SOL    HW114798   3.086   3.157   5.076  1.3271 -1.6930  1.0306
 1054SOL    HW214799   3.181   3.268   5.050  1.4568 -0.7072 -0.1887
 1055SOL     OW14800   0.381   1.072   8.692  0.3123  0.0125  0.6302
 1055SOL    HW114801   0.467   1.101   8.723  0.0901 -1.4677  2.6398
 1055SOL    HW214802   0.396   1.064   8.598 -0.5978  0.8415  0.4212
 1056SOL     OW14803   1.748   2.877  16.559 -0.5996  0.4857 -0.5776
 1056SOL    HW114804   1.712   2.962  16.535  1.9351  1.6006 -0.3377
 1056SOL    HW214805   1.671   2.821  16.543  0.1349 -0.7235  0.1474
 1057SOL     OW14806   0.549   4.274   6.926  0.0612  0.6093  0.1841
 1057SOL    HW114807   0.473   4.326   6.899 -0.7851 -0.5826  0.2875
 1057SOL    HW214808   0.609   4.334   6.971 -0.0481  0.0582  1.0851
 1058SOL     OW14809   3.129   3.175   0.297  0.0530  0.3191 -0.7726
 1058SOL    HW114810   3.069   3.120   0.347  0.4677 -0.5927 -1.2887
 1058SOL    HW214811   3.081   3.183   0.214 -0.2773  1.2392 -0.5023
 1059SOL     OW14812   4.238   3.050   2.025  0.3707  0.4801  0.0196
 1059SOL    HW114813   4.330   3.072   2.010  0.2501  0.4546 -0.7479
 1059SOL    HW214814   4.189   3.132   2.026  0.9831  0.7951  2.6969
 1060SOL     OW14815   4.438   0.273   8.861 -0.0125 -0.2287  0.5272
 1060SOL    HW114816   4.493   0.350   8.877  0.5585 -0.8507  1.5228
 1060SOL    HW214817   4.494   0.198   8.881  2.4121  0.9121 -1.9897
 1061SOL     OW14818   2.105   3.996   5.892 -0.3489  0.1412  0.2894
 1061SOL    HW114819   2.031   3.999   5.953 -0.1311  1.9108  0.4525
 1061SOL    HW214820   2.058   3.969   5.813  1.8972 -0.1342 -0.9597
 1062SOL     OW14821   4.702   0.024   2.746  0.5526 -0.2655 -0.3193
 1062SOL    HW114822   4.741   4.695   2.798  1.4322  0.7589  0.4333
 1062SOL    HW214823   4.613   0.034   2.779  0.3522  0.0964 -0.9779
 1063SOL     OW14824   3.523   3.663  12.518 -0.5312  0.1045  0.0526
 1063SOL    HW114825   3.452   3.659  12.453 -2.6073  0.9540  2.2409
 1063SOL    HW214826   3.532   3.758  12.530  0.9323  0.0409 -0.6374
 1064SOL     OW14827   1.764   2.783   5.337 -0.2876  0.7942 -0.2842
 1064SOL    HW114828   1.672   2.766   5.359 -0.3899 -2.3417 -3.1464
 1064SOL    HW214829   1.766   2.875   5.364  2.0386  0.6912 -0.1600
 1065SOL     OW14830   4.267   0.416   4.018 -0.6713  0.4875  0.2392
 1065SOL    HW114831   4.290   0.323   4.026 -0.1141  0.6868  0.9672
 1065SOL    HW214832   4.339   0.466   3.979 -0.9379  0.7144  0.0413
 1066SOL     OW14833   2.838   1.118   0.519  0.2989 -0.7159  0.5201
 1066SOL    HW114834   2.834   1.213   0.525 -1.7502 -0.8988  1.9481
 1066SOL    HW214835   2.861   1.114   0.426 -1.2326 -0.0120  0.1090
 1067SOL     OW14836   4.581   2.919   1.662  0.1406  0.6019  0.2648
 1067SOL    HW114837   4.671   2.946   1.645 -0.0877  0.5043 -1.1239
 1067SOL    HW214838   4.593   2.886   1.751 -1.0912 -0.0829  0.1818
 1068SOL     OW14839   2.087   2.812   5.209 -0.0930 -0.5222 -0.2914
 1068SOL    HW114840   2.127   2.745   5.264 -0.2698 -0.3325  0.0686
 1068SOL    HW214841   2.027   2.761   5.156 -2.2372  1.5072  0.1835
 1069SOL     OW14842   0.787   1.219   3.285 -0.2531  0.2235  0.9344
 1069SOL    HW114843   0.807   1.279   3.356 -1.2524  0.7036  0.8070
 1069SOL    HW214844   0.862   1.159   3.285 -0.3021  0.1818  2.6489
 1070SOL     OW14845   3.219   1.028   2.460 -0.1804 -0.7233 -0.0201
 1070SOL    HW114846   3.200   1.090   2.390 -0.6974 -2.2530 -1.2285
 1070SOL    HW214847   3.132   0.988   2.464  0.1247 -1.4834 -0.9902
 1071SOL     OW14848   3.424   3.365   5.291 -0.5010 -0.3245 -0.4992
 1071SOL    HW114849   3.430   3.309   5.214  0.4425 -2.1422  0.9010
 1071SOL    HW214850   3.446   3.450   5.252 -2.0763  0.0134 -0.6303
 1072SOL     OW14851   0.225   2.450   8.630  0.8309  0.1658 -0.1379
 1072SOL    HW114852   0.319   2.443   8.648  1.1613 -0.4195 -2.1011
 1072SOL    HW214853   0.216   2.544   8.649 -0.1895  0.6461 -3.0815
 1073SOL     OW14854   1.753   0.715   5.569  0.0851 -0.4592  0.8837
 1073SOL    HW114855   1.788   0.741   5.654  1.7367  1.3314 -0.3582
 1073SOL    HW214856   1.707   0.635   5.595  2.6837 -2.0581  0.5781
 1074SOL     OW14857   4.444   3.230   2.367  0.1784  0.2521 -0.0039
 1074SOL    HW114858   4.435   3.263   2.456  2.5015  1.8083 -0.3434
 1074SOL    HW214859   4.356   3.232   2.331 -0.2563  1.5404  1.1347
 1075SOL     OW14860   0.596   3.254  15.151 -0.1678  0.5651  0.5348
 1075SOL    HW114861   0.605   3.162  15.175  0.4067  0.0272 -1.7614
 1075SOL    HW214862   0.523   3.283  15.206 -1.6906 -2.3109 -0.0128
 1076SOL     OW14863   1.836   0.948   4.588  0.1218  0.1052 -0.2182
 1076SOL    HW114864   1.751   0.958   4.544  0.6345 -0.7278 -1.4188
 1076SOL    HW214865   1.815   0.970   4.678  0.6101  0.1491 -0.1169
 1077SOL     OW14866   2.445   2.081   8.519 -0.2793 -0.3710  0.0346
 1077SOL    HW114867   2.443   2.150   8.453 -2.9148  2.2784  2.8873
 1077SOL    HW214868   2.421   2.125   8.601 -0.2062  0.4789 -0.4015
 1078SOL     OW14869   0.857   4.399   4.084 -0.5658  0.3302  0.3635
 1078SOL    HW114870   0.943   4.438   4.069 -0.7394  0.1372 -1.1067
 1078SOL    HW214871   0.881   4.319   4.133 -0.3225  0.2143  0.0553
 1079SOL     OW14872   0.138   4.183   9.099  0.1076 -0.4646 -0.6929
 1079SOL    HW114873   0.060   4.193   9.153  2.2403  1.2214  2.0686
 1079SOL    HW214874   0.114   4.149   9.012  2.5775 -1.6882 -0.9137
 1080SOL     OW14875   2.318   3.812   6.166 -0.5645  0.1127 -0.9378
 1080SOL    HW114876   2.348   3.795   6.255 -0.3143 -1.9990 -1.4279
 1080SOL    HW214877   2.227   3.828   6.190 -0.9006 -0.2616 -1.9642
 1081SOL     OW14878   2.845   2.094  17.737 -0.3947  0.0795  0.3937
 1081SOL    HW114879   2.792   2.139   0.037 -0.0644  1.3915 -0.2364
 1081SOL    HW214880   2.932   2.133  17.746 -0.6330  0.1081  2.5033
 1082SOL     OW14881   2.170   4.254  13.378  0.2030 -0.2679 -0.0505
 1082SOL    HW114882   2.084   4.212  13.368 -0.2043  0.8254 -1.0383
 1082SOL    HW214883   2.145   4.346  13.386  2.6924  0.3336  0.8075
 1083SOL     OW14884   1.510   1.091   9.671  0.0436  0.2615  0.0389
 1083SOL    HW114885   1.574   1.091   9.743 -1.5975  0.7908  1.5094
 1083SOL    HW214886   1.425   1.087   9.716 -0.9994 -0.7096 -1.9993
 1084SOL     OW14887   1.243   1.688   5.506 -0.0286 -0.2953 -0.2783
 1084SOL    HW114888   1.281   1.641   5.581  1.0784  0.6692 -0.2231
 1084SOL    HW214889   1.248   1.621   5.438  1.5362 -0.9744  0.4985
 1085SOL     OW14890   1.104   4.112   0.035 -0.9424  0.9712 -0.1211
 1085SOL    HW114891   1.087   4.176  17.732  0.5737 -0.3938 -1.7636
 1085SOL    HW214892   1.012   4.103   0.061 -1.0161  2.0391 -0.0306
 1086SOL     OW14893   3.690   2.585   6.028 -0.0586  0.2236  0.7124
 1086SOL    HW114894   3.750   2.513   6.007 -1.2773 -0.6838  0.3466
 1086SOL    HW214895   3.704   2.640   5.951  1.1703 -1.1001 -0.0271
 1087SOL     OW14896   3.427   2.927   3.685  0.0220 -0.6645 -0.2040
 1087SOL    HW114897   3.353   2.957   3.632 -0.1016 -1.2086 -0.3336
 1087SOL    HW214898   3.478   3.006   3.704 -0.6510 -1.0471  3.3315
 1088SOL     OW14899   4.506   1.218   5.695 -0.1681  0.2905  0.1302
 1088SOL    HW114900   4.510   1.143   5.755  0.1277  2.0159  2.2544
 1088SOL    HW214901   4.596   1.244   5.678 -0.4327  0.1057 -1.5204
 1089SOL     OW14902   3.702   4.502   7.026  0.7657 -0.0451  0.5691
 1089SOL    HW114903   3.743   4.544   7.102  0.4039 -0.9666  1.2747
 1089SOL    HW214904   3.647   4.575   7.000 -1.2237 -2.0655 -0.8299
 1090SOL     OW14905   0.965   0.165  12.912  0.0992 -0.1189 -0.0807
 1090SOL    HW114906   0.899   0.232  12.932  0.2224 -0.4515  1.4829
 1090SOL    HW214907   0.913   0.088  12.937  0.7520  0.1018  1.9950
 1091SOL     OW14908   1.213   0.837   5.550 -0.0989 -0.8334  0.9657
 1091SOL    HW114909   1.193   0.745   5.566  0.3037 -1.1163 -0.1708
 1091SOL    HW214910   1.238   0.843   5.458 -0.6142 -0.7744  0.8258
 1092SOL     OW14911   4.032   1.898   7.118  0.3584  0.4073  0.7473
 1092SOL    HW114912   3.990   1.948   7.048 -2.6642 -0.5317  1.9025
 1092SOL    HW214913   4.124   1.921   7.104  0.6037 -0.4916  0.8667
 1093SOL     OW14914   2.682   1.929   6.779 -0.4711 -0.6633 -0.0736
 1093SOL    HW114915   2.625   2.004   6.765 -1.0419 -0.3477  3.9363
 1093SOL    HW214916   2.682   1.886   6.693 -1.5998 -2.9386  1.0667
 1094SOL     OW14917   4.069   4.394   8.194  0.4583 -0.1296 -0.2018
 1094SOL    HW114918   4.134   4.341   8.240  1.6883  0.2022 -1.5545
 1094SOL    HW214919   4.021   4.418   8.273 -0.2191 -2.1932  0.0188
 1095SOL     OW14920   1.589   2.542   0.325  0.1836  0.2309 -0.1782
 1095SOL    HW114921   1.536   2.538   0.405  0.8458  1.1293  0.3201
 1095SOL    HW214922   1.547   2.623   0.297  0.6351 -0.2311 -2.1536
 1096SOL     OW14923   1.150   0.457   3.211  0.2445 -0.0239  0.0790
 1096SOL    HW114924   1.114   0.528   3.157  0.6029  1.1639  1.4230
 1096SOL    HW214925   1.075   0.399   3.197  2.1606 -2.0752 -1.7700
 1097SOL     OW14926   2.226   3.006   5.099  0.2621  0.3019  0.4230
 1097SOL    HW114927   2.258   3.044   5.180  2.2088  0.8498 -0.6108
 1097SOL    HW214928   2.169   2.939   5.138  0.3918 -0.7752 -1.2346
 1098SOL     OW14929   2.368   2.371   6.833 -0.0504 -0.2145  0.8012
 1098SOL    HW114930   2.463   2.367   6.819 -0.0621  1.3178  0.2682
 1098SOL    HW214931   2.366   2.456   6.875  1.6561 -0.3437  1.1240
 1099SOL     OW14932   3.475   4.163   7.501  0.0640 -0.0856  0.3779
 1099SOL    HW114933   3.414   4.095   7.471 -0.8186  0.3238  1.2413
 1099SOL    HW214934   3.545   4.114   7.544  0.2206  1.3958  1.7828
 1100SOL     OW14935   0.694   2.950   2.989 -0.1627 -1.0832 -0.7233
 1100SOL    HW114936   0.616   3.005   2.980 -0.4146 -1.3249  0.0086
 1100SOL    HW214937   0.746   2.981   3.064  1.7131 -3.6440 -0.9644
 1101SOL     OW14938   4.469   3.200  14.588 -0.0631  0.2202 -0.0918
 1101SOL    HW114939   4.406   3.145  14.541 -2.2884  0.0111  3.0508
 1101SOL    HW214940   4.481   3.271  14.526 -0.9026  0.2903 -0.1837
 1102SOL     OW14941   4.732   4.228   7.419 -0.2982 -0.0857 -0.1955
 1102SOL    HW114942   0.051   4.294   7.386  2.5655 -1.9847  1.3425
 1102SOL    HW214943   0.021   4.147   7.380 -0.6878 -0.8312  1.0417
 1103SOL     OW14944   1.993   4.347  11.595  0.4672  0.0086  0.3589
 1103SOL    HW114945   1.966   4.267  11.639  0.1472 -0.1546 -0.1259
 1103SOL    HW214946   2.009   4.411  11.664  0.5398  1.5501 -1.0605
 1104SOL     OW14947   0.938   1.023  14.071 -0.0629  0.7911  0.2543
 1104SOL    HW114948   1.018   1.006  14.023 -0.7771 -1.2055 -0.2494
 1104SOL    HW214949   0.948   1.118  14.073  0.8934  0.6458  1.9751
 1105SOL     OW14950   0.646   4.686   0.196  0.4813  0.0185  0.5102
 1105SOL    HW114951   0.598   4.605   0.216 -0.8738  0.2253 -1.8933
 1105SOL    HW214952   0.601   0.016   0.241  0.8162  0.3938  0.2434
 1106SOL     OW14953   0.523   0.137  13.006  0.2926 -0.5614  0.3155
 1106SOL    HW114954   0.517   0.075  13.079 -1.6626 -0.7648 -0.0285
 1106SOL    HW214955   0.431   0.146  12.982  0.5881  0.9095 -0.3131
 1107SOL     OW14956   2.812   1.649   4.875  0.3897  0.0576  0.2795
 1107SOL    HW114957   2.882   1.611   4.929 -1.1839 -2.4428  0.5339
 1107SOL    HW214958   2.866   1.702   4.816  0.3981 -1.9208 -1.4591
 1108SOL     OW14959   2.434   4.260   1.813 -0.2097 -0.3820 -0.0853
 1108SOL    HW114960   2.429   4.306   1.730  0.8972 -0.3257 -0.1179
 1108SOL    HW214961   2.460   4.174   1.781  0.7170  0.3898 -1.3643
 1109SOL     OW14962   2.433   3.497  15.949 -0.4362  0.0377 -0.4014
 1109SOL    HW114963   2.471   3.445  15.879  2.1196  0.4004  0.7233
 1109SOL    HW214964   2.437   3.578  15.899  0.6270 -0.5351 -1.2275
 1110SOL     OW14965   4.435   1.682   8.755  0.3073 -0.1503 -0.3690
 1110SOL    HW114966   4.512   1.683   8.811 -0.1726 -0.9319  0.2994
 1110SOL    HW214967   4.365   1.636   8.802  0.7096  1.0367  1.3908
 1111SOL     OW14968   0.461   4.031  17.492 -0.1904  0.1479  0.3187
 1111SOL    HW114969   0.508   4.043  17.409  1.1802  1.6066  1.2930
 1111SOL    HW214970   0.378   4.005  17.452 -0.0238 -0.7437  0.5532
 1112SOL     OW14971   4.316   3.612   0.250  0.7173 -0.2069  0.3200
 1112SOL    HW114972   4.397   3.634   0.203  0.3864 -0.1710 -0.2362
 1112SOL    HW214973   4.274   3.697   0.249 -2.1776 -1.6665 -1.3618
 1113SOL     OW14974   1.447   3.174   8.953 -0.0622  0.1528  0.0987
 1113SOL    HW114975   1.433   3.113   9.025  0.6582  1.0152  0.9613
 1113SOL    HW214976   1.363   3.209   8.926  0.2502  3.8507  4.0129
 1114SOL     OW14977   0.217   3.923   4.127 -0.2328  0.0542  0.5907
 1114SOL    HW114978   0.275   3.848   4.137  0.1843  0.1254 -1.4931
 1114SOL    HW214979   0.137   3.892   4.171  0.3409 -0.0524  1.5587
 1115SOL     OW14980   4.219   0.136   2.945  0.0105 -0.3805  0.0413
 1115SOL    HW114981   4.131   0.134   2.906  0.4734 -0.2883 -1.0298
 1115SOL    HW214982   4.224   0.207   3.009 -3.0194  0.4856 -0.6520
 1116SOL     OW14983   4.678   4.231  13.970  0.0244  0.1755  0.0478
 1116SOL    HW114984   4.642   4.143  13.983 -1.4005  0.5211 -1.6148
 1116SOL    HW214985   4.642   4.278  14.045 -0.2379 -0.3234  0.2361
 1117SOL     OW14986   3.273   4.707   5.336  0.2605  0.3588  0.0694
 1117SOL    HW114987   3.267   4.626   5.387  1.2344  2.1278  2.9754
 1117SOL    HW214988   3.234   0.028   5.396  0.5095  1.9498 -1.4591
 1118SOL     OW14989   3.968   2.779  17.707 -0.3035 -0.0857  0.1609
 1118SOL    HW114990   3.910   2.730  17.649  0.1043 -0.5434  0.1321
 1118SOL    HW214991   3.917   2.853  17.740 -0.1892 -0.6960  1.7075
 1119SOL     OW14992   3.604   3.090   7.513  0.1027 -0.7019  0.7938
 1119SOL    HW114993   3.612   3.019   7.577 -1.8657  0.9680  2.9033
 1119SOL    HW214994   3.683   3.066   7.465 -0.0027  1.2626 -0.3606
 1120SOL     OW14995   2.762   4.448  14.704 -0.0181  0.0399  0.2894
 1120SOL    HW114996   2.786   4.539  14.722 -0.7089  0.5751 -1.5007
 1120SOL    HW214997   2.787   4.444  14.612  1.0592 -0.1008  0.5878
 1121SOL     OW14998   2.173   2.855  16.648  0.2542  0.1218  0.0545
 1121SOL    HW114999   2.107   2.788  16.669  1.5862 -0.8899  1.0347
 1121SOL    HW215000   2.117   2.932  16.650  0.5462  0.2928  2.0141
 1122SOL     OW15001   0.599   4.097   3.674  0.0349 -0.4250  0.0977
 1122SOL    HW115002   0.563   4.169   3.622  3.5165  0.9586 -0.4679
 1122SOL    HW215003   0.690   4.124   3.689  0.3222 -1.9063  1.0544
 1123SOL     OW15004   2.314   1.959   5.355 -0.2121  0.7892 -0.2259
 1123SOL    HW115005   2.274   1.959   5.267  1.6271 -1.6617 -1.0657
 1123SOL    HW215006   2.396   1.912   5.345  0.5413  1.8480  1.1610
 1124SOL     OW15007   0.601   2.115   8.287 -0.1766 -0.4990  0.1268
 1124SOL    HW115008   0.655   2.193   8.279  0.9885 -1.3120 -0.0129
 1124SOL    HW215009   0.651   2.037   8.263  1.3481  0.8104 -0.9131
 1125SOL     OW15010   0.813   3.117   7.978  1.0112  0.1455  0.0207
 1125SOL    HW115011   0.758   3.120   8.057  0.5558  1.0280 -0.3250
 1125SOL    HW215012   0.809   3.207   7.947 -0.1311  0.2135  0.3601
 1126SOL     OW15013   0.233   2.656   7.923 -0.2817  0.1173 -0.5178
 1126SOL    HW115014   0.294   2.728   7.907 -1.2108  1.0997  0.3742
 1126SOL    HW215015   0.177   2.706   7.983 -0.9759 -3.2092  1.5983
 1127SOL     OW15016   4.293   0.946   8.181  0.3680 -0.9656  0.0482
 1127SOL    HW115017   4.289   1.034   8.146  0.7970 -0.1179  2.1012
 1127SOL    HW215018   4.359   0.955   8.250  1.7106 -1.5837 -1.1788
 1128SOL     OW15019   2.114   3.489   5.614  0.4130  0.0205 -0.2216
 1128SOL    HW115020   2.054   3.563   5.613  1.6097  0.9984  0.2544
 1128SOL    HW215021   2.182   3.526   5.557  0.0284  0.5678 -0.3262
 1129SOL     OW15022   1.737   4.095   7.780  0.0368  0.7158 -0.1958
 1129SOL    HW115023   1.825   4.122   7.806 -0.1158  0.5013  0.5454
 1129SOL    HW215024   1.723   4.110   7.686  0.3500 -0.2095 -0.3897
 1130SOL     OW15025   1.074   0.970   4.912  0.7124  0.4759 -0.1026
 1130SOL    HW115026   1.130   1.032   4.866  2.4641 -0.5839  0.6006
 1130SOL    HW215027   0.991   1.015   4.930 -0.3462 -1.3144 -0.4826
 1131SOL     OW15028   1.558   4.572   5.077 -0.1493  0.4773  0.5425
 1131SOL    HW115029   1.545   4.611   4.990  1.8059  1.1519  0.5512
 1131SOL    HW215030   1.505   4.624   5.137 -1.8137  0.3605 -0.8106
 1132SOL     OW15031   1.955   0.706   3.927 -0.5589 -0.1392  0.5264
 1132SOL    HW115032   1.904   0.718   3.847  0.5823 -1.5058 -0.4107
 1132SOL    HW215033   1.890   0.712   3.996 -0.1160 -0.2445  0.9526
 1133SOL     OW15034   3.438   2.941  10.442 -0.0921 -0.1502  0.3305
 1133SOL    HW115035   3.420   2.849  10.461 -2.4355  0.0644 -0.8923
 1133SOL    HW215036   3.458   2.928  10.350 -0.8498 -1.2069  0.3092
 1134SOL     OW15037   2.381   4.499  16.442 -0.0631 -0.0324  0.1036
 1134SOL    HW115038   2.476   4.490  16.433  0.0134  2.1249 -1.2058
 1134SOL    HW215039   2.360   4.409  16.467  1.2314 -0.3077  0.2339
 1135SOL     OW15040   3.811   2.866  11.850  0.0726  0.6477  0.6713
 1135SOL    HW115041   3.863   2.936  11.888  0.4908  1.0256 -0.5970
 1135SOL    HW215042   3.792   2.906  11.765 -0.2115  0.3057  0.5680
 1136SOL     OW15043   1.763   4.257   3.709 -0.0763  0.2073  0.6821
 1136SOL    HW115044   1.718   4.286   3.629  0.5182  2.3557  1.1170
 1136SOL    HW215045   1.815   4.183   3.679 -1.2140 -0.4825  0.3878
 1137SOL     OW15046   4.247   3.589   2.415 -0.4664  0.1040 -0.5030
 1137SOL    HW115047   4.184   3.633   2.358 -1.2512  0.4969  0.6847
 1137SOL    HW215048   4.322   3.581   2.356  0.7637 -2.1172  1.3641
 1138SOL     OW15049   1.753   0.469   8.064  0.3055  0.2086 -0.2134
 1138SOL    HW115050   1.745   0.509   8.150 -1.2570 -1.5791  0.4737
 1138SOL    HW215051   1.693   0.521   8.010  0.7863  2.9647  1.9707
 1139SOL     OW15052   1.220   2.056   7.852 -0.0897 -0.1536  0.4107
 1139SOL    HW115053   1.242   2.118   7.782 -0.2775 -1.4306 -0.7743
 1139SOL    HW215054   1.238   2.112   7.928  0.8737 -0.6973  0.5841
 1140SOL     OW15055   4.462   2.243   2.331 -0.2123 -0.3095  0.8442
 1140SOL    HW115056   4.539   2.189   2.312 -0.5631 -0.1694 -0.9757
 1140SOL    HW215057   4.477   2.271   2.422  0.8305 -0.3064  0.6725
 1141SOL     OW15058   2.528   2.770   5.207 -0.2624 -0.3860  0.3639
 1141SOL    HW115059   2.532   2.724   5.123 -0.0898 -1.7309  1.1114
 1141SOL    HW215060   2.558   2.695   5.258  1.3937  0.9545  1.3495
 1142SOL     OW15061   2.327   0.883   6.421  0.0661 -0.6929  0.2217
 1142SOL    HW115062   2.276   0.854   6.345  2.0466 -1.2886 -0.8883
 1142SOL    HW215063   2.413   0.844   6.404  0.5699 -0.1211  1.4407
 1143SOL     OW15064   1.957   4.429   6.042  0.1969 -0.5191 -0.1275
 1143SOL    HW115065   1.913   4.436   6.127  2.2955 -0.8800  0.9995
 1143SOL    HW215066   1.911   4.356   6.000  1.5479 -1.1313 -0.5527
 1144SOL     OW15067   3.810   3.516   6.795  0.3200  0.1991 -0.4191
 1144SOL    HW115068   3.722   3.480   6.781 -0.5040  1.5118  1.3306
 1144SOL    HW215069   3.857   3.484   6.718  0.2082  0.5901 -0.6491
 1145SOL     OW15070   1.441   1.245   2.959 -0.1031 -0.2393  0.1334
 1145SOL    HW115071   1.398   1.293   2.888 -0.3840 -0.3929  0.1993
 1145SOL    HW215072   1.427   1.306   3.032  1.7629  0.5694 -0.1770
 1146SOL     OW15073   0.156   4.379   2.032  0.4463 -0.0445  0.8005
 1146SOL    HW115074   0.136   4.367   2.125  0.1940  0.4703  0.8127
 1146SOL    HW215075   0.066   4.387   2.002 -0.0576 -2.9068  1.5385
 1147SOL     OW15076   4.662   0.254   4.073 -0.4416  0.1345  0.4493
 1147SOL    HW115077   4.677   0.175   4.124  2.1484 -1.2513 -2.4956
 1147SOL    HW215078   0.009   0.287   4.081 -0.0936 -1.0551  1.3484
 1148SOL     OW15079   0.360   4.205   2.035 -0.0257 -0.0640 -0.4690
 1148SOL    HW115080   0.428   4.224   1.970  0.4715  1.4544  0.5195
 1148SOL    HW215081   0.283   4.251   2.002  1.1853  0.6933 -2.2779
 1149SOL     OW15082   3.393   4.694  11.772 -0.5893 -0.1282  0.2288
 1149SOL    HW115083   3.321   4.660  11.824 -0.6508 -0.3960 -0.0265
 1149SOL    HW215084   3.453   4.682  11.845  0.3921  0.7253 -0.4260
 1150SOL     OW15085   0.407   0.634   4.145 -0.2783  0.3852  0.0905
 1150SOL    HW115086   0.373   0.644   4.234  2.4326 -0.7542  1.2574
 1150SOL    HW215087   0.385   0.712   4.094  0.1470 -0.8497 -1.9800
 1151SOL     OW15088   4.029   2.473   0.924 -0.3317 -0.5259 -0.6303
 1151SOL    HW115089   4.034   2.569   0.933 -1.3675 -0.7464  2.5324
 1151SOL    HW215090   4.053   2.433   1.008 -0.0215  3.6323  1.3159
 1152SOL     OW15091   4.052   2.631   8.672 -0.0205 -0.0587  0.2070
 1152SOL    HW115092   4.044   2.541   8.641 -1.0566 -0.4157  1.4919
 1152SOL    HW215093   3.971   2.671   8.641 -0.0275  0.7876  1.3111
 1153SOL     OW15094   3.042   4.455   0.862 -0.4546  0.2866 -0.2187
 1153SOL    HW115095   2.961   4.409   0.841 -0.2965  0.1521 -0.5244
 1153SOL    HW215096   3.088   4.433   0.781 -1.1324 -2.5525  0.1406
 1154SOL     OW15097   1.357   3.912   4.552 -0.1167  0.5107 -0.5692
 1154SOL    HW115098   1.330   3.833   4.504 -0.2557 -1.0918  2.1755
 1154SOL    HW215099   1.408   3.968   4.494 -1.4035 -0.0345 -2.2270
 1155SOL     OW15100   0.121   2.129   3.716 -0.1645  0.1897  0.0932
 1155SOL    HW115101   0.077   2.147   3.799 -2.2202 -0.5624 -0.8357
 1155SOL    HW215102   0.212   2.133   3.747  0.0767 -0.3741 -0.5332
 1156SOL     OW15103   0.577   1.407   6.886 -0.2361 -0.1106  1.0261
 1156SOL    HW115104   0.551   1.494   6.917  0.2744  1.1400 -1.9951
 1156SOL    HW215105   0.667   1.395   6.916 -0.0585  0.1945  0.6210
 1157SOL     OW15106   1.546   0.917  14.530  0.3696  0.7137 -0.2329
 1157SOL    HW115107   1.586   0.903  14.616  0.4233  1.4611 -0.1360
 1157SOL    HW215108   1.458   0.951  14.548 -0.2172 -1.9076  1.8282
 1158SOL     OW15109   2.430   2.696   9.019 -0.0409  0.1851 -0.3684
 1158SOL    HW115110   2.399   2.765   9.077  1.0424  0.1627  0.2347
 1158SOL    HW215111   2.432   2.620   9.076 -0.1094 -0.8441 -1.7251
 1159SOL     OW15112   1.389   3.274   5.407 -0.5123  0.7880 -0.3833
 1159SOL    HW115113   1.420   3.249   5.494 -0.3200  1.4722 -0.2599
 1159SOL    HW215114   1.429   3.360   5.398  0.0721  0.5515 -0.0349
 1160SOL     OW15115   0.899   1.317   6.327 -0.0952 -0.1210 -0.3142
 1160SOL    HW115116   0.806   1.310   6.350 -0.0595  1.0084  0.2065
 1160SOL    HW215117   0.936   1.232   6.351  0.7862  0.7559  1.4702
 1161SOL     OW15118   0.542   3.945   8.625  0.1896  0.4738  0.2201
 1161SOL    HW115119   0.497   4.014   8.674  0.3762  0.5288  0.3120
 1161SOL    HW215120   0.471   3.890   8.591 -0.3889  0.7456  0.9769
 1162SOL     OW15121   1.898   3.337  16.957  0.4774  0.4033  0.2870
 1162SOL    HW115122   1.858   3.424  16.950  0.5401  0.3095 -1.2311
 1162SOL    HW215123   1.851   3.290  16.888  0.7641  0.1852  0.2404
 1163SOL     OW15124   3.696   4.357   4.882 -0.4203  0.4466 -0.2666
 1163SOL    HW115125   3.683   4.443   4.924 -1.4166  0.1272  0.0919
 1163SOL    HW215126   3.619   4.343   4.826  0.6188 -1.1866 -1.2648
 1164SOL     OW15127   2.082   0.874  14.620 -0.5664  0.3954  0.1003
 1164SOL    HW115128   2.085   0.831  14.706  0.9479  1.6501  0.6758
 1164SOL    HW215129   2.024   0.946  14.645 -0.2538  1.8336 -3.3619
 1165SOL     OW15130   2.646   4.570   6.139  0.0619 -0.2412  0.3809
 1165SOL    HW115131   2.670   4.484   6.173 -3.1237 -1.7675 -1.2712
 1165SOL    HW215132   2.731   4.613   6.140  0.2498 -0.6186  0.6500
 1166SOL     OW15133   1.122   1.950   5.572 -0.1893  0.1490 -0.1841
 1166SOL    HW115134   1.110   1.870   5.522 -0.3997 -1.4965  2.4817
 1166SOL    HW215135   1.207   1.982   5.542 -0.1610  1.1891  0.9834
 1167SOL     OW15136   3.591   2.531   5.678 -0.0029  0.4020  0.1604
 1167SOL    HW115137   3.518   2.578   5.718  1.5045  2.5276  0.4008
 1167SOL    HW215138   3.647   2.516   5.754 -0.5287 -0.7032  0.3429
 1168SOL     OW15139   0.578   4.284  12.390 -0.0671 -0.9559 -0.0639
 1168SOL    HW115140   0.638   4.316  12.457  0.5565  0.0483 -1.0965
 1168SOL    HW215141   0.636   4.262  12.318  0.7910 -0.6720  0.5400
 1169SOL     OW15142   4.497   3.260   3.883  0.1887 -0.4897 -0.0849
 1169SOL    HW115143   4.444   3.247   3.804 -0.4369 -0.6092  0.3520
 1169SOL    HW215144   4.460   3.339   3.922 -0.9081 -0.3928 -1.3203
 1170SOL     OW15145   2.747   1.679   0.189 -0.3375  0.2988  0.2331
 1170SOL    HW115146   2.804   1.705   0.116  0.2848  2.3541  1.4744
 1170SOL    HW215147   2.739   1.761   0.237  1.0116 -0.0852  1.1037
 1171SOL     OW15148   1.516   2.356   8.571  0.1259  0.2494  0.4718
 1171SOL    HW115149   1.564   2.426   8.526 -0.8494  1.0145  0.6181
 1171SOL    HW215150   1.588   2.322   8.624 -0.7753 -0.4393  1.2416
 1172SOL     OW15151   1.719   0.387   2.583  0.0448 -0.2881  0.1677
 1172SOL    HW115152   1.808   0.414   2.605  0.0960 -0.2906 -0.0348
 1172SOL    HW215153   1.746   0.346   2.501  0.3971  0.1346  0.0713
 1173SOL     OW15154   0.312   3.245   9.495  0.1581  0.0978  0.0546
 1173SOL    HW115155   0.336   3.175   9.434 -0.0885  0.6270 -0.6489
 1173SOL    HW215156   0.330   3.203   9.579 -1.1862 -0.2569  0.1666
 1174SOL     OW15157   1.361   1.786   4.036 -0.2793  0.0177 -0.0584
 1174SOL    HW115158   1.430   1.768   4.099 -1.0784  1.6282  1.2794
 1174SOL    HW215159   1.314   1.705   4.016  1.7424 -0.7676 -1.5699
 1175SOL     OW15160   1.340   0.675   9.294  0.1634  0.7262  0.2549
 1175SOL    HW115161   1.322   0.585   9.319  2.1060  0.7581  1.8412
 1175SOL    HW215162   1.433   0.660   9.275 -0.0425 -1.3434  0.9749
 1176SOL     OW15163   3.795   0.575   8.847  0.2598 -0.1405  0.1766
 1176SOL    HW115164   3.777   0.581   8.753 -1.9136 -0.7990  0.5625
 1176SOL    HW215165   3.849   0.655   8.850  1.0361 -0.6725  0.4295
 1177SOL     OW15166   3.457   3.336  15.081 -0.7679 -0.6693  0.3944
 1177SOL    HW115167   3.552   3.321  15.085 -0.5332  0.4877 -0.9706
 1177SOL    HW215168   3.437   3.417  15.127  0.1279 -0.0818 -0.2516
 1178SOL     OW15169   2.317   2.637   4.458 -0.3064  0.3656  0.2727
 1178SOL    HW115170   2.405   2.649   4.493  0.1821  0.8467 -1.1479
 1178SOL    HW215171   2.329   2.569   4.392 -0.7686  0.1961  0.3635
 1179SOL     OW15172   3.620   4.345  11.606 -0.3116 -0.2588  0.0942
 1179SOL    HW115173   3.610   4.338  11.511  0.4977 -2.8554  0.2121
 1179SOL    HW215174   3.668   4.428  11.610  0.6425 -0.9264  2.3266
 1180SOL     OW15175   1.626   0.160  12.602  0.7281  0.2799 -0.4212
 1180SOL    HW115176   1.720   0.148  12.616  0.5540  0.5155  0.9523
 1180SOL    HW215177   1.603   0.073  12.569  2.2708 -0.7603  1.2017
 1181SOL     OW15178   4.220   2.831   2.173 -0.4853  0.3248  0.2754
 1181SOL    HW115179   4.224   2.915   2.129  0.1524 -0.2580 -0.7827
 1181SOL    HW215180   4.147   2.848   2.233 -1.2317 -2.1470  0.0901
 1182SOL     OW15181   3.041   3.291   7.537 -0.2898  0.8871 -0.5755
 1182SOL    HW115182   3.114   3.307   7.597 -1.5295  1.3975  0.7658
 1182SOL    HW215183   3.044   3.373   7.488  2.7241  0.6388 -0.8317
 1183SOL     OW15184   1.780   3.905   6.781 -0.5288 -0.4132  0.2317
 1183SOL    HW115185   1.705   3.964   6.785  0.0353  0.3031  0.1434
 1183SOL    HW215186   1.830   3.913   6.863 -1.6120  1.3521  0.7156
 1184SOL     OW15187   0.725   1.523  10.686  0.4014 -0.2153  0.0344
 1184SOL    HW115188   0.758   1.573  10.760 -0.4585 -1.6293  1.3601
 1184SOL    HW215189   0.638   1.514  10.726 -0.1871  0.8934 -0.9916
 1185SOL     OW15190   3.594   0.871   1.913 -0.4328  0.0639  0.2817
 1185SOL    HW115191   3.514   0.890   1.963 -0.9310  0.6052 -0.7320
 1185SOL    HW215192   3.656   0.896   1.982  0.3389 -1.1107  0.0100
 1186SOL     OW15193   4.585   3.643   1.151  0.0395 -0.4481  0.3580
 1186SOL    HW115194   4.675   3.648   1.120 -0.5081  1.2701 -0.9501
 1186SOL    HW215195   4.594   3.594   1.233 -0.1275 -1.0081  0.0443
 1187SOL     OW15196   1.865   1.273  10.450  0.5430  0.0067  0.0770
 1187SOL    HW115197   1.787   1.233  10.412 -1.0411  0.6535  2.6230
 1187SOL    HW215198   1.891   1.200  10.505 -2.3492  1.1854  2.9720
 1188SOL     OW15199   2.439   1.094  16.525  0.3220 -0.0767  0.0262
 1188SOL    HW115200   2.441   1.057  16.614 -1.3670  0.7502  0.3978
 1188SOL    HW215201   2.350   1.068  16.505 -0.3118 -0.0116  2.6716
 1189SOL     OW15202   4.361   2.095  14.484 -0.4815 -0.1358  0.3888
 1189SOL    HW115203   4.410   2.020  14.450 -0.7527  0.6659 -1.7546
 1189SOL    HW215204   4.323   2.066  14.567  3.6707  1.6704  2.9596
 1190SOL     OW15205   1.147   2.692  11.883  0.0356 -0.1117 -0.1634
 1190SOL    HW115206   1.075   2.685  11.946 -1.3509  1.1583 -1.5994
 1190SOL    HW215207   1.094   2.726  11.811 -0.2569  1.5503  0.8330
 1191SOL     OW15208   1.589   0.912   3.659  0.1292 -0.1488  0.9193
 1191SOL    HW115209   1.609   1.000   3.627 -2.0440  0.6066  1.6895
 1191SOL    HW215210   1.618   0.862   3.582 -0.6625  0.1082  0.4528
 1192SOL     OW15211   1.693   4.406   4.792  0.8756 -0.0443  0.7296
 1192SOL    HW115212   1.681   4.378   4.883 -0.2835 -2.0879 -0.0588
 1192SOL    HW215213   1.726   4.495   4.808 -2.1276  1.0238  1.0070
 1193SOL     OW15214   0.496   2.034  15.778  0.6944 -0.2996 -0.0755
 1193SOL    HW115215   0.474   1.965  15.840 -1.4884 -0.4590 -1.0069
 1193SOL    HW215216   0.414   2.059  15.734 -0.0643  2.0268  2.6415
 1194SOL     OW15217   3.211   0.125  10.810 -0.3040 -0.7872  0.3191
 1194SOL    HW115218   3.281   0.071  10.773  0.7213  1.4670 -1.0273
 1194SOL    HW215219   3.234   0.154  10.898 -0.1435 -2.0544  0.7019
 1195SOL     OW15220   0.948   2.899   3.956 -0.4863 -0.3304  1.2069
 1195SOL    HW115221   0.888   2.825   3.944  1.1413 -1.2662 -1.1611
 1195SOL    HW215222   0.944   2.893   4.051 -2.1658 -3.4131  0.9431
 1196SOL     OW15223   3.622   1.079  10.747  0.0189  0.5222 -0.4611
 1196SOL    HW115224   3.557   1.149  10.758  0.1841  0.7014 -0.6329
 1196SOL    HW215225   3.580   1.030  10.676 -0.0456  0.1523 -0.1652
 1197SOL     OW15226   3.386   0.587   2.351  0.2365 -0.2677  0.4153
 1197SOL    HW115227   3.445   0.513   2.361 -0.8244 -1.0715  0.6480
 1197SOL    HW215228   3.428   0.653   2.407 -0.1651  0.3989 -0.0616
 1198SOL     OW15229   1.991   3.932   0.810  0.2450 -0.0025 -0.3365
 1198SOL    HW115230   2.062   3.995   0.799 -0.5035  1.1502  1.2967
 1198SOL    HW215231   1.918   3.993   0.824 -1.4590 -2.1682  0.0974
 1199SOL     OW15232   2.958   2.613   3.851  0.4838 -0.1697 -0.2045
 1199SOL    HW115233   2.898   2.540   3.836  0.7349 -0.0583 -1.7602
 1199SOL    HW215234   2.998   2.633   3.766 -1.4032 -0.2484 -1.1094
 1200SOL     OW15235   0.088   1.859   0.567  0.2187 -0.0054 -0.1497
 1200SOL    HW115236   0.074   1.767   0.590 -1.6479 -0.2379 -2.2919
 1200SOL    HW215237   0.134   1.845   0.485  0.0412  0.1180 -0.2681
 1201SOL     OW15238   1.677   4.386  12.627  0.2236  0.5384  0.2374
 1201SOL    HW115239   1.739   4.343  12.568  0.2963  1.4287 -0.3236
 1201SOL    HW215240   1.609   4.318  12.628  1.4043 -0.6502 -0.0601
 1202SOL     OW15241   0.948   2.171   0.248 -0.2137 -0.3627 -0.5895
 1202SOL    HW115242   0.941   2.247   0.306 -2.4618 -0.1393 -1.1531
 1202SOL    HW215243   1.041   2.150   0.239 -0.4124 -1.5903  0.2508
 1203SOL     OW15244   1.840   2.705   6.193 -0.1722  0.4366  0.0424
 1203SOL    HW115245   1.858   2.714   6.099 -1.0174 -2.3250 -0.3621
 1203SOL    HW215246   1.837   2.610   6.195 -0.0373  0.4033 -1.0042
 1204SOL     OW15247   3.229   3.434   0.121  0.1743 -0.1930  0.1177
 1204SOL    HW115248   3.303   3.495   0.124 -1.5610  2.0299 -1.9951
 1204SOL    HW215249   3.260   3.344   0.116 -1.1591 -0.7411  1.8737
 1205SOL     OW15250   3.842   3.729   8.515  0.5925  0.0419 -0.2627
 1205SOL    HW115251   3.937   3.735   8.506  0.6095  0.8358  0.3248
 1205SOL    HW215252   3.827   3.670   8.442 -1.1113 -0.4298  0.4787
 1206SOL     OW15253   4.211   2.308   2.219 -0.1250 -0.0692  0.0709
 1206SOL    HW115254   4.293   2.283   2.263  0.4135  0.6908 -0.4975
 1206SOL    HW215255   4.225   2.399   2.191  0.1416  1.0061  3.6879
 1207SOL     OW15256   0.132   0.290   2.183  0.3015  0.0440 -0.0954
 1207SOL    HW115257   0.049   0.333   2.163 -1.2862 -2.0618  1.9030
 1207SOL    HW215258   0.155   0.340   2.261  2.1285 -1.5275  0.3703
 1208SOL     OW15259   1.915   1.567   8.651  0.3115 -0.6627  0.2012
 1208SOL    HW115260   1.885   1.590   8.563 -1.6215 -0.6040  0.8755
 1208SOL    HW215261   1.973   1.638   8.678 -0.9997  1.4086 -2.3753
 1209SOL     OW15262   1.438   0.017  12.883 -0.2805 -0.0839 -0.3643
 1209SOL    HW115263   1.389   0.068  12.818 -1.6034  2.3264  2.4967
 1209SOL    HW215264   1.460   4.684  12.829 -0.9897 -1.7630  1.6965
 1210SOL     OW15265   0.175   3.104   6.716 -0.2032  0.1206 -0.1241
 1210SOL    HW115266   0.200   3.110   6.623 -3.0261  0.2614 -0.8832
 1210SOL    HW215267   0.251   3.143   6.758 -0.1307 -0.5719  0.3796
 1211SOL     OW15268   3.983   0.860   6.250 -0.1128  0.2164 -0.0810
 1211SOL    HW115269   3.953   0.810   6.325  0.7670 -0.6112 -0.2787
 1211SOL    HW215270   4.074   0.843   6.274 -0.5824 -0.5781  1.1121
 1212SOL     OW15271   2.741   1.061   4.957 -0.3569  0.2983 -0.5429
 1212SOL    HW115272   2.762   1.002   4.884  4.1800  0.9516  0.2598
 1212SOL    HW215273   2.784   1.144   4.934  0.9103 -0.2374 -0.0811
 1213SOL     OW15274   4.715   0.254   9.015 -0.4207 -0.5601  0.0987
 1213SOL    HW115275   4.667   0.172   9.027 -1.3973 -0.0070 -0.0620
 1213SOL    HW215276   4.720   0.249   8.920 -2.4634  0.0427 -0.0337
 1214SOL     OW15277   4.466   1.850   1.928  0.2943 -0.1745  0.2147
 1214SOL    HW115278   4.511   1.775   1.890 -1.1272 -1.4184  0.9917
 1214SOL    HW215279   4.526   1.879   1.997  0.6326  0.8577 -0.5142
 1215SOL     OW15280   1.115   4.687   3.553  0.2557 -0.4607 -0.5319
 1215SOL    HW115281   1.069   4.678   3.636 -1.4229  0.1024 -1.4052
 1215SOL    HW215282   1.090   0.031   3.521 -1.1008 -0.2058  1.2217
 1216SOL     OW15283   2.217   1.160  13.319  0.0054 -0.2471 -0.1990
 1216SOL    HW115284   2.131   1.116  13.319  0.2232 -0.6648 -0.8432
 1216SOL    HW215285   2.234   1.183  13.228 -1.6429  0.4280 -0.3373
 1217SOL     OW15286   1.439   2.221   8.066  0.1084 -0.2027  0.0659
 1217SOL    HW115287   1.354   2.262   8.083  0.6122  0.2871  1.3561
 1217SOL    HW215288   1.498   2.296   8.060  0.3942 -0.4822 -0.6389
 1218SOL     OW15289   0.158   2.229   4.269  0.6225  0.0890  0.0400
 1218SOL    HW115290   0.180   2.200   4.357 -1.3135 -2.0283 -0.1704
 1218SOL    HW215291   0.068   2.261   4.279  0.8537  0.6488  0.3107
 1219SOL     OW15292   4.343   0.185  10.664  0.1689 -0.0949  0.5362
 1219SOL    HW115293   4.393   0.109  10.693 -0.0926 -1.8312 -3.4416
 1219SOL    HW215294   4.279   0.145  10.604  0.2592 -0.0332  0.3985
 1220SOL     OW15295   1.764   4.641   6.968 -0.1705 -0.4837  0.1289
 1220SOL    HW115296   1.779   4.576   7.037  0.9720 -1.2076 -0.8175
 1220SOL    HW215297   1.755   4.579   6.895  0.9005  0.2439 -0.6046
 1221SOL     OW15298   0.471   3.873  10.699 -0.5946  0.3332 -0.5702
 1221SOL    HW115299   0.448   3.927  10.623 -0.4017 -1.0518 -1.6051
 1221SOL    HW215300   0.419   3.793  10.689 -0.1010 -0.1036  0.4166
 1222SOL     OW15301   3.881   0.668  16.171 -0.1955  0.7334  0.6300
 1222SOL    HW115302   3.917   0.634  16.089 -0.7880 -1.4236  1.2641
 1222SOL    HW215303   3.942   0.738  16.194 -1.6990  2.5994 -1.1107
 1223SOL     OW15304   0.771   1.175  13.853  0.3373  0.3754 -0.5607
 1223SOL    HW115305   0.792   1.217  13.936  0.1701  0.7568 -0.7125
 1223SOL    HW215306   0.706   1.229  13.809 -0.0737 -0.3283 -0.8123
 1224SOL     OW15307   2.673   1.476   6.168  0.8565 -0.0160  0.1472
 1224SOL    HW115308   2.697   1.422   6.243 -0.6492 -2.2476 -0.9733
 1224SOL    HW215309   2.752   1.492   6.115  0.7882  0.3339  0.1488
 1225SOL     OW15310   3.626   0.523  15.250  0.4463 -0.6121  0.0573
 1225SOL    HW115311   3.684   0.501  15.178 -0.0259 -1.0002 -0.2029
 1225SOL    HW215312   3.627   0.438  15.294 -1.9138 -0.1043  1.1569
 1226SOL     OW15313   0.008   1.090   6.379  0.2371  0.2754 -0.3180
 1226SOL    HW115314   0.042   1.116   6.464 -0.5198  0.1676  0.0129
 1226SOL    HW215315   0.018   0.995   6.378 -0.9629  0.1704 -2.4092
 1227SOL     OW15316   0.131   1.780   6.109 -0.2720 -0.2794  0.4762
 1227SOL    HW115317   0.153   1.748   6.197 -2.8730  0.5245  1.4261
 1227SOL    HW215318   0.131   1.700   6.057 -1.1161 -0.3913  0.6427
 1228SOL     OW15319   1.794   4.419  10.062  0.4857 -0.0573 -0.4690
 1228SOL    HW115320   1.698   4.423  10.057  0.6274  0.6362 -2.7654
 1228SOL    HW215321   1.823   4.503  10.027  1.6622 -1.2456 -2.3709
 1229SOL     OW15322   1.634   4.581   8.448  0.2052  0.4325  0.1681
 1229SOL    HW115323   1.699   4.542   8.507 -1.4401  1.3110  2.5400
 1229SOL    HW215324   1.553   4.558   8.493 -0.4546  1.2171 -0.6052
 1230SOL     OW15325   0.737   3.827  10.570 -0.0377  0.2944  0.0584
 1230SOL    HW115326   0.719   3.872  10.488  2.2903  0.1970 -0.4845
 1230SOL    HW215327   0.688   3.890  10.623 -0.8736  0.3487 -0.7902
 1231SOL     OW15328   2.666   1.615   7.896 -0.3488  0.5227  0.0443
 1231SOL    HW115329   2.754   1.593   7.865  0.1949 -0.4845  2.3270
 1231SOL    HW215330   2.640   1.539   7.948  0.4665  1.6617  2.1268
 1232SOL     OW15331   1.719   2.877   9.566 -0.0892  0.6953 -0.5892
 1232SOL    HW115332   1.651   2.810   9.581  1.7933 -1.5370 -2.1187
 1232SOL    HW215333   1.702   2.928   9.645 -0.3844 -0.3290  0.0145
 1233SOL     OW15334   1.603   3.005  16.237 -0.1749 -0.1838 -0.2135
 1233SOL    HW115335   1.600   2.925  16.184  1.2940 -0.2379 -0.2200
 1233SOL    HW215336   1.630   3.070  16.172 -0.7008  1.5006  1.2656
 1234SOL     OW15337   0.405   3.427   3.966  0.0489 -0.2385 -0.4741
 1234SOL    HW115338   0.334   3.465   4.019  0.7948 -0.2471  0.5350
 1234SOL    HW215339   0.413   3.336   3.995  0.7789 -0.2821 -0.8117
 1235SOL     OW15340   2.277   3.483   9.938 -0.3497  0.4732  0.3804
 1235SOL    HW115341   2.312   3.432  10.011 -0.1688 -1.8244 -1.3217
 1235SOL    HW215342   2.214   3.417   9.910  0.0120 -1.3998  3.9513
 1236SOL     OW15343   3.287   3.913   7.374 -0.6023  0.2449 -0.4038
 1236SOL    HW115344   3.214   3.934   7.432 -1.4207 -0.4856 -1.1852
 1236SOL    HW215345   3.263   3.964   7.297  0.3040  0.0513 -0.8193
 1237SOL     OW15346   2.236   2.967   6.078  0.2008  0.3587 -0.5818
 1237SOL    HW115347   2.170   3.023   6.037 -0.5877  0.6557  1.1011
 1237SOL    HW215348   2.302   3.033   6.098  0.7122 -1.2144  3.0126
 1238SOL     OW15349   4.355   3.879   0.593 -0.1212 -0.3861 -0.1012
 1238SOL    HW115350   4.279   3.934   0.575  0.1211  0.1735  0.6035
 1238SOL    HW215351   4.387   3.888   0.503 -0.2158 -1.0852 -0.2057
 1239SOL     OW15352   0.096   0.110   7.261  0.4902 -0.5395  0.1996
 1239SOL    HW115353   0.007   0.109   7.296 -0.1562  1.3641 -1.3724
 1239SOL    HW215354   0.111   0.201   7.284 -1.6402  0.2134 -1.3993
 1240SOL     OW15355   0.707   3.009   9.128  0.0233  0.0130 -0.3785
 1240SOL    HW115356   0.680   3.090   9.171 -2.6366 -0.2829 -1.4510
 1240SOL    HW215357   0.665   2.945   9.185  0.8884  0.9321  1.2755
 1241SOL     OW15358   3.453   1.904   5.797 -0.4573  0.4575 -0.2296
 1241SOL    HW115359   3.366   1.876   5.825 -0.5754  0.7192 -0.3288
 1241SOL    HW215360   3.513   1.847   5.845 -0.8601 -0.2582 -0.5776
 1242SOL     OW15361   4.709   3.600   6.279 -0.1799  0.6034  0.2249
 1242SOL    HW115362   4.665   3.636   6.202  0.5536  2.2087  0.5529
 1242SOL    HW215363   4.709   3.671   6.343 -3.2746  1.3132 -0.5766
 1243SOL     OW15364   2.883   2.267   2.636  1.0961  0.3161  0.1598
 1243SOL    HW115365   2.967   2.275   2.591  1.1104 -0.8688 -0.0209
 1243SOL    HW215366   2.822   2.252   2.563 -0.5247  2.1891  1.1037
 1244SOL     OW15367   0.434   2.389   0.159 -0.0001 -0.5615 -0.2731
 1244SOL    HW115368   0.414   2.297   0.175 -0.5153 -0.3358  0.4432
 1244SOL    HW215369   0.431   2.397   0.064  1.5970 -0.3591 -0.3025
 1245SOL     OW15370   4.581   0.422   6.186  0.3177  0.8879  0.1187
 1245SOL    HW115371   4.671   0.407   6.215 -0.4162 -1.6395  1.0440
 1245SOL    HW215372   4.535   0.345   6.219 -0.5742  2.3990  2.3919
 1246SOL     OW15373   1.848   3.760  17.452  0.2172 -0.2990 -0.0493
 1246SOL    HW115374   1.914   3.719  17.397  1.2317 -0.2834  1.1502
 1246SOL    HW215375   1.769   3.708  17.437  0.0420 -0.0382 -0.0402
 1247SOL     OW15376   3.349   2.999   5.058 -0.2025  0.3788  0.0497
 1247SOL    HW115377   3.279   3.055   5.026 -1.5276 -1.4963 -0.2951
 1247SOL    HW215378   3.413   3.069   5.070 -0.5941  0.7161  0.1568
 1248SOL     OW15379   1.050   0.217  12.176 -0.1615  0.1727 -0.0707
 1248SOL    HW115380   1.085   0.174  12.099  2.2159  1.8350  0.0729
 1248SOL    HW215381   1.027   0.302  12.137 -0.6708 -1.3465 -3.0479
 1249SOL     OW15382   2.140   3.833   2.024 -0.1326 -0.7417 -0.2521
 1249SOL    HW115383   2.154   3.854   1.932  1.6928 -4.3943 -0.8035
 1249SOL    HW215384   2.224   3.856   2.064 -0.4098  1.5239 -1.0213
 1250SOL     OW15385   1.237   3.926  16.747  0.2847 -0.2693  0.1529
 1250SOL    HW115386   1.286   3.892  16.672  1.6590  0.5070  0.7141
 1250SOL    HW215387   1.177   3.989  16.708  3.2214  1.8216 -0.9472
 1251SOL     OW15388   2.008   3.011  13.547 -0.1530 -0.3484  0.0909
 1251SOL    HW115389   1.929   3.060  13.527  0.3648  0.4846  0.1080
 1251SOL    HW215390   1.975   2.927  13.514 -0.2732  0.4515 -1.8412
 1252SOL     OW15391   4.240   2.944   9.936 -0.1918 -0.3721  0.1476
 1252SOL    HW115392   4.328   2.933   9.970 -1.2815 -2.8796  2.0630
 1252SOL    HW215393   4.184   2.935  10.013 -0.6724 -1.0917 -0.2915
 1253SOL     OW15394   3.881   3.895   5.905  0.8124  0.5130 -0.1923
 1253SOL    HW115395   3.791   3.863   5.912  0.2673  2.0777 -0.1645
 1253SOL    HW215396   3.877   3.975   5.853  1.6921 -0.6252 -2.0279
 1254SOL     OW15397   1.102   2.764   0.070  0.0606 -0.2007  0.0989
 1254SOL    HW115398   1.037   2.834   0.070  0.4891  0.2010 -2.8065
 1254SOL    HW215399   1.163   2.810   0.012 -0.6990  0.0526 -0.5015
 1255SOL     OW15400   3.763   4.093   0.678  0.0082 -0.5087 -0.3231
 1255SOL    HW115401   3.786   4.107   0.770  0.7470 -1.0148 -0.4344
 1255SOL    HW215402   3.846   4.050   0.661  0.2935 -0.4168  0.8257
 1256SOL     OW15403   4.550   1.413   1.145 -0.1024  0.6184 -0.1224
 1256SOL    HW115404   4.546   1.423   1.240 -2.4353 -1.1521 -0.0396
 1256SOL    HW215405   4.462   1.444   1.123 -0.4842 -1.7995 -2.0048
 1257SOL     OW15406   1.636   3.472  11.011 -0.0160  0.1579 -0.5753
 1257SOL    HW115407   1.656   3.414  10.938  2.9988  1.0160 -0.4382
 1257SOL    HW215408   1.702   3.441  11.074 -2.4557 -0.8407  1.4605
 1258SOL     OW15409   3.319   4.262   5.559 -0.9258 -0.0767  0.4695
 1258SOL    HW115410   3.401   4.302   5.531 -0.5523 -1.8275 -0.8582
 1258SOL    HW215411   3.273   4.275   5.476  1.6000  3.4783 -0.3829
 1259SOL     OW15412   4.104   0.566   7.231  0.4587 -0.2468 -0.1842
 1259SOL    HW115413   4.121   0.540   7.322  1.6494 -4.4168 -1.5665
 1259SOL    HW215414   4.135   0.656   7.224 -0.1506  0.0567  0.8916
 1260SOL     OW15415   4.272   0.305   2.466 -0.0894 -0.2060 -0.7104
 1260SOL    HW115416   4.286   0.399   2.483 -1.8512  0.4757 -3.1050
 1260SOL    HW215417   4.362   0.277   2.485 -0.3172 -1.6335 -1.8192
 1261SOL     OW15418   3.537   0.265   5.431  0.0637  0.1456  0.4499
 1261SOL    HW115419   3.609   0.310   5.386  1.9248 -1.8025  1.4876
 1261SOL    HW215420   3.530   0.306   5.517  2.0098  0.4243  0.4817
 1262SOL     OW15421   2.589   0.279  12.877 -0.1155  0.0115 -0.5860
 1262SOL    HW115422   2.619   0.368  12.897 -0.6570 -0.4793  2.3103
 1262SOL    HW215423   2.671   0.244  12.842  0.4275  0.3056  0.3974
 1263SOL     OW15424   4.284   4.237   8.309  0.2535 -0.5701 -0.2450
 1263SOL    HW115425   4.339   4.159   8.306  1.9452  0.5608  0.9123
 1263SOL    HW215426   4.353   4.303   8.307  1.0176 -1.3273  1.1204
 1264SOL     OW15427   2.695   3.223   7.188 -0.4687  0.4640  0.6227
 1264SOL    HW115428   2.762   3.195   7.251  0.2749  2.8030  0.8646
 1264SOL    HW215429   2.737   3.207   7.104  0.5514  3.1412  0.6381
 1265SOL     OW15430   3.282   0.313   9.061  0.0588  0.7853 -0.3364
 1265SOL    HW115431   3.375   0.296   9.074 -0.2101  1.1377  2.0605
 1265SOL    HW215432   3.248   0.267   9.137  2.4893  1.8709  1.3931
 1266SOL     OW15433   0.487   4.503   6.169  0.4687 -0.0500  0.0739
 1266SOL    HW115434   0.500   4.409   6.159 -1.1335 -0.0485 -1.9063
 1266SOL    HW215435   0.396   4.519   6.143  0.7793  0.7913 -0.5045
 1267SOL     OW15436   3.981   0.441   1.528 -0.0646 -0.0629 -0.5220
 1267SOL    HW115437   3.947   0.353   1.511  0.2370 -0.3934  0.5395
 1267SOL    HW215438   4.072   0.418   1.547 -0.3527 -0.1477  0.7296
 1268SOL     OW15439   1.460   0.317   2.054 -0.0704  0.4807 -0.2619
 1268SOL    HW115440   1.388   0.325   1.991 -1.8753  0.2087  1.7818
 1268SOL    HW215441   1.469   0.409   2.077 -0.0549 -0.0055  1.6373
 1269SOL     OW15442   3.006   3.803   1.649  0.3328  0.5653 -0.0122
 1269SOL    HW115443   2.935   3.850   1.692 -0.0715 -0.8749  0.8646
 1269SOL    HW215444   2.968   3.716   1.643 -0.0159  0.6928  0.3161
 1270SOL     OW15445   2.798   0.857   9.700  0.5125  0.4748  0.6067
 1270SOL    HW115446   2.808   0.775   9.749 -0.4952  0.0763  0.1451
 1270SOL    HW215447   2.890   0.878   9.683  0.1776 -0.1395 -1.9757
 1271SOL     OW15448   3.103   2.910   9.140 -0.0057  0.0068 -0.0804
 1271SOL    HW115449   3.128   3.003   9.134 -0.5466  0.0392 -1.8009
 1271SOL    HW215450   3.119   2.900   9.234  1.7979 -1.0475 -0.4825
 1272SOL     OW15451   3.714   0.335   8.476 -0.1749 -0.3801  0.2098
 1272SOL    HW115452   3.721   0.242   8.457 -3.4731 -0.3737 -1.0792
 1272SOL    HW215453   3.790   0.373   8.432  0.5748 -0.3333  1.5299
 1273SOL     OW15454   1.804   3.383   8.156 -0.2245 -0.0746 -0.1388
 1273SOL    HW115455   1.747   3.420   8.088 -1.4858  0.9776  1.5033
 1273SOL    HW215456   1.745   3.313   8.183 -0.4461 -0.0027 -0.4378
 1274SOL     OW15457   1.114   0.348   2.633  0.2803 -0.3134  0.6757
 1274SOL    HW115458   1.119   0.351   2.538 -1.0585  1.3021  0.6450
 1274SOL    HW215459   1.207   0.339   2.657 -0.0105 -0.2774  1.8113
 1275SOL     OW15460   1.942   1.155   9.789 -0.1051 -0.3565 -0.5300
 1275SOL    HW115461   1.962   1.144   9.696  0.1836 -0.3783 -0.4626
 1275SOL    HW215462   2.022   1.168   9.839  0.4621 -0.5793 -1.3826
 1276SOL     OW15463   4.378   1.252   3.645  0.1957 -0.2933 -0.0024
 1276SOL    HW115464   4.402   1.258   3.738  1.5128  1.5288 -0.4755
 1276SOL    HW215465   4.313   1.322   3.633 -0.0669 -0.8324 -1.7004
 1277SOL     OW15466   3.435   3.575  17.110  0.1992  0.3446 -0.8121
 1277SOL    HW115467   3.386   3.508  17.158  0.3922  0.8439  0.0621
 1277SOL    HW215468   3.396   3.561  17.024 -1.3966 -3.0703  0.4659
 1278SOL     OW15469   3.306   0.896   4.313 -0.0758 -0.6532  0.5849
 1278SOL    HW115470   3.322   0.981   4.354 -1.1387 -0.5477  0.7889
 1278SOL    HW215471   3.306   0.918   4.220 -0.2869 -0.0606  0.7224
 1279SOL     OW15472   3.163   2.459   4.979 -0.1341  0.1235  0.2354
 1279SOL    HW115473   3.183   2.508   5.059 -3.9513  1.3538  0.4424
 1279SOL    HW215474   3.086   2.408   5.006  1.5378 -2.4051  0.2350
 1280SOL     OW15475   4.354   2.688   2.754 -0.2828 -0.2727  0.1092
 1280SOL    HW115476   4.380   2.777   2.732 -0.7720  0.0949  1.0016
 1280SOL    HW215477   4.414   2.633   2.704 -1.3003  0.8503 -2.3160
 1281SOL     OW15478   1.837   1.645  12.027  0.2928 -0.1608 -0.2640
 1281SOL    HW115479   1.792   1.562  12.014 -1.5845  0.7177  0.6352
 1281SOL    HW215480   1.901   1.610  12.089 -0.3550 -1.9321 -0.6070
 1282SOL     OW15481   0.519   2.858   5.050 -0.0364  0.3000 -0.1542
 1282SOL    HW115482   0.594   2.910   5.022 -0.5377  1.4729  0.7292
 1282SOL    HW215483   0.545   2.766   5.057 -0.7893  0.1259  0.3181
 1283SOL     OW15484   0.160   3.139  12.248  0.1975  0.1063 -0.5114
 1283SOL    HW115485   0.082   3.088  12.228  0.0676  0.6904 -1.4474
 1283SOL    HW215486   0.179   3.109  12.337 -1.4482 -0.9842 -0.5217
 1284SOL     OW15487   0.404   1.303  15.886  0.1112 -0.0708 -0.4189
 1284SOL    HW115488   0.432   1.212  15.878  3.0853  0.6230  1.8577
 1284SOL    HW215489   0.426   1.337  15.799 -0.4566 -2.2458 -1.3947
 1285SOL     OW15490   4.371   3.130  17.047  0.4147  0.4338  0.5012
 1285SOL    HW115491   4.314   3.119  16.971 -0.4281  0.0461  1.1846
 1285SOL    HW215492   4.444   3.081  17.009 -1.7337 -2.1065 -0.3629
 1286SOL     OW15493   2.306   1.342  16.581  0.3470  0.0986  0.2833
 1286SOL    HW115494   2.321   1.278  16.512 -1.6283  2.0397 -1.9168
 1286SOL    HW215495   2.326   1.427  16.542  0.2278  0.0311  0.0771
 1287SOL     OW15496   2.713   1.737   2.597 -0.0960 -0.3195  0.5467
 1287SOL    HW115497   2.755   1.781   2.671 -0.6860  1.0001  0.0852
 1287SOL    HW215498   2.727   1.794   2.522 -0.0719 -0.5495  0.3752
 1288SOL     OW15499   0.399   3.995  11.008 -0.1165  0.2404  0.4255
 1288SOL    HW115500   0.341   3.976  10.935 -1.7847 -1.1212  2.1140
 1288SOL    HW215501   0.388   4.090  11.017  0.1536  0.1916  1.2797
 1289SOL     OW15502   3.830   3.010   9.741  0.2171  0.5138 -0.1181
 1289SOL    HW115503   3.783   2.927   9.737 -0.7343  1.0840 -0.7701
 1289SOL    HW215504   3.918   2.972   9.742 -0.6147 -1.3968  0.6128
 1290SOL     OW15505   2.421   0.350   2.437  0.3635  0.6718  0.1832
 1290SOL    HW115506   2.463   0.267   2.417  0.9592  0.8676  0.6030
 1290SOL    HW215507   2.468   0.380   2.515  0.2731  0.7196  0.2189
 1291SOL     OW15508   0.056   0.651   7.950 -0.5077 -0.1241  0.2186
 1291SOL    HW115509   0.082   0.600   7.874 -2.7883  0.7250 -1.1511
 1291SOL    HW215510   0.010   0.726   7.911 -0.2735 -0.3292 -0.4397
 1292SOL     OW15511   1.405   0.777   5.257  0.6407  0.2476  0.8745
 1292SOL    HW115512   1.452   0.809   5.180 -0.9845 -0.8760 -0.5892
 1292SOL    HW215513   1.348   0.853   5.272  0.1380 -0.0944  0.7025
 1293SOL     OW15514   0.235   0.911   1.955 -0.2170  0.0578 -0.0323
 1293SOL    HW115515   0.321   0.870   1.956 -0.0081  0.5632  1.9927
 1293SOL    HW215516   0.184   0.835   1.928 -0.1314  0.0619 -0.2094
 1294SOL     OW15517   3.141   3.870  13.519  0.4950  0.2965  0.3173
 1294SOL    HW115518   3.088   3.949  13.527  0.7867  0.2716  2.4405
 1294SOL    HW215519   3.080   3.801  13.543  1.8291 -1.4655 -1.3506
 1295SOL     OW15520   4.690   2.806  14.908  0.0110  0.2394 -0.1999
 1295SOL    HW115521   4.674   2.900  14.912  0.7598  0.4560 -2.4282
 1295SOL    HW215522   4.717   2.806  14.816  0.4143  0.5711 -0.0816
 1296SOL     OW15523   2.898   4.590   2.094  0.1257  0.1249 -0.3244
 1296SOL    HW115524   2.853   4.671   2.070  0.0387 -0.1781 -1.2158
 1296SOL    HW215525   2.955   4.576   2.018 -0.2341  0.2424 -0.6166
 1297SOL     OW15526   3.390   2.263  15.814  0.0563  0.5028 -0.4236
 1297SOL    HW115527   3.338   2.299  15.886  1.4312 -0.4200  1.0390
 1297SOL    HW215528   3.453   2.205  15.857  2.3219  1.9576 -1.7778
 1298SOL     OW15529   1.197   0.941   9.072  0.1535  0.0911 -0.1445
 1298SOL    HW115530   1.162   1.024   9.105  2.2630  2.0071 -2.6435
 1298SOL    HW215531   1.291   0.960   9.064  0.2977 -1.3482 -1.8562
 1299SOL     OW15532   3.115   2.943   4.345  0.6598 -0.6002  0.2538
 1299SOL    HW115533   3.022   2.922   4.349  0.9385 -1.5530  1.7447
 1299SOL    HW215534   3.147   2.862   4.384  2.5590  0.6093  1.1878
 1300SOL     OW15535   4.209   0.646   9.076  0.1688 -0.0630 -0.1528
 1300SOL    HW115536   4.289   0.699   9.088  0.0506  0.1970 -0.5126
 1300SOL    HW215537   4.219   0.573   9.136  0.1756 -0.9509 -1.2477
 1301SOL     OW15538   3.887   4.083   2.354 -0.2584 -0.3951 -0.0842
 1301SOL    HW115539   3.905   4.136   2.276  1.7835  0.6402  1.0987
 1301SOL    HW215540   3.979   4.069   2.377 -0.0653 -1.0427 -1.2616
 1302SOL     OW15541   3.054   2.509  14.912 -0.4296 -0.0676 -0.3961
 1302SOL    HW115542   3.032   2.453  14.837  0.8939  1.5390 -1.9648
 1302SOL    HW215543   3.072   2.438  14.974  0.3399  0.9785  0.5761
 1303SOL     OW15544   3.802   1.371   8.198 -0.1195 -0.1978  0.1399
 1303SOL    HW115545   3.709   1.356   8.181 -1.0206  5.0917  0.4136
 1303SOL    HW215546   3.809   1.332   8.285  1.0876 -1.3433 -0.4814
 1304SOL     OW15547   2.525   3.606   1.773 -0.2663  0.5112  0.3969
 1304SOL    HW115548   2.536   3.535   1.837  0.9227  0.7968  0.5203
 1304SOL    HW215549   2.433   3.591   1.752 -0.9598  3.3775  1.4540
 1305SOL     OW15550   0.954   2.021   6.895 -0.2615  0.7754 -0.9321
 1305SOL    HW115551   0.942   2.042   6.987  0.7191 -0.9757 -0.3862
 1305SOL    HW215552   0.901   2.088   6.852 -2.8045 -2.0837 -2.2943
 1306SOL     OW15553   3.383   2.794  11.324 -0.1422 -0.8516 -0.2010
 1306SOL    HW115554   3.451   2.745  11.279  1.5746  1.0801  0.2727
 1306SOL    HW215555   3.387   2.760  11.414 -0.8689 -0.1918  0.0788
 1307SOL     OW15556   3.305   2.611   2.678 -0.2914 -0.4780 -0.2768
 1307SOL    HW115557   3.316   2.676   2.608 -0.6279  0.3100  0.4120
 1307SOL    HW215558   3.336   2.525   2.648  0.3363 -0.3982  0.1280
 1308SOL     OW15559   3.896   0.476   7.718 -0.2349  0.8632 -0.4976
 1308SOL    HW115560   3.946   0.442   7.792  0.3577  1.0578 -0.8086
 1308SOL    HW215561   3.874   0.393   7.675  2.5523  0.8445 -1.8613
 1309SOL     OW15562   1.611   1.909   3.369 -0.2415  0.0856 -0.1437
 1309SOL    HW115563   1.679   1.961   3.409  1.0689 -0.8707 -1.1273
 1309SOL    HW215564   1.541   1.914   3.434 -0.3125 -1.7871 -0.0808
 1310SOL     OW15565   1.542   3.963   5.802  0.2522  0.2167  0.6400
 1310SOL    HW115566   1.571   4.051   5.779  0.1120 -0.1088 -0.7927
 1310SOL    HW215567   1.621   3.910   5.791  0.7485  0.4932  3.0257
 1311SOL     OW15568   1.821   0.051   4.624 -0.3141 -0.7444  0.3754
 1311SOL    HW115569   1.814   4.742   4.704  0.6869 -1.2096  0.1622
 1311SOL    HW215570   1.841   0.140   4.652 -1.9708 -0.1323 -0.3816
 1312SOL     OW15571   3.955   4.104   3.621  0.4369  0.2513  0.3969
 1312SOL    HW115572   3.953   4.009   3.631 -1.9179  0.2093 -0.4029
 1312SOL    HW215573   3.864   4.114   3.592  1.4219 -0.0581 -2.7289
 1313SOL     OW15574   1.125   0.629  12.425  0.5960 -0.7694 -0.0700
 1313SOL    HW115575   1.115   0.702  12.486 -0.1675 -1.4707  0.6440
 1313SOL    HW215576   1.050   0.571  12.437 -0.9735  0.9140 -1.7194
 1314SOL     OW15577   0.755   0.857   2.652  0.1462 -0.1019 -0.1696
 1314SOL    HW115578   0.723   0.777   2.693  1.0305  0.4588  1.6033
 1314SOL    HW215579   0.670   0.899   2.645  1.4978  2.8604  1.2509
 1315SOL     OW15580   1.480   3.012   8.666  0.3064  0.2324 -0.1561
 1315SOL    HW115581   1.419   2.987   8.735 -0.2071  1.2908 -0.2363
 1315SOL    HW215582   1.495   3.103   8.688 -1.5531  0.9848 -1.9829
 1316SOL     OW15583   1.045   0.251   6.327  0.5441 -0.3658 -0.2624
 1316SOL    HW115584   1.039   0.344   6.352 -0.5313 -1.3054  2.9219
 1316SOL    HW215585   0.998   0.261   6.244 -3.1195  2.1070  2.0767
 1317SOL     OW15586   4.191   0.499  11.680 -0.1999 -0.1612  0.4133
 1317SOL    HW115587   4.142   0.463  11.606  1.3327 -2.5125  0.5567
 1317SOL    HW215588   4.281   0.486  11.648 -0.5919 -3.2230  0.5655
 1318SOL     OW15589   0.093   4.340  15.880 -0.5790 -0.1639 -0.3558
 1318SOL    HW115590   0.089   4.434  15.900 -0.2847  0.4259 -3.1768
 1318SOL    HW215591   0.133   4.298  15.956 -1.5740  0.5239  0.5495
 1319SOL     OW15592   2.989   0.742   2.547 -0.0922  0.8763 -0.1735
 1319SOL    HW115593   2.899   0.712   2.557  0.0295  0.3336 -0.7469
 1319SOL    HW215594   2.990   0.761   2.453  0.1198  0.9204 -0.1618
 1320SOL     OW15595   0.839   4.675   2.599 -0.0726 -0.4201 -0.2400
 1320SOL    HW115596   0.894   4.742   2.559  2.0137 -0.3652  2.7454
 1320SOL    HW215597   0.784   4.641   2.529 -0.7736 -0.6318  0.4092
 1321SOL     OW15598   3.814   4.183  12.691 -0.3310  0.1461  0.4626
 1321SOL    HW115599   3.909   4.196  12.685 -0.4509  0.4116 -0.7453
 1321SOL    HW215600   3.788   4.195  12.783 -3.8247 -0.5184 -0.4413
 1322SOL     OW15601   2.432   3.612   7.754 -0.1579  0.0939 -0.9549
 1322SOL    HW115602   2.362   3.676   7.764 -0.9230 -0.4602 -2.7595
 1322SOL    HW215603   2.493   3.654   7.693  0.2943  1.3410  0.3586
 1323SOL     OW15604   0.230   0.175   5.919 -0.1657  0.2627  0.1471
 1323SOL    HW115605   0.276   0.139   5.843  0.0546  1.9542 -0.5034
 1323SOL    HW215606   0.310   0.199   5.966  0.8271  2.1888 -2.5656
 1324SOL     OW15607   2.720   4.391   6.432  0.1562 -0.2018  0.0745
 1324SOL    HW115608   2.748   4.305   6.402  1.6673  0.5035 -0.5073
 1324SOL    HW215609   2.790   4.452   6.411  2.4691 -3.4421 -1.5906
 1325SOL     OW15610   2.798   4.665  17.541 -0.2463  0.2342 -0.4368
 1325SOL    HW115611   2.869   4.603  17.556 -0.2964  0.1620 -0.4932
 1325SOL    HW215612   2.845   0.004  17.559  0.2341 -0.5049  1.7092
 1326SOL     OW15613   2.546   3.681  16.622  0.1855 -0.3037  0.0372
 1326SOL    HW115614   2.616   3.701  16.559  1.4201 -2.1614  0.8002
 1326SOL    HW215615   2.504   3.608  16.576  2.3952 -1.2214 -0.5570
 1327SOL     OW15616   0.565   2.368  14.587  0.1629 -0.4019 -0.3656
 1327SOL    HW115617   0.474   2.371  14.557  0.6846  1.2282 -1.7821
 1327SOL    HW215618   0.562   2.351  14.681  0.3061  1.4636 -0.0285
 1328SOL     OW15619   4.415   0.563   7.167  0.3590 -0.4625  0.3014
 1328SOL    HW115620   4.376   0.571   7.080  1.3236 -0.6922 -0.1560
 1328SOL    HW215621   4.398   0.471   7.188  0.9311 -0.6739 -0.1485
 1329SOL     OW15622   2.708   3.133   4.766  0.1681  0.0536 -0.8718
 1329SOL    HW115623   2.668   3.219   4.751  1.0613  0.6459  0.1645
 1329SOL    HW215624   2.790   3.135   4.717  0.5346  2.8579 -0.1086
 1330SOL     OW15625   4.127   0.495   4.886 -0.0572  0.3234 -0.3478
 1330SOL    HW115626   4.039   0.483   4.923 -0.7822  0.0917 -2.1609
 1330SOL    HW215627   4.123   0.436   4.812 -2.8397  1.4097 -1.0788
 1331SOL     OW15628   0.105   3.175  12.866 -0.0378  0.2741  0.0858
 1331SOL    HW115629   0.097   3.145  12.957  1.0910  1.7660  0.6708
 1331SOL    HW215630   0.127   3.266  12.886  1.1598 -0.2854  1.3162
 1332SOL     OW15631   2.995   0.605  12.606  0.0469  0.9543 -0.8351
 1332SOL    HW115632   3.086   0.590  12.580  1.1749  4.1986  1.1454
 1332SOL    HW215633   2.948   0.546  12.548 -0.1009 -0.6261  0.9011
 1333SOL     OW15634   0.002   1.822   9.798  0.4517 -0.0497 -0.6874
 1333SOL    HW115635   0.042   1.909   9.791  2.4567 -0.8687  0.7232
 1333SOL    HW215636   0.060   1.779   9.861 -1.7957  0.8233  1.9467
 1334SOL     OW15637   1.873   0.886   4.156 -0.1580 -0.1140 -0.0122
 1334SOL    HW115638   1.918   0.901   4.073  0.0225  2.6045  0.5831
 1334SOL    HW215639   1.941   0.865   4.219 -0.4970  1.8357  0.9935
 1335SOL     OW15640   0.348   0.374   3.018  0.2328  0.6884 -0.2329
 1335SOL    HW115641   0.353   0.284   2.985  1.6289  0.1904  1.3570
 1335SOL    HW215642   0.347   0.422   2.935  0.3144 -0.6215 -0.9865
 1336SOL     OW15643   3.088   1.152   4.496  0.3929 -0.4848  0.3691
 1336SOL    HW115644   3.094   1.173   4.402  1.3771  0.4881  0.6419
 1336SOL    HW215645   3.182   1.149   4.514  0.1851 -1.0978  1.3570
 1337SOL     OW15646   3.675   0.253   3.682 -0.5779  0.0859 -0.1976
 1337SOL    HW115647   3.657   0.197   3.757 -1.0459  1.7257  0.9210
 1337SOL    HW215648   3.700   0.196   3.609 -0.2202 -1.3059  1.0179
 1338SOL     OW15649   3.513   3.688  15.755 -0.2513  0.4364 -0.2731
 1338SOL    HW115650   3.577   3.618  15.750 -0.8474 -0.2062  1.1488
 1338SOL    HW215651   3.482   3.682  15.664 -0.8296 -1.2170  0.0466
 1339SOL     OW15652   0.467   4.470  16.071 -0.1414  0.0430  0.1597
 1339SOL    HW115653   0.506   4.528  16.006  0.8942 -1.2527 -0.3760
 1339SOL    HW215654   0.495   4.497  16.158  0.4311  1.8427 -0.5750
 1340SOL     OW15655   1.758   0.024   7.718  0.4737  0.3547  0.0778
 1340SOL    HW115656   1.774   4.689   7.772  0.4980  0.6779  0.5311
 1340SOL    HW215657   1.727   0.089   7.781  1.9382  0.4066  0.7358
 1341SOL     OW15658   4.538   0.135   6.685  0.3413  0.2846  0.2910
 1341SOL    HW115659   4.463   0.188   6.659  0.4820 -0.3213 -1.3815
 1341SOL    HW215660   4.537   0.143   6.780  1.3547  0.1116  0.3156
 1342SOL     OW15661   2.035   0.570   6.408  0.0421 -0.0929  0.2433
 1342SOL    HW115662   2.087   0.645   6.439  0.6266 -0.4051  0.0187
 1342SOL    HW215663   1.992   0.613   6.335  1.8683 -0.3880 -0.9853
 1343SOL     OW15664   2.134   4.524  13.398 -0.1961  0.4547 -0.2940
 1343SOL    HW115665   2.074   4.576  13.452  1.3957  1.5287  0.4252
 1343SOL    HW215666   2.127   4.585  13.324  1.6603  1.3993  0.3110
 1344SOL     OW15667   4.032   1.089   3.342  0.2344 -0.9136  0.1181
 1344SOL    HW115668   4.114   1.105   3.389 -0.1578 -0.3649  0.6055
 1344SOL    HW215669   4.012   1.001   3.376  1.0094 -1.2921 -0.3900
 1345SOL     OW15670   2.576   0.116   3.246 -0.7577  0.1902 -0.3651
 1345SOL    HW115671   2.584   0.023   3.226 -0.1592 -0.4187  2.7328
 1345SOL    HW215672   2.492   0.144   3.209 -1.5357 -1.0627  0.4385
 1346SOL     OW15673   2.077   4.107   4.728  0.3781  0.7677 -0.2179
 1346SOL    HW115674   2.049   4.097   4.819  3.4390 -1.3547  0.4653
 1346SOL    HW215675   2.071   4.017   4.697 -0.4338  0.4622  0.8249
 1347SOL     OW15676   2.402   1.027   8.126 -0.3680  0.2637  0.2388
 1347SOL    HW115677   2.385   1.038   8.220 -1.8374  0.0493 -0.0001
 1347SOL    HW215678   2.312   1.009   8.100 -0.2591 -1.3054  0.9553
 1348SOL     OW15679   4.471   2.337   6.263 -0.2173  0.1650 -0.2208
 1348SOL    HW115680   4.392   2.287   6.284 -1.5894  2.7329  0.8064
 1348SOL    HW215681   4.502   2.332   6.354 -1.3190  2.5041  0.3065
 1349SOL     OW15682   4.281   4.657   8.524  0.0279  0.5264  0.4660
 1349SOL    HW115683   4.227   4.578   8.528 -0.8655  1.1648  0.8527
 1349SOL    HW215684   4.225   4.707   8.466  0.7665  1.1435  0.2922
 1350SOL     OW15685   3.418   3.540   4.465  0.1731  0.1272 -0.7664
 1350SOL    HW115686   3.509   3.549   4.494 -0.6777  1.1919  1.5382
 1350SOL    HW215687   3.400   3.451   4.497  2.1239  0.4557  1.3044
 1351SOL     OW15688   1.565   3.659  13.876  0.0678 -0.2086 -0.0065
 1351SOL    HW115689   1.532   3.578  13.837 -3.3175  2.0289 -1.7301
 1351SOL    HW215690   1.600   3.698  13.795  0.1605  0.7727  0.5044
 1352SOL     OW15691   1.950   1.788   2.472 -0.2656  0.7242 -0.1263
 1352SOL    HW115692   1.873   1.731   2.478  0.4911 -0.3843 -0.8224
 1352SOL    HW215693   1.903   1.871   2.470  1.6755  1.7848 -1.6852
 1353SOL     OW15694   1.480   2.249  15.702  0.6392 -0.5439  0.8143
 1353SOL    HW115695   1.422   2.173  15.696  0.9687 -0.4951 -2.6861
 1353SOL    HW215696   1.557   2.223  15.652  0.7540  0.9015  0.2506
 1354SOL     OW15697   1.670   2.917   5.863  0.3358  0.2280 -0.1863
 1354SOL    HW115698   1.660   3.007   5.834 -0.5823  0.7064  1.6400
 1354SOL    HW215699   1.739   2.922   5.928 -0.6146 -1.1999  0.9483
 1355SOL     OW15700   3.866   2.721   2.596  0.5417  0.6232 -0.0216
 1355SOL    HW115701   3.804   2.659   2.559  1.8942  0.8307 -2.5775
 1355SOL    HW215702   3.939   2.666   2.625  0.3482 -0.0639 -0.8569
 1356SOL     OW15703   4.114   3.315   9.144 -0.0456  0.3918 -0.4279
 1356SOL    HW115704   4.164   3.390   9.175 -0.2506  1.1213 -1.8391
 1356SOL    HW215705   4.029   3.336   9.184  0.3681 -0.2773  0.7906
 1357SOL     OW15706   3.085   0.704   7.737  0.0872 -0.0286 -0.7712
 1357SOL    HW115707   2.993   0.679   7.726  0.2977  0.8701 -4.3564
 1357SOL    HW215708   3.084   0.747   7.823  1.3236 -1.7792  0.1057
 1358SOL     OW15709   0.600   1.408  13.137  0.3843  0.1423  0.1649
 1358SOL    HW115710   0.593   1.458  13.056  1.3725 -0.6272 -0.4010
 1358SOL    HW215711   0.629   1.480  13.193  0.9306 -0.7476  1.0306
 1359SOL     OW15712   2.063   4.262  10.758  1.0715 -0.2484  0.2835
 1359SOL    HW115713   2.080   4.352  10.784  0.9243  0.3685 -1.7573
 1359SOL    HW215714   2.018   4.222  10.832 -0.4819  1.3522  0.2099
 1360SOL     OW15715   1.204   0.829   1.702  0.2670  0.4254 -0.6626
 1360SOL    HW115716   1.269   0.817   1.632  0.7917  1.4700 -0.3511
 1360SOL    HW215717   1.254   0.800   1.777 -1.9924 -2.0580 -0.0963
 1361SOL     OW15718   2.842   4.303   7.826  0.2522  0.6760  0.2465
 1361SOL    HW115719   2.805   4.388   7.848 -0.4904  0.1187  1.1895
 1361SOL    HW215720   2.772   4.240   7.843  1.0381 -0.2744  0.0042
 1362SOL     OW15721   1.793   4.225  13.443 -0.2623 -0.3053 -0.8148
 1362SOL    HW115722   1.786   4.130  13.458 -0.3867 -0.4986 -2.1220
 1362SOL    HW215723   1.809   4.236  13.349  1.5186 -2.6668 -0.7958
 1363SOL     OW15724   1.194   3.664   1.848 -0.3009  0.5511 -0.3374
 1363SOL    HW115725   1.144   3.649   1.928  0.7384  1.7296  0.5309
 1363SOL    HW215726   1.116   3.682   1.796 -1.4696  1.0871  1.6259
 1364SOL     OW15727   2.139   2.487  10.931 -0.5667  0.1056  0.1076
 1364SOL    HW115728   2.087   2.568  10.930  2.1485  1.8452 -2.0605
 1364SOL    HW215729   2.108   2.449  11.013 -0.4384  2.3967  1.2221
 1365SOL     OW15730   4.590   3.761  10.833  0.2000 -0.2215 -0.1413
 1365SOL    HW115731   4.592   3.842  10.883  0.6242 -0.2218 -0.1566
 1365SOL    HW215732   4.670   3.756  10.780  0.3578 -1.9505  0.2403
 1366SOL     OW15733   4.540   1.270   7.893  0.0431  0.2118 -0.2914
 1366SOL    HW115734   4.617   1.223   7.926  0.1358  1.3851  1.1304
 1366SOL    HW215735   4.543   1.262   7.797  1.8251  1.4720 -0.3581
 1367SOL     OW15736   3.158   1.534   3.367  0.2616  0.2441  0.0706
 1367SOL    HW115737   3.178   1.601   3.432  1.2964 -0.4362  0.4443
 1367SOL    HW215738   3.172   1.591   3.291  0.0292  1.1245  0.6959
 1368SOL     OW15739   2.040   4.125   7.584 -0.5059  0.0679 -0.2092
 1368SOL    HW115740   1.979   4.052   7.598  0.0278 -0.9675 -3.2597
 1368SOL    HW215741   2.055   4.153   7.674 -1.6308  0.3240 -0.1010
 1369SOL     OW15742   4.626   0.983   8.506  0.3587 -0.0395 -0.4129
 1369SOL    HW115743   4.574   0.908   8.477 -2.1646  0.8949  1.6753
 1369SOL    HW215744   4.631   0.949   8.596 -1.4175  2.2652  0.5669
 1370SOL     OW15745   4.053   3.565   8.190  0.0003 -0.2209 -0.5122
 1370SOL    HW115746   4.126   3.581   8.130  0.1417  0.3892 -0.1786
 1370SOL    HW215747   4.077   3.621   8.264 -1.9368  0.5898 -0.4960
 1371SOL     OW15748   0.236   1.382   1.459  0.0011 -0.0341 -0.2947
 1371SOL    HW115749   0.263   1.408   1.547  1.7391  2.5700 -1.5858
 1371SOL    HW215750   0.242   1.468   1.418 -0.7887  0.1929  0.0687
 1372SOL     OW15751   4.674   4.608   2.524  0.5424 -0.2575  0.1297
 1372SOL    HW115752   4.703   4.675   2.462 -0.1914 -2.2691 -2.3871
 1372SOL    HW215753   4.683   4.652   2.608  0.9599 -0.9617  0.4512
 1373SOL     OW15754   2.405   4.398  11.766 -0.0886  0.1376  0.1678
 1373SOL    HW115755   2.382   4.387  11.859 -1.5108  1.0869 -0.0678
 1373SOL    HW215756   2.470   4.328  11.769 -1.5364 -1.2903 -1.2861
 1374SOL     OW15757   1.976   1.980   7.643  0.2771  0.1638 -0.0417
 1374SOL    HW115758   1.970   2.039   7.568 -1.0110 -0.9175 -0.7913
 1374SOL    HW215759   1.908   2.020   7.698  1.0942 -0.6665  1.5468
 1375SOL     OW15760   0.675   2.569   7.704  0.6099  0.6217  0.4731
 1375SOL    HW115761   0.711   2.482   7.724  0.7723  0.7097  0.5605
 1375SOL    HW215762   0.594   2.550   7.656  1.0243 -0.0913  0.0543
 1376SOL     OW15763   2.273   1.132   2.298  0.2538 -0.3488  0.4298
 1376SOL    HW115764   2.261   1.158   2.390  1.5791  1.8518 -0.0408
 1376SOL    HW215765   2.239   1.206   2.249 -0.7981 -0.2482  1.3209
 1377SOL     OW15766   2.825   2.109   8.664  0.4503 -0.1055 -0.0578
 1377SOL    HW115767   2.771   2.093   8.741 -0.1600  1.1492 -0.2286
 1377SOL    HW215768   2.837   2.030   8.611  1.9599  0.8880 -1.2307
 1378SOL     OW15769   1.501   3.520   5.201  0.4642 -0.1596 -0.2269
 1378SOL    HW115770   1.536   3.431   5.199  2.6927  0.6967 -0.0660
 1378SOL    HW215771   1.488   3.536   5.108  0.2650 -1.2195 -0.3768
 1379SOL     OW15772   2.043   2.977  14.382  0.9807 -0.0462  0.3424
 1379SOL    HW115773   2.034   2.983  14.477  0.3763 -0.7800  0.3226
 1379SOL    HW215774   2.113   3.040  14.364 -0.2995  2.0691  2.8323
 1380SOL     OW15775   4.221   2.074   6.111 -0.0169  0.2164  0.1036
 1380SOL    HW115776   4.279   2.007   6.075  0.2470  0.0509  0.8254
 1380SOL    HW215777   4.272   2.093   6.190  0.8856  2.4059 -0.9858
 1381SOL     OW15778   4.664   1.015  17.116  0.1528  0.3965 -0.0332
 1381SOL    HW115779   4.641   1.007  17.023  1.8604 -0.8039 -0.3680
 1381SOL    HW215780   4.741   1.071  17.105  0.8315 -0.6344 -0.5954
 1382SOL     OW15781   3.738   2.264   4.054 -0.0134 -0.2216 -0.1472
 1382SOL    HW115782   3.831   2.251   4.040 -0.3670 -1.0497 -1.7107
 1382SOL    HW215783   3.729   2.346   4.103 -1.9985 -0.0178 -0.8438
 1383SOL     OW15784   4.523   2.659   5.019  0.0353 -0.3280  0.0593
 1383SOL    HW115785   4.614   2.655   4.989  0.5176 -1.7429  1.6791
 1383SOL    HW215786   4.540   2.601   5.093  1.0602  0.6312  0.5680
 1384SOL     OW15787   3.796   4.435   6.249 -0.3415  0.4512 -0.1965
 1384SOL    HW115788   3.826   4.524   6.232 -1.5664  0.8052 -0.5411
 1384SOL    HW215789   3.871   4.383   6.276 -1.9298  0.0242  3.4077
 1385SOL     OW15790   2.539   3.169  14.443 -0.7327  0.8024  0.0236
 1385SOL    HW115791   2.592   3.232  14.395  1.1929 -1.8150 -1.2630
 1385SOL    HW215792   2.601   3.103  14.473  0.0729  0.4376 -2.4936
 1386SOL     OW15793   4.656   0.863   8.736  0.0351  0.1860  0.5053
 1386SOL    HW115794   4.735   0.914   8.725 -0.9279  0.9981 -2.5096
 1386SOL    HW215795   4.689   0.790   8.789  4.0228  2.1816  0.7558
 1387SOL     OW15796   2.404   1.292   3.544 -0.0260 -0.1836 -0.6831
 1387SOL    HW115797   2.477   1.253   3.496 -0.4225 -1.1021 -0.5457
 1387SOL    HW215798   2.442   1.377   3.570 -2.9335  1.3229 -1.4285
 1388SOL     OW15799   0.809   1.778   1.560  0.1899  0.5810 -0.2231
 1388SOL    HW115800   0.779   1.864   1.532 -1.1404 -0.0201 -0.6536
 1388SOL    HW215801   0.744   1.723   1.517  0.8034 -1.6543  1.6923
 1389SOL     OW15802   3.710   1.612   6.615 -0.3060  0.6625  0.0981
 1389SOL    HW115803   3.694   1.520   6.638 -0.6982  1.4251  2.8282
 1389SOL    HW215804   3.629   1.635   6.571  0.3438  1.6116 -0.6050
 1390SOL     OW15805   1.924   2.709  11.398  0.4054 -0.2297 -0.0504
 1390SOL    HW115806   1.915   2.789  11.347  3.6123 -0.7596 -1.3942
 1390SOL    HW215807   2.000   2.669  11.357  0.8816 -1.5304  2.0764
 1391SOL     OW15808   3.502   1.397  15.854 -0.3973 -0.3491 -0.6630
 1391SOL    HW115809   3.521   1.407  15.761  0.4738  0.5303 -0.3892
 1391SOL    HW215810   3.411   1.366  15.858 -1.1449  2.4539  3.8876
 1392SOL     OW15811   0.797   1.889  13.169 -0.0390  0.1198 -0.0057
 1392SOL    HW115812   0.778   1.799  13.196 -0.1189  0.6445  1.7205
 1392SOL    HW215813   0.709   1.925  13.160 -0.6298 -1.6874 -1.5008
 1393SOL     OW15814   0.036   4.236  10.799 -0.5626  0.2447 -0.0117
 1393SOL    HW115815   0.035   4.254  10.893  0.4158 -0.5548  0.1573
 1393SOL    HW215816   0.089   4.157  10.785 -1.2986 -0.2877  0.1997
 1394SOL     OW15817   3.573   4.113   1.572 -0.5151 -0.3046 -0.1632
 1394SOL    HW115818   3.569   4.112   1.668  2.2851  2.0525 -0.0522
 1394SOL    HW215819   3.590   4.204   1.548  0.3689 -0.0926  1.2694
 1395SOL     OW15820   2.531   2.893   2.136 -0.0923  0.4399 -0.1838
 1395SOL    HW115821   2.591   2.824   2.108 -2.0512 -0.9296 -0.9556
 1395SOL    HW215822   2.503   2.852   2.218 -0.2985  1.4612  0.2617
 1396SOL     OW15823   2.545   4.590  17.496  0.0936  0.5092 -1.0082
 1396SOL    HW115824   2.485   4.665  17.491  0.7759  1.0358 -1.2933
 1396SOL    HW215825   2.620   4.631  17.539 -0.2340  1.6149 -1.4879
 1397SOL     OW15826   0.858   2.104   4.666 -0.1876  0.1640 -0.2511
 1397SOL    HW115827   0.939   2.155   4.657 -0.1891  0.2407  0.1677
 1397SOL    HW215828   0.840   2.079   4.575 -1.5451  1.9357 -0.4712
 1398SOL     OW15829   3.706   0.723   7.477 -0.4559 -0.0444  0.3910
 1398SOL    HW115830   3.783   0.754   7.525  0.1763 -0.1818 -0.5424
 1398SOL    HW215831   3.738   0.639   7.444  1.4817  1.1863 -0.8370
 1399SOL     OW15832   3.904   3.006   3.139 -0.2604 -0.2447  0.5606
 1399SOL    HW115833   3.833   3.001   3.075 -0.6504 -0.1678  0.9835
 1399SOL    HW215834   3.873   2.936   3.196 -1.8663 -0.3834 -0.4624
 1400SOL     OW15835   1.377   4.387   4.965 -0.3968  0.0964 -0.1808
 1400SOL    HW115836   1.343   4.301   4.991 -1.8040  0.3951 -1.0502
 1400SOL    HW215837   1.462   4.389   5.009 -0.7810  0.1508  0.5627
 1401SOL     OW15838   0.837   2.409   0.433 -0.5185 -0.1896 -0.1383
 1401SOL    HW115839   0.801   2.336   0.482  1.7093  0.2830  2.2401
 1401SOL    HW215840   0.802   2.488   0.474 -0.6044  0.6677 -1.8523
 1402SOL     OW15841   1.985   3.319  14.871 -0.6146 -0.1062 -0.4698
 1402SOL    HW115842   1.940   3.403  14.871 -0.1723  0.1370  0.1393
 1402SOL    HW215843   2.040   3.320  14.793 -0.4370 -0.8896 -0.3618
 1403SOL     OW15844   3.121   0.612  14.515 -0.9766 -0.2417  0.7457
 1403SOL    HW115845   3.073   0.551  14.571 -1.0842 -0.3352  0.5520
 1403SOL    HW215846   3.214   0.604  14.532 -0.7406 -1.3706 -1.1320
 1404SOL     OW15847   0.617   4.716   6.080 -0.2501 -0.5931 -0.0789
 1404SOL    HW115848   0.555   4.653   6.117 -0.3747 -0.3803  0.0721
 1404SOL    HW215849   0.592   4.713   5.987  0.4239 -1.9790 -0.2286
 1405SOL     OW15850   3.277   3.631   4.131  0.1908  0.0425 -0.1146
 1405SOL    HW115851   3.287   3.696   4.062  1.7657  0.8138  0.8337
 1405SOL    HW215852   3.264   3.676   4.214  1.4115 -0.7471  0.5149
 1406SOL     OW15853   0.146   1.135   3.494  0.0796  0.3267 -0.1795
 1406SOL    HW115854   0.173   1.116   3.583  2.1858 -0.1294 -0.9246
 1406SOL    HW215855   0.069   1.187   3.518 -1.0366 -2.0899  1.3453
 1407SOL     OW15856   1.141   0.916   2.035  0.1382 -0.2384  0.2248
 1407SOL    HW115857   1.186   0.998   2.052 -0.3401 -0.1443  1.0193
 1407SOL    HW215858   1.209   0.856   2.005  0.1644  0.1087 -0.4132
 1408SOL     OW15859   4.550   2.490   2.681  0.0069 -0.4041 -0.2374
 1408SOL    HW115860   4.623   2.528   2.631 -0.3552  2.3477  1.3256
 1408SOL    HW215861   4.547   2.401   2.645  0.9944 -0.5688  0.0837
 1409SOL     OW15862   1.743   3.928   4.226  0.1620  0.3839  0.5025
 1409SOL    HW115863   1.816   3.969   4.274  1.0925 -0.2696 -0.3435
 1409SOL    HW215864   1.766   3.835   4.230 -0.5130  0.1595 -1.0518
 1410SOL     OW15865   0.687   4.019   2.690 -0.3443 -0.2803 -1.0483
 1410SOL    HW115866   0.754   4.015   2.758 -1.2916  0.1992 -0.0863
 1410SOL    HW215867   0.724   3.951   2.635  0.0741 -0.6664 -0.2961
 1411SOL     OW15868   2.409   1.104   6.029  0.0073 -0.1212 -0.1094
 1411SOL    HW115869   2.463   1.050   6.087 -0.6294 -2.1687 -1.4183
 1411SOL    HW215870   2.340   1.043   6.002 -1.1756  0.1270  2.3713
 1412SOL     OW15871   3.454   4.373   7.320 -0.2828 -0.1537  0.1380
 1412SOL    HW115872   3.510   4.427   7.376 -1.6821 -0.3945  1.7685
 1412SOL    HW215873   3.452   4.294   7.373 -3.1960  1.8109  2.9443
 1413SOL     OW15874   1.245   0.030   3.159  0.3074 -0.4883 -0.7163
 1413SOL    HW115875   1.150   0.030   3.173  0.4443 -1.4480  0.2489
 1413SOL    HW215876   1.260   0.062   3.070 -1.3822 -1.0222 -1.1935
 1414SOL     OW15877   0.552   2.140   3.503 -0.0393  0.4344 -0.2035
 1414SOL    HW115878   0.518   2.106   3.586 -0.5840  1.3485 -0.0585
 1414SOL    HW215879   0.508   2.076   3.447 -0.0021 -0.6494  1.0044
 1415SOL     OW15880   0.939   0.734   4.549  0.0311  0.1533  0.5802
 1415SOL    HW115881   0.973   0.716   4.462 -0.0949  0.5743  0.4407
 1415SOL    HW215882   0.918   0.828   4.545 -0.3594  0.0653  0.5395
 1416SOL     OW15883   1.324   4.268   7.196 -0.0905 -0.3704 -0.7657
 1416SOL    HW115884   1.364   4.354   7.212 -1.2488 -0.1901  1.2027
 1416SOL    HW215885   1.376   4.214   7.255  0.2298  0.8642  0.1020
 1417SOL     OW15886   3.621   3.755  16.441 -0.1067 -0.1301 -0.2351
 1417SOL    HW115887   3.639   3.682  16.381  0.7843 -0.3261  0.2794
 1417SOL    HW215888   3.659   3.834  16.403 -0.1571 -0.5687 -1.2140
 1418SOL     OW15889   0.748   1.168   7.828  0.5202 -0.4238 -0.1339
 1418SOL    HW115890   0.797   1.236   7.875 -2.0328  0.8602  0.6786
 1418SOL    HW215891   0.753   1.211   7.743  1.0290  1.6886  0.9731
 1419SOL     OW15892   2.525   3.917   7.985  0.4151 -0.0196 -0.4905
 1419SOL    HW115893   2.558   3.832   7.958  0.5021 -0.3569  0.6657
 1419SOL    HW215894   2.561   3.935   8.072  0.8951  0.3825 -0.7692
 1420SOL     OW15895   3.461   0.358   6.779 -0.1493  0.5171 -0.1370
 1420SOL    HW115896   3.485   0.343   6.871  0.7381  1.8634 -0.1464
 1420SOL    HW215897   3.534   0.414   6.752  0.2980 -0.5326 -1.0970
 1421SOL     OW15898   1.810   3.520   5.184 -0.2259  0.4639  0.9049
 1421SOL    HW115899   1.796   3.443   5.129  3.7395 -0.6176  1.3789
 1421SOL    HW215900   1.826   3.586   5.117 -0.1326  1.6515  2.0980
 1422SOL     OW15901   0.026   3.418   7.156 -0.1227  0.2418 -0.5128
 1422SOL    HW115902   0.010   3.392   7.065 -0.7423  0.1728 -0.3853
 1422SOL    HW215903   4.722   3.502   7.167 -0.7596  0.0509 -1.6821
 1423SOL     OW15904   0.896   1.307  17.286 -0.0873  0.2746  0.1622
 1423SOL    HW115905   0.830   1.270  17.227 -0.0390 -0.2110  0.4151
 1423SOL    HW215906   0.957   1.338  17.219 -0.0135 -1.6891 -0.6910
 1424SOL     OW15907   2.034   3.106   5.955  0.3493  0.6526  0.1763
 1424SOL    HW115908   1.949   3.112   5.998 -0.4573  0.0971 -1.3719
 1424SOL    HW215909   2.035   3.192   5.913 -0.4396  0.5927  0.0399
 1425SOL     OW15910   4.088   3.294   2.060  0.5227  0.3569 -0.2090
 1425SOL    HW115911   4.120   3.376   2.023  0.5862 -0.5523 -2.1646
 1425SOL    HW215912   3.994   3.309   2.062  0.1609 -1.7969 -0.4020
 1426SOL     OW15913   4.357   2.186   1.120  0.2389  0.1433 -0.1672
 1426SOL    HW115914   4.443   2.188   1.162  0.8005 -2.2542 -1.2272
 1426SOL    HW215915   4.358   2.102   1.074 -0.4344 -0.7880  1.5126
 1427SOL     OW15916   2.037   0.677   9.241 -0.3480  0.3668 -0.7416
 1427SOL    HW115917   2.008   0.707   9.328 -0.1013  0.1646 -0.5895
 1427SOL    HW215918   2.011   0.752   9.189  0.4660  1.2992  0.1919
 1428SOL     OW15919   1.839   3.365   6.852 -0.3646  0.3873  0.2816
 1428SOL    HW115920   1.883   3.440   6.892 -0.5573 -0.7543  2.6716
 1428SOL    HW215921   1.853   3.386   6.760  2.4367  1.5431  0.9490
 1429SOL     OW15922   3.551   0.809   1.607  0.6232 -0.0425 -0.0797
 1429SOL    HW115923   3.596   0.793   1.690 -0.5267 -0.6950  0.4208
 1429SOL    HW215924   3.468   0.765   1.626  0.4473 -0.5106 -1.8829
 1430SOL     OW15925   0.090   3.714   1.477  0.1566 -0.0581 -0.6310
 1430SOL    HW115926   0.145   3.714   1.556 -0.1899  3.1581 -0.3944
 1430SOL    HW215927   0.010   3.678   1.514  1.0872 -2.6395 -1.1300
 1431SOL     OW15928   4.301   2.690   3.580 -0.2729  0.6864  0.3297
 1431SOL    HW115929   4.323   2.619   3.520  0.4460  0.9085  0.3195
 1431SOL    HW215930   4.327   2.644   3.659  0.0165  1.9802  0.9888
 1432SOL     OW15931   1.893   4.721   9.453 -0.0186 -0.2240  0.7835
 1432SOL    HW115932   1.875   4.717   9.359 -0.5190  1.9138  0.7899
 1432SOL    HW215933   1.981   0.014   9.461 -1.0843  1.9364  2.6614
 1433SOL     OW15934   0.857   0.619  16.274  0.4687 -0.6196 -0.1384
 1433SOL    HW115935   0.896   0.558  16.337 -1.2622 -2.2283 -0.5943
 1433SOL    HW215936   0.773   0.635  16.318 -0.0903 -1.2998 -0.9424
 1434SOL     OW15937   1.950   4.464   3.566 -0.7152 -0.2237  0.0898
 1434SOL    HW115938   2.014   4.515   3.516  0.3696 -0.3534  1.3259
 1434SOL    HW215939   1.977   4.376   3.542  3.0019  1.4171 -1.8431
 1435SOL     OW15940   1.370   1.123   5.028 -0.3824 -0.1052  0.5439
 1435SOL    HW115941   1.323   1.058   5.081  0.4435 -1.6904 -0.6608
 1435SOL    HW215942   1.404   1.073   4.954  1.4232  3.0125 -0.7043
 1436SOL     OW15943   3.477   4.648   5.622  0.2797  0.4780 -0.5539
 1436SOL    HW115944   3.393   4.694   5.617 -0.5095 -0.7537  1.4678
 1436SOL    HW215945   3.484   4.622   5.530  0.4683 -0.4820 -0.2651
 1437SOL     OW15946   2.307   4.480   5.679 -0.6172  0.4709  0.1322
 1437SOL    HW115947   2.269   4.518   5.600 -0.2136 -2.2955 -1.3910
 1437SOL    HW215948   2.357   4.554   5.714  1.2122 -0.7832  0.2095
 1438SOL     OW15949   2.376   3.445   2.502 -0.2362  0.7921 -0.3429
 1438SOL    HW115950   2.350   3.414   2.589 -2.7020 -1.0290 -1.7134
 1438SOL    HW215951   2.413   3.367   2.461 -1.0351 -0.1712  0.7919
 1439SOL     OW15952   3.383   1.031  14.240  0.5772  0.3094 -0.0107
 1439SOL    HW115953   3.455   1.076  14.194  1.8533 -0.9936  0.7149
 1439SOL    HW215954   3.423   1.002  14.322 -0.7480 -1.6191 -0.0558
 1440SOL     OW15955   1.166   2.465   5.984  0.2123 -0.7377 -0.0636
 1440SOL    HW115956   1.137   2.411   6.058  1.0064 -1.9444 -0.6294
 1440SOL    HW215957   1.091   2.480   5.926 -1.8506 -0.2880  2.7109
 1441SOL     OW15958   1.127   0.811   7.655  0.3301  0.4966  0.1096
 1441SOL    HW115959   1.054   0.863   7.688  1.0304  1.3199  0.3639
 1441SOL    HW215960   1.198   0.824   7.718 -0.8618  0.8569  1.3701
 1442SOL     OW15961   1.737   3.595   3.447  0.6484  0.0709 -0.1751
 1442SOL    HW115962   1.810   3.563   3.499  0.1381 -0.4630  0.2128
 1442SOL    HW215963   1.781   3.637   3.373 -0.6352  1.0308 -0.3936
 1443SOL     OW15964   1.827   4.126  12.147 -0.2823 -0.1305 -0.4286
 1443SOL    HW115965   1.900   4.169  12.191 -0.4173 -1.6636  1.2838
 1443SOL    HW215966   1.770   4.202  12.132 -0.9457 -0.7364 -0.9674
 1444SOL     OW15967   4.042   2.054   4.786 -0.3279 -0.2616  0.3212
 1444SOL    HW115968   4.031   1.963   4.813  0.3106  0.1802  2.0111
 1444SOL    HW215969   3.970   2.068   4.723 -0.7229 -1.5170  0.4923
 1445SOL     OW15970   4.680   4.511  11.068 -0.0608 -0.1729 -0.0878
 1445SOL    HW115971   4.719   4.499  11.155  0.6915 -1.0164 -0.5510
 1445SOL    HW215972   4.709   4.436  11.017 -2.2648 -0.9542 -0.2067
 1446SOL     OW15973   0.670   0.902   3.978 -0.1582  0.4378 -0.0995
 1446SOL    HW115974   0.759   0.928   3.954  0.0166 -0.3368 -0.3068
 1446SOL    HW215975   0.654   0.840   3.907  0.7718  0.6971 -0.5355
 1447SOL     OW15976   3.176   3.565   4.679 -0.4128 -0.5901 -0.5637
 1447SOL    HW115977   3.122   3.486   4.670 -1.7318  0.1330  0.9838
 1447SOL    HW215978   3.241   3.567   4.609 -1.1652 -0.1527 -1.2511
 1448SOL     OW15979   2.085   0.859   7.383  0.0417  0.2281  0.0395
 1448SOL    HW115980   2.178   0.844   7.399  0.1557  2.5163  1.6362
 1448SOL    HW215981   2.082   0.840   7.289  0.7461  0.0356  0.0548
 1449SOL     OW15982   1.389   2.509   3.631  0.2675  0.1782  0.1741
 1449SOL    HW115983   1.378   2.551   3.545 -1.3101 -0.1040  0.2353
 1449SOL    HW215984   1.378   2.597   3.668  0.5145  0.6500 -0.8628
 1450SOL     OW15985   2.714   1.450   1.355 -0.0353  0.6068  0.4617
 1450SOL    HW115986   2.741   1.442   1.446 -1.2129  2.0791  0.9457
 1450SOL    HW215987   2.791   1.493   1.318  0.7681 -2.5955 -1.5691
 1451SOL     OW15988   3.428   3.626   0.116  0.2035  0.1138  0.0352
 1451SOL    HW115989   3.433   3.654   0.025 -0.5912 -0.1752 -0.0932
 1451SOL    HW215990   3.416   3.708   0.164 -1.1943 -0.0749  0.0119
 1452SOL     OW15991   2.223   2.697   3.448 -0.3624  0.0692  0.8185
 1452SOL    HW115992   2.207   2.619   3.394 -0.6375  0.2795  0.5962
 1452SOL    HW215993   2.317   2.692   3.465 -0.2748 -0.3756  0.2060
 1453SOL     OW15994   3.237   4.470  17.679 -0.0762  0.1120 -0.0395
 1453SOL    HW115995   3.153   4.502  17.646 -0.8754 -1.4809  0.4471
 1453SOL    HW215996   3.251   4.395  17.621  0.8703  0.3524 -0.1343
 1454SOL     OW15997   4.341   3.052   3.063 -0.4116 -0.0260  0.7080
 1454SOL    HW115998   4.397   3.032   2.989  0.0194  1.5508  0.6104
 1454SOL    HW215999   4.259   3.008   3.043 -1.0495  1.1484  0.7062
 1455SOL     OW16000   1.292   3.301   7.158 -0.7511  0.3713  0.4545
 1455SOL    HW116001   1.352   3.228   7.174 -1.9273 -0.3209  1.7977
 1455SOL    HW216002   1.321   3.325   7.071 -1.4081 -1.3232 -0.2284
 1456SOL     OW16003   4.740   4.614  14.204 -0.0653  0.1927  0.0295
 1456SOL    HW116004   4.661   4.657  14.171  2.0254  2.5299 -1.8929
 1456SOL    HW216005   4.709   4.528  14.233  0.1080  0.0639 -0.1684
 1457SOL     OW16006   3.386   3.169   6.002  0.1198  0.3514  0.2604
 1457SOL    HW116007   3.335   3.108   5.949 -2.0330  0.6317  1.9980
 1457SOL    HW216008   3.311   3.198   6.054  0.1800 -1.2489  1.2650
 1458SOL     OW16009   3.052   3.778   1.180 -0.1985 -1.0331  0.7028
 1458SOL    HW116010   3.135   3.800   1.223 -1.2954  2.8849  0.8021
 1458SOL    HW216011   2.990   3.770   1.252 -0.2719  0.6311  0.8303
 1459SOL     OW16012   3.897   3.942   8.793 -0.5310  0.4343 -0.3253
 1459SOL    HW116013   3.914   3.849   8.779  1.0435  0.6465  0.3095
 1459SOL    HW216014   3.985   3.967   8.822 -0.9391 -1.3580  2.3995
 1460SOL     OW16015   4.277   2.608   9.899 -0.2634 -0.2716 -0.1399
 1460SOL    HW116016   4.295   2.662   9.976 -0.9638 -2.3386  1.4561
 1460SOL    HW216017   4.315   2.520   9.905 -0.8433 -0.4521  0.9063
 1461SOL     OW16018   2.285   1.633   5.042 -0.0438  0.4808 -0.2755
 1461SOL    HW116019   2.370   1.654   5.006 -0.7096 -1.2055 -2.8052
 1461SOL    HW216020   2.298   1.558   5.101 -2.1017 -1.2580 -2.0185
 1462SOL     OW16021   3.523   2.452   8.266  0.1474  0.2390  0.2336
 1462SOL    HW116022   3.479   2.464   8.351 -1.0150 -0.3646 -0.2856
 1462SOL    HW216023   3.467   2.513   8.219  2.1874  1.8406 -0.1078
 1463SOL     OW16024   1.211   0.778   7.004  0.3625 -0.0465  1.1510
 1463SOL    HW116025   1.145   0.715   7.032 -1.1303  1.6340  1.4003
 1463SOL    HW216026   1.289   0.739   7.044  1.7787 -0.9661 -2.4811
 1464SOL     OW16027   2.457   3.126   2.400  0.0294 -0.1489  0.1130
 1464SOL    HW116028   2.551   3.125   2.385 -0.2081 -0.8733 -1.4374
 1464SOL    HW216029   2.441   3.074   2.479  0.5819  1.4286  1.2439
 1465SOL     OW16030   4.660   1.858   2.741 -0.0467  0.0358 -0.2308
 1465SOL    HW116031   4.568   1.862   2.714 -0.8134 -0.0018  2.3656
 1465SOL    HW216032   4.695   1.946   2.726  1.1854 -0.7363 -1.9349
 1466SOL     OW16033   3.805   2.389   6.676 -0.1464 -0.6078  0.3802
 1466SOL    HW116034   3.870   2.459   6.678 -1.1015  0.2423  1.2866
 1466SOL    HW216035   3.745   2.431   6.615  0.4489 -1.7011 -0.9668
 1467SOL     OW16036   0.209   4.696  11.298  0.4791 -0.6747  0.2787
 1467SOL    HW116037   0.200   0.011  11.374 -0.3747 -0.2367 -0.1463
 1467SOL    HW216038   0.121   4.657  11.297  0.4861 -0.7781  4.1310
 1468SOL     OW16039   1.555   4.481   5.657 -0.2949  0.3533 -0.1069
 1468SOL    HW116040   1.645   4.450   5.658 -0.3488  0.1969  0.0972
 1468SOL    HW216041   1.511   4.453   5.738 -1.7915  0.0115 -1.0401
 1469SOL     OW16042   0.366   2.618   5.250  0.7804  0.6824  0.1724
 1469SOL    HW116043   0.290   2.675   5.260  0.2103 -0.1280  0.4939
 1469SOL    HW216044   0.341   2.540   5.300 -1.6159  0.6873 -1.0035
 1470SOL     OW16045   2.229   1.292   3.740 -0.1038  0.5708  0.1530
 1470SOL    HW116046   2.200   1.201   3.743  1.9515 -0.2344 -3.4498
 1470SOL    HW216047   2.294   1.289   3.670  1.1952  1.1478  1.3319
 1471SOL     OW16048   3.525   2.191   2.200  0.0485  0.2044  0.3546
 1471SOL    HW116049   3.564   2.152   2.278  1.5261 -0.4881 -0.7343
 1471SOL    HW216050   3.508   2.279   2.233  1.6083  0.6131  0.0515
 1472SOL     OW16051   4.631   2.978   0.794 -0.0935 -0.0052 -0.3329
 1472SOL    HW116052   4.709   2.997   0.846  0.1092  1.4672 -1.1667
 1472SOL    HW216053   4.632   3.047   0.728 -0.3407  0.4006  0.0848
 1473SOL     OW16054   0.646   4.499   7.576  0.3695 -0.1252 -0.1064
 1473SOL    HW116055   0.617   4.590   7.580 -0.1332 -0.3286  0.7575
 1473SOL    HW216056   0.735   4.507   7.610  0.5958 -2.5689 -0.1210
 1474SOL     OW16057   0.512   0.442   6.300 -0.2382 -0.3204  0.6500
 1474SOL    HW116058   0.549   0.491   6.373 -0.0498  2.1391 -1.0935
 1474SOL    HW216059   0.530   0.507   6.232 -1.8088  0.0818  0.6288
 1475SOL     OW16060   1.543   0.484   9.098 -0.3989  0.8714 -0.0386
 1475SOL    HW116061   1.578   0.567   9.067 -1.3235  0.4914 -2.0637
 1475SOL    HW216062   1.464   0.485   9.045 -0.8949 -1.9005  0.6462
 1476SOL     OW16063   0.348   4.715   8.332 -0.2103 -0.0109  0.7278
 1476SOL    HW116064   0.276   4.684   8.277  2.0740 -2.8529 -0.6462
 1476SOL    HW216065   0.317   4.669   8.410  1.3350 -0.3407  1.1398
 1477SOL     OW16066   3.604   0.167   8.831  0.4611  0.2734 -0.5672
 1477SOL    HW116067   3.618   0.076   8.806 -0.4102 -0.4615  1.5935
 1477SOL    HW216068   3.679   0.212   8.792  0.0314  0.5888 -1.0451
 1478SOL     OW16069   4.691   1.137   2.626 -0.0135 -0.0483 -0.2191
 1478SOL    HW116070   4.611   1.156   2.674  0.3949  0.4460  0.2660
 1478SOL    HW216071   0.006   1.212   2.642 -3.2635  2.3795 -0.0032
 1479SOL     OW16072   0.811   2.081   2.200 -0.3978 -0.0293 -0.0028
 1479SOL    HW116073   0.868   2.026   2.146  0.7247  1.2531 -0.1335
 1479SOL    HW216074   0.762   2.007   2.236  1.1409 -0.7688  0.5957
 1480SOL     OW16075   1.178   3.570   4.794 -0.3193  0.0752  0.4959
 1480SOL    HW116076   1.229   3.568   4.714  0.3513  0.4686  0.9173
 1480SOL    HW216077   1.248   3.587   4.857  0.9317 -2.0353 -0.3366
 1481SOL     OW16078   0.544   1.577   2.903 -0.1163  0.4807  0.0234
 1481SOL    HW116079   0.636   1.603   2.897  0.4258 -1.8623 -1.8859
 1481SOL    HW216080   0.547   1.548   2.994  0.5886  2.9371  0.7667
 1482SOL     OW16081   4.155   0.973  10.702 -0.4576 -0.1953  0.1102
 1482SOL    HW116082   4.116   1.043  10.754  1.3554  1.4554 -0.7483
 1482SOL    HW216083   4.240   0.962  10.744  0.7102 -3.2135 -2.9705
 1483SOL     OW16084   4.527   4.249   2.362 -0.5405 -0.2652 -0.0220
 1483SOL    HW116085   4.524   4.318   2.296 -0.3904 -1.1100 -0.9223
 1483SOL    HW216086   4.479   4.294   2.431  1.1050  0.4908  0.6329
 1484SOL     OW16087   4.041   1.911   2.076  0.0779 -0.2350 -0.3464
 1484SOL    HW116088   4.064   1.994   2.035  0.8374 -0.8281 -1.1171
 1484SOL    HW216089   4.127   1.877   2.101 -0.7859 -1.0708  1.5117
 1485SOL     OW16090   2.465   2.281   8.350 -0.3836 -0.1657  0.5783
 1485SOL    HW116091   2.384   2.327   8.328  0.4412 -0.2672 -2.7042
 1485SOL    HW216092   2.529   2.344   8.381  1.0004 -0.4291 -1.7313
 1486SOL     OW16093   4.479   4.475   8.311 -0.4605 -0.2440  0.0619
 1486SOL    HW116094   4.500   4.524   8.391 -2.2199  0.6156 -0.0008
 1486SOL    HW216095   4.549   4.496   8.249 -2.5054  0.7053 -1.9570
 1487SOL     OW16096   1.550   4.001  13.244 -0.0613  0.0303  0.2896
 1487SOL    HW116097   1.619   3.991  13.310 -1.2249  1.7258  1.7695
 1487SOL    HW216098   1.472   4.005  13.299 -1.9380 -1.0846 -2.3050
 1488SOL     OW16099   3.435   1.990   1.788  0.4409  0.6338 -0.1065
 1488SOL    HW116100   3.452   1.983   1.882 -0.0334  0.2095 -0.0504
 1488SOL    HW216101   3.525   1.997   1.758  0.4940 -2.8049 -0.7571
 1489SOL     OW16102   4.694   0.785  14.701 -0.3108  0.0086 -0.2728
 1489SOL    HW116103   0.045   0.767  14.718 -0.6224 -2.1639 -0.9004
 1489SOL    HW216104   4.705   0.795  14.606 -2.6798 -2.1740 -0.7800
 1490SOL     OW16105   1.083   3.192   1.537 -0.0662 -0.0587  0.3386
 1490SOL    HW116106   1.136   3.113   1.525 -1.1679 -0.5951 -1.0064
 1490SOL    HW216107   1.156   3.250   1.558 -0.0531  0.1490 -0.2866
 1491SOL     OW16108   2.838   0.248   2.640 -0.3657  0.1684  0.3037
 1491SOL    HW116109   2.918   0.280   2.599 -2.7316  2.0115 -2.8854
 1491SOL    HW216110   2.825   0.163   2.598 -0.2797  0.7319 -0.8709
 1492SOL     OW16111   0.557   1.327   2.655 -0.3155  0.9911 -0.0609
 1492SOL    HW116112   0.586   1.271   2.727 -0.9861 -1.0835 -1.3967
 1492SOL    HW216113   0.586   1.411   2.690  1.4062  0.1989  0.3982
 1493SOL     OW16114   2.333   3.656   9.720  0.2809  0.4179 -0.5516
 1493SOL    HW116115   2.312   3.737   9.766  0.5561  2.1353 -3.4863
 1493SOL    HW216116   2.315   3.599   9.795 -2.4213  0.1549 -1.3843
 1494SOL     OW16117   3.003   1.237   7.375 -0.1687 -0.2492  0.2801
 1494SOL    HW116118   2.913   1.207   7.392 -0.1066 -1.6825 -1.9634
 1494SOL    HW216119   3.035   1.147   7.363  1.9245  0.5612 -0.0492
 1495SOL     OW16120   1.048   1.758  16.271 -0.2357 -0.2253  0.0574
 1495SOL    HW116121   1.044   1.844  16.312 -4.1311 -1.0345  1.3445
 1495SOL    HW216122   1.128   1.765  16.219 -2.1625  2.3811 -2.5482
 1496SOL     OW16123   2.050   1.934   0.660  0.0635 -0.1805 -0.5678
 1496SOL    HW116124   2.113   1.878   0.615 -1.5732 -0.8296 -2.0340
 1496SOL    HW216125   2.062   1.899   0.749  1.7637 -0.7385 -1.0248
 1497SOL     OW16126   0.116   0.498   3.179 -0.2615 -0.0176  0.0214
 1497SOL    HW116127   0.153   0.436   3.116 -2.6476 -0.4753 -0.9509
 1497SOL    HW216128   0.119   0.448   3.261  3.5098 -1.3214 -0.9121
 1498SOL     OW16129   3.407   1.005   7.971  0.3256  0.0571  0.5325
 1498SOL    HW116130   3.349   1.028   7.898  0.7392  0.3237  0.2916
 1498SOL    HW216131   3.482   0.973   7.922 -1.1768 -2.5734 -0.0155
 1499SOL     OW16132   3.989   4.726  15.768  0.0515 -0.3940 -0.1216
 1499SOL    HW116133   3.960   4.646  15.813  2.2887  0.0157  2.0754
 1499SOL    HW216134   4.018   4.685  15.687  0.1756  1.1547 -0.8614
 1500SOL     OW16135   0.602   0.624  14.751  0.6452 -0.3497 -0.4588
 1500SOL    HW116136   0.645   0.705  14.780  1.0235 -0.4202 -0.8147
 1500SOL    HW216137   0.579   0.591  14.838 -0.1286 -2.0058 -1.3086
 1501SOL     OW16138   1.242   2.404  15.737 -0.2057  0.2884 -0.5036
 1501SOL    HW116139   1.279   2.316  15.724  2.1556  0.9097  1.8688
 1501SOL    HW216140   1.192   2.416  15.656 -1.6125  1.6649  0.5747
 1502SOL     OW16141   0.851   4.125   7.750  0.0792 -0.6738 -0.8638
 1502SOL    HW116142   0.891   4.196   7.698  2.7602 -0.2032  1.8055
 1502SOL    HW216143   0.806   4.179   7.815  0.2257 -2.3503  0.6377
 1503SOL     OW16144   3.212   2.408   5.343  0.0856  0.1027 -0.5837
 1503SOL    HW116145   3.247   2.330   5.301 -1.0599 -0.8687  0.2452
 1503SOL    HW216146   3.296   2.453   5.353  0.2435 -0.2253 -0.4373
 1504SOL     OW16147   2.897   0.563   1.730  0.1203  0.5202 -0.4580
 1504SOL    HW116148   2.881   0.479   1.688 -2.5925 -0.0235  1.6262
 1504SOL    HW216149   2.898   0.544   1.824  2.7799 -1.4970 -0.9077
 1505SOL     OW16150   2.233   2.984  12.610  0.4436 -0.5424 -0.1975
 1505SOL    HW116151   2.148   2.973  12.567  1.1695 -2.4262 -1.1351
 1505SOL    HW216152   2.234   3.079  12.627 -2.1602 -0.4542 -0.5658
 1506SOL     OW16153   4.072   4.187   3.029  0.3228 -0.6274  0.1128
 1506SOL    HW116154   4.102   4.278   3.039 -1.6257  0.0992 -0.4915
 1506SOL    HW216155   4.095   4.185   2.936 -1.3814 -0.7392 -0.3145
 1507SOL     OW16156   3.441   2.535   1.392 -0.1689  0.1319  0.2737
 1507SOL    HW116157   3.432   2.553   1.299 -1.0054 -3.9576 -0.4420
 1507SOL    HW216158   3.400   2.616   1.423  1.0525  0.9940 -0.3915
 1508SOL     OW16159   1.948   3.117   7.340 -0.4583  0.0135  0.1736
 1508SOL    HW116160   1.907   3.163   7.267 -0.3995 -0.5609 -0.2192
 1508SOL    HW216161   2.034   3.098   7.303 -0.9759  1.9878 -2.0481
 1509SOL     OW16162   1.790   1.176   6.457  0.3019  0.1920  0.1240
 1509SOL    HW116163   1.728   1.171   6.383 -0.0071 -0.1887  0.4081
 1509SOL    HW216164   1.824   1.089   6.433 -0.1375 -0.0123  0.2369
 1510SOL     OW16165   2.136   2.794   7.301  0.6654 -0.0663  0.2361
 1510SOL    HW116166   2.079   2.799   7.378 -0.6301  2.6466 -0.8998
 1510SOL    HW216167   2.220   2.818   7.338  1.0885  1.2280 -1.5927
 1511SOL     OW16168   0.152   2.797  12.125 -0.4559  0.2571 -0.9065
 1511SOL    HW116169   0.115   2.880  12.157 -0.6953  0.1774 -0.9804
 1511SOL    HW216170   0.099   2.729  12.166 -0.6793 -0.3479 -2.1952
 1512SOL     OW16171   2.622   3.255   5.632  0.3723  0.4171  0.0987
 1512SOL    HW116172   2.684   3.199   5.678  2.4299  1.5748 -1.2088
 1512SOL    HW216173   2.673   3.336   5.621 -0.7509  1.1083 -0.0700
 1513SOL     OW16174   1.712   3.197  10.986  0.9667 -0.2730 -0.3739
 1513SOL    HW116175   1.647   3.132  11.012 -0.4748  0.5502 -1.9382
 1513SOL    HW216176   1.775   3.135  10.949  0.3044 -2.0907  1.5069
 1514SOL     OW16177   0.803   1.508  12.900  0.0794 -0.0763  0.4241
 1514SOL    HW116178   0.736   1.576  12.909 -0.9474 -0.7452 -2.3615
 1514SOL    HW216179   0.790   1.494  12.807  3.1240  2.7980 -0.4515
 1515SOL     OW16180   1.336   3.642   3.906  0.0075  0.3443 -0.7016
 1515SOL    HW116181   1.301   3.730   3.898 -0.7710  0.2237  1.5082
 1515SOL    HW216182   1.430   3.662   3.915 -0.7707  2.6666  2.1855
 1516SOL     OW16183   3.412   0.362   5.930 -0.1735  0.5815 -0.5549
 1516SOL    HW116184   3.370   0.317   5.856  1.6204  0.1216 -1.2923
 1516SOL    HW216185   3.399   0.303   6.005  0.5897  0.8301 -0.2229
 1517SOL     OW16186   2.021   4.373   9.626  0.7507 -0.2517 -0.1463
 1517SOL    HW116187   2.083   4.331   9.566 -0.5811 -1.3024 -0.7827
 1517SOL    HW216188   2.019   4.310   9.698 -0.4203 -2.0591 -1.7609
 1518SOL     OW16189   1.365   1.105   6.674 -0.7772 -0.1620 -0.1437
 1518SOL    HW116190   1.396   1.157   6.599 -0.0056  1.3396  1.2304
 1518SOL    HW216191   1.418   1.028   6.654 -0.4437  0.6005 -2.2485
 1519SOL     OW16192   3.963   0.133   2.846 -0.1687 -0.4002 -0.2111
 1519SOL    HW116193   3.898   0.199   2.824  0.7286  0.1604 -1.1946
 1519SOL    HW216194   3.918   0.056   2.812 -0.5654 -1.3083  2.3472
 1520SOL     OW16195   1.375   2.282   2.816 -0.3072  0.0759  0.0322
 1520SOL    HW116196   1.452   2.303   2.868 -0.0999 -0.4082 -0.0782
 1520SOL    HW216197   1.317   2.240   2.881  1.8755 -0.2685  1.7660
 1521SOL     OW16198   0.202   1.434  11.745 -0.0583 -0.4419  0.1695
 1521SOL    HW116199   0.252   1.450  11.825 -0.5522  1.3285  0.1321
 1521SOL    HW216200   0.259   1.360  11.722 -0.6122 -1.4913  2.1696
 1522SOL     OW16201   1.810   3.554  11.352  0.2562  0.6139 -0.4177
 1522SOL    HW116202   1.793   3.599  11.435  0.0645 -0.4972  0.1452
 1522SOL    HW216203   1.798   3.461  11.370  1.6810  0.7796  1.3679
 1523SOL     OW16204   1.958   0.161  13.066  0.9518  0.0304  0.2138
 1523SOL    HW116205   1.904   0.118  13.000 -0.0049  0.4535  0.7236
 1523SOL    HW216206   1.929   0.247  13.036 -1.4326 -1.9123 -3.0811
 1524SOL     OW16207   3.384   2.711   5.771 -0.2658  0.1949 -0.0266
 1524SOL    HW116208   3.325   2.761   5.715 -3.8862 -0.5211  3.2201
 1524SOL    HW216209   3.330   2.672   5.839 -0.2005  1.0430  0.5108
 1525SOL     OW16210   0.342   2.122  13.393  0.6695 -0.3130  0.2701
 1525SOL    HW116211   0.344   2.218  13.395 -0.0303 -0.2969  0.4862
 1525SOL    HW216212   0.364   2.105  13.302 -1.4250  0.7946 -0.4480
 1526SOL     OW16213   0.738   1.715   5.167  0.1629  0.0386 -0.0482
 1526SOL    HW116214   0.781   1.709   5.082  0.3468  0.5302  0.0080
 1526SOL    HW216215   0.688   1.634   5.162  0.1093 -0.1226  2.7920
 1527SOL     OW16216   2.753   4.696  15.325  0.1102 -0.4272 -0.0517
 1527SOL    HW116217   2.819   4.723  15.389 -1.7795  2.3560  0.6837
 1527SOL    HW216218   2.800   4.641  15.262  0.0921 -1.1217  0.5373
 1528SOL     OW16219   1.715   2.173   9.961 -0.4489  0.0021  0.1008
 1528SOL    HW116220   1.684   2.220   9.884  1.0853  0.1744 -0.4223
 1528SOL    HW216221   1.679   2.235  10.024 -0.5596 -0.9337  0.9655
 1529SOL     OW16222   3.739   4.265   7.717 -0.1208 -0.1915  0.4723
 1529SOL    HW116223   3.704   4.255   7.806  0.7942 -2.6296  0.5633
 1529SOL    HW216224   3.823   4.221   7.726 -0.2810 -0.4148  0.8832
 1530SOL     OW16225   2.465   0.858  10.241 -0.6223  0.0108  0.4812
 1530SOL    HW116226   2.434   0.838  10.153  2.5265  0.1449 -0.6578
 1530SOL    HW216227   2.560   0.870  10.229 -0.4053  0.2613  2.4207
 1531SOL     OW16228   0.376   4.026  12.274 -0.8505 -0.0768  0.1746
 1531SOL    HW116229   0.465   4.050  12.248 -0.9466 -0.6541 -0.6821
 1531SOL    HW216230   0.394   3.937  12.302  1.6153 -0.9580 -4.2175
 1532SOL     OW16231   3.239   2.864   2.419 -0.3345  0.0381  0.3163
 1532SOL    HW116232   3.148   2.841   2.437 -0.4478 -0.6833 -1.2017
 1532SOL    HW216233   3.229   2.959   2.417 -1.8380 -0.1356  0.1089
 1533SOL     OW16234   0.550   0.835  16.204  0.2287 -0.1709  0.0262
 1533SOL    HW116235   0.614   0.854  16.136 -0.0109 -0.2709 -0.2267
 1533SOL    HW216236   0.500   0.766  16.161  0.8385 -1.2363  1.0461
 1534SOL     OW16237   4.717   4.378   8.603 -0.0402 -0.1858  0.0082
 1534SOL    HW116238   4.634   4.367   8.648  0.8660  2.1747  2.2562
 1534SOL    HW216239   4.699   4.443   8.535 -1.8490 -1.4613 -0.7444
 1535SOL     OW16240   1.926   0.924  16.105  0.0393 -0.6023 -0.8804
 1535SOL    HW116241   1.841   0.931  16.150  1.0333  2.1278  0.5504
 1535SOL    HW216242   1.911   0.894  16.015  2.0553 -3.6314 -0.1929
 1536SOL     OW16243   0.550   4.562   3.566 -0.5479  0.2727 -0.2966
 1536SOL    HW116244   0.584   4.569   3.655 -0.2044 -1.4168 -0.2870
 1536SOL    HW216245   0.619   4.608   3.518 -0.0577 -0.0926  0.0569
 1537SOL     OW16246   3.867   1.340  14.175 -0.0006  0.1263 -0.4054
 1537SOL    HW116247   3.943   1.283  14.182 -0.2472 -0.1356  0.0912
 1537SOL    HW216248   3.879   1.386  14.091 -1.6750 -0.8537 -1.1903
 1538SOL     OW16249   1.465   3.829   6.024  1.2828 -0.1317  0.0473
 1538SOL    HW116250   1.478   3.875   5.941  0.1699  1.3910  0.7192
 1538SOL    HW216251   1.411   3.893   6.070  0.0762  0.1426 -1.7756
 1539SOL     OW16252   4.236   3.131   7.897 -0.0878  0.2947 -0.2280
 1539SOL    HW116253   4.156   3.095   7.858  1.4549  0.0653 -3.2127
 1539SOL    HW216254   4.255   3.058   7.957 -1.9221  1.1720  1.4175
 1540SOL     OW16255   1.348   0.090   8.430  0.7447 -0.0756 -0.3656
 1540SOL    HW116256   1.350   0.118   8.522  1.8259  0.5976 -0.5904
 1540SOL    HW216257   1.443   0.096   8.420  0.5325  1.8292 -1.3388
 1541SOL     OW16258   4.706   0.951   3.305 -0.3894 -0.3210  0.1710
 1541SOL    HW116259   4.677   1.041   3.290  0.3723  0.1246  1.3309
 1541SOL    HW216260   4.691   0.946   3.400 -1.6056  0.4249  0.0255
 1542SOL     OW16261   3.868   2.863   3.960  0.4390 -0.3864  0.6638
 1542SOL    HW116262   3.789   2.848   4.012  0.2746  2.7192  1.3383
 1542SOL    HW216263   3.926   2.893   4.030 -1.3633  0.8142  1.6640
 1543SOL     OW16264   1.738   2.220   0.317  0.0701 -0.1619 -0.4159
 1543SOL    HW116265   1.718   2.148   0.257  0.8559 -0.3219 -0.4847
 1543SOL    HW216266   1.789   2.183   0.389  0.0832 -0.2755 -0.4830
 1544SOL     OW16267   1.863   2.130   1.535 -0.2174 -0.2296 -0.0358
 1544SOL    HW116268   1.897   2.217   1.513 -2.3682  0.6349  0.0480
 1544SOL    HW216269   1.921   2.069   1.489  1.2915  0.7486  0.5913
 1545SOL     OW16270   2.987   1.299   7.976  0.3281  0.5576 -0.5417
 1545SOL    HW116271   2.938   1.356   7.917  0.0565 -0.9320 -1.7325
 1545SOL    HW216272   2.974   1.214   7.935  1.7453 -0.9059  2.0626
 1546SOL     OW16273   0.237   3.669   8.875 -0.2178 -0.5057  0.4042
 1546SOL    HW116274   0.322   3.643   8.839  0.4988  1.2357  0.8097
 1546SOL    HW216275   0.197   3.583   8.872 -0.7978 -0.1762 -1.3368
 1547SOL     OW16276   2.361   3.029  12.231  0.7860 -0.3656  0.7949
 1547SOL    HW116277   2.356   3.102  12.293  1.1120  0.6130 -0.3218
 1547SOL    HW216278   2.364   2.952  12.287  1.1891 -1.2023 -0.3755
 1548SOL     OW16279   3.106   3.133   2.410  0.0923 -0.7060 -0.3066
 1548SOL    HW116280   3.080   3.120   2.318  0.7608  1.0234 -0.7450
 1548SOL    HW216281   3.028   3.182   2.437  0.2398 -0.3545 -0.5081
 1549SOL     OW16282   3.905   1.795   5.803 -0.7082  0.3946 -0.0745
 1549SOL    HW116283   3.920   1.801   5.898 -3.5120  0.6012  0.3665
 1549SOL    HW216284   3.998   1.793   5.780 -0.9129  0.5480 -0.8950
 1550SOL     OW16285   0.889   1.406   7.933  0.3134 -0.0220 -0.1771
 1550SOL    HW116286   0.840   1.445   8.006 -1.6281  0.2513 -1.6372
 1550SOL    HW216287   0.928   1.476   7.881 -1.0513 -0.1787 -1.4136
 1551SOL     OW16288   2.689   3.757   4.740 -0.3699  0.0532 -0.6914
 1551SOL    HW116289   2.665   3.773   4.831  1.9699  1.0684 -0.2553
 1551SOL    HW216290   2.781   3.734   4.731  0.0938  2.3586 -1.7955
 1552SOL     OW16291   3.275   4.203   5.984 -0.3469  0.1048  0.5012
 1552SOL    HW116292   3.181   4.189   5.992 -0.6190  0.1663 -2.5201
 1552SOL    HW216293   3.305   4.112   5.995  0.5415  0.1071 -1.8828
 1553SOL     OW16294   2.999   0.569   0.289  0.1412  0.2339 -0.2036
 1553SOL    HW116295   3.016   0.577   0.383 -0.9089  0.4253 -0.0321
 1553SOL    HW216296   2.909   0.536   0.290  0.2298  0.0414  1.9559
 1554SOL     OW16297   0.178   1.962   4.157 -0.3056  0.9108 -0.4786
 1554SOL    HW116298   0.159   2.055   4.169  0.6093  1.1853 -1.1504
 1554SOL    HW216299   0.095   1.924   4.185 -0.7413  1.3762 -1.1412
 1555SOL     OW16300   3.055   2.905   3.400  0.4797 -0.2831 -0.1286
 1555SOL    HW116301   2.964   2.909   3.370  0.9345 -0.3539 -1.5232
 1555SOL    HW216302   3.076   2.998   3.398 -0.0056 -0.1477  1.2761
 1556SOL     OW16303   2.283   1.433   4.382 -0.1358  0.4777  0.2602
 1556SOL    HW116304   2.246   1.390   4.459 -0.0110 -1.7825 -0.9136
 1556SOL    HW216305   2.315   1.513   4.424 -0.2626  0.8629 -0.3792
 1557SOL     OW16306   1.640   1.364   4.749 -0.2492 -0.2313  0.3614
 1557SOL    HW116307   1.603   1.361   4.837 -0.0264  1.6039  0.5104
 1557SOL    HW216308   1.603   1.449   4.724 -0.6480  0.0340  1.8556
 1558SOL     OW16309   0.961   4.476   8.592  0.2806 -0.2130 -0.5324
 1558SOL    HW116310   0.925   4.539   8.530 -2.6442 -1.1389  0.1884
 1558SOL    HW216311   0.881   4.433   8.621  0.0411  0.4651 -0.1707
 1559SOL     OW16312   2.891   2.858   1.808  0.6922  0.0953  0.1823
 1559SOL    HW116313   2.868   2.864   1.901 -2.2259  1.5647 -0.6485
 1559SOL    HW216314   2.826   2.790   1.788  1.6479  0.4266 -4.1088
 1560SOL     OW16315   2.225   1.673  17.472  0.0424 -0.8815  0.2172
 1560SOL    HW116316   2.221   1.635  17.384 -0.6527  2.9054 -1.3985
 1560SOL    HW216317   2.252   1.765  17.476 -2.3083 -0.1900  0.4137
 1561SOL     OW16318   1.773   3.699   9.832  0.0098 -0.2239  0.0139
 1561SOL    HW116319   1.736   3.673   9.748 -0.5455  0.2352  0.1187
 1561SOL    HW216320   1.833   3.626   9.850  1.0105  0.6976  0.4347
 1562SOL     OW16321   4.428   3.993   6.135 -0.7806  0.4870 -0.4051
 1562SOL    HW116322   4.347   4.012   6.087 -0.3725  1.7156 -0.6035
 1562SOL    HW216323   4.409   4.035   6.219  0.3146 -0.1422  0.1506
 1563SOL     OW16324   4.181   0.967   6.492  0.0938  0.7103  0.5608
 1563SOL    HW116325   4.157   0.945   6.582  0.7285  2.7222  1.2164
 1563SOL    HW216326   4.253   0.906   6.477 -1.2401 -0.5738 -0.6726
 1564SOL     OW16327   2.733   3.158   2.708 -0.1312  0.3598  0.4734
 1564SOL    HW116328   2.771   3.074   2.682 -2.2087 -0.8946  1.4816
 1564SOL    HW216329   2.641   3.131   2.700  0.0128 -0.1203  0.4470
 1565SOL     OW16330   3.554   3.657  10.829 -0.0867  0.1359 -0.0480
 1565SOL    HW116331   3.614   3.606  10.884 -2.4875 -0.1833  2.3031
 1565SOL    HW216332   3.519   3.579  10.786  0.3003 -0.6868  1.1293
 1566SOL     OW16333   1.867   0.861  15.852  0.3540 -0.2435  0.1348
 1566SOL    HW116334   1.939   0.842  15.792  0.4423 -1.0957  0.5067
 1566SOL    HW216335   1.799   0.893  15.792  0.1507 -0.7138  0.1120
 1567SOL     OW16336   1.638   2.492   9.667  0.4686  0.4968 -0.1595
 1567SOL    HW116337   1.585   2.561   9.626 -0.3825 -1.8966 -3.0820
 1567SOL    HW216338   1.715   2.509   9.612  0.0082 -0.3449 -1.0651
 1568SOL     OW16339   0.831   3.888   4.083  0.3630  0.0149 -0.0314
 1568SOL    HW116340   0.861   3.887   3.993 -1.7416 -2.9565 -0.7024
 1568SOL    HW216341   0.747   3.934   4.075  0.4847  0.1745 -0.3762
 1569SOL     OW16342   3.203   1.370   3.629  0.6544  0.8994  0.3532
 1569SOL    HW116343   3.109   1.363   3.641  0.5326  0.9208 -0.6077
 1569SOL    HW216344   3.230   1.431   3.698  1.4972  0.2960  0.5652
 1570SOL     OW16345   3.953   3.145   3.724 -0.2655  0.3482 -0.1189
 1570SOL    HW116346   3.879   3.108   3.677  0.7807 -1.1708 -0.5624
 1570SOL    HW216347   3.937   3.110   3.812  0.9016  0.2023  0.0306
 1571SOL     OW16348   4.556   3.190   0.160  0.3218 -0.2688 -0.4961
 1571SOL    HW116349   4.510   3.268   0.128  0.6115  0.1970  0.2427
 1571SOL    HW216350   4.631   3.228   0.205 -1.5843 -0.8940  3.2046
 1572SOL     OW16351   4.528   3.593  13.765 -0.0182  0.4598 -0.2493
 1572SOL    HW116352   4.515   3.687  13.764 -1.1505  0.3114  0.2046
 1572SOL    HW216353   4.516   3.576  13.672  0.0093  2.4733 -0.6051
 1573SOL     OW16354   2.271   1.468  10.054  0.0375 -0.4212  0.0450
 1573SOL    HW116355   2.345   1.519  10.021 -1.0517  0.7284 -0.5870
 1573SOL    HW216356   2.315   1.419  10.124  2.6679 -0.1380 -1.4089
 1574SOL     OW16357   4.660   1.731   7.197 -0.3582 -0.1299 -0.1143
 1574SOL    HW116358   4.697   1.689   7.119 -0.2474  1.9347 -1.1755
 1574SOL    HW216359   4.704   1.680   7.266 -0.8775  0.2756  0.5113
 1575SOL     OW16360   0.005   1.163   1.240  0.1628  0.1885 -0.0860
 1575SOL    HW116361   4.722   1.255   1.235 -0.8407 -0.0539  0.5515
 1575SOL    HW216362   0.000   1.162   1.336  0.8501 -2.9736 -0.0797
 1576SOL     OW16363   0.913   0.655  12.849 -0.7699 -0.3767  0.1059
 1576SOL    HW116364   0.938   0.568  12.818  2.2410  0.8785 -0.9381
 1576SOL    HW216365   0.836   0.630  12.900  0.3000  0.3507  2.1084
 1577SOL     OW16366   1.754   0.927   8.993  0.5617  0.0497 -0.7802
 1577SOL    HW116367   1.810   0.979   8.936  0.6161  0.2460 -0.5513
 1577SOL    HW216368   1.799   0.944   9.076 -0.8029  1.3939 -0.3277
 1578SOL     OW16369   2.707   4.483  15.508  0.3162 -0.5543 -0.3269
 1578SOL    HW116370   2.695   4.529  15.591 -1.4477  3.8139 -3.0112
 1578SOL    HW216371   2.730   4.552  15.446  0.3509  2.1791  2.6909
 1579SOL     OW16372   3.927   4.241   6.336  0.2525  0.4585  0.3292
 1579SOL    HW116373   3.847   4.207   6.375  2.0184 -2.7831  1.0975
 1579SOL    HW216374   3.959   4.162   6.292 -3.4170 -1.3527  1.0006
 1580SOL     OW16375   0.718   2.783  15.224 -0.3481 -0.2208  0.1534
 1580SOL    HW116376   0.734   2.767  15.131  2.0273  1.8426  0.2178
 1580SOL    HW216377   0.744   2.875  15.227  1.1942 -0.6629  0.6664
 1581SOL     OW16378   3.547   0.932   8.670 -0.0755 -0.1261  0.3286
 1581SOL    HW116379   3.466   0.881   8.663  0.2047  0.0298 -4.0883
 1581SOL    HW216380   3.544   0.982   8.589  1.2906 -0.6044 -0.0213
 1582SOL     OW16381   2.033   0.348   0.865  0.0933  0.1824  0.2968
 1582SOL    HW116382   2.126   0.372   0.874 -0.1334  0.4114  2.0176
 1582SOL    HW216383   2.043   0.287   0.792 -0.2006 -0.4129  0.7570
 1583SOL     OW16384   2.739   1.442   2.705  0.3915  0.6175  0.2242
 1583SOL    HW116385   2.818   1.477   2.664 -0.0567  1.6693  0.2594
 1583SOL    HW216386   2.758   1.348   2.703 -0.5074  0.4944 -2.4637
 1584SOL     OW16387   4.388   1.951   3.231  0.3419  0.4736  0.2011
 1584SOL    HW116388   4.371   1.860   3.257  1.4731 -0.3177 -1.8543
 1584SOL    HW216389   4.400   1.993   3.316 -1.4158 -0.2829  0.8453
 1585SOL     OW16390   1.765   1.885   5.851 -0.5070 -0.2373 -0.3003
 1585SOL    HW116391   1.704   1.815   5.873 -1.4376  0.0311 -2.0564
 1585SOL    HW216392   1.846   1.851   5.889 -3.0770 -2.4350  3.2080
 1586SOL     OW16393   2.893   2.094   1.515  0.4110 -0.1525 -0.2179
 1586SOL    HW116394   2.973   2.145   1.504  0.3442  0.0912  0.4245
 1586SOL    HW216395   2.847   2.130   1.591  2.2065 -0.8496  1.1903
 1587SOL     OW16396   2.169   3.741   3.802  0.4616  0.0901 -0.4174
 1587SOL    HW116397   2.102   3.687   3.845  0.4841  0.6986  0.3817
 1587SOL    HW216398   2.243   3.683   3.784  1.8802  0.9539  2.6192
 1588SOL     OW16399   1.356   1.805   9.851 -0.0496  0.7373  0.4693
 1588SOL    HW116400   1.269   1.805   9.889 -0.6070  1.1893 -0.7873
 1588SOL    HW216401   1.362   1.901   9.842 -0.2232  0.9182  2.3213
 1589SOL     OW16402   0.595   0.248   1.911 -0.2679 -0.0642  0.1840
 1589SOL    HW116403   0.513   0.224   1.954  0.6793  0.6364  2.3729
 1589SOL    HW216404   0.581   0.214   1.823  1.2536  0.7921 -0.3805
 1590SOL     OW16405   4.423   4.366  12.310 -0.2210  0.3048  0.2817
 1590SOL    HW116406   4.420   4.448  12.260 -1.3562  2.2500  3.5628
 1590SOL    HW216407   4.513   4.335  12.303 -1.1574 -2.2979 -0.5595
 1591SOL     OW16408   2.136   4.055   7.154 -0.3568 -0.2811 -0.3280
 1591SOL    HW116409   2.112   4.088   7.240  1.4612 -0.6393  0.3235
 1591SOL    HW216410   2.211   4.111   7.135 -1.0806  0.6415 -0.4301
 1592SOL     OW16411   4.529   2.821   1.923 -0.4630 -0.1278  0.5538
 1592SOL    HW116412   4.450   2.770   1.905  0.3134 -0.4924 -1.9100
 1592SOL    HW216413   4.584   2.754   1.964 -0.7961 -0.1074  1.0273
 1593SOL     OW16414   3.494   0.631   4.070  0.1360 -0.0398  0.8183
 1593SOL    HW116415   3.510   0.598   3.981  0.5813 -0.5519  1.0896
 1593SOL    HW216416   3.495   0.543   4.108 -0.9686 -0.7712 -0.8000
 1594SOL     OW16417   0.782   3.942   4.398  0.3030  0.1424 -0.1035
 1594SOL    HW116418   0.816   3.925   4.310  0.9030 -3.3244  0.8263
 1594SOL    HW216419   0.694   3.906   4.386 -0.1770  0.8122  1.4754
 1595SOL     OW16420   1.334   4.516   4.703  0.2220  0.1411  0.4393
 1595SOL    HW116421   1.335   4.459   4.780 -0.1077 -0.0238  0.3243
 1595SOL    HW216422   1.318   4.458   4.629  1.2119 -0.2327  0.5189
 1596SOL     OW16423   4.736   2.592   7.662  0.3297  0.1574  0.3587
 1596SOL    HW116424   0.065   2.610   7.724 -0.3399 -2.2577  1.8421
 1596SOL    HW216425   4.662   2.644   7.692  1.6787  0.0841  3.8426
 1597SOL     OW16426   0.426   1.747   5.754  0.2252  0.5990 -0.2017
 1597SOL    HW116427   0.441   1.712   5.842 -0.4557 -0.6720 -0.6081
 1597SOL    HW216428   0.463   1.676   5.702 -1.9393  0.1583 -1.1150
 1598SOL     OW16429   2.632   1.290   4.010  0.0813  0.1994 -0.3367
 1598SOL    HW116430   2.680   1.309   3.930  0.8990  1.8101  0.5207
 1598SOL    HW216431   2.545   1.322   3.987  0.1500  0.3047 -0.4452
 1599SOL     OW16432   1.829   0.322  16.022  1.4074  0.3176 -0.0800
 1599SOL    HW116433   1.843   0.350  15.932  0.0034 -0.1811 -0.4546
 1599SOL    HW216434   1.743   0.355  16.048  0.4470 -1.4585 -0.9864
 1600SOL     OW16435   4.309   1.242   8.067  0.3579 -0.1769  0.0237
 1600SOL    HW116436   4.318   1.322   8.118 -1.4966  0.2637 -0.3185
 1600SOL    HW216437   4.388   1.244   8.013  0.7446  1.6548  0.6812
 1601SOL     OW16438   0.182   4.671   1.709 -0.0326  0.1544  0.2273
 1601SOL    HW116439   0.187   4.642   1.800  1.7323  1.1109  0.4314
 1601SOL    HW216440   0.245   4.609   1.674 -0.8367 -0.3873 -0.2675
 1602SOL     OW16441   1.731   3.747  11.840 -0.4445 -0.0183 -0.2659
 1602SOL    HW116442   1.754   3.840  11.839 -0.9247  0.0943 -0.6080
 1602SOL    HW216443   1.636   3.744  11.850 -0.6036 -0.1052 -1.8197
 1603SOL     OW16444   3.720   1.005   8.854 -0.0325 -0.1261  0.0291
 1603SOL    HW116445   3.648   0.973   8.799 -0.8513  0.6838  0.6244
 1603SOL    HW216446   3.769   0.923   8.853 -0.2049 -0.2133 -0.8943
 1604SOL     OW16447   1.674   2.664  13.445  0.4915 -0.1545 -0.2408
 1604SOL    HW116448   1.713   2.718  13.377  0.9808  1.2015  1.1145
 1604SOL    HW216449   1.731   2.693  13.516  0.9765 -0.7257 -0.4035
 1605SOL     OW16450   0.987   0.858   5.243  0.7137  0.2716  0.3582
 1605SOL    HW116451   0.909   0.878   5.191  1.4131  0.2028 -0.7200
 1605SOL    HW216452   1.029   0.787   5.194 -0.4706 -0.0622 -0.1776
 1606SOL     OW16453   4.586   0.443  11.522  0.6199  0.0019  0.2204
 1606SOL    HW116454   4.501   0.488  11.524  1.1447  0.8572  2.6048
 1606SOL    HW216455   4.639   0.521  11.506 -2.2821  2.0889  0.8192
 1607SOL     OW16456   2.861   3.469   3.675  0.2697 -0.0424  0.2739
 1607SOL    HW116457   2.831   3.560   3.664  2.8942  0.5370 -2.1489
 1607SOL    HW216458   2.854   3.472   3.770  2.9557  0.5542  0.4508
 1608SOL     OW16459   2.102   2.991   8.273  0.5512 -0.6705 -0.4787
 1608SOL    HW116460   2.068   2.993   8.363  1.8251  0.3049 -0.0213
 1608SOL    HW216461   2.047   3.065   8.249  0.3088 -0.2612  1.3066
 1609SOL     OW16462   2.761   1.614  15.532 -0.1742 -0.0685  0.2161
 1609SOL    HW116463   2.839   1.630  15.585 -0.6667  0.1469  0.8777
 1609SOL    HW216464   2.696   1.627  15.601  0.0107 -0.1700  0.4107
 1610SOL     OW16465   3.665   1.068   3.577  0.0241  0.2673 -0.2974
 1610SOL    HW116466   3.601   1.001   3.602 -0.7224  0.9805 -0.3306
 1610SOL    HW216467   3.626   1.125   3.511  0.8141 -0.0249 -1.0139
 1611SOL     OW16468   2.013   4.408   2.254 -0.0187  0.5019 -0.1322
 1611SOL    HW116469   1.953   4.482   2.242 -2.2397 -1.1253  0.8232
 1611SOL    HW216470   2.010   4.393   2.349 -2.6307  1.7940 -0.0112
 1612SOL     OW16471   0.838   4.576   3.038 -0.5277  0.6016 -0.2019
 1612SOL    HW116472   0.767   4.588   2.976 -0.6293 -0.7840 -0.3552
 1612SOL    HW216473   0.893   4.528   2.977 -1.9552 -4.5763  2.5190
 1613SOL     OW16474   1.825   1.854  11.802 -0.6962 -0.3383  0.0621
 1613SOL    HW116475   1.853   1.788  11.865 -0.6773  2.9095  3.4251
 1613SOL    HW216476   1.747   1.807  11.774 -0.7530 -0.2338  0.0471
 1614SOL     OW16477   2.737   2.307   9.336  0.3882 -0.0723 -0.2910
 1614SOL    HW116478   2.799   2.369   9.298  0.5497 -0.5303 -0.7820
 1614SOL    HW216479   2.696   2.369   9.397 -1.1555 -1.4781  0.1026
 1615SOL     OW16480   0.756   2.738   8.942  0.3227  0.0485  0.2240
 1615SOL    HW116481   0.763   2.643   8.946  0.3605 -0.0710 -2.6011
 1615SOL    HW216482   0.663   2.751   8.924 -0.0671  0.2195  2.4540
 1616SOL     OW16483   0.583   0.277   6.992 -0.1217  0.3334  0.3557
 1616SOL    HW116484   0.529   0.251   6.918  1.1423  2.4472 -1.3083
 1616SOL    HW216485   0.662   0.293   6.940  0.7632  1.2382  1.9811
 1617SOL     OW16486   0.597   2.920   6.345  0.3431 -0.3289 -0.6649
 1617SOL    HW116487   0.528   2.986   6.355  1.5249  0.8822 -0.3847
 1617SOL    HW216488   0.623   2.946   6.257 -0.0337 -0.2704 -0.7570
 1618SOL     OW16489   0.519   3.092   4.763  0.2377  0.3280  0.0338
 1618SOL    HW116490   0.561   3.097   4.849  1.1871 -0.0535 -0.4037
 1618SOL    HW216491   0.509   2.998   4.748 -0.3852  0.5838 -1.0987
 1619SOL     OW16492   1.712   2.930   7.335  0.1782 -0.7250  0.6445
 1619SOL    HW116493   1.741   2.943   7.244 -2.2345 -0.8166 -0.1551
 1619SOL    HW216494   1.762   2.996   7.383 -2.4145  1.0797  0.8827
 1620SOL     OW16495   3.617   3.830   3.739  0.3106  0.4306  0.3480
 1620SOL    HW116496   3.584   3.771   3.671  0.6568  1.5717 -0.8204
 1620SOL    HW216497   3.560   3.907   3.741 -0.4684 -0.0108 -3.3724
 1621SOL     OW16498   2.761   3.812   0.899  0.1287 -0.1424 -0.2347
 1621SOL    HW116499   2.688   3.821   0.960  0.0279 -0.1562 -0.3536
 1621SOL    HW216500   2.804   3.734   0.935 -0.6825 -0.4560  0.0641
 1622SOL     OW16501   1.337   1.798   7.934  0.8042  1.0437  0.2324
 1622SOL    HW116502   1.289   1.880   7.931 -0.7065  0.0420 -2.7937
 1622SOL    HW216503   1.323   1.750   7.852  0.6881  1.6303 -0.0915
 1623SOL     OW16504   1.941   0.959   3.173  0.1100  0.1580 -0.0174
 1623SOL    HW116505   1.995   1.035   3.193  1.6608 -0.5733 -1.3181
 1623SOL    HW216506   1.866   0.997   3.127 -1.0602 -0.5672  1.2970
 1624SOL     OW16507   2.374   4.013  16.113 -0.0533  0.2455 -0.0559
 1624SOL    HW116508   2.336   3.956  16.046 -0.4242 -0.3697  0.6812
 1624SOL    HW216509   2.321   3.996  16.191  3.9513 -2.7468  1.9867
 1625SOL     OW16510   1.781   3.912  12.303  0.3802 -0.7131  0.9972
 1625SOL    HW116511   1.864   3.929  12.348 -0.6932  3.7387  1.2860
 1625SOL    HW216512   1.801   3.967  12.228 -1.8785 -0.3964  0.6347
 1626SOL     OW16513   1.012   3.568  11.594 -0.4060  0.1314 -1.0614
 1626SOL    HW116514   0.998   3.662  11.608 -0.3889  0.2961 -2.1343
 1626SOL    HW216515   0.943   3.528  11.646  2.0823 -3.1986 -0.3630
 1627SOL     OW16516   2.595   1.885   3.380 -0.4585  0.1216  0.0176
 1627SOL    HW116517   2.619   1.813   3.322 -2.2923  0.9839 -1.8069
 1627SOL    HW216518   2.531   1.930   3.324 -1.1944 -0.9863 -0.0372
 1628SOL     OW16519   1.991   0.879   8.567 -0.6309  0.6270  0.0253
 1628SOL    HW116520   2.004   0.788   8.592  1.9549  0.5873 -1.4991
 1628SOL    HW216521   1.981   0.914   8.656  1.1575  0.1676  0.4058
 1629SOL     OW16522   1.359   3.447  13.790 -0.1212 -0.6631  0.3354
 1629SOL    HW116523   1.303   3.392  13.736  1.1987 -2.5841  0.9411
 1629SOL    HW216524   1.306   3.521  13.822  1.1951  1.2001 -1.7958
 1630SOL     OW16525   1.741   4.035  12.573 -0.1010 -0.4311 -0.1736
 1630SOL    HW116526   1.657   4.079  12.589  1.0638  1.0932  1.7226
 1630SOL    HW216527   1.802   4.107  12.557 -0.1775 -0.4879 -0.7304
 1631SOL     OW16528   1.560   3.839   9.261 -0.6805  0.0287  0.0409
 1631SOL    HW116529   1.551   3.804   9.349  0.8052 -0.0932  0.1392
 1631SOL    HW216530   1.647   3.877   9.253  0.6391 -2.5755  1.7947
 1632SOL     OW16531   2.759   1.868   5.791  0.6545 -0.1014  0.4269
 1632SOL    HW116532   2.767   1.772   5.792 -1.8869 -0.3143 -0.0697
 1632SOL    HW216533   2.670   1.890   5.816  0.8715  0.5883  0.5720
 1633SOL     OW16534   0.202   2.891   8.397 -0.1627 -0.4524  0.0884
 1633SOL    HW116535   0.268   2.910   8.330  1.7133  0.5094  2.2067
 1633SOL    HW216536   0.120   2.882   8.349  0.4342 -0.0523 -1.0100
 1634SOL     OW16537   2.272   4.539   1.881  0.0527 -0.3361 -0.0213
 1634SOL    HW116538   2.273   4.509   1.790  0.8556 -0.5859  0.0670
 1634SOL    HW216539   2.364   4.546   1.907  0.0216  2.4918 -0.6783
 1635SOL     OW16540   0.377   1.196   4.892 -0.3500 -0.4099  0.1385
 1635SOL    HW116541   0.406   1.285   4.875 -1.1069 -0.7831 -3.0745
 1635SOL    HW216542   0.354   1.198   4.984  3.8577 -0.7005  1.2207
 1636SOL     OW16543   0.434   2.569  15.874 -0.6529 -0.2832 -0.1188
 1636SOL    HW116544   0.349   2.529  15.855 -0.6849 -0.8604  1.2705
 1636SOL    HW216545   0.477   2.517  15.805 -2.6998 -1.4082 -0.5618
 1637SOL     OW16546   1.981   1.540  13.611 -0.6432  0.2982  0.6101
 1637SOL    HW116547   2.015   1.582  13.691 -0.6513 -0.6414  1.1015
 1637SOL    HW216548   2.021   1.454  13.624  1.3585  1.3989  1.9267
 1638SOL     OW16549   0.031   3.030   9.043  0.1969 -0.3150  0.3176
 1638SOL    HW116550   4.736   2.959   8.990 -1.3383  1.1036 -0.5194
 1638SOL    HW216551   0.081   2.983   9.109 -2.0054 -3.1335 -0.0093
 1639SOL     OW16552   4.143   2.382   7.709 -0.0188  0.0343 -0.3661
 1639SOL    HW116553   4.082   2.440   7.663  0.2729  0.3923 -0.3037
 1639SOL    HW216554   4.084   2.321   7.753 -0.4472  1.7587  1.4408
 1640SOL     OW16555   0.308   2.139   7.438 -0.1546 -0.1993 -0.0268
 1640SOL    HW116556   0.218   2.167   7.456 -0.1119 -0.1840  0.1689
 1640SOL    HW216557   0.296   2.072   7.371 -0.7707 -1.5110  1.3874
 1641SOL     OW16558   1.685   3.916   8.040  0.3271  0.2138  0.2139
 1641SOL    HW116559   1.702   4.009   8.032  1.6875 -0.1161 -0.7336
 1641SOL    HW216560   1.590   3.906   8.052  0.2228 -0.2968 -1.0670
 1642SOL     OW16561   1.984   2.115   6.693 -0.1795 -0.4713 -0.0409
 1642SOL    HW116562   2.046   2.103   6.765 -0.9592  1.6915  0.9854
 1642SOL    HW216563   2.029   2.192   6.659  1.6428 -0.4213  2.5336
 1643SOL     OW16564   3.775   0.226   6.992  0.5231 -0.7314  0.1180
 1643SOL    HW116565   3.827   0.252   6.916  1.9581 -0.3588  1.2333
 1643SOL    HW216566   3.703   0.288   6.998  0.1607 -1.1676  0.2452
 1644SOL     OW16567   3.643   0.611  11.568 -1.3507 -0.0964  0.6364
 1644SOL    HW116568   3.564   0.629  11.518 -1.2120 -1.2151  0.0216
 1644SOL    HW216569   3.679   0.699  11.581 -0.6719 -0.1211 -1.1130
 1645SOL     OW16570   3.169   1.187   2.238 -0.1137 -0.5810  0.6249
 1645SOL    HW116571   3.251   1.233   2.223  1.0831 -2.0814  2.5875
 1645SOL    HW216572   3.132   1.190   2.150  2.0230 -3.6363 -0.3596
 1646SOL     OW16573   3.904   1.997   3.083 -0.4748 -0.2619 -0.0764
 1646SOL    HW116574   3.956   2.054   3.140  0.3997 -0.3144 -0.8230
 1646SOL    HW216575   3.818   2.033   3.101  0.2511  0.8126  1.2470
 1647SOL     OW16576   0.101   2.885   1.923  0.5547 -0.4622  0.2259
 1647SOL    HW116577   0.072   2.794   1.927  0.2919 -0.3672  0.4340
 1647SOL    HW216578   0.049   2.922   1.994  2.6245  0.7123  1.1247
 1648SOL     OW16579   2.133   4.038   3.963  0.0589  0.1536 -0.0250
 1648SOL    HW116580   2.080   4.076   4.033 -0.3166 -0.0982 -0.1787
 1648SOL    HW216581   2.216   4.086   3.967 -0.0711  0.2931  1.1862
 1649SOL     OW16582   1.924   4.617  13.549  0.2004 -0.0549  0.3428
 1649SOL    HW116583   1.844   4.564  13.558  0.5978 -1.1155 -2.4546
 1649SOL    HW216584   1.925   4.681  13.620  0.0919  0.8388 -0.4599
 1650SOL     OW16585   0.341   0.711   1.640 -0.1542  0.1638  0.1357
 1650SOL    HW116586   0.409   0.652   1.608  0.6289  0.5204  1.1179
 1650SOL    HW216587   0.267   0.650   1.635 -0.1959  0.1885  0.4642
 1651SOL     OW16588   1.086   3.553   8.443  0.6531 -0.4328  0.3704
 1651SOL    HW116589   1.101   3.491   8.371  0.2656  1.9800 -1.7877
 1651SOL    HW216590   1.158   3.613   8.427  1.4461 -1.0659  1.6224
 1652SOL     OW16591   2.007   3.803  10.375  0.1412  0.5435 -0.1596
 1652SOL    HW116592   2.061   3.738  10.330  0.1843 -0.3163  1.1283
 1652SOL    HW216593   2.019   3.774  10.466 -1.5089 -0.9001 -0.4078
 1653SOL     OW16594   2.144   3.124   7.118 -0.3549  0.2830  0.3316
 1653SOL    HW116595   2.214   3.157   7.174 -0.8576 -1.4620  2.0176
 1653SOL    HW216596   2.130   3.200   7.062  0.4556 -0.4918 -0.9141
 1654SOL     OW16597   4.696   4.110  14.776  0.1310  0.1326  0.0226
 1654SOL    HW116598   4.625   4.129  14.838  0.9448 -0.5813  1.1788
 1654SOL    HW216599   4.644   4.064  14.711  2.1975  0.1082 -1.6150
 1655SOL     OW16600   2.255   1.014   9.295  0.1995 -0.1753 -0.0214
 1655SOL    HW116601   2.221   1.030   9.383  0.3291  0.5947 -0.1157
 1655SOL    HW216602   2.331   0.959   9.315 -0.0817 -0.2034  0.9945
 1656SOL     OW16603   3.511   3.321  16.934  0.2670  0.9370 -0.1215
 1656SOL    HW116604   3.545   3.360  16.853 -3.4358  1.0254 -1.6331
 1656SOL    HW216605   3.544   3.231  16.922 -2.2085  0.0607 -0.3916
 1657SOL     OW16606   1.261   4.607   2.326  0.0053 -0.2387 -0.2123
 1657SOL    HW116607   1.300   4.662   2.258  0.9419 -0.7431 -0.0855
 1657SOL    HW216608   1.337   4.599   2.384  0.7346  1.3934 -0.9502
 1658SOL     OW16609   0.600   3.906   9.886 -0.5397 -0.0490 -0.1053
 1658SOL    HW116610   0.684   3.935   9.850 -0.5810 -0.2612 -0.3726
 1658SOL    HW216611   0.546   3.912   9.807  0.7312 -1.2782 -1.0667
 1659SOL     OW16612   1.539   3.321   2.838 -0.2174 -0.1150 -0.0602
 1659SOL    HW116613   1.520   3.370   2.919 -1.4678  0.5046 -0.7331
 1659SOL    HW216614   1.631   3.295   2.844  0.0867  0.5119 -1.9916
 1660SOL     OW16615   1.544   4.414   8.824  0.6476  0.6591 -0.3191
 1660SOL    HW116616   1.522   4.440   8.734 -1.7075 -0.9007 -0.1869
 1660SOL    HW216617   1.555   4.503   8.859  0.4155 -0.6675  3.0840
 1661SOL     OW16618   3.805   2.281   6.929  0.1238  0.7001  0.2941
 1661SOL    HW116619   3.877   2.217   6.931 -0.1346  0.4694  1.8458
 1661SOL    HW216620   3.819   2.313   6.840 -0.4058 -0.8062 -0.3257
 1662SOL     OW16621   3.652   4.701  13.029  0.7168 -0.2721 -0.1149
 1662SOL    HW116622   3.574   4.676  12.981  0.2144  0.1082  0.4918
 1662SOL    HW216623   3.717   4.698  12.959  0.2794  0.8272 -0.5713
 1663SOL     OW16624   3.367   2.687   3.124 -0.7152  0.3280 -0.6156
 1663SOL    HW116625   3.404   2.727   3.045 -0.5498  1.1682 -0.1022
 1663SOL    HW216626   3.419   2.606   3.127 -1.1545  0.1793  2.1972
 1664SOL     OW16627   0.406   2.068  13.775  0.1342 -0.7201  0.0037
 1664SOL    HW116628   0.440   2.066  13.865  1.6572 -0.3640 -0.5556
 1664SOL    HW216629   0.446   2.147  13.737  1.4615 -0.4984  1.8624
 1665SOL     OW16630   1.067   1.688  15.393 -0.2092  0.1718  0.3181
 1665SOL    HW116631   0.991   1.640  15.425 -0.6083 -0.8477 -2.1576
 1665SOL    HW216632   1.045   1.714  15.304 -3.9554 -0.7567  1.0092
 1666SOL     OW16633   0.446   1.025   7.168 -0.1830 -0.3916 -0.2869
 1666SOL    HW116634   0.536   1.000   7.190 -0.1183 -1.3962 -1.6514
 1666SOL    HW216635   0.455   1.120   7.164 -2.2283 -0.1601  0.8416
 1667SOL     OW16636   2.008   1.268  13.751 -0.4960 -0.2459 -0.0239
 1667SOL    HW116637   2.075   1.242  13.688 -1.2192 -3.1224  0.3995
 1667SOL    HW216638   1.946   1.195  13.747 -0.5517 -0.2029  0.0567
 1668SOL     OW16639   2.097   3.625   4.883 -1.1109 -0.2996  0.0103
 1668SOL    HW116640   2.147   3.689   4.934 -0.7361  0.2294 -1.0166
 1668SOL    HW216641   2.099   3.663   4.795  0.4254  2.2516  1.1252
 1669SOL     OW16642   3.254   0.067   9.239  0.2154 -0.1859  0.2803
 1669SOL    HW116643   3.315   0.086   9.310  0.9313  0.6642 -0.5545
 1669SOL    HW216644   3.297   0.013   9.172  1.2447 -0.1643  0.9236
 1670SOL     OW16645   0.551   4.365   8.544 -0.2211  0.1828  0.7506
 1670SOL    HW116646   0.636   4.382   8.584  1.2713 -0.2302 -2.2682
 1670SOL    HW216647   0.544   4.443   8.490  2.3443 -0.5091 -0.5398
 1671SOL     OW16648   1.345   4.289  10.418  0.2147 -0.1917 -0.1533
 1671SOL    HW116649   1.340   4.198  10.388 -3.4480 -0.8091  2.3400
 1671SOL    HW216650   1.263   4.326  10.384  0.6947  1.8231  0.8799
 1672SOL     OW16651   3.711   2.459   3.772  0.3708  0.2351  0.1546
 1672SOL    HW116652   3.742   2.547   3.752  0.2612  0.7262  2.0930
 1672SOL    HW216653   3.786   2.410   3.806  0.6582 -0.0428 -0.8767
 1673SOL     OW16654   3.850   4.116   4.076  0.0747 -0.6769  0.0563
 1673SOL    HW116655   3.770   4.124   4.025 -0.5505  2.6295  1.5875
 1673SOL    HW216656   3.829   4.034   4.121 -0.0419  0.7778  2.6523
 1674SOL     OW16657   1.605   2.299   2.473  0.1252  0.1585 -0.4229
 1674SOL    HW116658   1.654   2.227   2.433  0.4774 -0.1686  0.5976
 1674SOL    HW216659   1.668   2.345   2.529 -0.1883 -1.7175  1.4835
 1675SOL     OW16660   4.643   1.743   6.507  0.8203  0.5168  0.4003
 1675SOL    HW116661   4.564   1.742   6.561  0.7477  0.0761  0.2847
 1675SOL    HW216662   4.690   1.669   6.545  1.8280  1.0719  0.2138
 1676SOL     OW16663   4.288   4.455   7.447 -0.3471  0.1435 -0.1222
 1676SOL    HW116664   4.316   4.367   7.425 -1.7956 -1.0289  2.7968
 1676SOL    HW216665   4.368   4.507   7.445 -0.3784  0.1936 -0.1014
 1677SOL     OW16666   2.489   2.616   4.924 -0.0133 -0.0209  0.2041
 1677SOL    HW116667   2.494   2.526   4.892 -1.5784  0.3524 -1.1069
 1677SOL    HW216668   2.396   2.627   4.944  0.0432 -0.0440  0.4753
 1678SOL     OW16669   1.889   4.385   3.252 -0.3764 -0.0710 -0.0063
 1678SOL    HW116670   1.840   4.430   3.321 -0.1991 -0.0038  0.0736
 1678SOL    HW216671   1.831   4.314   3.225 -0.4314 -1.4395  3.7222
 1679SOL     OW16672   0.102   3.038  11.892  0.0996 -0.1369  0.2623
 1679SOL    HW116673   0.064   2.960  11.932 -1.6373  0.7933  0.4175
 1679SOL    HW216674   0.133   2.995  11.812 -0.8529 -0.2199 -0.0609
 1680SOL     OW16675   2.317   1.610  16.552  0.3731  0.1674 -0.4622
 1680SOL    HW116676   2.253   1.632  16.484  0.2627 -1.8953 -1.0293
 1680SOL    HW216677   2.303   1.687  16.608 -1.6479 -0.2127 -0.4622
 1681SOL     OW16678   0.996   4.717   1.181 -0.1481 -0.0422  0.5283
 1681SOL    HW116679   0.948   4.674   1.252 -1.7700 -1.3823 -1.4021
 1681SOL    HW216680   1.018   4.638   1.132  1.0671  1.1360 -0.8279
 1682SOL     OW16681   4.317   0.556   1.912 -0.5925 -0.1330 -0.1822
 1682SOL    HW116682   4.353   0.500   1.843 -0.0177 -1.0363  0.8580
 1682SOL    HW216683   4.398   0.606   1.926  0.4363 -1.6058 -0.7950
 1683SOL     OW16684   1.741   3.530  10.394  0.4745  0.4049 -0.0566
 1683SOL    HW116685   1.762   3.567  10.480 -1.9950 -2.2009  1.6381
 1683SOL    HW216686   1.669   3.587  10.366 -1.1002 -1.2514  0.6620
 1684SOL     OW16687   4.198   2.447   6.559 -0.2232  0.1204 -0.0170
 1684SOL    HW116688   4.268   2.512   6.566 -0.6208  0.6211 -0.7472
 1684SOL    HW216689   4.123   2.501   6.535 -0.1780  0.3032  0.2545
 1685SOL     OW16690   3.151   3.880   3.464  0.3941 -0.0609 -0.0158
 1685SOL    HW116691   3.127   3.789   3.479 -0.7639  0.3388  0.6369
 1685SOL    HW216692   3.064   3.920   3.461  0.6292  0.3254 -1.4663
 1686SOL     OW16693   0.623   2.808   4.628 -0.2576  0.1957  0.1930
 1686SOL    HW116694   0.542   2.788   4.675 -0.1402  0.8776  0.6883
 1686SOL    HW216695   0.678   2.756   4.686 -0.0834 -1.4899 -1.4708
 1687SOL     OW16696   2.311   3.455   4.612  0.3566 -0.0505 -0.0560
 1687SOL    HW116697   2.248   3.387   4.590  0.5204 -0.5741  1.0802
 1687SOL    HW216698   2.379   3.439   4.547 -0.6285  0.7995 -1.2893
 1688SOL     OW16699   0.149   1.497  12.415  0.0672 -0.4593  0.1812
 1688SOL    HW116700   0.056   1.479  12.427  0.0244  1.2546  2.3146
 1688SOL    HW216701   0.147   1.509  12.320  0.6569  0.2116  0.2490
 1689SOL     OW16702   0.060   1.488  16.718  0.2513 -0.6765 -0.4779
 1689SOL    HW116703   0.009   1.408  16.732 -1.1670  0.4121  0.4580
 1689SOL    HW216704   4.742   1.556  16.689 -0.7744 -1.8175 -1.0040
 1690SOL     OW16705   4.479   4.021   8.964  0.0485  0.2908 -0.4325
 1690SOL    HW116706   4.500   3.982   9.048 -4.0999 -1.5988 -0.2820
 1690SOL    HW216707   4.411   4.084   8.988  1.8416  1.7771  0.7266
 1691SOL     OW16708   2.546   0.349   4.021 -0.7035 -0.2172  0.0800
 1691SOL    HW116709   2.507   0.291   3.955 -3.1475  3.0246 -1.3530
 1691SOL    HW216710   2.603   0.281   4.056  0.9776  1.1523 -0.0310
 1692SOL     OW16711   2.586   1.039   5.355 -0.3557  0.4152 -0.3340
 1692SOL    HW116712   2.624   1.117   5.397 -0.5266  0.3688 -0.0970
 1692SOL    HW216713   2.655   1.029   5.289  0.2791  1.4019  0.1742
 1693SOL     OW16714   2.212   3.997   1.061  0.1604 -0.1760 -0.2202
 1693SOL    HW116715   2.260   4.022   0.982  1.1517 -0.7989  0.1956
 1693SOL    HW216716   2.121   4.013   1.034  0.2151 -0.7655 -0.7581
 1694SOL     OW16717   0.887   1.965   3.250 -0.4034 -0.2357  0.7016
 1694SOL    HW116718   0.911   1.969   3.157  1.2899  2.3212  1.2581
 1694SOL    HW216719   0.812   1.908   3.236 -1.4762  1.6164 -1.1353
 1695SOL     OW16720   1.602   4.710   5.502  0.5067  0.1091  0.6616
 1695SOL    HW116721   1.565   0.054   5.521  1.0153  0.4498  0.1075
 1695SOL    HW216722   1.560   4.659   5.571  0.9921  0.9032  1.5284
 1696SOL     OW16723   1.222   2.812   0.348  0.5519 -0.5255 -0.1148
 1696SOL    HW116724   1.316   2.826   0.348  0.2392  1.5875  0.4009
 1696SOL    HW216725   1.190   2.794   0.259  0.0492  1.7939 -0.4288
 1697SOL     OW16726   2.226   0.283   3.178 -0.6196  0.4393  0.1765
 1697SOL    HW116727   2.145   0.279   3.229 -0.6138 -0.2843  0.1273
 1697SOL    HW216728   2.250   0.373   3.197  0.3973  0.2671 -0.2838
 1698SOL     OW16729   2.636   2.068   1.376 -0.3966 -0.9120  0.0145
 1698SOL    HW116730   2.706   2.067   1.442 -0.2668 -0.2238 -0.1132
 1698SOL    HW216731   2.684   2.087   1.295 -3.0252 -0.1502 -1.3385
 1699SOL     OW16732   4.179   1.605  17.660 -0.2613  0.2161 -0.3919
 1699SOL    HW116733   4.096   1.599  17.615  0.5634 -0.1366 -1.8627
 1699SOL    HW216734   4.202   1.694  17.635 -1.4283  0.7658  0.4952
 1700SOL     OW16735   4.081   2.773   8.948 -0.0962  0.0700 -0.1115
 1700SOL    HW116736   4.091   2.859   8.906  0.1784 -0.3326 -0.8659
 1700SOL    HW216737   4.081   2.722   8.868  2.1533 -0.9167  0.5266
 1701SOL     OW16738   0.868   1.756   7.244 -0.3099  0.4715  0.5162
 1701SOL    HW116739   0.882   1.670   7.286  2.0570  0.7100  0.2235
 1701SOL    HW216740   0.865   1.729   7.152  1.5483  0.8571  0.3312
 1702SOL     OW16741   3.491   1.309   4.227  0.4570  0.1525  0.0092
 1702SOL    HW116742   3.516   1.273   4.142  2.7343 -1.6494  1.4244
 1702SOL    HW216743   3.548   1.254   4.282  1.5479 -0.1663 -1.4457
 1703SOL     OW16744   1.925   3.434   9.594 -0.3803  0.7488 -0.5051
 1703SOL    HW116745   1.836   3.414   9.562 -1.2111  0.8809  1.7264
 1703SOL    HW216746   1.909   3.464   9.683 -5.0023 -0.2353 -0.9951
 1704SOL     OW16747   2.030   4.530   9.236  0.0226 -0.4749  0.1934
 1704SOL    HW116748   2.016   4.517   9.142  0.5496  0.1417  0.0212
 1704SOL    HW216749   1.945   4.498   9.265  0.5109 -1.5208  0.4444
 1705SOL     OW16750   2.449   0.671   0.010  0.3535 -0.3831  0.2201
 1705SOL    HW116751   2.409   0.684   0.096 -1.5800  1.3533 -0.9483
 1705SOL    HW216752   2.542   0.693   0.024  0.6937 -2.3195  1.0090
 1706SOL     OW16753   1.865   1.530   7.701  0.0068 -0.6950 -0.1679
 1706SOL    HW116754   1.934   1.593   7.678  0.3500 -0.3713  1.7439
 1706SOL    HW216755   1.816   1.591   7.756  0.5582  0.3155 -0.7970
 1707SOL     OW16756   2.420   1.415   3.897 -0.2748 -0.2497 -0.1151
 1707SOL    HW116757   2.356   1.357   3.856  0.3905 -0.6209 -0.6439
 1707SOL    HW216758   2.411   1.494   3.843 -1.3504 -0.3719 -0.1044
 1708SOL     OW16759   1.795   1.980   4.150 -0.1433 -0.2576 -0.2007
 1708SOL    HW116760   1.828   1.983   4.060  0.1191 -1.2008 -0.1444
 1708SOL    HW216761   1.860   1.916   4.180 -0.6897 -1.4783 -1.6148
 1709SOL     OW16762   4.019   0.723  15.739 -0.5517  0.1250  0.3073
 1709SOL    HW116763   3.943   0.760  15.694  0.3390  0.8102 -0.6530
 1709SOL    HW216764   4.089   0.757  15.682  0.7844 -1.5712  0.9135
 1710SOL     OW16765   2.190   2.738   8.703  0.3682 -0.2071  0.1347
 1710SOL    HW116766   2.137   2.759   8.780  2.1639 -2.6691  2.0133
 1710SOL    HW216767   2.261   2.801   8.711  0.1700 -0.0358  0.5615
 1711SOL     OW16768   2.404   4.430  13.481 -0.9316 -0.5155 -0.2773
 1711SOL    HW116769   2.432   4.380  13.405  0.3388  3.2631 -2.2900
 1711SOL    HW216770   2.315   4.450  13.453 -0.1588  2.0592 -0.8962
 1712SOL     OW16771   1.492   0.900   7.096 -0.0365  0.1428 -0.3069
 1712SOL    HW116772   1.483   0.805   7.104 -0.1961  0.1684 -0.1790
 1712SOL    HW216773   1.457   0.934   7.179  0.1449 -1.1891  0.3228
 1713SOL     OW16774   0.908   3.166   8.858  0.0751 -0.0715 -0.0553
 1713SOL    HW116775   0.871   3.253   8.843 -2.1873 -0.8351  1.0320
 1713SOL    HW216776   0.851   3.115   8.801 -0.6863 -0.5388  1.1196
 1714SOL     OW16777   1.391   4.537  16.762  0.1260 -0.0878  0.0106
 1714SOL    HW116778   1.415   4.458  16.810  0.4746 -1.6776 -2.7867
 1714SOL    HW216779   1.456   4.602  16.788  0.0874 -0.1496  0.2554
 1715SOL     OW16780   1.714   2.866   0.126  0.0351  0.9093 -0.1755
 1715SOL    HW116781   1.798   2.899   0.096  1.5233 -1.8263  0.9933
 1715SOL    HW216782   1.752   2.799   0.182  0.3823  1.1600 -0.1071
 1716SOL     OW16783   2.293   0.683   4.167 -0.0243 -0.1697 -0.0627
 1716SOL    HW116784   2.385   0.676   4.143  0.1849 -1.8760  1.2313
 1716SOL    HW216785   2.245   0.690   4.085  0.3272  0.3302 -0.2213
 1717SOL     OW16786   1.103   1.170  14.740 -0.2570  0.3778 -0.0937
 1717SOL    HW116787   1.060   1.140  14.660 -0.7382  0.0384  0.2990
 1717SOL    HW216788   1.173   1.106  14.752  0.2666  1.0496  0.4577
 1718SOL     OW16789   0.825   2.059   7.685  0.4955  0.1252 -0.4926
 1718SOL    HW116790   0.866   2.045   7.600  0.5176  1.4036 -0.6965
 1718SOL    HW216791   0.768   2.133   7.662  2.7794  2.3390  0.9490
 1719SOL     OW16792   1.079   4.022   4.493  0.4579 -0.0465  0.2069
 1719SOL    HW116793   1.031   3.940   4.484  1.2305 -0.5686  0.8458
 1719SOL    HW216794   1.162   3.989   4.525  2.1027  2.0040 -1.9140
 1720SOL     OW16795   1.149   3.908   5.971  0.7417 -0.0504 -0.3772
 1720SOL    HW116796   1.056   3.902   5.996  0.4778  1.6973 -0.9381
 1720SOL    HW216797   1.156   3.908   5.875 -1.3565 -1.2196 -0.5352
 1721SOL     OW16798   3.935   3.760  11.133  0.3223 -0.0491 -0.6081
 1721SOL    HW116799   4.014   3.747  11.185 -0.0273 -0.3600 -0.1590
 1721SOL    HW216800   3.936   3.672  11.094  0.4790 -0.3337  0.0289
 1722SOL     OW16801   0.103   2.509   5.091  0.0135 -0.1037  0.7091
 1722SOL    HW116802   0.194   2.539   5.088  0.0702 -0.4250 -0.6792
 1722SOL    HW216803   0.086   2.472   5.178  2.5039  0.4381  1.4205
 1723SOL     OW16804   4.500   1.545   1.395  0.8571  0.1309 -0.6552
 1723SOL    HW116805   4.474   1.602   1.467 -0.7112  0.5619 -1.5549
 1723SOL    HW216806   4.566   1.599   1.350  1.0665 -1.6480 -2.4920
 1724SOL     OW16807   3.406   2.598   7.219 -0.1466 -0.5110  0.8057
 1724SOL    HW116808   3.359   2.655   7.280  0.2832  1.5776 -0.8216
 1724SOL    HW216809   3.394   2.512   7.260  1.3194 -0.9819  0.2193
 1725SOL     OW16810   0.604   2.591  13.911  0.4018 -0.1078  0.2725
 1725SOL    HW116811   0.517   2.618  13.939 -1.1331 -3.1685 -1.5150
 1725SOL    HW216812   0.595   2.498  13.889  0.0078  0.9312 -3.8974
 1726SOL     OW16813   4.672   0.722   5.326 -0.0456 -0.1531  0.4603
 1726SOL    HW116814   4.717   0.638   5.327 -2.5001 -1.4114  3.5070
 1726SOL    HW216815   4.626   0.723   5.242 -1.0865  1.9505  1.0475
 1727SOL     OW16816   3.274   2.551  12.471 -0.1287 -0.0857  0.0999
 1727SOL    HW116817   3.314   2.536  12.385  0.9222  0.7711  0.4542
 1727SOL    HW216818   3.218   2.473  12.469  0.1988 -0.3032 -0.7038
 1728SOL     OW16819   1.455   4.344  12.389 -0.3127 -0.4565 -0.1272
 1728SOL    HW116820   1.456   4.424  12.337  0.1964 -0.1509  0.3583
 1728SOL    HW216821   1.422   4.274  12.333 -1.0364 -1.2646  1.3058
 1729SOL     OW16822   0.897   1.668   7.584 -0.3212 -0.1553  0.2777
 1729SOL    HW116823   0.863   1.621   7.508 -1.5579 -0.3070  0.9332
 1729SOL    HW216824   0.818   1.712   7.615 -0.9925 -1.7567  0.8194
 1730SOL     OW16825   1.834   0.065   9.185 -0.2044  0.1352 -0.4578
 1730SOL    HW116826   1.780   0.133   9.146 -0.0577  0.4893 -0.0470
 1730SOL    HW216827   1.917   0.112   9.187  0.8492 -1.7576  1.7073
 1731SOL     OW16828   4.680   0.910   2.759  0.1855 -0.2008  0.3603
 1731SOL    HW116829   4.698   0.996   2.720  3.2598 -1.4373 -0.9303
 1731SOL    HW216830   0.021   0.868   2.779  0.3835  0.2070  0.3786
 1732SOL     OW16831   2.285   4.302  14.654  0.5358 -0.0638  0.1183
 1732SOL    HW116832   2.357   4.357  14.622 -0.5785 -0.2803 -2.7896
 1732SOL    HW216833   2.313   4.308  14.745 -0.4789  2.6449  0.2432
 1733SOL     OW16834   2.274   3.311  17.126  0.1230 -0.2838 -0.5876
 1733SOL    HW116835   2.304   3.392  17.085  0.4192 -1.0811 -1.9391
 1733SOL    HW216836   2.355   3.289  17.172 -0.9366  1.8815  2.2609
 1734SOL     OW16837   2.202   3.721   4.643  0.0386  0.1931  0.0770
 1734SOL    HW116838   2.251   3.641   4.620 -0.2105  0.9344 -2.9648
 1734SOL    HW216839   2.281   3.774   4.648  0.1321  0.0699 -0.1117
 1735SOL     OW16840   3.594   0.168   7.649 -0.2980 -0.1259 -0.1274
 1735SOL    HW116841   3.499   0.181   7.653 -0.5951 -2.2645 -0.3121
 1735SOL    HW216842   3.618   0.209   7.566  1.6328 -2.2855 -0.6335
 1736SOL     OW16843   2.586   0.794   2.057  0.1683 -0.6793 -0.3621
 1736SOL    HW116844   2.545   0.877   2.081 -0.7280 -0.6848 -1.9232
 1736SOL    HW216845   2.636   0.762   2.133  1.1614 -0.6446 -1.0010
 1737SOL     OW16846   2.813   3.958   7.663  0.0742 -0.5726  0.0954
 1737SOL    HW116847   2.792   4.040   7.618  0.4779  0.6531  2.1209
 1737SOL    HW216848   2.739   3.928   7.716 -0.2032 -0.2132 -0.0931
 1738SOL     OW16849   3.513   3.198   4.035 -0.2847 -0.4457 -0.6365
 1738SOL    HW116850   3.457   3.237   4.101 -0.5005 -1.6180 -0.1374
 1738SOL    HW216851   3.501   3.108   4.064 -1.3855 -0.4327 -1.0582
 1739SOL     OW16852   1.933   0.639   9.633 -0.1521 -0.0479 -0.3373
 1739SOL    HW116853   2.009   0.595   9.595  0.4335  1.8840 -1.4300
 1739SOL    HW216854   1.888   0.561   9.665  0.3117  0.5072  1.6626
 1740SOL     OW16855   3.693   3.897  10.740  0.7014  0.0433 -0.0460
 1740SOL    HW116856   3.761   3.870  10.802  0.9598  4.8436  1.7493
 1740SOL    HW216857   3.627   3.834  10.769  0.9595 -1.0311 -1.7774
 1741SOL     OW16858   3.346   1.478   4.837  0.4415  0.1122 -0.1486
 1741SOL    HW116859   3.325   1.430   4.917  2.2519 -1.4701 -0.6270
 1741SOL    HW216860   3.271   1.458   4.780  0.9024 -0.6319 -0.4938
 1742SOL     OW16861   0.250   0.466  12.357  0.3178  0.5931  0.7058
 1742SOL    HW116862   0.315   0.473  12.287 -1.1363 -0.6551 -0.7714
 1742SOL    HW216863   0.256   0.555  12.393 -1.4169  2.4135 -3.5419
 1743SOL     OW16864   3.419   1.595   0.923  0.2577  0.2126  0.6767
 1743SOL    HW116865   3.463   1.635   0.998  0.2330 -2.2554  1.9927
 1743SOL    HW216866   3.399   1.674   0.872  0.4821  1.0912  1.9552
 1744SOL     OW16867   4.531   3.214   7.295  0.0318 -0.2396  0.0779
 1744SOL    HW116868   4.562   3.139   7.345  0.6566  2.0104  3.0861
 1744SOL    HW216869   4.609   3.269   7.304  1.3214 -2.2558  1.0930
 1745SOL     OW16870   3.546   0.815  17.058  0.4954  0.2015 -1.0305
 1745SOL    HW116871   3.481   0.867  17.105 -0.9691 -0.9222 -1.8167
 1745SOL    HW216872   3.498   0.790  16.979 -0.5523 -2.5690  0.4567
 1746SOL     OW16873   4.101   4.112  12.425 -0.2183 -0.6891  0.7453
 1746SOL    HW116874   4.178   4.166  12.408 -0.6647 -0.6360 -1.0860
 1746SOL    HW216875   4.036   4.174  12.459  0.4450 -0.0186  0.7970
 1747SOL     OW16876   4.229   3.762   5.362  0.1315 -0.1105  0.1233
 1747SOL    HW116877   4.155   3.702   5.368 -0.6219  0.8118 -0.0495
 1747SOL    HW216878   4.283   3.737   5.437 -1.2324 -1.2695  0.7267
 1748SOL     OW16879   1.637   4.036   1.873  0.2009 -0.5614  0.2014
 1748SOL    HW116880   1.565   3.986   1.837 -0.8036  1.4797 -0.6398
 1748SOL    HW216881   1.704   4.021   1.807 -0.5029 -2.2607 -0.1069
 1749SOL     OW16882   4.138   1.666   1.020  0.1792 -0.5153 -0.0041
 1749SOL    HW116883   4.087   1.707   1.090 -0.9540 -0.9394 -0.5824
 1749SOL    HW216884   4.184   1.597   1.067  1.1245  0.9033  1.1517
 1750SOL     OW16885   1.890   3.469  12.176  0.5244 -0.3761 -0.1746
 1750SOL    HW116886   1.828   3.525  12.222  2.6629  0.8132  1.2532
 1750SOL    HW216887   1.879   3.494  12.084 -3.8184 -3.8127 -0.6097
 1751SOL     OW16888   2.489   2.299   1.108 -0.3670  0.3400  0.0574
 1751SOL    HW116889   2.518   2.217   1.067 -2.6713  0.2082 -1.3574
 1751SOL    HW216890   2.432   2.319   1.033 -0.1575  0.6874 -0.0078
 1752SOL     OW16891   2.292   3.568  10.727 -0.6604 -0.1675 -0.3144
 1752SOL    HW116892   2.257   3.657  10.717 -0.1647  0.1459  0.7942
 1752SOL    HW216893   2.314   3.566  10.820 -0.1613  2.3588 -0.3791
 1753SOL     OW16894   2.495   0.003  15.210 -0.8599  0.3492 -0.5755
 1753SOL    HW116895   2.566   4.726  15.271  1.2524  2.8656 -2.2521
 1753SOL    HW216896   2.436   0.044  15.273  1.0326  3.1443 -0.6615
 1754SOL     OW16897   3.056   3.817  17.653 -0.6694 -0.6171  0.0794
 1754SOL    HW116898   3.054   3.907  17.619  1.5191 -0.9599 -0.9593
 1754SOL    HW216899   3.093   3.812  17.741  0.5189  1.9110 -0.2782
 1755SOL     OW16900   1.735   1.548   4.139  0.2771 -0.3206  0.5220
 1755SOL    HW116901   1.694   1.513   4.060  0.0710  1.8554 -0.3419
 1755SOL    HW216902   1.816   1.584   4.104  0.2914  1.2715  2.2293
 1756SOL     OW16903   2.818   2.611   7.569  0.4497 -0.5099  0.4572
 1756SOL    HW116904   2.764   2.613   7.649  0.5350  0.4562  0.4906
 1756SOL    HW216905   2.855   2.699   7.578  1.4593 -1.0133  1.1880
 1757SOL     OW16906   4.128   0.502   2.092 -0.2659 -0.6873  0.5203
 1757SOL    HW116907   4.205   0.532   2.045 -0.5009 -1.3806 -0.3224
 1757SOL    HW216908   4.127   0.557   2.170 -1.0681 -2.5014  1.7801
 1758SOL     OW16909   3.176   2.839   0.485 -0.7885  0.0721  0.7837
 1758SOL    HW116910   3.192   2.933   0.485  0.1743 -0.0979  0.2163
 1758SOL    HW216911   3.251   2.815   0.431 -1.5125 -2.4124  0.8633
 1759SOL     OW16912   3.027   0.555   1.126 -0.3405 -0.2194 -1.0623
 1759SOL    HW116913   2.985   0.587   1.205 -1.4190  1.1804 -2.2221
 1759SOL    HW216914   3.079   0.481   1.159 -0.2694  0.2483 -0.1390
 1760SOL     OW16915   4.368   4.109   1.590 -0.3003  0.6141  0.0891
 1760SOL    HW116916   4.337   4.026   1.554 -1.4733  0.8551  0.5528
 1760SOL    HW216917   4.443   4.130   1.533 -0.5387 -1.9920 -1.1680
 1761SOL     OW16918   2.303   2.050   3.868 -0.2956  0.3338 -0.3386
 1761SOL    HW116919   2.343   2.039   3.781  2.4460 -0.9945  1.0885
 1761SOL    HW216920   2.288   1.956   3.878  1.3317  0.4171  2.6177
 1762SOL     OW16921   4.734   3.308   1.430 -0.0199 -0.1621 -0.4975
 1762SOL    HW116922   4.741   3.291   1.524 -4.1304 -0.3298 -0.1878
 1762SOL    HW216923   4.660   3.368   1.439 -0.7190 -1.5070  2.6559
 1763SOL     OW16924   0.286   2.685   6.316  0.1753  0.5187  0.0337
 1763SOL    HW116925   0.381   2.685   6.319  0.2112  1.2406 -1.0655
 1763SOL    HW216926   0.253   2.706   6.403 -1.5498  1.5969 -0.8701
 1764SOL     OW16927   2.244   0.387  17.159  0.1152 -0.1117 -0.1575
 1764SOL    HW116928   2.274   0.296  17.158  1.2864  0.2442  1.6549
 1764SOL    HW216929   2.222   0.382  17.066 -0.1437  0.7297 -0.1437
 1765SOL     OW16930   1.628   4.252  11.037  0.6675  0.0161  0.1934
 1765SOL    HW116931   1.567   4.182  11.061 -1.7643  2.6006  1.5316
 1765SOL    HW216932   1.574   4.295  10.971  3.0349  2.7768  0.0897
 1766SOL     OW16933   4.388   0.910   3.664  0.6325 -0.4603  0.5028
 1766SOL    HW116934   4.477   0.926   3.634  0.2172  0.9725  0.0329
 1766SOL    HW216935   4.350   0.871   3.585  2.2880 -0.8365 -0.1002
 1767SOL     OW16936   1.988   2.435   2.151 -0.0025  0.7418  0.0902
 1767SOL    HW116937   2.002   2.492   2.076 -1.0463  0.8903  0.0098
 1767SOL    HW216938   1.954   2.356   2.109  1.3122  1.4105 -2.2157
 1768SOL     OW16939   2.541   0.261   1.588  0.1524  0.1968 -0.7063
 1768SOL    HW116940   2.496   0.234   1.508 -1.2362 -0.6253  0.3405
 1768SOL    HW216941   2.469   0.242   1.648  0.2122  0.5533 -0.5218
 1769SOL     OW16942   4.418   3.238   7.730  0.2974  0.2331 -0.4003
 1769SOL    HW116943   4.343   3.214   7.784  0.7606  0.9843  0.5725
 1769SOL    HW216944   4.494   3.212   7.781  1.5696  1.0934 -1.8223
 1770SOL     OW16945   4.074   2.801   3.705  0.0086  0.2711 -0.0106
 1770SOL    HW116946   4.105   2.892   3.708  2.7143 -0.5953 -0.8556
 1770SOL    HW216947   4.129   2.766   3.635 -1.2717  0.4348 -1.0906
 1771SOL     OW16948   2.316   2.866   1.958 -0.2064 -0.1005  0.3343
 1771SOL    HW116949   2.388   2.867   2.020  1.1001 -1.0956 -1.1796
 1771SOL    HW216950   2.247   2.824   2.010  1.0980  0.2358  2.3112
 1772SOL     OW16951   3.927   0.614   1.305 -0.1435 -0.2329 -0.5587
 1772SOL    HW116952   3.949   0.548   1.370  1.1593  0.1788 -0.5930
 1772SOL    HW216953   3.832   0.624   1.315 -0.2364 -0.0933 -1.6216
 1773SOL     OW16954   1.028   1.175   2.120 -0.4787  0.4876  0.0651
 1773SOL    HW116955   1.075   1.190   2.202  1.2737  0.5660 -0.9537
 1773SOL    HW216956   1.046   1.253   2.068  1.2191  0.0143 -0.0500
 1774SOL     OW16957   3.758   2.750  11.217 -0.2013  0.1056 -0.4445
 1774SOL    HW116958   3.771   2.843  11.195  1.5238  0.3402  1.5215
 1774SOL    HW216959   3.848   2.729  11.240 -0.6975 -2.2961 -0.6720
 1775SOL     OW16960   3.744   0.005   8.096 -0.3209  0.0836 -0.3890
 1775SOL    HW116961   3.790   4.687   8.038  2.2437  0.8821  0.8246
 1775SOL    HW216962   3.668   4.691   8.111 -0.9850  0.0836 -3.7247
 1776SOL     OW16963   3.493   0.601   6.101 -0.5181  0.1172 -0.1427
 1776SOL    HW116964   3.522   0.650   6.024  2.4826  0.2838  1.1012
 1776SOL    HW216965   3.443   0.531   6.059  1.3583  0.5105 -3.0328
 1777SOL     OW16966   3.368   4.722  17.624  0.3548  0.0199 -0.5155
 1777SOL    HW116967   3.333   4.637  17.653  0.7876 -0.7237 -2.2146
 1777SOL    HW216968   3.461   4.725  17.643  0.4754 -2.0704 -0.8551
 1778SOL     OW16969   0.299   0.539  11.585 -0.2899  0.0920  0.5708
 1778SOL    HW116970   0.211   0.561  11.558 -0.6745  0.8092  2.3819
 1778SOL    HW216971   0.281   0.568  11.675  0.6317  1.6865  0.2263
 1779SOL     OW16972   4.574   1.070  15.908  0.5153  0.0350 -0.3998
 1779SOL    HW116973   4.607   1.014  15.838 -0.7010 -0.2682 -0.7296
 1779SOL    HW216974   4.488   1.034  15.931  0.4506 -0.0332 -0.7527
 1780SOL     OW16975   1.285   2.896   4.093  0.1300  0.0414  0.0134
 1780SOL    HW116976   1.253   2.807   4.078 -0.1014  0.0368  0.5385
 1780SOL    HW216977   1.238   2.943   4.024  3.3219  2.3231 -0.6189
 1781SOL     OW16978   2.670   3.911   2.343 -0.5485  0.5009 -0.4066
 1781SOL    HW116979   2.576   3.918   2.361 -0.9032 -2.7810 -0.8844
 1781SOL    HW216980   2.697   3.996   2.376  1.3147  0.2654 -1.3457
 1782SOL     OW16981   4.072   0.913  15.921  0.0700  0.1976  0.3564
 1782SOL    HW116982   4.071   0.838  15.861  1.3835 -0.3046  0.9461
 1782SOL    HW216983   4.057   0.984  15.858 -0.3864 -0.5786 -0.4180
 1783SOL     OW16984   2.089   1.966  11.788  0.2327 -0.1111  0.0790
 1783SOL    HW116985   1.993   1.969  11.784  0.2141 -2.0262 -0.7725
 1783SOL    HW216986   2.112   1.877  11.762  1.7660  0.5011 -0.6813
 1784SOL     OW16987   4.086   1.824   6.545 -0.3714 -0.3667 -0.3792
 1784SOL    HW116988   4.063   1.807   6.636 -1.7543 -0.5101 -0.7551
 1784SOL    HW216989   4.069   1.918   6.538 -1.2341 -0.4253  0.8423
 1785SOL     OW16990   3.730   1.072   6.974  0.0625 -0.5527  0.1838
 1785SOL    HW116991   3.787   1.026   7.036  0.5905 -3.2536 -2.3058
 1785SOL    HW216992   3.652   1.090   7.026  0.8624 -0.1525  1.2464
 1786SOL     OW16993   2.925   2.653  14.413  0.2519  0.3010  0.0169
 1786SOL    HW116994   2.879   2.631  14.332  2.8895 -4.5865 -0.1723
 1786SOL    HW216995   3.003   2.598  14.407  1.4708  1.9210  1.0213
 1787SOL     OW16996   0.484   0.291   1.234 -0.1057  0.5893 -0.5442
 1787SOL    HW116997   0.436   0.316   1.155 -0.9712  0.7520  0.0336
 1787SOL    HW216998   0.541   0.223   1.198  0.0453  1.0259 -1.1265
 1788SOL     OW16999   1.997   0.992   5.432 -0.0353  0.3865  0.2960
 1788SOL    HW117000   2.071   1.042   5.397 -0.9934  1.2820 -0.4528
 1788SOL    HW217001   1.972   1.053   5.502 -3.5313 -1.5582  0.7241
 1789SOL     OW17002   4.642   0.445   9.169  0.0128 -0.5594  0.5596
 1789SOL    HW117003   4.549   0.463   9.161  0.1766  1.0272  2.2716
 1789SOL    HW217004   4.660   0.366   9.118  1.1024  0.1243 -0.1302
 1790SOL     OW17005   1.498   1.281  10.538  0.0673  0.2696  0.0794
 1790SOL    HW117006   1.419   1.306  10.490 -1.2256  1.3833  2.8112
 1790SOL    HW217007   1.477   1.316  10.624  3.3191  0.4755  0.8091
 1791SOL     OW17008   3.267   2.076  15.675 -0.4277 -0.5835  0.3609
 1791SOL    HW117009   3.317   2.149  15.711 -0.5976  0.1818 -0.9569
 1791SOL    HW217010   3.268   2.094  15.581 -2.0749  0.3203  0.5064
 1792SOL     OW17011   0.023   2.184   3.086  0.3448  0.0092  0.8408
 1792SOL    HW117012   0.101   2.136   3.057 -1.3683 -2.4997  0.3588
 1792SOL    HW217013   0.033   2.177   3.180 -0.7726 -1.6000  0.8375
 1793SOL     OW17014   1.496   0.427  12.033 -0.3109 -0.2104  0.0870
 1793SOL    HW117015   1.505   0.336  12.065  0.3076 -0.4099 -0.6692
 1793SOL    HW217016   1.401   0.425  12.029 -0.3670  0.3370  1.0358
 1794SOL     OW17017   1.200   0.788   6.727 -0.0006  0.4268 -0.0611
 1794SOL    HW117018   1.227   0.851   6.661 -0.5069  0.3800 -0.3136
 1794SOL    HW217019   1.213   0.838   6.807 -2.2945  0.9631 -0.0284
 1795SOL     OW17020   4.060   4.359   1.141 -0.2337 -0.5642 -0.0965
 1795SOL    HW117021   4.144   4.379   1.099  0.1743 -0.0857  0.9524
 1795SOL    HW217022   4.048   4.267   1.120  0.2007 -0.6003 -0.1838
 1796SOL     OW17023   3.325   0.422   3.877 -0.8397  0.2943  0.1526
 1796SOL    HW117024   3.314   0.332   3.846 -1.0449  0.1217  0.7421
 1796SOL    HW217025   3.371   0.404   3.959  1.6072  1.2683 -0.9970
 1797SOL     OW17026   1.237   0.999   5.273 -0.5567  0.1094 -0.6944
 1797SOL    HW117027   1.220   1.080   5.320  2.1154 -0.2923  1.0327
 1797SOL    HW217028   1.150   0.964   5.256 -1.3082  1.2441  0.8886
 1798SOL     OW17029   1.135   0.311   5.157  0.4581  0.4297  0.0671
 1798SOL    HW117030   1.059   0.357   5.194 -2.1840 -3.2187 -0.8176
 1798SOL    HW217031   1.101   0.223   5.142 -3.7886  2.2179 -0.8230
 1799SOL     OW17032   1.142   3.410   6.432  0.0838  0.0021 -0.3030
 1799SOL    HW117033   1.057   3.367   6.423  0.3647 -0.8633  1.1694
 1799SOL    HW217034   1.192   3.351   6.374 -0.0541  1.0922 -1.5316
 1800SOL     OW17035   2.142   3.456   6.221  0.1106  0.4308 -0.0937
 1800SOL    HW117036   2.214   3.396   6.199 -0.8879 -0.3431 -1.2383
 1800SOL    HW217037   2.147   3.450   6.316  2.3534  0.2914 -0.2210
 1801SOL     OW17038   3.538   2.306   7.154  0.2810 -0.8105 -0.2661
 1801SOL    HW117039   3.632   2.292   7.166  0.4173  0.5161  0.2984
 1801SOL    HW217040   3.528   2.401   7.147  0.9596 -0.5726  1.9370
 1802SOL     OW17041   1.352   2.774   1.447  0.2670 -0.0126  0.2034
 1802SOL    HW117042   1.440   2.754   1.477  0.7723  0.8596 -0.6861
 1802SOL    HW217043   1.337   2.704   1.383  1.8061  0.1468 -0.3200
 1803SOL     OW17044   4.464   1.467   4.382 -0.3233  0.1760 -0.0546
 1803SOL    HW117045   4.541   1.519   4.403  2.3060 -2.5702 -2.9602
 1803SOL    HW217046   4.482   1.440   4.292 -0.4365 -0.1918  0.0302
 1804SOL     OW17047   4.735   2.817   6.429 -0.7481 -0.1098  0.4085
 1804SOL    HW117048   4.738   2.753   6.357 -2.7479  0.1337  0.1209
 1804SOL    HW217049   4.661   2.873   6.406  0.3790  0.5118 -1.7863
 1805SOL     OW17050   2.173   0.971   5.928  0.7188 -0.9960  0.0173
 1805SOL    HW117051   2.206   1.044   5.876  0.6266  0.2914  1.7665
 1805SOL    HW217052   2.084   0.994   5.955  1.5249  2.3379 -0.2447
 1806SOL     OW17053   3.823   3.334   2.849  0.4010 -0.5115 -0.1493
 1806SOL    HW117054   3.764   3.376   2.786 -1.2698 -0.9062  1.1408
 1806SOL    HW217055   3.884   3.405   2.864  0.6016 -0.2878 -1.9916
 1807SOL     OW17056   0.339   0.155   3.291  0.4386 -0.4531  0.2947
 1807SOL    HW117057   0.401   0.221   3.323 -0.6806  0.5985  0.2868
 1807SOL    HW217058   0.348   0.089   3.359 -1.6399 -1.5402 -0.4786
 1808SOL     OW17059   0.903   0.421   2.870 -0.1487  0.3050  0.5435
 1808SOL    HW117060   0.940   0.335   2.852  1.5441  1.0371  0.5508
 1808SOL    HW217061   0.884   0.413   2.964 -1.0007 -0.6907  0.2841
 1809SOL     OW17062   2.357   3.873   7.308 -0.4029 -0.6437 -0.2027
 1809SOL    HW117063   2.386   3.964   7.301  0.4588 -1.0324 -1.6392
 1809SOL    HW217064   2.264   3.880   7.329 -0.6215 -0.5174 -1.1891
 1810SOL     OW17065   0.956   4.236   3.243 -0.1576  0.3319  0.1495
 1810SOL    HW117066   0.991   4.148   3.229 -1.9191 -0.2827 -0.3524
 1810SOL    HW217067   0.861   4.230   3.238 -0.0837  2.9216 -4.0341
 1811SOL     OW17068   4.371   2.510   3.815  0.6156  0.1783 -0.2326
 1811SOL    HW117069   4.346   2.431   3.862  0.9104  1.0276  1.3669
 1811SOL    HW217070   4.467   2.509   3.815  0.6120 -0.6491  1.9837
 1812SOL     OW17071   1.228   1.912   2.775  0.2142 -0.0823  0.5084
 1812SOL    HW117072   1.201   1.937   2.687  0.7472 -0.7445  0.1559
 1812SOL    HW217073   1.220   2.001   2.810  1.6709  0.7077 -1.1816
 1813SOL     OW17074   1.336   0.447  12.364 -0.5130  0.6332  0.2308
 1813SOL    HW117075   1.425   0.465  12.394 -1.0796  2.3486  0.9511
 1813SOL    HW217076   1.283   0.523  12.391  1.3302  1.9469  0.1220
 1814SOL     OW17077   0.355   3.768  12.379  0.0222  0.5441 -0.4709
 1814SOL    HW117078   0.300   3.712  12.435  1.3616  0.2924  0.6047
 1814SOL    HW217079   0.441   3.754  12.420  0.4287 -0.8343 -1.7864
 1815SOL     OW17080   3.532   1.434   2.903  0.3396 -0.1763 -0.2546
 1815SOL    HW117081   3.589   1.493   2.855 -1.0453  1.0137 -0.4282
 1815SOL    HW217082   3.452   1.464   2.859  0.5402 -1.2042 -1.3093
 1816SOL     OW17083   3.295   0.983   7.737 -0.1028 -0.2948  0.1382
 1816SOL    HW117084   3.320   0.919   7.670 -1.2081  1.3515 -1.8495
 1816SOL    HW217085   3.317   1.064   7.690  0.0812 -1.4244 -1.7075
 1817SOL     OW17086   4.476   3.194   4.655 -0.5804 -0.4944  0.4201
 1817SOL    HW117087   4.522   3.157   4.579  0.8934  0.0199  1.0439
 1817SOL    HW217088   4.497   3.131   4.724  4.7898 -0.8092 -1.4560
 1818SOL     OW17089   3.568   0.020   3.264  0.3000 -0.1473 -0.3234
 1818SOL    HW117090   3.554   0.024   3.170  0.0931  0.8458 -0.2438
 1818SOL    HW217091   3.590   4.669   3.273  1.1059  0.2289  1.6745
 1819SOL     OW17092   1.150   2.644   5.293  0.7446  0.1369 -0.8451
 1819SOL    HW117093   1.109   2.573   5.245  0.9121  0.8553 -2.0370
 1819SOL    HW217094   1.245   2.631   5.300  0.3982 -0.1780  3.5185
 1820SOL     OW17095   2.794   0.580  10.202  0.1210 -0.2307  0.5457
 1820SOL    HW117096   2.885   0.552  10.215 -0.2869 -0.7778  2.1517
 1820SOL    HW217097   2.756   0.568  10.289 -0.1832  1.4218  0.6422
 1821SOL     OW17098   0.873   2.296   8.356  0.2535 -0.2773 -0.2947
 1821SOL    HW117099   0.917   2.211   8.353  2.1876  0.7466 -0.4053
 1821SOL    HW217100   0.934   2.355   8.399 -0.3600  1.5777 -1.9729
 1822SOL     OW17101   4.637   3.985   4.776 -0.4987 -0.7030 -0.2966
 1822SOL    HW117102   4.545   3.960   4.791 -1.2866  2.4625  0.1689
 1822SOL    HW217103   4.660   4.001   4.868  0.8032 -1.1674 -0.5459
 1823SOL     OW17104   4.181   0.951   8.985 -0.0856 -0.1473 -0.3793
 1823SOL    HW117105   4.180   0.871   9.037 -0.0643 -0.5120 -0.9363
 1823SOL    HW217106   4.236   0.928   8.910  4.3105  3.3011  1.8043
 1824SOL     OW17107   1.882   0.487   9.038  0.5596  0.2613  0.3931
 1824SOL    HW117108   1.920   0.566   8.998 -0.0255  1.0051  1.3124
 1824SOL    HW217109   1.860   0.510   9.128  0.8558  1.6091  0.1369
 1825SOL     OW17110   2.499   3.210   6.784 -0.1401  0.5099 -0.7997
 1825SOL    HW117111   2.466   3.130   6.824 -0.9884  2.1348  1.7242
 1825SOL    HW217112   2.452   3.270   6.841 -0.8496  0.2291 -1.0773
 1826SOL     OW17113   1.184   2.285   6.684  0.2027  0.2696  0.0250
 1826SOL    HW117114   1.108   2.333   6.719  0.0297 -0.1364  0.2001
 1826SOL    HW217115   1.142   2.243   6.609  0.7368 -1.5453  0.7703
 1827SOL     OW17116   0.293   4.260   3.112 -0.0150 -0.3003  0.9978
 1827SOL    HW117117   0.206   4.228   3.087 -0.9940  2.0388  1.3834
 1827SOL    HW217118   0.344   4.180   3.098  1.5198  0.5835  1.5831
 1828SOL     OW17119   1.690   1.224   8.563 -0.4991  0.2364 -0.2148
 1828SOL    HW117120   1.642   1.304   8.539  0.2956  0.6672 -0.3772
 1828SOL    HW217121   1.682   1.224   8.659  0.4597 -0.7351 -0.1304
 1829SOL     OW17122   4.576   1.607  11.828  0.1250  0.2322  0.1957
 1829SOL    HW117123   4.648   1.670  11.836  1.4724 -1.3200  0.2789
 1829SOL    HW217124   4.628   1.530  11.806 -1.9405 -0.6827 -1.4644
 1830SOL     OW17125   2.080   4.466   7.904 -0.4071 -0.0424  0.4453
 1830SOL    HW117126   2.138   4.512   7.843  0.4132  0.9500  1.9690
 1830SOL    HW217127   2.138   4.461   7.980 -0.0438 -0.2240  0.1542
 1831SOL     OW17128   3.655   4.190   2.448 -0.5036  0.1224  0.1667
 1831SOL    HW117129   3.579   4.144   2.413  0.9524 -0.4792 -2.2068
 1831SOL    HW217130   3.733   4.143   2.419  0.6353  1.1221  1.5621
 1832SOL     OW17131   3.101   0.703   3.744  0.2400 -0.4179  0.7746
 1832SOL    HW117132   3.023   0.756   3.762  1.3211  1.8742 -1.3494
 1832SOL    HW217133   3.167   0.772   3.753  1.5890 -1.6697  0.3927
 1833SOL     OW17134   0.416   3.966   2.659 -0.3597 -0.3534  0.0988
 1833SOL    HW117135   0.387   3.881   2.693 -1.7429 -0.3877 -1.1530
 1833SOL    HW217136   0.501   3.969   2.702 -0.0332 -2.7624 -0.4087
 1834SOL     OW17137   3.843   0.968  13.918 -0.2828  0.2928  0.4890
 1834SOL    HW117138   3.767   1.016  13.885  0.3499  1.7228  1.0920
 1834SOL    HW217139   3.883   0.937  13.836 -2.6591 -0.5174 -0.3480
 1835SOL     OW17140   4.221   3.441   0.454  0.1769  0.4033  0.1479
 1835SOL    HW117141   4.223   3.502   0.527  0.1265  0.9485 -0.3117
 1835SOL    HW217142   4.229   3.503   0.382  2.4457  1.2165  1.1172
 1836SOL     OW17143   1.346   3.830   9.738  0.4386 -0.4218 -0.5019
 1836SOL    HW117144   1.292   3.860   9.811  0.9530  0.6014 -0.5432
 1836SOL    HW217145   1.283   3.818   9.666  2.2954 -2.8830 -1.7086
 1837SOL     OW17146   3.109   0.107   5.153 -0.4987 -0.5394 -0.0169
 1837SOL    HW117147   3.155   0.159   5.086  0.1670 -1.6840 -0.4410
 1837SOL    HW217148   3.173   0.109   5.224 -0.4991  2.3981 -0.0736
 1838SOL     OW17149   2.264   1.777   7.779 -0.6537 -0.3615  0.4408
 1838SOL    HW117150   2.346   1.824   7.793 -1.5361  1.9410 -2.1239
 1838SOL    HW217151   2.230   1.761   7.867 -0.9043 -0.4597  0.3265
 1839SOL     OW17152   1.668   2.698   4.899 -0.2557 -0.4879 -0.1658
 1839SOL    HW117153   1.617   2.706   4.818 -1.0533 -0.5690  0.3320
 1839SOL    HW217154   1.738   2.761   4.885 -0.4537 -0.2737 -0.1779
 1840SOL     OW17155   0.996   0.705   7.153  0.0308  0.2265  0.2353
 1840SOL    HW117156   0.979   0.620   7.192  3.2958 -0.6286 -0.2821
 1840SOL    HW217157   0.985   0.757   7.232 -1.6138  0.2604 -0.0103
 1841SOL     OW17158   1.069   0.710   4.316  0.7645 -0.0921 -0.1850
 1841SOL    HW117159   1.046   0.667   4.234  2.0893  0.8119 -1.0145
 1841SOL    HW217160   1.120   0.786   4.289  0.8679 -0.1924 -0.2710
 1842SOL     OW17161   1.255   1.389   5.891 -0.1748 -0.2450  0.4525
 1842SOL    HW117162   1.225   1.299   5.879  0.6990 -0.5729  0.6930
 1842SOL    HW217163   1.209   1.440   5.824 -1.3183  0.9566  2.1511
 1843SOL     OW17164   2.025   0.054   7.909 -0.5781 -0.2255  0.1450
 1843SOL    HW117165   1.952   0.003   7.944 -0.2082 -1.2005 -0.5140
 1843SOL    HW217166   2.077   4.732   7.862  0.4350  1.4697 -1.0574
 1844SOL     OW17167   3.309   2.682   3.717 -0.3425  0.3484 -0.3761
 1844SOL    HW117168   3.366   2.758   3.702  1.2011 -0.5536  0.8460
 1844SOL    HW217169   3.221   2.717   3.701 -0.0379  1.1558 -0.3087
 1845SOL     OW17170   4.268   4.738  16.319 -0.3590  0.1366  0.2748
 1845SOL    HW117171   4.343   4.679  16.328 -0.7316 -0.4222 -0.2929
 1845SOL    HW217172   4.250   4.703  16.232 -0.1325  3.4669 -1.0941
 1846SOL     OW17173   1.524   0.542   2.775 -0.5696 -0.5144 -0.4661
 1846SOL    HW117174   1.619   0.529   2.776 -0.4902  0.1363  0.6400
 1846SOL    HW217175   1.491   0.544   2.864 -1.1441  1.8158 -0.7200
 1847SOL     OW17176   2.823   0.001   2.552  0.1387 -0.0578 -0.2686
 1847SOL    HW117177   2.845   4.673   2.491 -1.1826 -0.7180  0.0171
 1847SOL    HW217178   2.882   4.710   2.620 -0.8239 -0.9877  0.0944
 1848SOL     OW17179   3.978   3.329   0.968  0.5312  0.6216 -0.0514
 1848SOL    HW117180   3.951   3.378   0.891  0.2119  0.6658  0.0897
 1848SOL    HW217181   4.030   3.262   0.922  0.4294  0.3969  0.1604
 1849SOL     OW17182   1.992   3.106   5.603  0.1034 -0.3702  0.3361
 1849SOL    HW117183   1.932   3.039   5.570  0.8274 -1.6388  1.5831
 1849SOL    HW217184   1.936   3.181   5.623 -1.2624 -1.2004 -0.3282
 1850SOL     OW17185   3.626   2.357  13.751 -0.4305  0.5082 -0.2158
 1850SOL    HW117186   3.632   2.329  13.660 -0.6204 -0.1705 -0.0156
 1850SOL    HW217187   3.720   2.375  13.759 -1.0848  3.4724  1.0231
 1851SOL     OW17188   3.109   1.372   9.964  0.2174 -0.1057  0.3215
 1851SOL    HW117189   3.149   1.362   9.878  1.9825 -2.1951  1.3862
 1851SOL    HW217190   3.019   1.355   9.936  0.0360 -0.5224  1.1601
 1852SOL     OW17191   2.987   1.055   5.759  0.7296 -0.2967  0.1543
 1852SOL    HW117192   2.981   1.042   5.664 -1.5383 -3.1896  0.6796
 1852SOL    HW217193   3.014   0.964   5.777 -2.7240 -1.1977  0.7046
 1853SOL     OW17194   1.112   2.335   3.566  0.0397 -0.2708  0.0815
 1853SOL    HW117195   1.178   2.372   3.625  0.9500 -1.3336 -0.2710
 1853SOL    HW217196   1.037   2.383   3.601  0.5636  0.1825  0.5772
 1854SOL     OW17197   1.553   1.424   4.985 -0.1230 -0.4064  0.3917
 1854SOL    HW117198   1.490   1.495   4.999  0.4684 -0.3386  2.7286
 1854SOL    HW217199   1.557   1.380   5.070  0.0969 -0.6109  0.2758
 1855SOL     OW17200   3.709   2.613  11.879  0.1903  0.1784  0.2265
 1855SOL    HW117201   3.737   2.700  11.851 -1.2977 -0.2000 -2.4516
 1855SOL    HW217202   3.654   2.579  11.808  2.1370 -0.7620 -0.8532
 1856SOL     OW17203   2.184   2.648  11.737  0.7049 -0.6054  0.8593
 1856SOL    HW117204   2.215   2.662  11.647  0.0706 -0.8864  0.5931
 1856SOL    HW217205   2.235   2.714  11.783  0.9565  1.1883 -1.9343
 1857SOL     OW17206   0.944   0.465   7.580 -0.0318 -0.1307 -0.3871
 1857SOL    HW117207   0.913   0.525   7.647  3.2172 -0.7156  1.6862
 1857SOL    HW217208   0.995   0.406   7.636  0.8029  0.5070 -0.4732
 1858SOL     OW17209   2.286   0.637  16.328 -0.4872 -0.0026 -0.2617
 1858SOL    HW117210   2.264   0.596  16.244  1.2921  1.4009 -1.4288
 1858SOL    HW217211   2.223   0.709  16.325  1.1533  1.5019  1.0776
 1859SOL     OW17212   2.911   3.835   4.118 -0.0521  0.1937 -0.3483
 1859SOL    HW117213   2.889   3.742   4.125  1.1790 -0.1370 -0.8316
 1859SOL    HW217214   2.893   3.857   4.027  1.7481  1.6518 -0.3565
 1860SOL     OW17215   4.719   0.766   2.404  0.0347 -0.2795 -0.2451
 1860SOL    HW117216   4.720   0.687   2.458 -2.8289 -1.1699 -1.5098
 1860SOL    HW217217   0.067   0.763   2.373 -0.2372 -1.2955 -0.9258
 1861SOL     OW17218   4.640   3.186   8.491 -0.0005  0.4207 -0.0097
 1861SOL    HW117219   4.625   3.230   8.575  1.6114  0.6712  0.1449
 1861SOL    HW217220   4.732   3.211   8.478 -0.4582  1.6806 -0.8192
 1862SOL     OW17221   2.118   3.403   6.498  0.4098  0.1201 -0.1546
 1862SOL    HW117222   2.206   3.420   6.533  0.6138 -2.7278  0.7407
 1862SOL    HW217223   2.064   3.440   6.568 -1.3567 -0.8575 -1.0213
 1863SOL     OW17224   2.158   3.393   7.103 -0.3194  0.4182  0.5336
 1863SOL    HW117225   2.076   3.436   7.081 -0.2318  0.5940  0.5469
 1863SOL    HW217226   2.169   3.433   7.190 -1.9756  0.1777  0.8430
 1864SOL     OW17227   0.441   3.400   2.435 -0.7030 -0.4392  0.3638
 1864SOL    HW117228   0.466   3.427   2.347  2.9685  0.0426  1.5493
 1864SOL    HW217229   0.526   3.414   2.475 -0.5855 -0.7140  0.2174
 1865SOL     OW17230   1.513   2.646   7.161 -0.1527  0.3014  0.2883
 1865SOL    HW117231   1.476   2.658   7.074 -0.7914  1.7391  0.7580
 1865SOL    HW217232   1.453   2.576   7.188  0.9195 -0.9406 -0.5330
 1866SOL     OW17233   0.673   1.845   2.284 -0.5797  0.5081 -0.5636
 1866SOL    HW117234   0.669   1.758   2.246 -0.8984  1.2060 -2.1458
 1866SOL    HW217235   0.745   1.831   2.345  1.8845  3.6405 -2.7326
 1867SOL     OW17236   4.627   0.539   4.830  0.6647 -0.3061  0.7632
 1867SOL    HW117237   4.620   0.474   4.900  0.3780 -0.0037  1.0113
 1867SOL    HW217238   4.720   0.536   4.806  1.4181 -1.2532  3.7618
 1868SOL     OW17239   1.988   4.418   4.353 -0.7943  0.4902  0.0274
 1868SOL    HW117240   1.925   4.479   4.314  1.8326  1.4898 -2.6973
 1868SOL    HW217241   1.942   4.401   4.435  1.3367 -3.0122  0.4777
 1869SOL     OW17242   3.141   2.848   2.040  0.6103 -0.0360  0.6300
 1869SOL    HW117243   3.159   2.849   1.946 -0.9941 -0.6652  0.3120
 1869SOL    HW217244   3.106   2.760   2.058  2.1388 -0.3147  2.2116
 1870SOL     OW17245   4.463   0.630   6.305  0.0961  0.4622  0.4572
 1870SOL    HW117246   4.503   0.555   6.261 -1.8684  0.5184 -1.3799
 1870SOL    HW217247   4.370   0.628   6.282  0.6256 -0.1861 -1.6005
 1871SOL     OW17248   4.098   2.991   4.076  0.3703 -0.1667  0.7027
 1871SOL    HW117249   4.162   3.031   4.135 -0.0878  0.6414  0.6460
 1871SOL    HW217250   4.151   2.945   4.010  2.2481  2.0989  0.6378
 1872SOL     OW17251   2.777   3.163   8.492  0.0441  0.3046  0.2097
 1872SOL    HW117252   2.837   3.092   8.471  0.9047  2.0868 -3.3695
 1872SOL    HW217253   2.753   3.185   8.401  0.4054  0.1500  0.0783
 1873SOL     OW17254   1.536   3.019  11.091 -0.0719 -0.0707  0.1516
 1873SOL    HW117255   1.444   3.000  11.110  0.4761 -0.2643  2.7528
 1873SOL    HW217256   1.567   2.936  11.055 -2.1693 -0.5471 -0.5152
 1874SOL     OW17257   4.156   2.564  15.200 -0.0626 -0.0306  0.0101
 1874SOL    HW117258   4.067   2.544  15.231 -0.1993 -2.0654 -1.6404
 1874SOL    HW217259   4.135   2.638  15.143 -0.7547  1.0311  1.6314
 1875SOL     OW17260   1.318   4.495  16.505 -0.6770 -0.3923  0.1173
 1875SOL    HW117261   1.338   4.513  16.597 -1.9428 -0.4965  0.4148
 1875SOL    HW217262   1.320   4.400  16.510  0.0689 -0.5404 -3.5671
 1876SOL     OW17263   4.687   2.364   5.753 -0.4094 -0.1289 -0.2013
 1876SOL    HW117264   4.683   2.279   5.796 -0.8988 -0.7550 -1.4932
 1876SOL    HW217265   4.688   2.342   5.660  2.1418  0.3944 -0.3011
 1877SOL     OW17266   1.990   0.328   6.317  0.1822  0.1676 -0.1553
 1877SOL    HW117267   2.008   0.403   6.373 -0.0518  0.4033 -0.3910
 1877SOL    HW217268   1.923   0.291   6.374  1.9480 -1.1366  1.0494
 1878SOL     OW17269   0.525   3.441   5.046 -0.4895  0.1507  0.4690
 1878SOL    HW117270   0.606   3.413   5.003 -0.2648  0.4253  0.7192
 1878SOL    HW217271   0.465   3.428   4.973  1.9862 -3.5189 -0.9371
 1879SOL     OW17272   0.891   0.261   1.536  0.0381  0.0156  0.3372
 1879SOL    HW117273   0.828   0.209   1.485  1.7531 -1.8154  0.1034
 1879SOL    HW217274   0.835   0.323   1.582  0.8413  0.0713  1.2204
 1880SOL     OW17275   1.576   0.370   4.049  0.1657 -0.2011  0.1144
 1880SOL    HW117276   1.487   0.353   4.080  0.9645 -0.7385  2.0817
 1880SOL    HW217277   1.626   0.346   4.127  0.8053 -1.4498 -0.6757
 1881SOL     OW17278   4.541   0.568   7.829 -0.5475 -0.3186  0.2076
 1881SOL    HW117279   4.536   0.606   7.741 -0.1790 -0.6443  0.0443
 1881SOL    HW217280   4.630   0.589   7.858  0.1618  1.3733 -3.1453
 1882SOL     OW17281   0.416   3.989   4.973 -0.0410  0.0126 -0.8539
 1882SOL    HW117282   0.339   3.982   4.918 -0.8994 -1.3104  0.5246
 1882SOL    HW217283   0.412   3.904   5.016  0.1867 -0.2562 -1.3638
 1883SOL     OW17284   3.093   4.571  13.343 -0.5235 -0.0041 -0.2670
 1883SOL    HW117285   3.066   4.663  13.340  1.7824  0.6848 -0.2632
 1883SOL    HW217286   3.186   4.575  13.318 -0.3485 -0.0278  0.3928
 1884SOL     OW17287   0.185   2.892   0.861  0.1429  0.2370 -0.1010
 1884SOL    HW117288   0.203   2.950   0.787  1.1072 -0.0325 -0.0725
 1884SOL    HW217289   0.161   2.814   0.811  0.7367  0.4019 -0.6419
 1885SOL     OW17290   4.366   2.190   5.864  0.4806  0.4092 -0.1651
 1885SOL    HW117291   4.354   2.146   5.948  0.6064  0.6434 -0.0262
 1885SOL    HW217292   4.377   2.111   5.810 -0.2072  0.0312  0.2406
 1886SOL     OW17293   2.582   2.487   9.486  0.0636  0.7350  0.2781
 1886SOL    HW117294   2.522   2.554   9.454 -0.0944  1.2884  1.7453
 1886SOL    HW217295   2.526   2.469   9.561  2.0243 -3.3233  0.7454
 1887SOL     OW17296   1.871   2.912   1.107  0.7771 -0.1150  0.4361
 1887SOL    HW117297   1.888   2.946   1.019 -1.2144  0.1905  0.1716
 1887SOL    HW217298   1.781   2.941   1.123  0.8519  1.4378 -2.0245
 1888SOL     OW17299   1.783   4.241   6.617  0.1485  0.0772  0.0457
 1888SOL    HW117300   1.740   4.325   6.597  0.4508  0.2044 -0.0700
 1888SOL    HW217301   1.711   4.181   6.636 -0.1345 -0.2005 -1.8782
 1889SOL     OW17302   4.498   3.687  16.712 -0.1715  0.2557 -0.1731
 1889SOL    HW117303   4.562   3.617  16.696  0.2317  0.5445  0.1954
 1889SOL    HW217304   4.423   3.630  16.728  0.1004  0.2295  0.9582
 1890SOL     OW17305   3.272   4.580   5.078 -0.3003 -0.6183  0.3425
 1890SOL    HW117306   3.177   4.582   5.066 -0.5669  0.1974  2.5910
 1890SOL    HW217307   3.271   4.631   5.159 -1.3924  0.7091 -0.5215
 1891SOL     OW17308   1.898   3.047  17.632 -0.6703  0.3807  0.6015
 1891SOL    HW117309   1.915   2.953  17.628  0.0712  0.5470 -0.1068
 1891SOL    HW217310   1.832   3.068  17.565 -0.9084 -0.3004  0.6277
 1892SOL     OW17311   1.637   2.484   7.365  0.7066  0.0156 -0.0834
 1892SOL    HW117312   1.624   2.416   7.430 -4.2802  1.5400  0.5354
 1892SOL    HW217313   1.711   2.438   7.325  0.0582 -1.3195  0.2563
 1893SOL     OW17314   1.109   0.226   8.003 -0.0530  0.0517  0.5041
 1893SOL    HW117315   1.121   0.281   7.926  0.3052  1.5767  1.6514
 1893SOL    HW217316   1.037   0.269   8.048 -1.8811 -2.4857  0.0216
 1894SOL     OW17317   2.276   0.596   5.083  0.1128  0.1098  0.6573
 1894SOL    HW117318   2.194   0.572   5.041  0.9008 -0.1737 -0.7272
 1894SOL    HW217319   2.254   0.676   5.130  2.2081  0.2750  1.3697
 1895SOL     OW17320   2.427   4.534   6.438 -0.0852 -0.1294 -0.2586
 1895SOL    HW117321   2.450   4.615   6.393  0.2632 -0.0297  0.0954
 1895SOL    HW217322   2.503   4.481   6.415  0.2792  0.2245  0.1295
 1896SOL     OW17323   4.607   4.567   7.109  0.0219  0.2444  0.3245
 1896SOL    HW117324   4.588   4.572   7.203  0.3983 -1.8018  0.4966
 1896SOL    HW217325   4.535   4.507   7.090  0.7040 -0.1392 -1.0000
 1897SOL     OW17326   0.834   1.484   9.010  0.0933 -0.8721 -0.9762
 1897SOL    HW117327   0.911   1.534   8.984 -0.0685  0.5830  1.3073
 1897SOL    HW217328   0.857   1.400   8.971  3.1630  1.3665 -3.9147
 1898SOL     OW17329   4.692   2.238   6.859 -0.2435  0.2652 -0.8191
 1898SOL    HW117330   4.675   2.330   6.838 -1.5786  0.5811  1.6519
 1898SOL    HW217331   4.719   2.245   6.950  0.9880  1.4158 -1.2659
 1899SOL     OW17332   4.403   1.724   4.100 -1.2299 -0.4488 -0.0016
 1899SOL    HW117333   4.341   1.728   4.028 -1.1795 -2.3290 -0.1696
 1899SOL    HW217334   4.350   1.751   4.175  0.1933 -1.2562  1.2987
 1900SOL     OW17335   3.693   2.583  12.612 -0.2424  0.8611  0.0709
 1900SOL    HW117336   3.730   2.629  12.536 -0.5373  1.3788  0.2368
 1900SOL    HW217337   3.727   2.630  12.688  0.0479 -0.9454  1.0411
 1901SOL     OW17338   4.406   1.882   5.925 -0.2678  0.0534 -0.0829
 1901SOL    HW117339   4.489   1.907   5.966  0.0760  0.4576 -1.0487
 1901SOL    HW217340   4.392   1.791   5.951 -0.6142 -0.2567 -1.3931
 1902SOL     OW17341   0.735   4.293   7.936 -0.2372 -0.1231  0.5244
 1902SOL    HW117342   0.713   4.272   8.027 -1.4198 -2.0406 -0.1994
 1902SOL    HW217343   0.661   4.351   7.918 -0.4384 -0.1962  1.1001
 1903SOL     OW17344   1.466   0.207  17.508 -0.1446  0.2199 -0.7011
 1903SOL    HW117345   1.507   0.230  17.425 -0.9637 -1.1979 -1.5056
 1903SOL    HW217346   1.489   0.285  17.559  1.0644  0.4720 -1.6332
 1904SOL     OW17347   3.691   0.849   5.311 -0.3091 -0.4665 -0.3524
 1904SOL    HW117348   3.757   0.853   5.243  1.0783  0.0348  1.0283
 1904SOL    HW217349   3.736   0.873   5.392 -1.8740 -1.5117  0.8238
 1905SOL     OW17350   2.375   2.896   4.891  0.1461 -0.2674 -0.3239
 1905SOL    HW117351   2.466   2.885   4.916  0.2697  1.3313 -0.0566
 1905SOL    HW217352   2.347   2.957   4.959  0.8407 -1.7073  1.2291
 1906SOL     OW17353   3.814   1.768   5.241  0.3906  0.3909  0.2368
 1906SOL    HW117354   3.812   1.723   5.156 -2.8125 -0.6871  0.9193
 1906SOL    HW217355   3.830   1.856   5.207 -0.4524  0.2026 -0.6608
 1907SOL     OW17356   2.530   1.817   7.783  0.3818 -0.1447 -0.6187
 1907SOL    HW117357   2.507   1.854   7.868  1.1354 -2.3772  0.5598
 1907SOL    HW217358   2.573   1.736   7.809 -0.1136  0.0689  0.8553
 1908SOL     OW17359   3.115   0.968   6.547  0.2339 -0.0979 -0.3178
 1908SOL    HW117360   3.143   1.037   6.607 -1.2789 -0.0490  0.3326
 1908SOL    HW217361   3.084   0.901   6.608 -1.1171 -2.8194 -3.9741
 1909SOL     OW17362   3.651   0.057   3.882  0.1499  0.1895  0.3412
 1909SOL    HW117363   3.717   0.020   3.941  0.6482 -1.1487 -1.0589
 1909SOL    HW217364   3.604   4.718   3.866  0.7651 -0.3282  1.1665
 1910SOL     OW17365   0.812   4.674  16.922  0.5872 -0.1830 -0.2373
 1910SOL    HW117366   0.875   4.602  16.918  0.4954 -0.2702 -0.1185
 1910SOL    HW217367   0.879   0.001  16.926 -0.0686  0.3211  1.8564
 1911SOL     OW17368   1.135   0.945   6.037 -0.1684 -0.0877  0.3323
 1911SOL    HW117369   1.159   0.991   5.957 -0.1068  0.4842  0.6809
 1911SOL    HW217370   1.090   0.868   6.002  1.0278 -0.1909 -0.9930
 1912SOL     OW17371   3.015   1.461   4.446  0.4869 -0.4606 -0.0397
 1912SOL    HW117372   3.058   1.403   4.383 -0.2063  0.9480 -1.8377
 1912SOL    HW217373   2.998   1.539   4.392  0.3645 -0.2626  0.2861
 1913SOL     OW17374   0.408   2.514   4.557  0.6136 -0.1773 -0.6038
 1913SOL    HW117375   0.462   2.449   4.602  0.9600  0.3270 -0.3021
 1913SOL    HW217376   0.327   2.526   4.607  1.3530 -0.5499  0.6684
 1914SOL     OW17377   1.835   4.155   0.729  0.1920 -0.2401 -0.1510
 1914SOL    HW117378   1.862   4.156   0.637  1.5980  1.6177  0.2577
 1914SOL    HW217379   1.745   4.188   0.731  0.4733  0.5469 -0.0932
 1915SOL     OW17380   3.682   0.757  12.482 -0.3663 -0.2419 -0.4231
 1915SOL    HW117381   3.639   0.822  12.427 -2.8775 -1.0885  0.5122
 1915SOL    HW217382   3.758   0.809  12.509  0.1323 -0.8572 -0.6448
 1916SOL     OW17383   1.831   2.185   7.425  0.4240  0.4417  0.4392
 1916SOL    HW117384   1.751   2.151   7.464  0.6565 -0.9140 -0.2828
 1916SOL    HW217385   1.828   2.143   7.339  2.8490 -0.2457  0.6948
 1917SOL     OW17386   2.579   4.623   3.927 -0.6253  0.2423 -0.5134
 1917SOL    HW117387   2.552   4.715   3.925  0.7878  0.6267 -2.0902
 1917SOL    HW217388   2.592   4.596   3.836 -3.2099 -0.8784 -0.5324
 1918SOL     OW17389   3.794   0.064   2.369  0.2386 -0.0153  0.6487
 1918SOL    HW117390   3.775   0.111   2.288  0.2276 -2.0152 -0.5274
 1918SOL    HW217391   3.883   0.096   2.381  0.0991  0.6793 -0.1621
 1919SOL     OW17392   3.669   3.744   8.736  0.1350 -0.1629 -1.1544
 1919SOL    HW117393   3.725   3.743   8.658  2.2082  1.6937  0.3268
 1919SOL    HW217394   3.596   3.797   8.703  0.0234 -0.1536 -0.8918
 1920SOL     OW17395   0.863   0.859   3.218 -0.0195  0.6118  0.3462
 1920SOL    HW117396   0.898   0.925   3.278  0.6582 -0.0818  0.7186
 1920SOL    HW217397   0.859   0.791   3.285 -1.7602  1.7844  1.4458
 1921SOL     OW17398   1.840   1.895   9.737 -0.2346  0.5900 -0.3969
 1921SOL    HW117399   1.838   1.985   9.771 -2.4989  0.6507 -0.6454
 1921SOL    HW217400   1.776   1.862   9.800  0.1946  4.0002  1.8472
 1922SOL     OW17401   4.535   3.291   6.719 -0.4351 -0.0402  0.5901
 1922SOL    HW117402   4.583   3.257   6.644  0.5669  1.4139  0.5675
 1922SOL    HW217403   4.514   3.215   6.773  2.5484 -0.4610  1.1622
 1923SOL     OW17404   3.647   4.262   1.791 -0.0779 -0.0427 -0.1555
 1923SOL    HW117405   3.660   4.344   1.839 -0.3205 -1.6217  2.6180
 1923SOL    HW217406   3.739   4.235   1.786 -0.0231 -0.2403  1.8571
 1924SOL     OW17407   1.037   3.329   7.183 -0.5321  0.9766 -0.3880
 1924SOL    HW117408   1.132   3.320   7.172 -0.3345  1.6009  0.7409
 1924SOL    HW217409   1.024   3.293   7.096  1.6153  0.1195 -0.3617
 1925SOL     OW17410   4.052   0.725   5.694 -0.3411  0.9090  0.0489
 1925SOL    HW117411   4.065   0.789   5.765  1.1586 -0.8846  1.3875
 1925SOL    HW217412   4.002   0.769   5.625 -2.1246  0.7469  1.2097
 1926SOL     OW17413   0.645   2.143   1.773 -0.4021 -0.2542  0.2589
 1926SOL    HW117414   0.589   2.199   1.827  1.5528  0.7730  1.2569
 1926SOL    HW217415   0.735   2.176   1.779 -0.5608  0.3400 -0.5449
 1927SOL     OW17416   1.248   1.626  17.669 -0.1237 -0.5253  0.2350
 1927SOL    HW117417   1.193   1.683  17.722 -1.2108 -2.1215  0.8125
 1927SOL    HW217418   1.326   1.682  17.660 -2.7011  2.6089 -2.8117
 1928SOL     OW17419   2.377   3.392   6.932  0.3533 -0.4717  0.2732
 1928SOL    HW117420   2.449   3.428   6.982  0.1539  1.1200 -0.5770
 1928SOL    HW217421   2.305   3.369   6.991  0.0121  0.7091  0.3218
 1929SOL     OW17422   4.075   2.621   0.657  0.5132 -0.0571  0.5231
 1929SOL    HW117423   4.029   2.546   0.693  1.6242 -1.1968 -0.4170
 1929SOL    HW217424   4.000   2.674   0.630 -0.1323 -1.0199  0.4249
 1930SOL     OW17425   4.580   0.058   6.955 -0.7550 -0.3160 -0.2902
 1930SOL    HW117426   4.606   4.724   7.007  2.2299  0.7774 -0.1844
 1930SOL    HW217427   4.650   0.121   6.973  0.5400 -1.4041 -1.5129
 1931SOL     OW17428   1.957   3.573   6.995 -0.3911  0.0755  0.3331
 1931SOL    HW117429   1.898   3.628   7.047 -0.4878  0.9469 -0.6980
 1931SOL    HW217430   2.008   3.646   6.960 -0.6245  0.3757  0.6121
 1932SOL     OW17431   1.588   1.185   5.241 -0.8619 -0.3409  0.1175
 1932SOL    HW117432   1.623   1.104   5.278 -1.7511 -0.7494  0.0727
 1932SOL    HW217433   1.568   1.148   5.155 -1.8543 -3.6185  1.7207
 1933SOL     OW17434   1.325   2.517  11.805 -0.6072  0.0012  0.5743
 1933SOL    HW117435   1.298   2.453  11.871  1.2405 -0.6125  0.7194
 1933SOL    HW217436   1.259   2.583  11.828  0.4282  1.0507  0.5614
 1934SOL     OW17437   1.748   0.894  14.013 -0.0594 -0.2077  0.5661
 1934SOL    HW117438   1.711   0.816  14.054  1.7799 -0.8350  1.0216
 1934SOL    HW217439   1.706   0.883  13.928 -1.2847  1.1539  1.0045
 1935SOL     OW17440   2.969   3.000  14.853 -0.1039 -0.0220  0.1601
 1935SOL    HW117441   3.031   3.050  14.800 -0.3405  1.6907  1.5388
 1935SOL    HW217442   2.967   2.918  14.803 -2.7461  0.4255 -0.4253
 1936SOL     OW17443   2.710   2.446   4.690 -0.4243 -0.2844 -0.3520
 1936SOL    HW117444   2.745   2.425   4.603 -0.8155  0.6142 -0.7240
 1936SOL    HW217445   2.704   2.356   4.721 -1.6076 -0.0624  0.0753
 1937SOL     OW17446   0.224   0.545   1.109  0.6085 -0.3538  0.2102
 1937SOL    HW117447   0.292   0.602   1.072  1.7417 -0.6749  1.7733
 1937SOL    HW217448   0.271   0.523   1.190 -0.8992 -0.9505  0.9095
 1938SOL     OW17449   4.408   0.002   0.674 -0.5522  0.2756  0.1343
 1938SOL    HW117450   4.400   0.067   0.604  0.9747 -0.2640 -0.5422
 1938SOL    HW217451   4.319   4.709   0.672 -1.1702  1.5868  4.6967
 1939SOL     OW17452   4.376   4.259   2.851  0.4660 -0.4315 -0.1924
 1939SOL    HW117453   4.370   4.168   2.880  0.0840  0.0060  1.0969
 1939SOL    HW217454   4.312   4.303   2.906 -0.2910 -3.4584  1.3607
 1940SOL     OW17455   3.810   2.542   4.560  0.2234 -0.1951 -0.4701
 1940SOL    HW117456   3.717   2.546   4.582  0.5633 -0.2642  0.9895
 1940SOL    HW217457   3.857   2.491   4.627 -1.2058  0.1146  0.7567
 1941SOL     OW17458   4.374   2.037  10.163  0.2736 -0.3908 -0.1577
 1941SOL    HW117459   4.363   2.093  10.086 -0.0449 -1.0499 -0.5952
 1941SOL    HW217460   4.342   1.951  10.136  0.8321 -0.2201 -1.3826
 1942SOL     OW17461   3.332   0.153  16.571  0.0852  0.2162 -0.1989
 1942SOL    HW117462   3.320   0.123  16.481  1.5445  1.0214 -0.6535
 1942SOL    HW217463   3.251   0.203  16.582 -0.1906  0.4606 -3.3954
 1943SOL     OW17464   2.622   0.695   8.715 -0.3013  0.5202 -0.3080
 1943SOL    HW117465   2.558   0.742   8.662 -0.5934  0.0506 -0.3766
 1943SOL    HW217466   2.578   0.610   8.711 -0.1320  0.3430  1.5283
 1944SOL     OW17467   0.025   0.599   8.818  0.1629  0.2978  0.2226
 1944SOL    HW117468   0.027   0.627   8.909 -0.7598 -1.4442  0.7710
 1944SOL    HW217469   4.673   0.586   8.815  0.3717 -1.3925  1.2969
 1945SOL     OW17470   2.267   1.759   4.334 -0.1001  0.4865 -0.4552
 1945SOL    HW117471   2.325   1.779   4.408 -0.0771  1.0442 -0.6213
 1945SOL    HW217472   2.292   1.836   4.283  0.1648  0.9650  0.3843
 1946SOL     OW17473   2.153   4.227   8.989  0.3939  0.0580 -0.1304
 1946SOL    HW117474   2.161   4.145   8.940  0.6849  0.8860 -1.4671
 1946SOL    HW217475   2.243   4.224   9.023  1.3104 -2.7473 -2.8238
 1947SOL     OW17476   1.466   1.158   2.116 -0.2860  0.0500  0.6375
 1947SOL    HW117477   1.428   1.140   2.030  0.1384 -1.3666  0.7465
 1947SOL    HW217478   1.555   1.177   2.088  0.1268 -0.3812  1.6932
 1948SOL     OW17479   4.431   1.127   1.497  0.2495  0.5853 -0.1544
 1948SOL    HW117480   4.399   1.139   1.407  1.1181  0.0659 -0.5273
 1948SOL    HW217481   4.482   1.207   1.513  1.3314 -0.2030  0.2810
 1949SOL     OW17482   4.593   0.561   2.770  0.1146  0.4554 -0.8271
 1949SOL    HW117483   4.505   0.552   2.807  0.4665 -2.5912 -0.6921
 1949SOL    HW217484   4.652   0.538   2.842  1.2954 -0.1812 -1.9944
 1950SOL     OW17485   1.758   2.598  15.063  0.7118 -0.8387  0.2176
 1950SOL    HW117486   1.706   2.555  14.995  0.2010  0.3501 -0.1466
 1950SOL    HW217487   1.749   2.548  15.144 -2.3728  0.8218  0.8876
 1951SOL     OW17488   3.049   0.942   6.121 -0.0225 -0.2513  0.7432
 1951SOL    HW117489   3.102   1.021   6.116 -0.2747 -0.0910  0.5922
 1951SOL    HW217490   3.117   0.876   6.130 -0.7692 -1.3093 -1.5336
 1952SOL     OW17491   0.171   0.393   4.143  0.5443 -0.3336  0.3210
 1952SOL    HW117492   0.140   0.480   4.118 -3.9909 -1.6676  1.2590
 1952SOL    HW217493   0.159   0.404   4.238  0.3860 -2.1205  0.4946
 1953SOL     OW17494   0.659   1.525  10.193  0.6703 -0.0201  1.3109
 1953SOL    HW117495   0.630   1.465  10.262  0.2140 -1.7143 -0.3631
 1953SOL    HW217496   0.750   1.497  10.198 -0.0352 -2.4361  0.2422
 1954SOL     OW17497   3.539   0.054   2.134 -0.0068 -0.2335 -0.0053
 1954SOL    HW117498   3.610   0.012   2.086  1.2552 -0.9107  2.4299
 1954SOL    HW217499   3.467   0.017   2.083 -1.0627  1.2104  0.4326
 1955SOL     OW17500   3.241   2.247   6.171  0.5455 -0.1155  0.0324
 1955SOL    HW117501   3.310   2.307   6.200 -0.4182  1.3283 -0.6156
 1955SOL    HW217502   3.194   2.233   6.253  0.3163 -2.1007 -0.4421
 1956SOL     OW17503   1.169   4.572   8.708  0.0946  0.0384  0.0806
 1956SOL    HW117504   1.110   4.634   8.751 -0.2364  1.3253 -2.2497
 1956SOL    HW217505   1.098   4.529   8.661 -0.7391  1.2886  0.1875
 1957SOL     OW17506   1.363   1.536   6.696 -0.2037 -0.1318  0.5241
 1957SOL    HW117507   1.402   1.511   6.780 -0.4630  1.1699  1.0344
 1957SOL    HW217508   1.431   1.585   6.650  0.1822 -0.4905  0.7121
 1958SOL     OW17509   0.970   2.731   3.148 -0.3413 -0.0341  0.4863
 1958SOL    HW117510   0.889   2.681   3.155 -0.3251 -0.0634  0.4655
 1958SOL    HW217511   0.981   2.743   3.054 -1.4517 -2.9747 -0.0258
 1959SOL     OW17512   2.049   0.898   6.486 -0.1446  0.9258 -0.5214
 1959SOL    HW117513   2.046   0.967   6.551  1.1209 -0.7744  1.3669
 1959SOL    HW217514   2.129   0.915   6.436 -0.1063  0.1553 -0.7378
 1960SOL     OW17515   2.450   4.089   1.397  0.2835  0.3291  0.2781
 1960SOL    HW117516   2.404   4.170   1.375 -1.2066 -0.5300  0.1646
 1960SOL    HW217517   2.542   4.111   1.381  0.1410 -0.3311 -1.5033
 1961SOL     OW17518   1.655   0.825  17.240  0.0586  0.1054 -0.6249
 1961SOL    HW117519   1.603   0.812  17.319  1.5024 -1.3253  0.1071
 1961SOL    HW217520   1.736   0.775  17.251 -0.0041  0.1142 -0.1423
 1962SOL     OW17521   0.899   2.914   4.543  0.1000 -0.1373  0.1765
 1962SOL    HW117522   0.812   2.879   4.522 -0.5250  1.3570  0.2127
 1962SOL    HW217523   0.897   2.893   4.637  0.6929 -1.4636 -0.1097
 1963SOL     OW17524   4.599   2.807   1.209  0.6029 -0.2145  0.0980
 1963SOL    HW117525   4.593   2.717   1.177  0.9113 -0.3878  0.5195
 1963SOL    HW217526   4.677   2.834   1.160 -0.4669  0.4857 -1.2019
 1964SOL     OW17527   3.070   4.025   7.535 -0.1025  0.0626 -0.5473
 1964SOL    HW117528   3.077   4.120   7.549  0.9103  0.2553 -2.3432
 1964SOL    HW217529   3.008   3.998   7.603  0.2775  0.6432  0.0363
 1965SOL     OW17530   1.753   3.652  12.303  0.1066  0.0172  0.2880
 1965SOL    HW117531   1.663   3.641  12.272  0.6866 -0.1205 -1.3100
 1965SOL    HW217532   1.758   3.748  12.302  1.6568 -0.0749  0.5115
 1966SOL     OW17533   0.577   2.666  15.442 -0.0297 -0.2872  0.0042
 1966SOL    HW117534   0.580   2.571  15.429  1.3016 -0.3593  0.8988
 1966SOL    HW217535   0.616   2.695  15.359  0.0788  2.7096  1.1078
 1967SOL     OW17536   3.543   3.738  16.723 -0.4083  0.0740  0.0589
 1967SOL    HW117537   3.569   3.750  16.632  0.5955  0.6888  0.4236
 1967SOL    HW217538   3.547   3.643  16.734 -1.6138  0.1349  1.0530
 1968SOL     OW17539   1.525   0.954   6.532 -0.5293  0.5411 -0.3835
 1968SOL    HW117540   1.501   1.019   6.467  0.7510  1.1367 -0.2660
 1968SOL    HW217541   1.620   0.960   6.522 -0.3675 -0.3943  0.5848
 1969SOL     OW17542   3.186   3.352   3.080 -0.3042  0.3264  0.2242
 1969SOL    HW117543   3.173   3.395   2.995  1.5427  2.1699  0.8995
 1969SOL    HW217544   3.096   3.320   3.077 -0.6229  1.1859  0.9273
 1970SOL     OW17545   4.567   1.741   6.802  0.1575 -0.0725  0.3905
 1970SOL    HW117546   4.482   1.747   6.760 -0.1849  0.4044  1.1438
 1970SOL    HW217547   4.586   1.834   6.816  0.7620 -0.1788  0.2834
 1971SOL     OW17548   4.574   1.746  10.052  0.2057  0.4895  1.0621
 1971SOL    HW117549   4.523   1.673  10.087  1.5028  0.8698  3.7236
 1971SOL    HW217550   4.581   1.729   9.958 -1.8512 -2.2345  1.4210
 1972SOL     OW17551   3.201   1.588   7.464  0.2318 -0.7534  0.0601
 1972SOL    HW117552   3.274   1.626   7.514  0.8242 -2.4131  0.4534
 1972SOL    HW217553   3.244   1.522   7.410  0.7089  0.3115 -0.8771
 1973SOL     OW17554   3.979   3.990   6.192  0.4579  0.8499  0.1931
 1973SOL    HW117555   3.911   3.949   6.138  2.5714 -2.0452 -0.2205
 1973SOL    HW217556   4.056   3.973   6.138  0.7386  2.2474  0.1405
 1974SOL     OW17557   1.311   0.742  14.223 -0.2299  0.1997 -0.3782
 1974SOL    HW117558   1.293   0.649  14.236 -1.9376  0.5310 -0.3559
 1974SOL    HW217559   1.220   0.766  14.204  0.4022  1.4847 -1.7459
 1975SOL     OW17560   3.812   2.584   8.510 -0.2284 -0.0791 -0.4135
 1975SOL    HW117561   3.787   2.517   8.446 -0.7485  0.6508 -0.9814
 1975SOL    HW217562   3.730   2.600   8.556 -0.4197 -0.8878 -0.4641
 1976SOL     OW17563   2.671   2.713  10.440 -0.2421 -1.1540 -0.4386
 1976SOL    HW117564   2.706   2.639  10.490 -0.8964 -0.6533  0.7739
 1976SOL    HW217565   2.620   2.759  10.507 -1.8072 -1.9592 -1.0935
 1977SOL     OW17566   3.909   4.016   7.971  0.2415 -0.2617  0.3274
 1977SOL    HW117567   3.842   4.023   8.039 -0.8975  1.8214 -1.0119
 1977SOL    HW217568   3.924   4.110   7.960  2.3245 -0.8231 -1.7557
 1978SOL     OW17569   1.303   3.373   5.004  0.1717 -0.0487 -0.1590
 1978SOL    HW117570   1.314   3.467   4.991 -1.0570  0.1506  0.2517
 1978SOL    HW217571   1.381   3.345   5.053  1.6129  1.0585 -1.8294
 1979SOL     OW17572   4.219   4.315   7.694  0.3295  0.3387  0.1792
 1979SOL    HW117573   4.231   4.385   7.629 -2.0218 -0.5219 -1.1887
 1979SOL    HW217574   4.177   4.364   7.765  2.1235  0.1128  1.3989
 1980SOL     OW17575   1.565   1.759  11.700 -0.3204  0.3598 -0.1101
 1980SOL    HW117576   1.511   1.810  11.640 -0.0845 -1.0898 -1.5551
 1980SOL    HW217577   1.536   1.782  11.788  0.4968 -2.7059  0.9741
 1981SOL     OW17578   0.648   4.471   7.290 -0.3864 -0.3795 -0.1380
 1981SOL    HW117579   0.666   4.381   7.315  1.3790  0.0781  0.2008
 1981SOL    HW217580   0.669   4.520   7.369  0.0977  2.1264 -1.7993
 1982SOL     OW17581   1.185   2.550   1.734 -0.0100 -0.0013  0.0032
 1982SOL    HW117582   1.192   2.527   1.826 -1.4454  0.3138  0.1869
 1982SOL    HW217583   1.161   2.643   1.732  0.0081  0.0077  0.2552
 1983SOL     OW17584   2.230   2.423   6.364 -0.1150  0.2152 -0.0589
 1983SOL    HW117585   2.169   2.421   6.291  1.0174 -0.1088 -0.9900
 1983SOL    HW217586   2.231   2.516   6.390 -0.5580 -0.0105  0.7886
 1984SOL     OW17587   3.661   0.653   3.457 -0.0914 -0.0225  1.0491
 1984SOL    HW117588   3.700   0.573   3.421  0.0345  0.8687 -0.7955
 1984SOL    HW217589   3.634   0.683   3.370  0.0104  0.8488  1.3246
 1985SOL     OW17590   1.220   1.978   3.258 -0.3045  0.9695 -0.2508
 1985SOL    HW117591   1.144   1.945   3.305  0.3578  1.0062  0.8558
 1985SOL    HW217592   1.263   2.034   3.322 -0.5248 -0.0337  0.7716
 1986SOL     OW17593   2.295   1.724   3.503 -1.0463 -0.4796  0.0349
 1986SOL    HW117594   2.354   1.651   3.521 -0.1536  0.9042  2.6971
 1986SOL    HW217595   2.343   1.802   3.530 -1.3603 -0.4194  0.4176
 1987SOL     OW17596   4.548   3.837   3.501  0.4576 -0.8581  0.3347
 1987SOL    HW117597   4.570   3.744   3.495 -1.8032 -1.2790 -1.1452
 1987SOL    HW217598   4.603   3.874   3.431 -0.2196  0.8219  0.6953
 1988SOL     OW17599   4.383   3.942  11.099 -0.0962 -0.0399  0.2566
 1988SOL    HW117600   4.344   3.864  11.136  0.3620 -1.1482 -1.6115
 1988SOL    HW217601   4.305   3.997  11.097 -0.0674  0.0061  0.4102
 1989SOL     OW17602   4.500   2.905   2.890 -0.8868 -0.1822 -0.0226
 1989SOL    HW117603   4.592   2.905   2.918 -0.6763 -1.7263 -0.6985
 1989SOL    HW217604   4.510   2.939   2.801  1.9589 -3.0503 -0.8142
 1990SOL     OW17605   2.663   4.558   7.501  0.4529 -0.2958 -0.1705
 1990SOL    HW117606   2.669   4.637   7.447  3.2090  0.3508  1.0486
 1990SOL    HW217607   2.757   4.537   7.505  0.3041 -0.7582  0.9191
 1991SOL     OW17608   3.823   2.513   7.074 -0.3161 -0.4708 -0.2548
 1991SOL    HW117609   3.909   2.475   7.090  0.4472  1.7317  0.9125
 1991SOL    HW217610   3.788   2.450   7.012  0.7230 -1.0146 -0.2953
 1992SOL     OW17611   2.309   3.215   3.076  0.0492  0.3211 -0.0759
 1992SOL    HW117612   2.401   3.192   3.064 -0.3760 -2.0543  1.3886
 1992SOL    HW217613   2.316   3.303   3.039  1.7441 -0.1888 -0.9807
 1993SOL     OW17614   3.188   1.174   2.918 -0.4038  0.3068 -0.5912
 1993SOL    HW117615   3.103   1.218   2.910  0.5192  2.0922 -0.5966
 1993SOL    HW217616   3.170   1.082   2.939 -0.7692  0.8520  1.4043
 1994SOL     OW17617   3.439   2.053  12.268 -0.3163  0.0133 -0.1915
 1994SOL    HW117618   3.429   2.019  12.357  1.8523  1.4991  0.6216
 1994SOL    HW217619   3.535   2.061  12.262 -0.3335  0.3945  0.0403
 1995SOL     OW17620   4.040   1.868   7.402  0.5095  0.0757 -0.0410
 1995SOL    HW117621   4.009   1.906   7.320 -1.3182  0.0119  0.6269
 1995SOL    HW217622   4.086   1.942   7.441 -1.2074  0.9538  0.2710
 1996SOL     OW17623   1.877   1.316   7.531 -0.1829 -0.2003 -0.0362
 1996SOL    HW117624   1.839   1.399   7.560  3.3114  0.9180  1.3045
 1996SOL    HW217625   1.847   1.271   7.610 -1.0888 -1.3574 -1.0348
 1997SOL     OW17626   3.325   0.656   9.875 -0.2787 -0.5153  0.1803
 1997SOL    HW117627   3.378   0.716   9.927 -0.8187  1.2025 -1.2723
 1997SOL    HW217628   3.285   0.723   9.820  1.2387  0.3506  0.1488
 1998SOL     OW17629   0.154   2.405   2.940  0.0083  0.2517 -0.0674
 1998SOL    HW117630   0.140   2.387   2.847 -0.9890  1.5837 -0.1696
 1998SOL    HW217631   0.099   2.340   2.983  1.9890 -0.8780  0.7583
 1999SOL     OW17632   0.887   0.023  13.556  0.3822  0.5513 -0.0290
 1999SOL    HW117633   0.895   0.075  13.636  0.7581  0.4593 -0.0052
 1999SOL    HW217634   0.836   0.090  13.511  1.9210 -0.5704 -3.4240
 2000SOL     OW17635   0.330   1.083  12.641 -0.4641  0.5674  0.1450
 2000SOL    HW117636   0.419   1.078  12.677  0.4469 -1.1545 -2.3584
 2000SOL    HW217637   0.288   1.077  12.727  0.8471 -2.0848  0.5836
 2001SOL     OW17638   2.005   1.446   3.291  0.1018  0.2732  0.3023
 2001SOL    HW117639   2.068   1.412   3.227 -0.1793  0.6664 -0.1796
 2001SOL    HW217640   2.069   1.487   3.350 -0.0238  2.4455 -1.0889
 2002SOL     OW17641   2.757   3.984   6.934  0.3492 -0.4056 -0.2939
 2002SOL    HW117642   2.802   4.054   6.982 -0.2241  0.6394 -1.2729
 2002SOL    HW217643   2.663   4.001   6.945  0.2647 -0.1374 -1.4661
 2003SOL     OW17644   3.526   3.434   2.482  0.5088 -0.8571 -0.1591
 2003SOL    HW117645   3.447   3.420   2.534  1.2618 -1.1690  0.9033
 2003SOL    HW217646   3.575   3.502   2.528  0.1581  0.5313 -1.8256
 2004SOL     OW17647   1.772   3.060   5.131 -0.5774 -0.7739  0.0513
 2004SOL    HW117648   1.827   2.981   5.135 -1.5844 -1.4806 -0.0308
 2004SOL    HW217649   1.702   3.032   5.072 -2.3121 -0.2238  1.8465
 2005SOL     OW17650   2.139   0.195  16.305  0.4083  0.2095  0.5250
 2005SOL    HW117651   2.147   0.101  16.295 -2.7151 -0.2231  2.0063
 2005SOL    HW217652   2.119   0.216  16.214  2.4333  1.1209  0.2871
 2006SOL     OW17653   2.703   2.886   9.075  0.0342  0.5616 -0.4526
 2006SOL    HW117654   2.704   2.820   9.145 -0.2408  1.3596  0.2977
 2006SOL    HW217655   2.631   2.941   9.102 -0.6842 -0.5463 -0.0988
 2007SOL     OW17656   4.539   4.008  14.051  0.0662  0.1096  0.1739
 2007SOL    HW117657   4.564   3.941  14.115  0.2302  1.0198  1.0585
 2007SOL    HW217658   4.455   4.035  14.086  0.3003 -1.1722  1.7685
 2008SOL     OW17659   0.893   0.460   1.744 -0.4178 -0.7928  0.0739
 2008SOL    HW117660   0.860   0.542   1.708  1.0411 -0.0732  0.3764
 2008SOL    HW217661   0.967   0.444   1.686 -0.4905 -0.7411 -0.0337
 2009SOL     OW17662   3.867   1.480   5.234 -0.4883  0.5599  0.5618
 2009SOL    HW117663   3.924   1.537   5.285  2.9759 -1.1994 -1.3536
 2009SOL    HW217664   3.893   1.516   5.150  0.2122  0.6258  0.8080
 2010SOL     OW17665   2.486   2.069   0.933 -0.3686  0.0980 -0.3429
 2010SOL    HW117666   2.563   2.017   0.911 -0.0482  1.3787 -2.2428
 2010SOL    HW217667   2.438   2.004   0.984 -0.4516  0.3446 -0.1044
 2011SOL     OW17668   2.615   2.671   6.300 -0.2438 -0.5943 -0.5025
 2011SOL    HW117669   2.634   2.662   6.393 -0.4893 -0.6545 -0.4592
 2011SOL    HW217670   2.589   2.581   6.281 -2.3767 -0.3967  1.5382
 2012SOL     OW17671   1.760   2.082   5.281 -0.3323  0.1294  0.2220
 2012SOL    HW117672   1.708   2.025   5.224  0.3404 -1.2212  0.9674
 2012SOL    HW217673   1.844   2.075   5.236 -0.9812  0.5615 -1.0408
 2013SOL     OW17674   4.120   2.723   8.211 -0.4415  0.4598 -0.1835
 2013SOL    HW117675   4.044   2.746   8.263  0.0322 -1.6262  1.4193
 2013SOL    HW217676   4.082   2.673   8.139  1.5810 -1.9635  0.4279
 2014SOL     OW17677   0.159   4.479  13.455  0.2520 -0.1326  0.1405
 2014SOL    HW117678   0.071   4.515  13.468  0.5723  2.4655 -4.7676
 2014SOL    HW217679   0.162   4.416  13.527 -1.3367  0.0746  0.4054
 2015SOL     OW17680   1.627   0.904  15.709  0.0858 -0.2413 -0.3870
 2015SOL    HW117681   1.593   0.984  15.749 -0.9394 -1.2546  0.7449
 2015SOL    HW217682   1.550   0.862  15.671 -0.9246  1.5066 -0.2773
 2016SOL     OW17683   0.188   3.625  10.997 -0.3837  0.3646  0.4720
 2016SOL    HW117684   0.216   3.698  11.052  1.9278 -0.2088  0.0281
 2016SOL    HW217685   0.237   3.554  11.037 -1.1252 -0.5758 -0.2712
 2017SOL     OW17686   3.509   3.331  17.455  0.2211  0.0176 -0.1906
 2017SOL    HW117687   3.481   3.301  17.541  0.3199  4.2488  1.2754
 2017SOL    HW217688   3.600   3.302  17.466  0.2783  0.3380  0.1889
 2018SOL     OW17689   0.138   3.951   5.696  0.0092 -0.9248 -0.1749
 2018SOL    HW117690   0.089   3.911   5.624  2.3186  1.2455 -2.9571
 2018SOL    HW217691   0.086   3.925   5.771 -0.4282  1.4426  0.3269
 2019SOL     OW17692   4.070   0.117   0.508  0.3151 -0.5684 -0.1426
 2019SOL    HW117693   3.996   0.159   0.464 -0.3284 -0.3273  1.1668
 2019SOL    HW217694   4.060   0.150   0.597  1.6037  0.2470 -0.2948
 2020SOL     OW17695   1.178   3.640   9.071 -0.5631  0.1702  0.1116
 2020SOL    HW117696   1.186   3.569   9.006 -0.7773 -0.2318  0.5273
 2020SOL    HW217697   1.103   3.694   9.045  0.3526  1.0995 -0.6496
 2021SOL     OW17698   3.409   0.139   7.405  0.1911  0.3123 -0.3871
 2021SOL    HW117699   3.386   0.047   7.420 -0.4778  0.5891  0.2867
 2021SOL    HW217700   3.373   0.181   7.483 -0.1893 -0.7414  0.0075
 2022SOL     OW17701   3.502   4.027   8.607  0.1264 -0.6153  0.1810
 2022SOL    HW117702   3.520   4.094   8.672  0.2489  1.0692 -1.5785
 2022SOL    HW217703   3.580   4.017   8.551  0.7868  0.8413  0.8477
 2023SOL     OW17704   3.015   1.675  15.770  0.5417 -0.0638 -0.7241
 2023SOL    HW117705   3.034   1.586  15.799 -4.2476 -0.8633  0.0058
 2023SOL    HW217706   3.099   1.712  15.797 -0.0213  0.1209  0.7658
 2024SOL     OW17707   3.870   2.856   2.148  0.7886 -0.0096 -0.0113
 2024SOL    HW117708   3.878   2.777   2.202 -2.8487  0.4259  1.1146
 2024SOL    HW217709   3.924   2.829   2.074  0.1547 -0.8086 -0.1786
 2025SOL     OW17710   0.600   4.404  13.305  0.2519  0.8599  0.3947
 2025SOL    HW117711   0.518   4.443  13.335 -0.3248 -0.3473  0.3432
 2025SOL    HW217712   0.617   4.340  13.374  1.1342 -0.2774 -0.8802
 2026SOL     OW17713   0.950   2.684   8.327  0.2623 -0.4038 -0.3121
 2026SOL    HW117714   0.943   2.645   8.240 -0.0993  2.2860 -1.5010
 2026SOL    HW217715   1.002   2.631   8.387  0.5047 -0.4494 -0.5623
 2027SOL     OW17716   3.397   3.026   4.248 -0.1334 -0.1477  0.1272
 2027SOL    HW117717   3.397   2.958   4.181  1.0074  0.6090 -0.6307
 2027SOL    HW217718   3.393   2.967   4.323 -0.4058 -3.3348 -2.4153
 2028SOL     OW17719   2.314   0.196   5.914 -0.0480 -0.1273 -0.2291
 2028SOL    HW117720   2.257   0.125   5.944 -0.3886 -0.7206 -2.2900
 2028SOL    HW217721   2.274   0.264   5.970  1.3646 -0.1872  0.8657
 2029SOL     OW17722   1.481   0.807   8.444  0.3262  0.5195 -0.3143
 2029SOL    HW117723   1.516   0.885   8.486  0.3266  1.4387 -2.0255
 2029SOL    HW217724   1.416   0.781   8.509  1.6267 -1.2635  0.2764
 2030SOL     OW17725   3.398   0.602   5.569  0.0161  0.5168 -0.6394
 2030SOL    HW117726   3.357   0.667   5.626  2.1083  0.0286  1.4524
 2030SOL    HW217727   3.462   0.566   5.631  0.4271  1.2085 -0.6517
 2031SOL     OW17728   3.789   0.123   4.196  1.0040  0.0751 -0.0691
 2031SOL    HW117729   3.812   0.053   4.136 -1.6243 -0.5255 -0.3864
 2031SOL    HW217730   3.854   0.193   4.185  1.3882  0.1452  2.7262
 2032SOL     OW17731   4.481   3.003   4.025 -0.0473 -0.0700  0.5657
 2032SOL    HW117732   4.513   3.091   4.006  0.4753 -0.3605  0.1037
 2032SOL    HW217733   4.566   2.964   4.008  0.0569  0.3792  0.0674
 2033SOL     OW17734   4.281   0.008   1.942 -0.4082 -0.3319  0.6635
 2033SOL    HW117735   4.270   4.664   1.902  1.5557 -0.7142  0.9636
 2033SOL    HW217736   4.193   0.026   1.975  0.2409  1.2016  1.5755
 2034SOL     OW17737   1.447   3.063   6.192  0.3406  0.1158 -0.2298
 2034SOL    HW117738   1.430   2.969   6.189  1.5675 -0.1694  1.5856
 2034SOL    HW217739   1.482   3.072   6.103 -2.0570 -1.4582 -1.3129
 2035SOL     OW17740   3.617   1.690   8.265  0.5492 -0.3961 -0.1964
 2035SOL    HW117741   3.639   1.712   8.355  1.3346  4.1008 -1.5112
 2035SOL    HW217742   3.697   1.720   8.222 -0.4886  3.1164  0.3245
 2036SOL     OW17743   4.592   2.983  17.746 -0.1580  0.2566 -0.5377
 2036SOL    HW117744   4.547   3.034  17.679 -0.9051  0.3881  0.0727
 2036SOL    HW217745   4.587   3.039   0.057 -2.2997 -0.0637 -0.4643
 2037SOL     OW17746   0.239   2.751   5.017  0.0352  0.5205  0.0929
 2037SOL    HW117747   0.273   2.824   5.067 -0.1007 -0.3102  1.3982
 2037SOL    HW217748   0.153   2.787   4.995 -0.1935  0.3252  0.6703
 2038SOL     OW17749   2.376   1.075   8.408 -0.1297  0.0198  0.1383
 2038SOL    HW117750   2.286   1.086   8.377 -0.8397  0.1229  2.2252
 2038SOL    HW217751   2.398   1.161   8.444 -0.3145  0.7143 -1.4089
 2039SOL     OW17752   3.785   1.152   4.673 -0.6339 -0.1043  0.1440
 2039SOL    HW117753   3.736   1.142   4.754  2.7782  1.6229  2.4228
 2039SOL    HW217754   3.799   1.059   4.655  1.9794  0.2223  0.4127
 2040SOL     OW17755   4.161   3.832   9.458 -0.1699 -0.0758 -0.0842
 2040SOL    HW117756   4.136   3.892   9.528  0.9826 -2.2063  2.1176
 2040SOL    HW217757   4.087   3.850   9.399 -0.9952 -0.2519  0.9040
 2041SOL     OW17758   4.040   0.014   5.220 -0.0183  0.5864  0.0604
 2041SOL    HW117759   3.966   0.072   5.238 -0.7014  0.0954 -1.1547
 2041SOL    HW217760   4.083   0.067   5.152  0.9279  0.2281  0.3790
 2042SOL     OW17761   3.590   0.912   6.188 -0.4256  0.1463  0.3424
 2042SOL    HW117762   3.608   0.821   6.162  1.2817  0.2692  1.1565
 2042SOL    HW217763   3.645   0.927   6.265  1.0112 -0.6035 -0.5369
 2043SOL     OW17764   1.364   1.308   5.540  0.3233 -0.0727 -0.1329
 2043SOL    HW117765   1.285   1.261   5.517  0.2791  0.3385 -0.8080
 2043SOL    HW217766   1.416   1.231   5.564 -1.3374 -1.0416  0.3267
 2044SOL     OW17767   1.337   2.644   9.119 -0.6340 -0.5114  0.2675
 2044SOL    HW117768   1.357   2.592   9.041 -1.9663 -0.3721 -0.1613
 2044SOL    HW217769   1.242   2.644   9.109 -0.4511  0.4731 -1.3937
 2045SOL     OW17770   0.259   3.039  11.570  0.1246  0.2641  0.0438
 2045SOL    HW117771   0.165   3.021  11.561 -0.1875  1.9571 -0.0605
 2045SOL    HW217772   0.265   3.134  11.577 -1.0371  0.5593 -2.9398
 2046SOL     OW17773   0.520   3.747   5.880  0.1853  0.1002  0.3191
 2046SOL    HW117774   0.450   3.801   5.917 -1.2469 -1.0873 -0.6987
 2046SOL    HW217775   0.493   3.761   5.789  1.2046  2.0013  0.3077
 2047SOL     OW17776   1.064   4.740   0.407 -0.1798 -0.3780 -0.0163
 2047SOL    HW117777   1.146   0.017   0.452 -0.8608  0.2346  0.9590
 2047SOL    HW217778   1.037   0.085   0.378 -0.9360 -0.8592 -0.7495
 2048SOL     OW17779   2.241   4.633   7.750  0.0520 -0.4467 -0.3269
 2048SOL    HW117780   2.336   4.638   7.744  0.2920 -1.6680  2.9785
 2048SOL    HW217781   2.218   4.660   7.660 -1.0042 -1.9373 -0.5176
 2049SOL     OW17782   4.065   4.074   1.024 -0.4601 -0.4581  0.5399
 2049SOL    HW117783   4.087   3.986   1.057 -0.4976 -1.1344 -1.2338
 2049SOL    HW217784   4.140   4.080   0.964  0.7940 -0.1223  2.1374
 2050SOL     OW17785   2.322   3.100   4.647  0.3339  0.7305  0.1843
 2050SOL    HW117786   2.351   3.025   4.698  1.3329  1.4981  0.7507
 2050SOL    HW217787   2.243   3.136   4.688 -1.2094 -1.8241 -0.5471
 2051SOL     OW17788   0.131   3.937   8.101 -0.2682 -0.2747 -0.2141
 2051SOL    HW117789   0.113   3.938   8.195  1.6619  0.4579  0.1445
 2051SOL    HW217790   0.226   3.924   8.106 -0.1818  0.7629  1.0243
 2052SOL     OW17791   4.690   4.577   9.891 -0.4478 -0.0201 -0.5567
 2052SOL    HW117792   4.612   4.539   9.850 -0.0628  0.3574 -1.6314
 2052SOL    HW217793   4.647   4.631   9.958 -1.2877 -0.6612 -0.5793
 2053SOL     OW17794   3.944   3.576   5.575  0.3805  0.0187  0.1154
 2053SOL    HW117795   3.872   3.569   5.637  1.0318  0.9051  0.9649
 2053SOL    HW217796   3.903   3.630   5.508  0.1844  0.2218  0.4011
 2054SOL     OW17797   3.966   0.499  11.847  0.2639  0.5534  0.3079
 2054SOL    HW117798   4.048   0.485  11.800  0.1638  2.3780 -0.4079
 2054SOL    HW217799   3.947   0.592  11.836 -2.0649 -0.0254 -0.5579
 2055SOL     OW17800   0.289   2.058   1.785  0.3643  0.0160 -0.1452
 2055SOL    HW117801   0.284   2.091   1.696 -0.2603  1.6488  0.5017
 2055SOL    HW217802   0.234   2.122   1.830  2.0838  0.9988  0.5589
 2056SOL     OW17803   1.957   3.562   2.563  0.4533 -0.0289 -0.0615
 2056SOL    HW117804   1.977   3.516   2.482  1.0283 -0.3074  0.2374
 2056SOL    HW217805   1.904   3.639   2.540  1.2196  0.7102  0.6527
 2057SOL     OW17806   0.536   1.125   5.473  0.2172 -0.1267 -0.3590
 2057SOL    HW117807   0.610   1.091   5.523  1.2843  1.9642 -0.5191
 2057SOL    HW217808   0.457   1.101   5.522  0.0256  0.4438 -0.3826
 2058SOL     OW17809   3.840   0.204   8.270 -0.4665  0.2227  0.0922
 2058SOL    HW117810   3.916   0.145   8.272 -0.2020  0.6386  1.8688
 2058SOL    HW217811   3.785   0.149   8.214 -0.8305  1.3108 -0.6192
 2059SOL     OW17812   2.012   4.363  15.484  0.1425 -0.3497  0.2175
 2059SOL    HW117813   2.024   4.308  15.407 -1.1995 -1.2880  0.6772
 2059SOL    HW217814   1.989   4.445  15.442  1.8481  0.7856  1.4991
 2060SOL     OW17815   1.329   0.350   8.594  1.1295  0.2394 -0.3284
 2060SOL    HW117816   1.411   0.397   8.582  1.5253 -0.0492  1.3058
 2060SOL    HW217817   1.350   0.289   8.664 -0.4699  0.2462  0.1668
 2061SOL     OW17818   0.841   0.160   7.396 -0.2159  0.4075  0.2432
 2061SOL    HW117819   0.898   0.208   7.456  0.5513  1.1516 -1.1019
 2061SOL    HW217820   0.903   0.106   7.347  0.7584  0.2043  1.6844
 2062SOL     OW17821   0.269   4.589   3.315 -0.2400  0.2211  0.4659
 2062SOL    HW117822   0.180   4.623   3.320  0.5007  1.9388  2.0437
 2062SOL    HW217823   0.244   4.502   3.347 -0.9647  0.7577  1.3505
 2063SOL     OW17824   3.920   3.610  12.463 -0.0535  0.2502 -0.0422
 2063SOL    HW117825   3.842   3.580  12.415 -0.5071  1.2239  0.0709
 2063SOL    HW217826   3.907   3.704  12.478  1.2970  0.4691 -0.3075
 2064SOL     OW17827   4.570   0.413   8.589 -0.0832 -0.3315  0.0319
 2064SOL    HW117828   4.634   0.355   8.631  0.4987 -1.2667 -2.1736
 2064SOL    HW217829   4.622   0.446   8.516  1.2133 -0.2954  0.9790
 2065SOL     OW17830   1.203   3.292  16.975  0.3611  0.1697  0.1730
 2065SOL    HW117831   1.252   3.369  17.005 -0.8081 -0.0768  2.7692
 2065SOL    HW217832   1.248   3.262  16.896 -2.3065  0.0919 -1.2853
 2066SOL     OW17833   4.344   2.660   7.466  0.2314  0.5610  0.1980
 2066SOL    HW117834   4.384   2.586   7.512 -0.0058  0.6134  0.4833
 2066SOL    HW217835   4.252   2.634   7.468 -0.3256  2.3939 -1.8934
 2067SOL     OW17836   3.964   3.147  16.128  0.0277  0.2206 -0.2816
 2067SOL    HW117837   4.029   3.123  16.194 -1.1164  2.8787  1.8106
 2067SOL    HW217838   4.013   3.124  16.049  2.7082  1.4966  0.9993
 2068SOL     OW17839   2.310   2.374   5.442  0.1891 -0.0904  0.0370
 2068SOL    HW117840   2.231   2.425   5.423  1.3458  2.5814  2.3534
 2068SOL    HW217841   2.362   2.447   5.476 -0.6759  0.1412  0.8539
 2069SOL     OW17842   2.590   0.481   9.619 -0.1384  0.2820  0.2036
 2069SOL    HW117843   2.665   0.522   9.575  1.4622 -1.0477  1.7418
 2069SOL    HW217844   2.520   0.511   9.561  0.5803  0.2797 -0.6841
 2070SOL     OW17845   1.258   1.352   2.785 -0.2270  0.0648  0.3423
 2070SOL    HW117846   1.190   1.290   2.759 -0.1429  0.4124 -0.7062
 2070SOL    HW217847   1.216   1.437   2.798 -1.4554 -0.4154 -0.6021
 2071SOL     OW17848   1.045   2.379   6.900 -0.1714  0.1450 -0.0377
 2071SOL    HW117849   1.033   2.329   6.980 -2.0139 -0.9328 -0.9799
 2071SOL    HW217850   1.140   2.384   6.906  0.0671  0.9142 -4.2428
 2072SOL     OW17851   1.457   1.601   8.783  0.1128 -0.2355  0.1290
 2072SOL    HW117852   1.539   1.567   8.821  0.7622  2.3872  1.0563
 2072SOL    HW217853   1.476   1.584   8.691 -1.9410 -3.0019  0.2360
 2073SOL     OW17854   1.360   2.947   8.191 -0.4706  0.2380 -0.4628
 2073SOL    HW117855   1.381   2.982   8.278 -0.8196  0.8423 -0.6250
 2073SOL    HW217856   1.270   2.918   8.204 -1.4108  1.6559 -3.7609
 2074SOL     OW17857   2.954   2.407   6.321 -0.9065 -0.1225 -0.8815
 2074SOL    HW117858   3.026   2.468   6.308  0.3668 -2.0173 -2.7024
 2074SOL    HW217859   2.990   2.320   6.339  0.1877  0.6653  0.7066
 2075SOL     OW17860   2.581   3.741  15.549  0.5222  0.0848  0.8853
 2075SOL    HW117861   2.562   3.816  15.491  0.1101 -0.1938  0.6541
 2075SOL    HW217862   2.661   3.703  15.513  0.8845  0.8022  0.9252
 2076SOL     OW17863   4.724   2.243   5.229  0.4753 -0.2582 -0.4627
 2076SOL    HW117864   0.030   2.188   5.167 -1.4591 -0.4674 -1.7913
 2076SOL    HW217865   4.637   2.204   5.222  0.2914 -0.3468  2.5168
 2077SOL     OW17866   1.258   2.270   1.691 -0.0506  0.3911  0.2901
 2077SOL    HW117867   1.185   2.236   1.742 -0.6657 -0.8071 -1.3874
 2077SOL    HW217868   1.263   2.356   1.733  0.7113 -0.2543  1.5073
 2078SOL     OW17869   3.493   3.561  11.374 -0.6160 -0.1970 -0.4834
 2078SOL    HW117870   3.431   3.555  11.300 -0.2946  2.4996 -0.9493
 2078SOL    HW217871   3.574   3.585  11.329 -0.6281 -0.1244 -0.4654
 2079SOL     OW17872   2.064   3.572   7.289  0.2530 -0.1211  0.0868
 2079SOL    HW117873   2.055   3.541   7.379  0.2527 -1.5298 -0.3913
 2079SOL    HW217874   1.978   3.613   7.288 -0.3593 -1.3936  0.0855
 2080SOL     OW17875   0.019   0.076   9.500  0.0462 -0.5363 -0.1496
 2080SOL    HW117876   4.740   4.725   9.490  1.3044 -1.1577  3.0213
 2080SOL    HW217877   0.005   0.083   9.595  0.5210 -0.4826 -0.0846
 2081SOL     OW17878   4.668   3.216   1.716 -0.0233 -0.5342  0.5066
 2081SOL    HW117879   4.700   3.241   1.803  2.5181 -0.6006 -0.4079
 2081SOL    HW217880   4.720   3.136   1.702 -1.2898 -2.3212  5.7765
 2082SOL     OW17881   2.996   2.644  15.293  0.3874  0.5964 -0.5661
 2082SOL    HW117882   2.977   2.679  15.206 -0.0656 -0.4571 -0.8969
 2082SOL    HW217883   3.088   2.672  15.300  0.6920 -0.3264 -0.8462
 2083SOL     OW17884   4.674   4.046   6.017 -0.0559  0.7376 -0.1169
 2083SOL    HW117885   4.585   4.022   6.043 -0.1612  0.5933 -0.6132
 2083SOL    HW217886   4.688   3.970   5.961 -4.5860  1.1551 -1.7914
 2084SOL     OW17887   1.690   2.358   5.369  0.1064  0.4415  0.0793
 2084SOL    HW117888   1.599   2.374   5.391  0.0408 -1.2287  1.0473
 2084SOL    HW217889   1.691   2.268   5.337  1.1456  1.4991 -2.8220
 2085SOL     OW17890   3.503   1.518   1.505 -0.1437  0.0961 -0.0652
 2085SOL    HW117891   3.554   1.444   1.472  0.5732 -0.1521  1.5769
 2085SOL    HW217892   3.514   1.501   1.599 -0.7747 -3.0147 -0.5720
 2086SOL     OW17893   3.445   1.636  11.150  0.3934 -0.2405 -0.2558
 2086SOL    HW117894   3.456   1.664  11.241  0.8983 -0.6609 -0.1846
 2086SOL    HW217895   3.396   1.706  11.108 -0.0180 -0.2698  0.1697
 2087SOL     OW17896   1.109   3.610   6.142  0.1142  1.2401  0.3995
 2087SOL    HW117897   1.082   3.689   6.188  0.5825  0.8014  1.4290
 2087SOL    HW217898   1.204   3.609   6.158  0.3002 -0.5655 -0.8044
 2088SOL     OW17899   1.244   3.503   4.227  0.3517 -0.2421  0.0207
 2088SOL    HW117900   1.240   3.427   4.284  3.6813 -0.9559 -0.7379
 2088SOL    HW217901   1.158   3.505   4.185  0.2480 -0.3228  0.2299
 2089SOL     OW17902   4.583   2.606  15.292 -0.1407  0.2163 -0.3512
 2089SOL    HW117903   4.529   2.644  15.362 -1.1749 -0.4498 -0.7756
 2089SOL    HW217904   4.518   2.579  15.227 -0.5726  0.4700 -0.0224
 2090SOL     OW17905   1.787   2.675   7.524  0.1910  0.3907 -0.9585
 2090SOL    HW117906   1.879   2.669   7.497 -0.4694 -0.1881 -3.0673
 2090SOL    HW217907   1.782   2.594   7.575 -1.1661  0.3686 -1.1169
 2091SOL     OW17908   3.999   1.574  13.625 -0.0943  0.3698  0.3991
 2091SOL    HW117909   4.094   1.586  13.628  0.1465 -1.5227  0.4372
 2091SOL    HW217910   3.977   1.633  13.697 -0.0289  0.3477  0.4367
 2092SOL     OW17911   4.376   0.185   0.466 -0.1850  0.4062 -0.1861
 2092SOL    HW117912   4.282   0.191   0.448 -0.3209  3.1632  1.5096
 2092SOL    HW217913   4.400   0.117   0.403 -1.8104 -0.7469  0.4243
 2093SOL     OW17914   4.470   3.462   8.313  0.4494 -0.0933 -0.2312
 2093SOL    HW117915   4.483   3.551   8.282 -0.0817 -0.3350 -1.1620
 2093SOL    HW217916   4.527   3.408   8.260  1.7526 -0.9392  2.0305
 2094SOL     OW17917   3.816   1.108   2.889 -0.0538  0.2262 -0.1471
 2094SOL    HW117918   3.721   1.108   2.881  0.2100  0.6241 -3.3617
 2094SOL    HW217919   3.826   1.130   2.981  0.0571  3.2450 -0.8858
 2095SOL     OW17920   1.551   1.900  13.070 -0.5716  0.1768 -0.7818
 2095SOL    HW117921   1.522   1.861  12.988 -2.3774 -2.2759  1.0338
 2095SOL    HW217922   1.644   1.897  13.047  0.0383 -1.1933  1.8105
 2096SOL     OW17923   4.083   1.013   2.893 -0.1166 -0.0554  0.4921
 2096SOL    HW117924   3.997   1.053   2.880 -1.8079 -3.1287  2.3543
 2096SOL    HW217925   4.104   0.968   2.811  2.5540  0.4519  0.9025
 2097SOL     OW17926   3.899   1.165  14.420  0.5113 -0.7679 -0.2269
 2097SOL    HW117927   3.896   1.115  14.339 -1.1328  0.5008 -0.9573
 2097SOL    HW217928   3.824   1.134  14.470  0.1904 -0.0151 -0.2452
 2098SOL     OW17929   2.836   1.089   6.012  0.5109  0.0161 -0.2937
 2098SOL    HW117930   2.903   1.157   6.008 -0.3263  0.8406 -0.2958
 2098SOL    HW217931   2.900   1.020   6.034  1.0841  1.6915  3.3249
 2099SOL     OW17932   0.945   0.721   3.764  0.3416 -0.3303 -0.2395
 2099SOL    HW117933   0.963   0.629   3.743  1.0379 -0.4686  0.9576
 2099SOL    HW217934   0.852   0.725   3.744  0.8101 -2.6307 -2.8555
 2100SOL     OW17935   0.514   2.919  12.534 -0.4361 -0.8180 -0.2649
 2100SOL    HW117936   0.572   2.867  12.590 -1.2809 -1.2163  0.2303
 2100SOL    HW217937   0.477   2.966  12.609 -0.1440  0.0209 -0.6431
 2101SOL     OW17938   0.264   1.035   3.265  0.0427  0.0484 -0.1819
 2101SOL    HW117939   0.206   1.039   3.341 -0.6719 -0.7842 -0.6807
 2101SOL    HW217940   0.276   1.130   3.261 -0.8901  0.2071  0.7210
 2102SOL     OW17941   0.541   1.532  11.848 -0.3656 -0.2805  0.2590
 2102SOL    HW117942   0.605   1.484  11.899 -0.3049 -0.8007 -0.3154
 2102SOL    HW217943   0.462   1.481  11.868 -1.3357  0.8472 -0.7173
 2103SOL     OW17944   1.067   3.462  12.810 -0.2872  0.2564  0.4705
 2103SOL    HW117945   1.067   3.557  12.800 -0.2439  0.1300 -0.7694
 2103SOL    HW217946   1.109   3.451  12.895  0.5580  3.8387  0.5334
 2104SOL     OW17947   4.178   0.349   6.873 -0.0531 -0.1348  0.4019
 2104SOL    HW117948   4.210   0.382   6.957 -1.1420 -0.7851  1.0798
 2104SOL    HW217949   4.225   0.266   6.869  0.6976  0.2721  0.9052
 2105SOL     OW17950   4.695   3.307   9.223  0.1626 -0.2216  0.3025
 2105SOL    HW117951   0.038   3.289   9.184  0.8642  2.6877  0.5039
 2105SOL    HW217952   4.691   3.247   9.298 -0.8034  0.7931  1.0730
 2106SOL     OW17953   4.266   0.805   3.092 -0.1899  0.1797  0.3787
 2106SOL    HW117954   4.339   0.796   3.032 -0.3686 -2.2468  0.5325
 2106SOL    HW217955   4.206   0.764   3.030 -1.0936  2.0065  0.0176
 2107SOL     OW17956   1.359   1.964  10.337 -0.2000 -0.2004 -0.8420
 2107SOL    HW117957   1.264   1.955  10.326 -0.5775  3.9236 -0.9093
 2107SOL    HW217958   1.388   1.879  10.371  1.3342  0.6019 -0.1491
 2108SOL     OW17959   3.969   4.044   8.314  0.3951  0.1063  0.0595
 2108SOL    HW117960   3.908   4.109   8.280  1.9341  1.7923  0.5533
 2108SOL    HW217961   4.034   4.047   8.244  0.0933  0.1162 -0.2158
 2109SOL     OW17962   4.635   2.873   8.836  0.2095  0.6982  0.0816
 2109SOL    HW117963   4.718   2.882   8.789  0.6664  0.4322  0.8375
 2109SOL    HW217964   4.563   2.876   8.774 -0.5552 -1.0345  0.9033
 2110SOL     OW17965   2.289   1.373   5.490  0.3015  0.0256  0.2964
 2110SOL    HW117966   2.198   1.398   5.505 -0.0147 -0.9174 -0.0301
 2110SOL    HW217967   2.336   1.402   5.568 -0.3586  0.5988  0.4862
 2111SOL     OW17968   4.624   3.188   6.424 -0.9023 -0.3384 -0.3891
 2111SOL    HW117969   4.585   3.104   6.449 -2.8361  0.0011 -2.2218
 2111SOL    HW217970   4.638   3.169   6.331  0.6438  1.2697 -0.4603
 2112SOL     OW17971   4.297   4.414  15.645  0.5329 -0.4909  0.3728
 2112SOL    HW117972   4.358   4.409  15.719 -0.0976 -0.1265  0.9124
 2112SOL    HW217973   4.265   4.324  15.636 -1.4640  0.0101  2.5277
 2113SOL     OW17974   1.996   2.795   3.598 -0.6510 -0.1596 -0.1689
 2113SOL    HW117975   2.041   2.745   3.531 -1.6030 -1.6172  0.2837
 2113SOL    HW217976   1.906   2.798   3.565 -0.9911 -1.6794  0.6176
 2114SOL     OW17977   3.278   3.384  17.294 -0.3671 -0.1014  0.1192
 2114SOL    HW117978   3.359   3.356  17.338 -0.9567  0.5667  1.6422
 2114SOL    HW217979   3.203   3.367  17.351 -0.3246 -1.0813 -0.1244
 2115SOL     OW17980   3.034   1.480  12.320 -0.4931 -0.2918 -0.1843
 2115SOL    HW117981   2.960   1.482  12.260 -0.1095  0.2046 -0.6423
 2115SOL    HW217982   3.003   1.401  12.364 -3.2267  1.0682  0.2754
 2116SOL     OW17983   4.574   4.561   9.196  0.4954  0.0993  0.0210
 2116SOL    HW117984   4.664   4.548   9.165  0.3728  0.5890 -0.5281
 2116SOL    HW217985   4.583   4.566   9.291 -3.1278  0.9385  0.3170
 2117SOL     OW17986   4.702   4.476  17.624 -0.2983 -0.5405 -1.0630
 2117SOL    HW117987   4.686   4.383  17.642 -0.1883 -0.7780 -2.1498
 2117SOL    HW217988   4.672   4.518  17.705  0.0306 -0.9484 -0.7303
 2118SOL     OW17989   0.769   4.641   3.341  0.4561  0.6853  0.0378
 2118SOL    HW117990   0.767   4.737   3.340  1.6186  0.7000 -0.1257
 2118SOL    HW217991   0.741   4.618   3.252 -1.7087  0.9657  0.6435
 2119SOL     OW17992   4.507   1.916   7.405  0.3349 -0.8255  0.2396
 2119SOL    HW117993   4.550   1.832   7.391 -0.6976 -1.1152 -1.2709
 2119SOL    HW217994   4.568   1.958   7.465  1.5849 -0.3140 -1.4048
 2120SOL     OW17995   2.693   0.886   1.799  0.2227  0.0241  0.4155
 2120SOL    HW117996   2.653   0.852   1.878 -1.7824  0.3773 -0.4544
 2120SOL    HW217997   2.645   0.969   1.795 -0.4411 -0.2900  2.0104
 2121SOL     OW17998   1.630   0.102  13.561 -0.2160  0.3400  0.2974
 2121SOL    HW117999   1.684   0.063  13.493  0.6761  0.0126  1.1945
 2121SOL    HW218000   1.542   0.086  13.527  1.2731 -0.1989 -3.2852
 2122SOL     OW18001   2.852   2.676   3.315 -0.3101  0.3979 -0.0566
 2122SOL    HW118002   2.945   2.685   3.297 -0.0709  0.0685  0.9747
 2122SOL    HW218003   2.801   2.704   3.239 -0.1825 -1.2704 -0.7705
 2123SOL     OW18004   4.141   0.361  17.014 -0.6693 -0.1902  0.3592
 2123SOL    HW118005   4.083   0.431  16.984 -0.9840  0.8951  3.5010
 2123SOL    HW218006   4.221   0.411  17.027  0.1617 -1.7892  1.3293
 2124SOL     OW18007   4.167   4.414   4.515  0.1442  0.2946  0.1549
 2124SOL    HW118008   4.170   4.502   4.551 -1.7539 -0.3291  1.8342
 2124SOL    HW218009   4.136   4.365   4.591  0.9287  1.4835  1.2337
 2125SOL     OW18010   1.208   4.576  17.241  0.1852  0.0120  0.2286
 2125SOL    HW118011   1.234   4.632  17.169  0.3390  1.2602  1.2616
 2125SOL    HW218012   1.287   4.573  17.295 -0.2563 -3.7108  0.6699
 2126SOL     OW18013   0.936   2.117  14.000 -0.0719 -0.8181 -0.2351
 2126SOL    HW118014   1.022   2.153  14.023  0.2774 -0.5430 -2.0160
 2126SOL    HW218015   0.885   2.118  14.081 -1.7309  0.2186 -1.2810
 2127SOL     OW18016   0.064   1.546  11.460  0.3665 -0.2086 -0.7865
 2127SOL    HW118017   0.015   1.463  11.466  0.9796 -0.4585  0.9349
 2127SOL    HW218018   0.117   1.538  11.540 -0.8839  0.8965  0.1641
 2128SOL     OW18019   4.185   4.025   6.010  0.0788  0.0093 -0.5943
 2128SOL    HW118020   4.174   3.949   5.953 -0.9120  0.4913 -1.0444
 2128SOL    HW218021   4.159   4.099   5.955  0.0589  1.4286  1.3375
 2129SOL     OW18022   1.895   3.409   3.558 -0.4073  0.6946  0.2170
 2129SOL    HW118023   1.944   3.362   3.490  1.2129  1.2440  1.0010
 2129SOL    HW218024   1.903   3.347   3.631  1.2263  1.4361  0.6718
 2130SOL     OW18025   4.343   1.809   5.268  0.0085  0.2154 -0.2283
 2130SOL    HW118026   4.260   1.852   5.286 -1.0073 -1.2798 -1.3229
 2130SOL    HW218027   4.355   1.838   5.178  0.6698  1.8562  0.4033
 2131SOL     OW18028   0.364   2.662   7.612  0.2859  0.6087 -0.0099
 2131SOL    HW118029   0.351   2.568   7.599 -0.1733  0.6340  0.2635
 2131SOL    HW218030   0.270   2.678   7.622 -0.1767  0.1198 -3.5725
 2132SOL     OW18031   2.081   3.841   7.400 -0.4472 -0.3935 -0.0768
 2132SOL    HW118032   1.998   3.863   7.443 -1.1967 -0.9561 -1.2668
 2132SOL    HW218033   2.065   3.765   7.344  0.7266 -1.7928  1.4760
 2133SOL     OW18034   0.370   1.895   3.603 -0.2436  0.2274 -0.3224
 2133SOL    HW118035   0.275   1.904   3.595 -0.0841  0.2574 -2.0155
 2133SOL    HW218036   0.365   1.891   3.699  2.3990 -1.5804 -0.2635
 2134SOL     OW18037   4.387   1.878   1.060  0.3000 -0.8308  0.4490
 2134SOL    HW118038   4.359   1.798   1.015 -0.0202 -0.5861  0.2129
 2134SOL    HW218039   4.311   1.907   1.111  0.2579 -1.4224  0.7264
 2135SOL     OW18040   2.592   4.180   7.850 -0.2929 -0.3104  0.0736
 2135SOL    HW118041   2.532   4.136   7.790  1.3012 -1.9102 -0.3364
 2135SOL    HW218042   2.580   4.138   7.936  0.1947 -0.1715  0.2080
 2136SOL     OW18043   0.345   4.218   2.293  0.4212  0.3778  0.0953
 2136SOL    HW118044   0.321   4.126   2.298  1.4223  0.0197 -1.5671
 2136SOL    HW218045   0.374   4.224   2.202 -2.5551 -1.1049 -0.9468
 2137SOL     OW18046   0.705   0.001   2.062  0.6773 -0.3248  0.1509
 2137SOL    HW118047   0.646   4.714   2.132 -0.7691  2.0476 -0.0796
 2137SOL    HW218048   0.688   0.093   2.043 -2.7812 -0.6871  1.3627
 2138SOL     OW18049   0.349   4.619   5.227  0.0673 -0.4795 -0.6212
 2138SOL    HW118050   0.404   4.543   5.247  1.7041  0.7314 -0.5667
 2138SOL    HW218051   0.302   4.585   5.150 -1.8579 -0.2076  0.4470
 2139SOL     OW18052   1.673   1.350   7.901 -0.0595 -0.0307 -0.3821
 2139SOL    HW118053   1.606   1.313   7.958  0.8578 -1.9995 -0.5720
 2139SOL    HW218054   1.749   1.369   7.956  1.6987 -0.1579 -2.7691
 2140SOL     OW18055   3.757   0.389   2.525 -0.1116  0.3088 -0.4158
 2140SOL    HW118056   3.728   0.444   2.451  0.7229 -0.1876 -1.1144
 2140SOL    HW218057   3.679   0.334   2.530  0.4417 -0.6026 -1.6335
 2141SOL     OW18058   2.144   0.851   3.043 -0.2067  0.6453 -0.0684
 2141SOL    HW118059   2.212   0.918   3.035  0.6360 -0.4961 -2.6877
 2141SOL    HW218060   2.081   0.889   3.104 -1.0491  1.4645 -1.4261
 2142SOL     OW18061   1.506   1.407  15.101  0.1173  0.3504 -0.1145
 2142SOL    HW118062   1.511   1.323  15.054 -2.3397  1.4451 -2.3109
 2142SOL    HW218063   1.601   1.412  15.107  0.0851  0.8969 -0.1070
 2143SOL     OW18064   1.366   1.529   7.031  0.1315  0.4661  0.0412
 2143SOL    HW118065   1.439   1.477   6.996 -0.4962 -0.0025 -0.5619
 2143SOL    HW218066   1.404   1.613   7.055  2.9911 -0.7904 -0.0366
 2144SOL     OW18067   2.473   1.133   2.763 -0.0079  0.3203 -0.1048
 2144SOL    HW118068   2.545   1.147   2.702  0.0121 -0.2054 -0.2032
 2144SOL    HW218069   2.447   1.044   2.739 -1.8045  0.4640  1.2531
 2145SOL     OW18070   0.862   4.075  17.563 -0.1972  0.0809 -0.1669
 2145SOL    HW118071   0.865   4.075  17.658  0.9085  0.4421 -0.2063
 2145SOL    HW218072   0.896   4.163  17.546  2.8581 -1.0893  0.0519
 2146SOL     OW18073   0.950   3.839  11.643  0.3692 -0.1475 -0.0269
 2146SOL    HW118074   1.035   3.873  11.670  0.0499  0.7966 -0.2111
 2146SOL    HW218075   0.896   3.851  11.721  1.5052 -0.6181  0.8271
 2147SOL     OW18076   0.942   2.613   2.196 -0.2335 -0.3208 -0.1597
 2147SOL    HW118077   1.023   2.659   2.173 -0.8628  1.3192  0.9010
 2147SOL    HW218078   0.942   2.605   2.292 -2.8286  1.5007  0.0027
 2148SOL     OW18079   3.965   1.533  17.432 -0.0806  0.2360  0.7032
 2148SOL    HW118080   3.879   1.526  17.391  0.5064 -3.0815  0.0674
 2148SOL    HW218081   3.995   1.614  17.389 -3.5530  0.1221 -1.9263
 2149SOL     OW18082   1.266   3.803   3.421  0.0473 -0.0291  0.3008
 2149SOL    HW118083   1.232   3.849   3.345  0.4661  0.2308  0.2732
 2149SOL    HW218084   1.332   3.861   3.457 -0.6400  0.3795  0.9045
 2150SOL     OW18085   0.468   3.080  10.545  0.1153  0.2832 -0.0405
 2150SOL    HW118086   0.437   3.061  10.634 -0.4997 -1.0126 -0.5353
 2150SOL    HW218087   0.531   3.009  10.530 -0.6093 -0.7210  1.5914
 2151SOL     OW18088   1.003   3.303   2.675  0.3194  0.5327 -0.3001
 2151SOL    HW118089   1.029   3.361   2.747 -0.0829 -0.0022  0.2779
 2151SOL    HW218090   1.064   3.326   2.605 -0.0583 -0.5593 -0.9870
 2152SOL     OW18091   3.797   3.112   4.351 -0.1620  0.1814  0.1698
 2152SOL    HW118092   3.836   3.144   4.270 -0.7674  1.2511  0.2942
 2152SOL    HW218093   3.706   3.142   4.342  0.2534  0.9934 -1.3121
 2153SOL     OW18094   1.950   4.096   4.348  0.1259 -0.3186  0.0101
 2153SOL    HW118095   2.030   4.078   4.299 -1.1719  0.6633 -2.5173
 2153SOL    HW218096   1.971   4.067   4.437 -3.0370  0.6368  1.0608
 2154SOL     OW18097   2.285   2.011   4.820  0.0816  0.1513  0.0008
 2154SOL    HW118098   2.253   2.071   4.753 -0.4832  2.8402  2.6742
 2154SOL    HW218099   2.244   1.933   4.783 -0.9331  1.2315 -1.1173
 2155SOL     OW18100   0.902   1.037   6.379  0.1717 -0.3948  0.0182
 2155SOL    HW118101   0.962   1.017   6.451  1.7081  3.6209 -0.1644
 2155SOL    HW218102   0.826   1.002   6.426  0.1489  0.5662  0.7087
 2156SOL     OW18103   4.434   2.990   1.047  0.1824  0.4418  0.4706
 2156SOL    HW118104   4.484   3.059   1.092  1.2913 -0.0305 -0.0460
 2156SOL    HW218105   4.497   2.919   1.032  0.6594  0.3309  2.8961
 2157SOL     OW18106   4.204   4.612   3.507  0.4009  0.0602  0.0720
 2157SOL    HW118107   4.173   4.530   3.543 -3.1406  0.6212 -1.7273
 2157SOL    HW218108   4.129   4.666   3.529  0.1377  0.2051 -1.1565
 2158SOL     OW18109   3.981   4.722  14.626  0.2424  0.0215  0.2998
 2158SOL    HW118110   3.909   4.659  14.631 -0.9242  1.2217 -1.3297
 2158SOL    HW218111   3.935   0.047  14.575  0.3554 -0.4654 -0.4400
 2159SOL     OW18112   4.674   0.341   5.019 -0.4014  0.4499  0.0214
 2159SOL    HW118113   4.715   0.385   5.093  1.5732  2.4250 -2.2254
 2159SOL    HW218114   0.006   0.298   4.975 -0.5576  0.4704 -0.2671
 2160SOL     OW18115   1.824   0.147   1.692 -0.7132 -0.3038  0.0110
 2160SOL    HW118116   1.877   0.079   1.735 -0.8960  1.4804  3.0332
 2160SOL    HW218117   1.755   0.138   1.757  1.9275 -1.8650  2.6390
 2161SOL     OW18118   1.922   0.607  16.709 -0.4656 -0.3866  0.3941
 2161SOL    HW118119   1.982   0.538  16.680 -0.0406  0.3927 -0.5785
 2161SOL    HW218120   1.844   0.551  16.709  0.4884 -1.7005 -2.5040
 2162SOL     OW18121   2.620   3.507  16.173 -0.3068  0.0348 -0.1516
 2162SOL    HW118122   2.688   3.463  16.122  1.9351  1.8413  1.3217
 2162SOL    HW218123   2.546   3.483  16.117 -2.6622  1.0624  2.4961
 2163SOL     OW18124   3.959   2.716   1.280 -0.5555 -0.0853  0.4170
 2163SOL    HW118125   4.005   2.731   1.198 -2.9830  0.8223 -0.7703
 2163SOL    HW218126   3.928   2.627   1.261 -1.6763  0.5196 -0.5758
 2164SOL     OW18127   3.674   3.731   8.070  0.2744  0.5253 -0.3296
 2164SOL    HW118128   3.750   3.674   8.062  0.2355  0.6925 -1.7635
 2164SOL    HW218129   3.655   3.727   8.164 -2.5396 -0.9863 -0.9700
 2165SOL     OW18130   3.702   4.133   6.437 -0.3836  0.1700  0.0068
 2165SOL    HW118131   3.657   4.060   6.395 -2.4345  1.0695  0.6541
 2165SOL    HW218132   3.682   4.116   6.529  1.3437 -1.9789  0.0011
 2166SOL     OW18133   1.580   3.001   3.032 -0.3574  0.0868 -0.3935
 2166SOL    HW118134   1.492   3.039   3.039 -0.2151  0.8686 -2.6764
 2166SOL    HW218135   1.564   2.931   3.095 -0.2121  1.0236  0.6961
 2167SOL     OW18136   2.528   2.754   7.539  0.3316  0.2234 -0.8369
 2167SOL    HW118137   2.545   2.699   7.616  1.9071 -0.8040 -1.9255
 2167SOL    HW218138   2.613   2.788   7.512 -0.3757  0.2524 -3.0462
 2168SOL     OW18139   4.674   1.313  15.837  0.1842  0.0211 -0.0234
 2168SOL    HW118140   4.615   1.238  15.841 -1.2193  1.1822  0.5428
 2168SOL    HW218141   4.616   1.389  15.839  0.2215  0.1010 -1.6532
 2169SOL     OW18142   2.785   4.543   1.007  0.0783 -0.5419 -0.5055
 2169SOL    HW118143   2.761   4.635   1.012  0.9043 -0.3571  0.1835
 2169SOL    HW218144   2.768   4.537   0.913  1.1162  1.1807 -0.7957
 2170SOL     OW18145   4.318   0.510  14.002 -0.5025  0.7325  0.3894
 2170SOL    HW118146   4.375   0.435  13.987 -1.3366 -0.0459  1.0587
 2170SOL    HW218147   4.263   0.460  14.062 -1.1301  0.5194 -0.3592
 2171SOL     OW18148   4.417   3.850   2.468 -0.0260 -0.1499 -0.3206
 2171SOL    HW118149   4.374   3.923   2.513 -1.4118 -0.8888 -0.4413
 2171SOL    HW218150   4.345   3.788   2.452 -0.6169  0.3457  0.3961
 2172SOL     OW18151   1.208   1.562  16.402 -1.3952  0.0353  0.0421
 2172SOL    HW118152   1.144   1.568  16.330 -1.6139  4.8801  0.5869
 2172SOL    HW218153   1.188   1.620  16.476  2.0970  1.3871 -0.0785
 2173SOL     OW18154   0.999   2.896   4.225  0.5945  0.1043 -0.4649
 2173SOL    HW118155   1.080   2.863   4.264  0.8910 -0.9161 -1.9347
 2173SOL    HW218156   0.990   2.971   4.284  0.6077 -0.8102  0.6958
 2174SOL     OW18157   0.262   0.699   3.807  0.0919 -0.0019 -0.1585
 2174SOL    HW118158   0.299   0.732   3.889  1.1850  0.2936 -0.7643
 2174SOL    HW218159   0.294   0.609   3.802 -1.0889 -0.4093 -0.4414
 2175SOL     OW18160   2.799   1.358   2.078 -0.2972  0.4553  0.3199
 2175SOL    HW118161   2.864   1.398   2.020 -1.1712  0.6802 -0.5128
 2175SOL    HW218162   2.820   1.266   2.064 -1.3366  0.4567 -1.3162
 2176SOL     OW18163   2.724   0.971   2.520 -0.1725  0.3335  0.2106
 2176SOL    HW118164   2.714   0.877   2.535 -1.6978  0.3302 -0.8805
 2176SOL    HW218165   2.632   0.994   2.529 -0.7372 -2.0132  0.2172
 2177SOL     OW18166   1.625   0.589   5.228  0.8375 -0.0853  0.2404
 2177SOL    HW118167   1.569   0.515   5.251 -1.1070  0.9012 -1.3221
 2177SOL    HW218168   1.573   0.652   5.278 -0.6538  0.0423 -1.5026
 2178SOL     OW18169   3.106   3.823   7.085  0.5726 -0.0274 -0.0567
 2178SOL    HW118170   3.136   3.910   7.111 -1.0770  0.3729  0.5004
 2178SOL    HW218171   3.185   3.791   7.043  1.4250  0.3757  1.2559
 2179SOL     OW18172   1.901   2.468   7.723  0.0086 -0.0087  0.7326
 2179SOL    HW118173   1.843   2.455   7.798  0.1834 -1.9431  0.5319
 2179SOL    HW218174   1.955   2.390   7.739 -0.2144 -0.1994  0.5552
 2180SOL     OW18175   0.835   1.913   4.446 -0.3469 -0.4593  0.4851
 2180SOL    HW118176   0.923   1.877   4.436 -0.4582 -0.2788 -1.1716
 2180SOL    HW218177   0.813   1.917   4.353 -0.7751  0.7111  0.6387
 2181SOL     OW18178   3.453   1.037  17.656 -0.3546 -0.8953  0.6941
 2181SOL    HW118179   3.528   0.984  17.681 -1.6359 -2.7141  0.7189
 2181SOL    HW218180   3.483   1.127  17.656  1.9838 -1.6976 -1.6519
 2182SOL     OW18181   2.659   1.859   7.567  0.2859  0.1475  0.3637
 2182SOL    HW118182   2.588   1.851   7.631  1.2530  1.2645  1.5565
 2182SOL    HW218183   2.724   1.900   7.623 -0.7248  2.2457  0.0160
 2183SOL     OW18184   3.209   1.263  13.348  0.2751  0.6304 -0.6154
 2183SOL    HW118185   3.135   1.203  13.339 -0.9318  1.9832  0.1428
 2183SOL    HW218186   3.275   1.224  13.291 -0.4930 -0.5129 -0.7132
 2184SOL     OW18187   2.616   3.526   8.181 -0.2057  0.3880  0.3750
 2184SOL    HW118188   2.656   3.580   8.112 -2.5936 -1.5214 -2.4843
 2184SOL    HW218189   2.524   3.527   8.157 -0.4354 -1.1275  1.1980
 2185SOL     OW18190   4.053   2.572  16.349  0.1808  0.1105  0.1971
 2185SOL    HW118191   4.024   2.624  16.274 -1.4216  0.4633  1.0699
 2185SOL    HW218192   3.977   2.518  16.371  2.7964 -3.5428  0.1362
 2186SOL     OW18193   2.632   1.200   6.996 -0.1948  0.6165 -0.2441
 2186SOL    HW118194   2.612   1.109   7.016 -0.3493  0.3443 -1.6943
 2186SOL    HW218195   2.727   1.190   6.983 -0.3370  1.5922 -2.0162
 2187SOL     OW18196   4.151   2.321   0.484  0.3369  0.8563  0.2291
 2187SOL    HW118197   4.066   2.281   0.504  0.5713 -0.2643 -1.0321
 2187SOL    HW218198   4.127   2.414   0.481 -1.5317  0.4357  2.3863
 2188SOL     OW18199   1.616   2.795   6.768  0.0195 -0.4392 -0.2938
 2188SOL    HW118200   1.676   2.808   6.694 -1.4781 -2.1054 -1.7986
 2188SOL    HW218201   1.576   2.882   6.771  0.8597 -0.0357 -0.8282
 2189SOL     OW18202   2.651   4.359   5.889 -0.0161 -0.9837  0.3640
 2189SOL    HW118203   2.654   4.347   5.984  2.9749 -0.8319  0.2838
 2189SOL    HW218204   2.634   4.275   5.847 -2.1258 -1.5141  2.3283
 2190SOL     OW18205   1.201   3.221   8.857 -0.0621  0.1447  0.6189
 2190SOL    HW118206   1.159   3.290   8.805 -0.9883  0.0326  1.2211
 2190SOL    HW218207   1.125   3.174   8.891  0.9706 -0.4358  2.1314
 2191SOL     OW18208   2.736   1.142   9.500 -0.4472 -0.1942 -0.5976
 2191SOL    HW118209   2.731   1.118   9.592 -1.1364  2.2721  0.0162
 2191SOL    HW218210   2.825   1.116   9.476 -0.4538 -0.6692 -0.0992
 2192SOL     OW18211   2.404   1.227  12.168 -0.0848 -0.5085  0.0735
 2192SOL    HW118212   2.329   1.168  12.167 -0.1946 -0.3529 -0.6444
 2192SOL    HW218213   2.471   1.161  12.183  3.2414  3.3136  2.1055
 2193SOL     OW18214   3.894   0.628   3.002  0.0234 -0.1510  0.2373
 2193SOL    HW118215   3.933   0.632   3.089 -0.4192 -1.2574  0.4784
 2193SOL    HW218216   3.812   0.676   3.010 -0.0717 -0.6813  2.2253
 2194SOL     OW18217   2.382   3.923   3.770  0.6473  0.8072 -0.2859
 2194SOL    HW118218   2.290   3.905   3.788  1.0080 -0.4719  0.2499
 2194SOL    HW218219   2.433   3.847   3.796 -2.9027 -1.3313  0.4511
 2195SOL     OW18220   1.667   4.099   7.491 -0.5869  0.0589  0.1503
 2195SOL    HW118221   1.704   4.036   7.429  3.9358 -0.8653  3.7641
 2195SOL    HW218222   1.581   4.113   7.452 -0.6805  0.8315  0.6311
 2196SOL     OW18223   1.912   3.180   8.374 -0.2167  0.0581 -0.0890
 2196SOL    HW118224   1.887   3.250   8.435  3.3406  0.3564  1.0074
 2196SOL    HW218225   1.827   3.136   8.371 -1.0124  1.3859  2.6126
 2197SOL     OW18226   2.048   3.689  12.261  0.0078  0.0840  0.1389
 2197SOL    HW118227   2.064   3.674  12.168  0.9849  0.6017  0.2324
 2197SOL    HW218228   1.989   3.615  12.276  0.9054 -0.2828  1.9139
 2198SOL     OW18229   4.114   2.539  11.066  0.0321  0.1134 -0.4088
 2198SOL    HW118230   4.090   2.558  10.975  0.5940 -0.3923 -0.6635
 2198SOL    HW218231   4.201   2.505  11.046  0.0267 -1.1589  1.6836
 2199SOL     OW18232   2.683   3.995  11.201  0.1345  0.0905 -0.2302
 2199SOL    HW118233   2.765   3.981  11.249 -1.0224  1.1248  2.0869
 2199SOL    HW218234   2.629   3.923  11.234  2.1020 -1.6903 -0.9130
 2200SOL     OW18235   0.856   2.371   6.700  0.0132 -0.3404 -0.5388
 2200SOL    HW118236   0.929   2.376   6.761 -1.0586  1.5169  0.6126
 2200SOL    HW218237   0.808   2.450   6.724 -0.7981 -1.3002  0.9757
 2201SOL     OW18238   1.448   2.230   1.097  0.2804  0.7035  0.0359
 2201SOL    HW118239   1.375   2.171   1.078 -0.2415  0.8893  1.5026
 2201SOL    HW218240   1.403   2.314   1.102  2.9052  2.1633 -0.6812
 2202SOL     OW18241   3.443   3.575   7.572  0.2503  0.0635  0.4935
 2202SOL    HW118242   3.397   3.631   7.635  0.6300 -0.0854  0.9046
 2202SOL    HW218243   3.526   3.564   7.618  0.4826  0.9122  0.2670
 2203SOL     OW18244   0.780   0.144  15.320 -0.4146 -0.2159 -0.4043
 2203SOL    HW118245   0.718   0.209  15.287 -1.0849 -1.6266 -1.9495
 2203SOL    HW218246   0.843   0.137  15.249 -0.9587 -0.4614 -0.8684
 2204SOL     OW18247   2.909   1.410   8.790 -0.0805  0.1619 -0.1001
 2204SOL    HW118248   2.864   1.331   8.760  0.1588 -0.3197  0.8146
 2204SOL    HW218249   2.909   1.397   8.885  1.0986 -1.2491 -0.2940
 2205SOL     OW18250   0.832   2.534  15.643  0.0819  0.2254 -0.2381
 2205SOL    HW118251   0.871   2.451  15.673  0.5015 -0.1332 -1.7725
 2205SOL    HW218252   0.772   2.502  15.576 -1.1827 -0.4006  1.1811
 2206SOL     OW18253   3.001   1.874   0.379  0.6511  0.0472  0.2171
 2206SOL    HW118254   3.069   1.933   0.411  0.2554  1.8628 -2.3272
 2206SOL    HW218255   3.051   1.812   0.326  1.8407  1.8246 -0.7038
 2207SOL     OW18256   2.296   1.048   7.195  0.0288 -0.3922  0.2246
 2207SOL    HW118257   2.356   0.987   7.239  0.2082  0.0868  0.6404
 2207SOL    HW218258   2.289   1.015   7.105  0.1484  1.1972 -0.3634
 2208SOL     OW18259   3.539   3.166   4.448 -0.4342  0.9262 -0.3971
 2208SOL    HW118260   3.475   3.220   4.495 -0.5881  0.5182 -0.1304
 2208SOL    HW218261   3.484   3.128   4.380  0.8591 -0.7124 -0.5421
 2209SOL     OW18262   1.882   0.196  12.689 -0.8658  0.3823 -0.4639
 2209SOL    HW118263   1.849   0.257  12.756 -1.6667  0.3865 -0.8612
 2209SOL    HW218264   1.966   0.173  12.729  0.2714  3.2580 -1.1337
 2210SOL     OW18265   0.855   1.222   6.668 -0.7230 -0.5276 -0.4514
 2210SOL    HW118266   0.938   1.177   6.654 -0.9410 -0.4147 -2.0659
 2210SOL    HW218267   0.873   1.269   6.750 -0.4199  1.2490 -1.5194
 2211SOL     OW18268   0.574   3.306   4.598 -0.4854  0.2745 -0.4810
 2211SOL    HW118269   0.571   3.227   4.652 -4.6610 -0.1113 -1.2194
 2211SOL    HW218270   0.565   3.384   4.652  2.9496 -0.4909  1.1455
 2212SOL     OW18271   1.473   4.585   3.163  0.1835 -0.1668 -0.1967
 2212SOL    HW118272   1.464   4.565   3.070 -0.2857 -0.3241 -0.1193
 2212SOL    HW218273   1.405   4.652   3.166  2.8128  2.3818  1.7656
 2213SOL     OW18274   1.473   3.698   8.722 -0.5283 -0.2079 -0.0177
 2213SOL    HW118275   1.567   3.693   8.736 -0.8835  0.3326  2.5002
 2213SOL    HW218276   1.473   3.734   8.633  2.3765 -1.7227 -0.6233
 2214SOL     OW18277   0.693   0.762   5.424  0.3541  0.3277  0.5692
 2214SOL    HW118278   0.597   0.760   5.428  0.2826  1.2790 -0.3986
 2214SOL    HW218279   0.709   0.736   5.333 -1.5935 -0.4391  0.4376
 2215SOL     OW18280   4.378   4.579  17.737  0.2732  0.3575  0.3247
 2215SOL    HW118281   4.444   4.564   0.039  0.5286  0.1416  0.0266
 2215SOL    HW218282   4.378   4.494  17.693 -1.2781 -0.3552  1.6874
 2216SOL     OW18283   0.372   4.156   8.429  0.0995 -0.2274  0.1580
 2216SOL    HW118284   0.296   4.175   8.484  0.1658  0.5863 -0.0321
 2216SOL    HW218285   0.437   4.215   8.466  0.2259  0.0681 -0.5332
 2217SOL     OW18286   2.781   1.567   2.292 -0.7392 -0.4828  0.3531
 2217SOL    HW118287   2.696   1.611   2.284  1.3237  3.6229  1.2863
 2217SOL    HW218288   2.757   1.484   2.250  0.8627 -1.3199  1.1054
 2218SOL     OW18289   2.964   1.011   3.762 -0.5610  0.0998  0.6562
 2218SOL    HW118290   2.989   0.985   3.674 -0.0466  0.5243  0.6732
 2218SOL    HW218291   3.028   1.077   3.791  1.6984 -1.5143 -0.6764
 2219SOL     OW18292   1.320   3.084   3.111 -0.2878  0.0659 -0.1071
 2219SOL    HW118293   1.263   3.010   3.131 -1.2433  0.7587 -0.2538
 2219SOL    HW218294   1.334   3.105   3.203  2.5028  1.4722 -0.8652
 2220SOL     OW18295   0.306   3.340  15.444  0.1646  0.2620  0.0730
 2220SOL    HW118296   0.271   3.364  15.358 -0.5194 -0.2959  0.1948
 2220SOL    HW218297   0.221   3.327  15.486 -0.4148  1.7727 -0.6141
 2221SOL     OW18298   1.789   3.207  16.739 -0.2530 -0.0880  0.0367
 2221SOL    HW118299   1.698   3.182  16.755  0.7436 -3.0479  1.1718
 2221SOL    HW218300   1.790   3.197  16.644  1.6759 -0.6232  0.1031
 2222SOL     OW18301   1.268   0.454   4.934 -0.4126 -0.0324  0.3711
 2222SOL    HW118302   1.233   0.407   5.009 -1.7736  0.9180  0.3210
 2222SOL    HW218303   1.194   0.457   4.873  0.1535 -1.3650 -0.3889
 2223SOL     OW18304   2.875   4.375  12.678 -0.2075  0.5051 -0.2072
 2223SOL    HW118305   2.846   4.464  12.657 -1.2964  0.0507 -0.6570
 2223SOL    HW218306   2.897   4.391  12.770  0.3776  0.8323 -0.4109
 2224SOL     OW18307   4.586   4.010  11.405 -0.2578  0.2503 -0.0645
 2224SOL    HW118308   4.611   4.099  11.429 -1.2328  0.2565  0.9343
 2224SOL    HW218309   4.507   4.010  11.459 -1.0276  0.6278 -1.1931
 2225SOL     OW18310   0.121   4.306  10.275 -0.0604  0.4006 -0.2344
 2225SOL    HW118311   0.137   4.358  10.197 -0.7882  0.5100 -0.3065
 2225SOL    HW218312   0.038   4.344  10.303 -1.2673 -2.0126 -0.5482
 2226SOL     OW18313   3.027   1.578   2.869  0.1355 -0.4441  0.1738
 2226SOL    HW118314   3.025   1.526   2.950  0.3509  0.2924  0.6420
 2226SOL    HW218315   2.942   1.623   2.869  1.8888  2.8072  0.9718
 2227SOL     OW18316   3.775   4.299   5.145 -0.0955  0.2393 -0.0771
 2227SOL    HW118317   3.720   4.319   5.070  0.0769 -0.9183 -0.5092
 2227SOL    HW218318   3.815   4.384   5.160  0.3677 -0.1399  0.8339
 2228SOL     OW18319   3.110   1.087   4.910  0.5988  0.2043  0.3508
 2228SOL    HW118320   3.051   1.065   4.982  0.3167 -2.3132 -0.6213
 2228SOL    HW218321   3.131   0.996   4.889 -0.3096  0.0412  0.1162
 2229SOL     OW18322   2.479   1.942   8.036  0.0256 -0.0104 -0.3776
 2229SOL    HW118323   2.518   1.907   8.116 -1.4384 -1.3065 -0.2345
 2229SOL    HW218324   2.521   2.028   8.028 -1.5416  0.7019 -1.0400
 2230SOL     OW18325   3.636   1.119  14.479 -0.1769  0.9179 -0.4446
 2230SOL    HW118326   3.593   1.125  14.564 -1.5135  0.9092 -1.1097
 2230SOL    HW218327   3.614   1.029  14.454  1.7512  0.4640 -0.4862
 2231SOL     OW18328   3.365   3.951   4.568  0.4424  0.0778  0.2664
 2231SOL    HW118329   3.421   4.001   4.509 -0.8100  1.1075 -0.0423
 2231SOL    HW218330   3.396   3.978   4.654 -1.9882 -3.3715  2.2026
 2232SOL     OW18331   0.198   4.677   7.071  0.1543 -0.5207  0.0527
 2232SOL    HW118332   0.187   4.733   7.147  0.5063  1.1689 -1.1583
 2232SOL    HW218333   0.284   4.641   7.095  0.5474  1.0848  0.9773
 2233SOL     OW18334   1.118   1.208   5.447  0.1476  0.4682 -0.3198
 2233SOL    HW118335   1.081   1.288   5.411  0.4511  0.6542 -0.2164
 2233SOL    HW218336   1.038   1.155   5.449 -0.6068  1.5901 -1.0500
 2234SOL     OW18337   1.084   4.322   5.181  0.4935 -0.1247  0.0640
 2234SOL    HW118338   1.104   4.416   5.182 -0.7663  0.1179  1.3269
 2234SOL    HW218339   0.996   4.318   5.144 -0.0978  0.5525  1.4340
 2235SOL     OW18340   1.018   1.320   8.601  0.0370  0.2805  0.5208
 2235SOL    HW118341   0.935   1.272   8.594  0.7717 -0.8599 -0.3235
 2235SOL    HW218342   1.023   1.379   8.526  1.0053 -0.4153  0.0436
 2236SOL     OW18343   1.990   2.862   2.621  0.3495 -0.2342  0.4127
 2236SOL    HW118344   1.922   2.870   2.554 -1.0157  0.9377  1.9613
 2236SOL    HW218345   1.945   2.882   2.702 -0.0240 -1.5022  0.5172
 2237SOL     OW18346   4.220   0.718   9.432  0.0806 -0.5011  0.4839
 2237SOL    HW118347   4.227   0.633   9.389  0.1480  0.0777 -0.6559
 2237SOL    HW218348   4.288   0.713   9.499  0.1101  0.6726  0.5528
 2238SOL     OW18349   3.591   2.771  17.552  0.2099  1.1600 -0.0334
 2238SOL    HW118350   3.676   2.726  17.556  0.1743  0.9307 -2.0266
 2238SOL    HW218351   3.586   2.817  17.469  0.9497 -0.0391 -0.7446
 2239SOL     OW18352   0.975   3.740   7.310  0.4203  0.3098 -0.5114
 2239SOL    HW118353   0.969   3.820   7.364 -0.8890  0.1615 -0.4265
 2239SOL    HW218354   1.067   3.714   7.311  0.0444 -0.9826 -0.3763
 2240SOL     OW18355   3.717   3.700   4.019 -0.0228 -0.2663  0.0417
 2240SOL    HW118356   3.723   3.783   4.067  2.7458 -0.4722  0.0231
 2240SOL    HW218357   3.684   3.741   3.939 -0.6216 -1.0766 -0.1251
 2241SOL     OW18358   0.277   2.533   1.009  0.0375 -0.2827 -0.1596
 2241SOL    HW118359   0.219   2.521   0.933 -0.8649 -0.7402  0.6052
 2241SOL    HW218360   0.216   2.589   1.055 -0.5290 -1.3531  0.4042
 2242SOL     OW18361   0.568   3.438  12.033 -0.0425  0.2254  0.1104
 2242SOL    HW118362   0.584   3.360  11.981 -2.1132  1.0600 -1.7730
 2242SOL    HW218363   0.551   3.399  12.118  0.9386  0.7241  0.5349
 2243SOL     OW18364   2.447   1.417   6.034 -0.3494  0.1928  0.2594
 2243SOL    HW118365   2.445   1.322   6.048 -0.3932  0.2970  0.9428
 2243SOL    HW218366   2.530   1.444   6.072  0.1879 -1.5940  0.3238
 2244SOL     OW18367   4.068   1.736   6.794 -0.5748  0.9401  1.1892
 2244SOL    HW118368   4.087   1.765   6.884 -0.9215  2.3181  0.8232
 2244SOL    HW218369   4.139   1.677   6.771 -0.2075  0.9797  2.2261
 2245SOL     OW18370   3.787   4.281   6.921 -0.0355 -0.4664  0.1577
 2245SOL    HW118371   3.837   4.305   6.843 -2.2775  0.4529 -0.9815
 2245SOL    HW218372   3.761   4.365   6.958  3.7713  0.8547 -0.1015
 2246SOL     OW18373   1.961   3.769   4.532 -0.4188  0.1065  0.4864
 2246SOL    HW118374   1.949   3.684   4.489  2.6575  0.5304 -1.1895
 2246SOL    HW218375   2.051   3.760   4.564 -0.4917  0.8946  0.9169
 2247SOL     OW18376   4.426   0.782   5.876 -0.2016  0.2665  0.6306
 2247SOL    HW118377   4.470   0.866   5.862 -0.9492  1.0183  2.8952
 2247SOL    HW218378   4.391   0.809   5.960 -1.0610 -0.9091  0.6361
 2248SOL     OW18379   2.634   0.646   0.917  0.0518 -0.6074 -0.1382
 2248SOL    HW118380   2.577   0.603   0.981 -0.8500  0.5761 -0.1606
 2248SOL    HW218381   2.569   0.707   0.883  2.4685  1.2144 -1.4549
 2249SOL     OW18382   3.563   3.578   8.930  0.0524  0.0277  0.3056
 2249SOL    HW118383   3.592   3.637   8.860 -1.4926  0.8939  0.3972
 2249SOL    HW218384   3.577   3.638   9.003  1.2142  0.2739 -0.1136
 2250SOL     OW18385   2.404   0.067   5.473  0.2730  0.5163 -0.6059
 2250SOL    HW118386   2.436   0.054   5.562 -0.1652 -0.5519 -0.6064
 2250SOL    HW218387   2.408   0.162   5.461 -0.0967  0.8263  1.7168
 2251SOL     OW18388   4.671   1.381  15.166  0.2965 -0.2281 -0.1718
 2251SOL    HW118389   4.687   1.287  15.159 -0.5490 -0.4369  0.7764
 2251SOL    HW218390   0.008   1.407  15.213  0.8480  0.0897 -1.2575
 2252SOL     OW18391   1.452   3.150   1.942  0.1488  0.2164 -0.0220
 2252SOL    HW118392   1.535   3.191   1.917 -0.2051 -0.2307 -1.9595
 2252SOL    HW218393   1.386   3.201   1.895  0.9582 -0.2662 -1.6727
 2253SOL     OW18394   1.610   0.100   5.228 -0.2732 -0.3246 -0.4399
 2253SOL    HW118395   1.628   0.162   5.158  2.5907 -0.2027  0.3937
 2253SOL    HW218396   1.663   0.134   5.301 -1.0202  0.8847 -0.4790
 2254SOL     OW18397   4.204   3.271  17.206 -0.0209 -0.0714 -0.3988
 2254SOL    HW118398   4.268   3.243  17.141  0.7637  1.0137 -0.0937
 2254SOL    HW218399   4.142   3.312  17.145 -2.0985 -0.9193  1.1256
 2255SOL     OW18400   1.655   0.637  15.924  0.0201  0.1295  0.2089
 2255SOL    HW118401   1.721   0.669  15.863 -1.1135  0.5567 -0.7859
 2255SOL    HW218402   1.602   0.715  15.939  0.5919  0.6423 -0.4417
 2256SOL     OW18403   0.058   0.868   3.758  0.3144 -0.4157 -0.2600
 2256SOL    HW118404   0.041   0.905   3.845 -1.0136 -0.3105 -0.5771
 2256SOL    HW218405   0.129   0.809   3.784 -1.3533 -0.4494  4.1129
 2257SOL     OW18406   4.612   1.563   4.014  0.9373  0.2547 -0.2473
 2257SOL    HW118407   4.669   1.587   4.087 -0.4841  0.7303  0.7114
 2257SOL    HW218408   4.547   1.632   4.031  1.6679  0.4950  1.5776
 2258SOL     OW18409   2.581   3.196   2.973  0.7194  0.0524  0.4997
 2258SOL    HW118410   2.673   3.170   2.963  0.5706  0.2907 -1.3908
 2258SOL    HW218411   2.577   3.268   2.910 -0.1414 -1.5024 -1.2181
 2259SOL     OW18412   1.288   2.901  11.157 -0.0920 -0.3238  0.3145
 2259SOL    HW118413   1.210   2.955  11.139  1.1161  1.0471 -0.7580
 2259SOL    HW218414   1.305   2.929  11.247 -0.6077 -0.3987  0.4410
 2260SOL     OW18415   2.783   3.406  16.620  0.3209  0.2715 -0.6738
 2260SOL    HW118416   2.722   3.405  16.694 -0.5618  0.6439 -1.3935
 2260SOL    HW218417   2.735   3.439  16.544  1.2670  2.9076 -0.1309
 2261SOL     OW18418   3.710   2.871  14.241 -0.3429  0.0752  0.4874
 2261SOL    HW118419   3.745   2.845  14.326 -1.7471 -2.5739  0.2715
 2261SOL    HW218420   3.726   2.965  14.239  0.2656 -0.0469 -0.3871
 2262SOL     OW18421   1.181   0.608   5.292  0.4804 -0.8423 -0.3174
 2262SOL    HW118422   1.275   0.623   5.299  0.0659  2.6557 -2.0981
 2262SOL    HW218423   1.166   0.630   5.200  0.5781  0.7443  0.0313
 2263SOL     OW18424   2.333   3.994   5.740 -0.2413  0.0708 -0.1303
 2263SOL    HW118425   2.257   3.985   5.797 -0.9104  0.2811 -0.9841
 2263SOL    HW218426   2.343   4.089   5.741  1.1365 -0.0747 -0.8725
 2264SOL     OW18427   1.995   0.889  12.221 -0.0557  0.0810 -0.0637
 2264SOL    HW118428   1.988   0.795  12.237 -1.4415 -0.0430 -1.4223
 2264SOL    HW218429   1.938   0.920  12.291 -2.3334  0.2446 -1.9763
 2265SOL     OW18430   4.476   2.639   1.561 -0.1641 -0.3559  0.2630
 2265SOL    HW118431   4.571   2.630   1.548 -0.0944  1.1843 -0.3330
 2265SOL    HW218432   4.483   2.733   1.581 -1.8043 -0.6362  2.0704
 2266SOL     OW18433   4.691   4.205   5.607  0.1886  0.5797  0.2410
 2266SOL    HW118434   4.662   4.120   5.573  1.1490  0.6194 -0.6990
 2266SOL    HW218435   0.031   4.216   5.559 -0.7101  1.1583 -1.1989
 2267SOL     OW18436   1.181   4.338  16.845 -0.3971 -0.6474  0.0879
 2267SOL    HW118437   1.134   4.408  16.890 -0.2968 -1.4649  1.4509
 2267SOL    HW218438   1.111   4.273  16.835  0.0613 -1.0232 -0.7391
 2268SOL     OW18439   4.356   0.867   0.904 -0.0407  0.1151  0.0123
 2268SOL    HW118440   4.396   0.891   0.820 -2.4036  2.0625 -0.5861
 2268SOL    HW218441   4.265   0.876   0.874 -1.1856 -1.5703  2.9890
 2269SOL     OW18442   1.216   0.138  12.747 -0.3215 -0.3898  0.0220
 2269SOL    HW118443   1.154   0.159  12.817  0.4355 -1.2418  0.9283
 2269SOL    HW218444   1.184   0.051  12.723 -0.3705 -0.1603 -0.7507
 2270SOL     OW18445   2.460   4.451   7.929  0.3971 -0.6273  0.1216
 2270SOL    HW118446   2.503   4.375   7.891  1.2039 -0.7921  1.3531
 2270SOL    HW218447   2.467   4.514   7.857  1.9904 -0.6162  0.2822
 2271SOL     OW18448   3.314   4.275   7.106  0.2525 -0.0264 -0.2029
 2271SOL    HW118449   3.378   4.332   7.149  0.6530 -0.5846 -0.0629
 2271SOL    HW218450   3.256   4.344   7.074 -0.7835 -0.4903  0.6445
 2272SOL     OW18451   1.886   0.516   4.383  0.1023  0.3340 -0.5092
 2272SOL    HW118452   1.824   0.571   4.432  0.1151  1.1038 -1.3592
 2272SOL    HW218453   1.934   0.588   4.343  0.2488  0.9740  0.8224
 2273SOL     OW18454   3.796   3.811   3.452 -0.8396  0.7216 -0.0524
 2273SOL    HW118455   3.860   3.740   3.455  0.0338  1.4496 -1.4595
 2273SOL    HW218456   3.725   3.768   3.403  2.4168 -1.2606 -3.0018
 2274SOL     OW18457   4.303   0.811  15.608 -0.0750  0.3643  0.0868
 2274SOL    HW118458   4.377   0.818  15.548  1.1374 -1.1122  1.3934
 2274SOL    HW218459   4.234   0.831  15.545  0.3241  1.8832  0.1281
 2275SOL     OW18460   3.574   1.458   4.699 -0.0748 -0.1354 -0.2242
 2275SOL    HW118461   3.483   1.471   4.727  0.1537  1.1983 -0.1062
 2275SOL    HW218462   3.605   1.425   4.783  1.5498 -1.2560 -1.2721
 2276SOL     OW18463   2.251   4.719   5.175  0.6238 -1.1842  0.3446
 2276SOL    HW118464   2.263   4.696   5.083  0.6299 -0.9134  0.2775
 2276SOL    HW218465   2.238   0.070   5.156  3.0595 -0.5706  1.7088
 2277SOL     OW18466   2.367   1.195  10.429 -0.5123 -0.0337 -0.2697
 2277SOL    HW118467   2.275   1.205  10.403 -0.3049  0.9764 -0.6249
 2277SOL    HW218468   2.379   1.251  10.506 -0.6791  2.3060 -1.9647
 2278SOL     OW18469   3.929   1.028  14.182  0.3093 -0.0412  0.1312
 2278SOL    HW118470   3.997   0.989  14.128  0.7908  1.2298 -0.1851
 2278SOL    HW218471   3.850   1.017  14.130 -0.5302  0.7686  1.2264
 2279SOL     OW18472   0.645   4.501   1.969  0.2719 -0.1875 -0.6913
 2279SOL    HW118473   0.658   4.589   2.004  0.5723 -0.9177  1.0920
 2279SOL    HW218474   0.703   4.451   2.028  2.6502 -1.7676 -4.3581
 2280SOL     OW18475   1.990   4.245   2.766 -0.1845  0.1497  0.3641
 2280SOL    HW118476   2.055   4.237   2.836  1.3395 -0.1159 -1.0986
 2280SOL    HW218477   1.965   4.153   2.762  2.7307 -0.6810  1.0276
 2281SOL     OW18478   3.180   2.860   6.642  0.3265 -0.3179 -0.3872
 2281SOL    HW118479   3.140   2.847   6.556  1.0340 -0.4707 -0.6993
 2281SOL    HW218480   3.257   2.905   6.608 -0.1991 -0.4014 -1.6920
 2282SOL     OW18481   1.251   2.848   2.383  0.8034  0.1242  0.4231
 2282SOL    HW118482   1.195   2.842   2.305  0.8616  1.1916  0.2902
 2282SOL    HW218483   1.309   2.923   2.366  4.6358 -2.7656  0.6587
 2283SOL     OW18484   3.737   1.331   9.090  0.0108 -0.5057 -0.1978
 2283SOL    HW118485   3.670   1.354   9.154  1.4618 -2.6288  2.1268
 2283SOL    HW218486   3.802   1.305   9.156  1.2240 -0.2652 -1.2913
 2284SOL     OW18487   2.221   4.146   6.494 -0.2510 -0.3041 -0.2523
 2284SOL    HW118488   2.193   4.189   6.413 -1.1379  0.2093  0.3119
 2284SOL    HW218489   2.182   4.060   6.482  1.3232 -0.9526 -0.7072
 2285SOL     OW18490   2.962   0.947   8.299 -0.2066  0.0732  0.3613
 2285SOL    HW118491   2.879   0.927   8.256  0.1619 -0.5392 -0.0682
 2285SOL    HW218492   3.015   0.872   8.273 -0.0762  0.2494  0.1193
 2286SOL     OW18493   0.249   3.479   5.319  0.0455  0.0057 -0.1081
 2286SOL    HW118494   0.330   3.502   5.274 -0.1478 -0.5979 -0.7625
 2286SOL    HW218495   0.184   3.456   5.252 -1.8501 -0.1097  1.7612
 2287SOL     OW18496   0.142   2.779   5.272  0.0507 -0.5535  0.8055
 2287SOL    HW118497   0.067   2.763   5.216  0.7539  0.7576 -0.5194
 2287SOL    HW218498   0.141   2.875   5.275  3.3287 -0.5128  0.9239
 2288SOL     OW18499   1.718   0.379   7.460 -0.3378 -0.3746 -0.8756
 2288SOL    HW118500   1.709   0.284   7.449 -0.4306 -0.3868 -0.7003
 2288SOL    HW218501   1.680   0.389   7.548 -0.9709  0.6104 -1.2724
 2289SOL     OW18502   4.502   3.841  13.834 -0.0415 -0.0136 -0.0302
 2289SOL    HW118503   4.536   3.895  13.905  0.8909 -0.9717  0.2557
 2289SOL    HW218504   4.418   3.880  13.807 -1.5865 -2.2620  1.5558
 2290SOL     OW18505   4.140   3.180   0.786  0.3854 -0.3312 -0.0328
 2290SOL    HW118506   4.067   3.140   0.738  0.7969  0.5344 -1.3551
 2290SOL    HW218507   4.179   3.217   0.707  1.3149 -0.0229  0.5702
 2291SOL     OW18508   1.302   4.587   6.987  0.3179  0.5205  0.2766
 2291SOL    HW118509   1.262   4.616   6.905 -1.2336 -0.4020  0.7058
 2291SOL    HW218510   1.302   4.672   7.030  2.3699  0.7197 -0.0848
 2292SOL     OW18511   0.107   0.657   5.065  0.3821 -0.0919 -0.3419
 2292SOL    HW118512   0.020   0.698   5.060  0.2834 -0.4386 -1.4747
 2292SOL    HW218513   0.087   0.590   5.130  1.0143 -0.4911 -0.5735
 2293SOL     OW18514   3.355   4.374   9.248  0.6677  0.5345  0.7623
 2293SOL    HW118515   3.363   4.323   9.329 -0.9543  0.5166  0.9064
 2293SOL    HW218516   3.278   4.428   9.267  0.8202  1.2079 -0.5022
 2294SOL     OW18517   2.295   2.530   5.169 -0.0074 -0.1054 -0.6427
 2294SOL    HW118518   2.368   2.520   5.230 -0.5924 -2.5987 -0.3440
 2294SOL    HW218519   2.226   2.558   5.229  0.0378 -0.0512 -0.6172
 2295SOL     OW18520   1.232   0.634   2.319 -0.4096 -0.6980  0.7202
 2295SOL    HW118521   1.277   0.686   2.386  0.2720 -0.1731 -0.1557
 2295SOL    HW218522   1.183   0.705   2.278  2.3879 -0.2336 -1.7340
 2296SOL     OW18523   1.808   1.006  17.760 -0.0266 -0.4107  0.2797
 2296SOL    HW118524   1.857   1.036  17.683  2.9367 -0.2609  2.2601
 2296SOL    HW218525   1.806   0.910  17.749  2.0135 -0.4067 -0.1050
 2297SOL     OW18526   4.519   1.980  12.654 -0.2300  0.3312 -0.3283
 2297SOL    HW118527   4.604   1.938  12.671 -0.4568 -0.4555 -1.1168
 2297SOL    HW218528   4.538   2.074  12.661  2.3038 -0.4166  2.5459
 2298SOL     OW18529   0.412   1.180   6.895 -0.1837 -0.2719  0.2721
 2298SOL    HW118530   0.444   1.267   6.920 -0.4284  0.2475 -1.1863
 2298SOL    HW218531   0.492   1.139   6.862 -0.9102 -2.3369  1.1332
 2299SOL     OW18532   2.795   0.685   4.108  0.1395  0.3842  0.4310
 2299SOL    HW118533   2.825   0.613   4.163 -0.8918  0.0703  0.5715
 2299SOL    HW218534   2.878   0.720   4.075  0.9006  0.0883  2.0337
 2300SOL     OW18535   0.037   2.870   2.957 -0.2221 -0.5570 -0.3095
 2300SOL    HW118536   0.087   2.881   3.038 -1.0126 -1.4754  0.3015
 2300SOL    HW218537   0.106   2.884   2.892 -1.3265  1.3376 -1.0820
 2301SOL     OW18538   3.487   1.584   5.742 -0.5599 -0.5120 -0.6023
 2301SOL    HW118539   3.548   1.511   5.729 -2.4103 -1.9442 -1.0875
 2301SOL    HW218540   3.499   1.606   5.834 -0.0065 -1.4286 -0.4575
 2302SOL     OW18541   3.385   2.412   7.903  0.2573  0.0590 -0.1196
 2302SOL    HW118542   3.431   2.328   7.904  3.4104  1.7676 -2.5505
 2302SOL    HW218543   3.323   2.389   7.972 -0.3288  0.4496 -0.5138
 2303SOL     OW18544   4.434   2.062   9.272 -0.4775  0.3271  0.2903
 2303SOL    HW118545   4.350   2.105   9.285 -0.0209  1.5198 -0.7046
 2303SOL    HW218546   4.477   2.121   9.210 -0.9231 -1.0505 -1.3384
 2304SOL     OW18547   1.737   1.638  14.279  0.4894  0.6346  0.7189
 2304SOL    HW118548   1.723   1.581  14.354  0.4741 -1.6805 -1.0601
 2304SOL    HW218549   1.824   1.603  14.259  0.4331  0.9662 -0.0724
 2305SOL     OW18550   1.193   1.369   3.472 -0.5116  0.0374  0.9365
 2305SOL    HW118551   1.287   1.362   3.462 -0.7298 -1.8029  0.2217
 2305SOL    HW218552   1.186   1.316   3.552  0.5795 -3.0237 -1.0122
 2306SOL     OW18553   2.161   3.262   0.529 -0.1179  0.2687  0.0833
 2306SOL    HW118554   2.145   3.315   0.452  1.1429 -2.3333 -1.9775
 2306SOL    HW218555   2.254   3.255   0.507 -0.3484  2.3094 -1.4538
 2307SOL     OW18556   2.771   4.561   7.888  0.1506  0.0948  0.4660
 2307SOL    HW118557   2.817   4.608   7.957  1.0379  1.6008 -1.1533
 2307SOL    HW218558   2.678   4.575   7.908 -0.1316 -0.2722 -0.5869
 2308SOL     OW18559   2.813   3.450   3.953 -0.0424 -0.4616 -0.1962
 2308SOL    HW118560   2.804   3.361   3.987  1.9030 -0.7770 -0.5393
 2308SOL    HW218561   2.881   3.497   4.000  0.3206  0.6060 -1.8236
 2309SOL     OW18562   0.191   1.061   2.171  0.0282 -0.3406  0.0255
 2309SOL    HW118563   0.177   0.971   2.200  2.9633 -0.3499  1.4064
 2309SOL    HW218564   0.222   1.036   2.084  0.8852 -0.4496  0.3586
 2310SOL     OW18565   2.427   2.914   7.801  0.3076  0.1613  0.0970
 2310SOL    HW118566   2.401   2.927   7.892  1.2870 -1.5721  0.6227
 2310SOL    HW218567   2.521   2.921   7.818  0.8521 -2.2272 -1.9294
 2311SOL     OW18568   0.504   2.917  16.241  0.4686 -0.9455 -0.2534
 2311SOL    HW118569   0.590   2.888  16.270 -0.8871 -1.8387  2.8552
 2311SOL    HW218570   0.490   2.850  16.175 -0.5578 -3.2486  2.3283
 2312SOL     OW18571   0.727   2.546   2.441 -0.0083  0.0668  0.1839
 2312SOL    HW118572   0.822   2.533   2.441 -0.0960 -0.5618 -2.1529
 2312SOL    HW218573   0.724   2.638   2.468 -1.8475  0.1755 -0.3936
 2313SOL     OW18574   4.391   3.274   8.069 -0.3018  0.0295 -0.0954
 2313SOL    HW118575   4.338   3.230   8.003 -0.2952  1.2635 -0.9363
 2313SOL    HW218576   4.346   3.246   8.148 -2.1724  2.4971 -0.2844
 2314SOL     OW18577   1.878   3.264   4.466 -0.7172 -0.3966 -0.6826
 2314SOL    HW118578   1.785   3.244   4.474 -0.8950  0.2258 -1.1991
 2314SOL    HW218579   1.918   3.193   4.414  0.5157  0.9365 -1.5768
 2315SOL     OW18580   3.227   1.475   5.822 -0.1798 -0.4750  0.0215
 2315SOL    HW118581   3.271   1.483   5.737  1.4218 -0.2109  0.8760
 2315SOL    HW218582   3.294   1.504   5.883 -0.2318 -0.0976 -0.1021
 2316SOL     OW18583   0.380   0.776   4.582 -0.3940  0.0495  0.4141
 2316SOL    HW118584   0.371   0.871   4.589  1.1140  0.0849  1.8153
 2316SOL    HW218585   0.374   0.753   4.674  0.4215 -1.3397  0.1211
 2317SOL     OW18586   1.869   2.356   2.594  0.1395 -0.3786  0.2779
 2317SOL    HW118587   1.928   2.283   2.614 -0.7177 -1.0922  0.2198
 2317SOL    HW218588   1.917   2.433   2.626  0.8345 -0.5924 -0.2488
 2318SOL     OW18589   3.855   2.249   5.036  0.3512 -0.2510  0.2263
 2318SOL    HW118590   3.773   2.278   4.995  1.5833  0.7764 -1.4990
 2318SOL    HW218591   3.910   2.310   4.986 -0.9027  1.0306  0.3979
 2319SOL     OW18592   2.453   2.412   3.183 -0.0010 -0.3806 -0.5172
 2319SOL    HW118593   2.478   2.504   3.192 -3.4612  0.3665  1.2183
 2319SOL    HW218594   2.538   2.368   3.183  0.5596  0.6884  0.2786
 2320SOL     OW18595   3.717   4.439  11.975 -0.1121  0.6754  0.1450
 2320SOL    HW118596   3.727   4.472  11.886  0.9096  1.6241  0.6106
 2320SOL    HW218597   3.806   4.406  11.980  0.0520  1.2290  0.9857
 2321SOL     OW18598   0.517   3.382   2.861 -0.2916  0.3611  0.3513
 2321SOL    HW118599   0.422   3.379   2.847 -0.2725 -2.7558  0.9864
 2321SOL    HW218600   0.544   3.303   2.814  0.7605  0.5199  0.6929
 2322SOL     OW18601   3.340   0.653   9.450 -0.0179  0.1380  0.6026
 2322SOL    HW118602   3.367   0.592   9.381 -0.5750 -2.5944  2.8257
 2322SOL    HW218603   3.319   0.592   9.521  0.5269 -0.0862  0.5693
 2323SOL     OW18604   3.325   4.528   3.529  0.3317 -0.8989 -0.0166
 2323SOL    HW118605   3.411   4.512   3.569  0.7859  0.5231 -0.4566
 2323SOL    HW218606   3.306   4.451   3.475 -1.9021 -1.6310  1.7974
 2324SOL     OW18607   0.112   1.344  14.295  0.6006 -0.1952 -0.1869
 2324SOL    HW118608   0.116   1.439  14.294 -0.1233 -0.1673 -0.0596
 2324SOL    HW218609   0.043   1.336  14.230 -0.9433  1.1187  1.3131
 2325SOL     OW18610   0.401   3.677   8.118  0.0114 -0.0723 -0.3540
 2325SOL    HW118611   0.372   3.690   8.027  0.4693 -1.2220 -0.6562
 2325SOL    HW218612   0.417   3.770   8.134 -0.1054 -0.3981  1.5983
 2326SOL     OW18613   0.444   0.131   4.682  0.2975  0.5601 -0.1240
 2326SOL    HW118614   0.438   0.106   4.774 -1.7838 -0.7591 -0.6247
 2326SOL    HW218615   0.427   0.042   4.651  2.1615  0.9751 -2.3696
 2327SOL     OW18616   3.883   1.545   4.730  0.1469 -0.5547  0.1879
 2327SOL    HW118617   3.932   1.610   4.681 -0.3415 -0.6252 -0.3895
 2327SOL    HW218618   3.817   1.513   4.669  1.0134  1.1821 -1.6812
 2328SOL     OW18619   3.947   4.698  11.381  0.1338 -0.2211  0.2861
 2328SOL    HW118620   4.030   0.004  11.375 -0.1798 -0.0198 -2.5673
 2328SOL    HW218621   3.889   0.026  11.351  2.3834  1.1411 -0.9405
 2329SOL     OW18622   1.031   1.638   3.081  0.0430 -0.1155 -0.1365
 2329SOL    HW118623   1.106   1.671   3.132  0.2115 -0.1194 -0.3826
 2329SOL    HW218624   1.005   1.563   3.134  0.1953 -0.0590  0.0200
 2330SOL     OW18625   3.710   2.467   1.780 -0.7319  0.2469  0.2543
 2330SOL    HW118626   3.697   2.449   1.687 -0.7746  1.8926 -0.0420
 2330SOL    HW218627   3.792   2.516   1.784 -2.0255  2.3726  0.5173
 2331SOL     OW18628   4.342   3.695   7.438  0.0141  0.1406  0.2160
 2331SOL    HW118629   4.263   3.723   7.391 -0.8011 -1.1121  0.8405
 2331SOL    HW218630   4.342   3.600   7.431  0.1931  0.1472  0.1376
 2332SOL     OW18631   1.298   2.206   9.107 -0.4039  0.0498  0.2578
 2332SOL    HW118632   1.253   2.260   9.171 -0.8863  0.0095 -0.0537
 2332SOL    HW218633   1.386   2.224   9.141 -0.4560  0.2491  0.2881
 2333SOL     OW18634   1.784   1.508   3.159  0.3757  0.3572  0.0331
 2333SOL    HW118635   1.787   1.505   3.063  0.0365  1.6081 -0.0117
 2333SOL    HW218636   1.873   1.482   3.179  0.7759  0.8578 -1.1185
 2334SOL     OW18637   2.462   2.062  16.014 -0.0746 -0.6498  0.1905
 2334SOL    HW118638   2.369   2.065  15.990  0.7016 -0.0814 -2.7850
 2334SOL    HW218639   2.489   2.049  15.923  0.2727  0.3733  0.1410
 2335SOL     OW18640   1.946   3.986   2.777 -0.7531  0.0619 -0.0343
 2335SOL    HW118641   1.954   3.955   2.687  0.1480  0.1629  0.0021
 2335SOL    HW218642   1.869   3.935   2.801 -0.3828 -1.1692 -1.4872
 2336SOL     OW18643   0.318   3.332  11.644 -0.1211 -0.1768  0.0357
 2336SOL    HW118644   0.293   3.331  11.551  1.2926 -0.9888 -0.3224
 2336SOL    HW218645   0.403   3.374  11.635 -0.1635 -0.4819 -1.7167
 2337SOL     OW18646   4.074   3.785   4.268 -0.0166 -0.1341  0.7128
 2337SOL    HW118647   4.140   3.717   4.281 -3.0569 -3.4654 -1.1740
 2337SOL    HW218648   4.096   3.808   4.178  1.2224  0.0169  1.0596
 2338SOL     OW18649   4.345   4.375   5.340  0.5176  0.6077 -0.2445
 2338SOL    HW118650   4.422   4.372   5.282 -0.1697 -1.1461 -1.0828
 2338SOL    HW218651   4.268   4.362   5.284  2.9272 -1.6704 -3.0663
 2339SOL     OW18652   1.301   1.302  10.327 -0.2094  0.0585 -0.4254
 2339SOL    HW118653   1.352   1.350  10.262 -0.2919 -1.5026 -1.6456
 2339SOL    HW218654   1.217   1.323  10.285 -1.5582 -0.3359  2.0735
 2340SOL     OW18655   1.373   0.050   8.708  0.3088 -0.0567  0.2497
 2340SOL    HW118656   1.337   4.708   8.735 -0.1342  0.8514  2.4613
 2340SOL    HW218657   1.463   0.019   8.715  0.9180  1.9459  1.1852
 2341SOL     OW18658   4.287   3.863  12.612  0.1056 -0.3778 -0.4100
 2341SOL    HW118659   4.344   3.796  12.649 -1.7211 -1.0323  1.2204
 2341SOL    HW218660   4.225   3.874  12.684 -0.0830 -1.5233 -0.4079
 2342SOL     OW18661   3.929   3.621  14.333 -0.7674  0.0499 -0.2650
 2342SOL    HW118662   3.880   3.689  14.380  0.3379  1.6798 -1.4714
 2342SOL    HW218663   3.878   3.548  14.367 -0.5451 -0.0842 -0.2153
 2343SOL     OW18664   4.386   2.964   3.608  0.6116 -0.1645 -0.5315
 2343SOL    HW118665   4.361   2.993   3.520 -1.7697  1.3578  0.6501
 2343SOL    HW218666   4.418   2.876   3.589 -0.9889 -0.8263 -0.1223
 2344SOL     OW18667   3.448   3.721   2.142  0.2129 -0.2932 -0.0859
 2344SOL    HW118668   3.371   3.684   2.186 -0.2875  0.0203 -0.6894
 2344SOL    HW218669   3.459   3.652   2.076  0.2441  1.8440 -2.3243
 2345SOL     OW18670   2.825   1.755  14.190 -0.5689 -0.1729 -0.0307
 2345SOL    HW118671   2.848   1.769  14.098 -2.0286 -0.1512 -0.3844
 2345SOL    HW218672   2.797   1.841  14.221 -0.5499 -0.7294  1.5028
 2346SOL     OW18673   0.518   4.007   7.774 -0.0121  0.4020 -0.1859
 2346SOL    HW118674   0.512   3.929   7.829  0.3598  0.5893  0.1193
 2346SOL    HW218675   0.610   4.009   7.749  0.1028  0.1832  0.2225
 2347SOL     OW18676   0.102   0.150   0.663 -0.1149  0.6179 -0.0962
 2347SOL    HW118677   0.094   0.239   0.697 -0.3924  0.1457  1.0583
 2347SOL    HW218678   0.024   0.108   0.698  1.7341 -1.8852  0.9837
 2348SOL     OW18679   1.417   0.159  15.956  0.1433 -0.3517  0.2332
 2348SOL    HW118680   1.363   0.155  16.035  0.4661  0.5901  0.4975
 2348SOL    HW218681   1.365   0.107  15.895 -0.0134  0.8650 -0.6529
 2349SOL     OW18682   3.551   4.741  12.001 -0.4530 -0.2797 -0.2725
 2349SOL    HW118683   3.599   4.678  12.055 -0.0958 -0.3959 -0.7301
 2349SOL    HW218684   3.627   0.038  11.958 -0.3748 -0.6987 -0.5104
 2350SOL     OW18685   1.152   1.679  10.561  0.2269 -0.0844  0.7548
 2350SOL    HW118686   1.118   1.661  10.473 -0.3538 -1.1956  1.2214
 2350SOL    HW218687   1.239   1.706  10.529 -0.8128  0.7454 -1.4278
 2351SOL     OW18688   3.217   1.455   1.049  0.1143  0.8762  0.3494
 2351SOL    HW118689   3.290   1.394   1.053 -1.3156 -0.7479  1.3973
 2351SOL    HW218690   3.258   1.529   1.004  3.4107 -0.6310  0.9091
 2352SOL     OW18691   3.125   1.266   3.335  0.4855 -0.2086  0.4663
 2352SOL    HW118692   3.136   1.361   3.333  1.2836 -0.2674  2.2977
 2352SOL    HW218693   3.167   1.252   3.419 -1.9005 -1.1507  1.5001
 2353SOL     OW18694   4.048   1.523   7.034 -0.0803 -0.2517  0.5012
 2353SOL    HW118695   4.015   1.545   7.121 -2.0696 -0.3344 -0.2387
 2353SOL    HW218696   3.969   1.485   6.996  0.2713  1.0329 -1.4992
 2354SOL     OW18697   2.723   4.493   2.737  0.7521 -0.1819 -0.0769
 2354SOL    HW118698   2.708   4.570   2.792 -3.4063 -0.0279 -1.4640
 2354SOL    HW218699   2.811   4.464   2.764  0.3928 -0.3522  0.9061
 2355SOL     OW18700   0.795   3.864   6.471  0.0540 -0.2559 -0.4177
 2355SOL    HW118701   0.877   3.855   6.519 -0.8731  0.5860  1.3659
 2355SOL    HW218702   0.755   3.940   6.514  0.7337  0.5556 -1.2091
 2356SOL     OW18703   3.124   1.983  17.571 -0.1895  0.0048 -0.0708
 2356SOL    HW118704   3.117   2.030  17.654  0.5937  2.5710 -1.4740
 2356SOL    HW218705   3.194   1.923  17.598 -0.6506 -0.5679 -0.1324
 2357SOL     OW18706   1.015   0.144   2.143  0.5286  0.0090  0.1699
 2357SOL    HW118707   0.961   0.184   2.211  0.8624  1.3771 -0.3584
 2357SOL    HW218708   0.964   0.187   2.074  0.9175 -1.2315 -0.8946
 2358SOL     OW18709   2.019   2.208   8.921  0.8828 -0.2620 -0.0985
 2358SOL    HW118710   1.927   2.229   8.938  1.5303  3.0409 -0.6678
 2358SOL    HW218711   2.012   2.117   8.891 -1.1291 -0.3237  0.5455
 2359SOL     OW18712   3.574   0.748  12.962  0.5995  0.7362 -0.2058
 2359SOL    HW118713   3.596   0.667  12.916 -0.1342  0.8275 -0.7094
 2359SOL    HW218714   3.658   0.795  12.969  1.4279 -0.6096 -1.1348
 2360SOL     OW18715   0.116   3.123  14.629 -0.1904 -0.6544 -0.3227
 2360SOL    HW118716   0.167   3.055  14.673 -0.0592 -0.1455  0.3123
 2360SOL    HW218717   0.114   3.190  14.698  0.3332  0.1073 -1.0557
 2361SOL     OW18718   0.837   2.126   5.294  0.3184  0.2484 -0.3135
 2361SOL    HW118719   0.801   2.184   5.227  1.4707  3.5762  1.9365
 2361SOL    HW218720   0.894   2.069   5.243 -0.0562  0.4540 -0.9626
 2362SOL     OW18721   3.424   1.563   5.243  0.1694 -0.5923 -0.0998
 2362SOL    HW118722   3.519   1.573   5.242  0.1596 -0.4817  0.1169
 2362SOL    HW218723   3.409   1.557   5.337  2.4113 -0.6256  0.2522
 2363SOL     OW18724   3.242   0.806   4.983  0.3109 -0.2078  0.2319
 2363SOL    HW118725   3.328   0.847   4.988  0.5766 -0.5137 -1.9021
 2363SOL    HW218726   3.267   0.716   4.960  0.2617 -0.3134  0.5786
 2364SOL     OW18727   4.128   0.789   4.291  0.6259 -0.3554 -0.4300
 2364SOL    HW118728   4.102   0.818   4.379  0.0149 -0.3855 -0.6036
 2364SOL    HW218729   4.202   0.731   4.308 -0.0653 -1.5595 -1.4941
 2365SOL     OW18730   0.327   2.741   6.601  0.4924 -0.1576  0.3607
 2365SOL    HW118731   0.346   2.826   6.560 -1.2473 -1.2349 -2.6601
 2365SOL    HW218732   0.327   2.771   6.692 -1.1110  1.1735 -0.0723
 2366SOL     OW18733   0.861   0.521   2.613  0.3784 -0.3990  0.0739
 2366SOL    HW118734   0.779   0.471   2.613  0.1092  0.0425 -2.0164
 2366SOL    HW218735   0.910   0.471   2.678  0.6042  1.2660  1.1690
 2367SOL     OW18736   2.194   0.794   8.418 -0.2304  0.2441 -0.2420
 2367SOL    HW118737   2.235   0.874   8.385 -1.6479  1.2270  0.4003
 2367SOL    HW218738   2.121   0.840   8.460  0.0323  1.2425 -0.8794
 2368SOL     OW18739   1.903   0.042   4.361 -0.2151  0.7813  0.5797
 2368SOL    HW118740   1.998   0.042   4.364 -0.2049  0.0435  0.1651
 2368SOL    HW218741   1.883   0.032   4.454  0.1673 -1.4019  0.4066
 2369SOL     OW18742   3.959   0.178   1.467 -0.6371  0.0637  0.1918
 2369SOL    HW118743   4.035   0.120   1.471 -1.6203 -1.2145  0.2684
 2369SOL    HW218744   3.970   0.216   1.380 -1.5585 -2.7235 -1.1257
 2370SOL     OW18745   0.687   0.599   4.949 -0.1057  0.1502 -0.1697
 2370SOL    HW118746   0.701   0.631   4.860  1.6436  0.2909  0.1577
 2370SOL    HW218747   0.644   0.520   4.918  1.4603 -1.1598  1.0298
 2371SOL     OW18748   2.445   3.724  16.279 -0.4027 -0.0608 -0.8473
 2371SOL    HW118749   2.504   3.777  16.225  1.9623 -1.1091  0.7085
 2371SOL    HW218750   2.486   3.638  16.273  1.0450  0.5382  0.2612
 2372SOL     OW18751   3.635   0.364   1.414 -0.2706 -0.1006  0.0788
 2372SOL    HW118752   3.628   0.372   1.510  1.4649 -1.8878  0.3549
 2372SOL    HW218753   3.687   0.444   1.408  0.4304 -0.5749 -0.1672
 2373SOL     OW18754   2.582   3.683   4.354  0.0229  0.1954 -0.1205
 2373SOL    HW118755   2.533   3.734   4.418  0.8101 -0.5862  1.1189
 2373SOL    HW218756   2.637   3.623   4.406 -0.0299 -1.3022 -1.7835
 2374SOL     OW18757   1.870   0.446  15.790  0.0096 -0.3083 -0.1417
 2374SOL    HW118758   1.803   0.500  15.748 -0.1766  0.6157  1.3118
 2374SOL    HW218759   1.954   0.490  15.781 -1.2293  2.3015  0.9652
 2375SOL     OW18760   4.590   3.346  12.175  0.4757 -0.8326  0.7696
 2375SOL    HW118761   4.637   3.415  12.130  1.2074 -0.9909  1.2898
 2375SOL    HW218762   4.594   3.276  12.110 -0.0578  0.8625 -1.0994
 2376SOL     OW18763   3.880   4.621   3.127  0.1835  0.0573  0.1961
 2376SOL    HW118764   3.888   4.577   3.042 -2.6162 -1.0821  0.5179
 2376SOL    HW218765   3.935   4.564   3.180 -1.4491 -2.3129 -0.6750
 2377SOL     OW18766   4.578   3.965  10.323 -0.1399  0.0684  0.7656
 2377SOL    HW118767   4.655   4.016  10.299  1.1389 -1.5856  1.3232
 2377SOL    HW218768   4.518   4.017  10.269 -1.0595 -0.2545  1.4814
 2378SOL     OW18769   3.079   3.171  12.038  0.6235 -0.0103  0.3985
 2378SOL    HW118770   3.173   3.158  12.029  0.6209 -0.5764  1.2220
 2378SOL    HW218771   3.066   3.136  12.126 -3.1061  0.6400  0.1063
 2379SOL     OW18772   0.244   0.292  17.725 -0.5031  0.4453  0.6183
 2379SOL    HW118773   0.283   0.222   0.012 -2.9235 -0.8524  0.7244
 2379SOL    HW218774   0.156   0.254  17.718  0.5209 -1.5551 -1.3502
 2380SOL     OW18775   2.378   1.807   1.546  0.4505  0.2383  0.1947
 2380SOL    HW118776   2.376   1.767   1.459 -2.2011 -0.1815  0.4545
 2380SOL    HW218777   2.345   1.732   1.595  1.1797 -1.5001 -1.9971
 2381SOL     OW18778   4.016   1.629  16.730  0.4945  0.2044 -0.0723
 2381SOL    HW118779   3.926   1.604  16.709 -0.1535  0.7587  1.9777
 2381SOL    HW218780   4.037   1.690  16.660  0.4307 -2.2517 -2.2227
 2382SOL     OW18781   1.669   4.220  13.863 -0.3756 -0.1142  0.4870
 2382SOL    HW118782   1.765   4.223  13.858 -0.5870  3.6118 -1.5451
 2382SOL    HW218783   1.646   4.312  13.879 -2.6363 -0.7308  0.7170
 2383SOL     OW18784   3.267   4.298   4.614 -0.8356 -0.1365 -0.0624
 2383SOL    HW118785   3.264   4.206   4.641 -3.1008 -0.2877 -0.7967
 2383SOL    HW218786   3.197   4.334   4.669  1.8251  0.8159  2.7106
 2384SOL     OW18787   2.118   0.537   3.483 -0.2880 -0.3305  0.3816
 2384SOL    HW118788   2.124   0.443   3.463 -0.1158  0.0151 -1.2310
 2384SOL    HW218789   2.092   0.529   3.574  0.2729  1.4833  0.6862
 2385SOL     OW18790   4.183   3.007  17.635 -0.4135  0.1253  0.4460
 2385SOL    HW118791   4.138   2.923  17.648  1.4349 -0.8960  0.2005
 2385SOL    HW218792   4.134   3.085  17.658  0.4264  1.1548 -1.2554
 2386SOL     OW18793   2.388   0.342   5.444 -0.0371 -0.8070 -0.6308
 2386SOL    HW118794   2.442   0.373   5.371  0.8393 -0.9660 -0.0597
 2386SOL    HW218795   2.305   0.390   5.440 -0.5866 -1.8357 -1.5158
 2387SOL     OW18796   3.668   3.480   4.204 -0.2300  0.3625 -0.1082
 2387SOL    HW118797   3.729   3.466   4.277 -1.6864 -2.3474  0.5958
 2387SOL    HW218798   3.695   3.563   4.164 -2.8679  1.4234  0.3239
 2388SOL     OW18799   4.511   1.610   1.663  0.0543 -1.1004  0.0630
 2388SOL    HW118800   4.486   1.566   1.744  2.1304 -1.4277  0.5251
 2388SOL    HW218801   4.602   1.581   1.648  0.5415 -0.8322  2.4671
 2389SOL     OW18802   3.274   0.855   6.984 -0.0226  0.1912 -0.5953
 2389SOL    HW118803   3.271   0.792   7.056  2.0667 -0.6205 -1.2354
 2389SOL    HW218804   3.230   0.800   6.918 -0.9831  0.4111 -0.1474
 2390SOL     OW18805   3.141   2.689   3.267  0.1336  0.8388 -0.2034
 2390SOL    HW118806   3.121   2.773   3.308  1.6712  1.3140 -0.4102
 2390SOL    HW218807   3.227   2.710   3.230  0.8680  0.5352  1.3226
 2391SOL     OW18808   2.442   4.733   6.231 -0.1128 -0.0941  0.4464
 2391SOL    HW118809   2.530   4.721   6.195 -0.6851  0.6555 -1.2227
 2391SOL    HW218810   2.378   4.733   6.160  1.7351 -1.2309 -1.2269
 2392SOL     OW18811   0.217   0.878   8.759 -0.2242 -0.4877  0.0733
 2392SOL    HW118812   0.271   0.950   8.726  1.5128 -0.7290  2.4561
 2392SOL    HW218813   0.248   0.873   8.849  0.5198 -0.0185 -0.1607
 2393SOL     OW18814   1.290   2.368   6.352 -0.6076 -0.0404  0.1265
 2393SOL    HW118815   1.354   2.437   6.370 -0.5617  0.0149 -0.2551
 2393SOL    HW218816   1.344   2.288   6.355 -1.4428 -0.5739  0.8124
 2394SOL     OW18817   1.160   0.092   5.365  0.0092 -0.1455  0.2615
 2394SOL    HW118818   1.136   0.088   5.272 -0.0673 -0.1436  0.2804
 2394SOL    HW218819   1.241   0.042   5.360 -1.6811 -2.6648 -1.6441
 2395SOL     OW18820   2.307   3.816   7.604  0.1658  0.0077  1.1430
 2395SOL    HW118821   2.226   3.813   7.554  0.9562  0.2205 -0.1540
 2395SOL    HW218822   2.371   3.781   7.542  1.7228  1.0225  2.1646
 2396SOL     OW18823   1.116   2.412  17.108 -0.1883 -0.1640 -0.3889
 2396SOL    HW118824   1.147   2.503  17.106 -0.7616  0.0382 -0.1354
 2396SOL    HW218825   1.198   2.364  17.101  0.7981  1.3699  0.4557
 2397SOL     OW18826   2.142   1.214   8.064  0.2979  0.0986 -0.1574
 2397SOL    HW118827   2.220   1.269   8.055  0.5105 -0.3159 -0.7894
 2397SOL    HW218828   2.075   1.267   8.021  0.5009  0.6475  0.1924
 2398SOL     OW18829   2.205   1.856   9.379  0.0697  0.2548  0.0919
 2398SOL    HW118830   2.127   1.839   9.431  0.7985 -0.5650  0.9120
 2398SOL    HW218831   2.244   1.931   9.423  0.2091  0.4216 -0.3094
 2399SOL     OW18832   1.077   2.204   8.121 -0.0376 -0.1177  0.1970
 2399SOL    HW118833   1.040   2.192   8.034  1.6642  0.0997 -0.5649
 2399SOL    HW218834   1.082   2.113   8.148  1.7862  0.1347  0.7223
 2400SOL     OW18835   2.725   0.027   7.351 -0.4015  0.4493  0.3122
 2400SOL    HW118836   2.794   0.091   7.369 -0.8226  1.0586 -0.2356
 2400SOL    HW218837   2.643   0.074   7.366  0.4377  1.4224  1.7596
 2401SOL     OW18838   0.457   1.042   5.175  0.4081 -0.1375  0.8325
 2401SOL    HW118839   0.495   1.026   5.261  2.0806 -0.0238  0.1125
 2401SOL    HW218840   0.410   0.959   5.166  0.3433 -0.2532  2.2529
 2402SOL     OW18841   3.725   3.355   7.056 -0.0181  0.3748 -0.6308
 2402SOL    HW118842   3.643   3.399   7.031  0.3414  0.2913 -1.9963
 2402SOL    HW218843   3.788   3.399   7.000  0.3422  1.5787  0.7481
 2403SOL     OW18844   4.394   2.394   8.108  0.4018  0.4583  0.5924
 2403SOL    HW118845   4.333   2.361   8.174  0.6208  0.0121  0.5723
 2403SOL    HW218846   4.480   2.355   8.126  0.4455  0.7744  1.0558
 2404SOL     OW18847   2.465   3.738   5.912  0.2053  0.1199  0.0794
 2404SOL    HW118848   2.408   3.787   5.853 -0.0775 -2.0215 -1.4215
 2404SOL    HW218849   2.439   3.770   5.999  1.0174 -0.3940  0.5138
 2405SOL     OW18850   2.368   2.436  13.128  0.2763 -0.4647 -0.0150
 2405SOL    HW118851   2.384   2.483  13.046 -2.4882 -0.0976 -0.3550
 2405SOL    HW218852   2.442   2.376  13.125  0.3277 -0.3684 -0.7858
 2406SOL     OW18853   1.605   1.439   0.197 -0.1775  0.1640  0.1130
 2406SOL    HW118854   1.683   1.492   0.211  0.2134 -0.7702  1.4618
 2406SOL    HW218855   1.548   1.513   0.174 -2.0181 -1.2026  0.2314
 2407SOL     OW18856   4.523   2.348  12.510  0.1155  0.0239 -0.0246
 2407SOL    HW118857   4.538   2.442  12.511 -1.6300  0.2945  0.9317
 2407SOL    HW218858   4.499   2.332  12.419  1.4597 -2.3190  0.0133
 2408SOL     OW18859   0.551   0.600   4.505  0.2968  0.1129 -0.4122
 2408SOL    HW118860   0.508   0.515   4.510 -1.4013  1.0125  0.4077
 2408SOL    HW218861   0.483   0.664   4.529  0.7132  0.5950 -0.5080
 2409SOL     OW18862   3.512   0.767   4.457  0.4611  0.4121 -0.6208
 2409SOL    HW118863   3.458   0.823   4.401  0.2536 -1.6598 -2.5223
 2409SOL    HW218864   3.594   0.770   4.408  0.7795  0.1860 -0.1004
 2410SOL     OW18865   3.711   4.580   5.432 -0.6384  0.1039 -1.2565
 2410SOL    HW118866   3.663   4.631   5.367  0.1111 -0.5369 -2.3083
 2410SOL    HW218867   3.756   4.635   5.495 -1.6949 -1.8133  1.2070
 2411SOL     OW18868   0.618   0.804   3.448  0.0462 -0.1211 -0.2183
 2411SOL    HW118869   0.525   0.796   3.468 -0.1620 -0.7859 -1.4787
 2411SOL    HW218870   0.618   0.899   3.434  0.5525 -0.3029 -1.4659
 2412SOL     OW18871   3.117   2.123   7.756  0.2681  0.1930 -0.5397
 2412SOL    HW118872   3.113   2.075   7.673 -0.0216 -1.7416  0.5863
 2412SOL    HW218873   3.108   2.212   7.721 -0.3302  0.3841  0.0910
 2413SOL     OW18874   0.416   3.565   7.031 -0.1275 -0.0454 -0.1697
 2413SOL    HW118875   0.491   3.623   7.024 -0.6314  0.6785  0.3974
 2413SOL    HW218876   0.436   3.489   7.086  0.3485 -0.0731 -0.3850
 2414SOL     OW18877   2.155   0.830  13.348 -0.1266 -0.1954  0.2882
 2414SOL    HW118878   2.174   0.839  13.254  0.6957  1.4069  0.6083
 2414SOL    HW218879   2.100   0.908  13.358  0.9960  0.7000 -0.5833
 2415SOL     OW18880   2.702   1.088   5.729  0.5512 -0.7211 -0.1233
 2415SOL    HW118881   2.750   1.074   5.810 -0.5732 -2.2227  0.2829
 2415SOL    HW218882   2.763   1.043   5.670  0.2333  0.5851 -1.4265
 2416SOL     OW18883   4.015   3.122   7.174  0.3125  0.9188 -0.5598
 2416SOL    HW118884   4.110   3.129   7.165  0.3823  0.5506 -0.0850
 2416SOL    HW218885   3.996   3.214   7.193  2.6690  1.6578 -1.8314
 2417SOL     OW18886   2.622   1.702   1.287 -0.1667 -0.5656  0.0831
 2417SOL    HW118887   2.680   1.754   1.343 -1.4327 -1.6589  2.4246
 2417SOL    HW218888   2.650   1.614   1.312  1.2509  0.0810  0.7553
 2418SOL     OW18889   2.942   1.416  15.081 -0.0631  0.0508  0.6152
 2418SOL    HW118890   3.023   1.460  15.107  0.0019  2.0333 -2.8155
 2418SOL    HW218891   2.908   1.488  15.028  0.1874 -0.7111 -0.5901
 2419SOL     OW18892   0.196   2.644   1.352 -0.0227  0.1568 -0.2697
 2419SOL    HW118893   0.128   2.691   1.305 -1.0416 -1.2588 -0.2315
 2419SOL    HW218894   0.266   2.660   1.289  1.4765  1.1861  1.6518
 2420SOL     OW18895   0.677   3.987  10.139  0.2694  0.0727 -0.4351
 2420SOL    HW118896   0.627   3.925  10.193  0.1990  0.4059 -0.1108
 2420SOL    HW218897   0.665   3.959  10.048  3.0168  1.6835 -1.2835
 2421SOL     OW18898   3.669   2.829   0.429  0.4885  0.7696 -0.0381
 2421SOL    HW118899   3.685   2.874   0.346 -1.5545  2.7261  0.6225
 2421SOL    HW218900   3.754   2.849   0.469  0.1993 -0.1711  1.0402
 2422SOL     OW18901   3.132   3.120   1.564 -0.0665 -0.3630 -0.0166
 2422SOL    HW118902   3.184   3.191   1.526 -0.9166  0.5729  0.5627
 2422SOL    HW218903   3.128   3.057   1.491 -0.6187 -0.8903  0.4683
 2423SOL     OW18904   4.158   4.736   7.788 -0.0235  0.3176 -0.1737
 2423SOL    HW118905   4.082   0.005   7.730 -0.1741  1.6760  0.2850
 2423SOL    HW218906   4.160   4.641   7.799 -2.5219  0.1857 -0.7916
 2424SOL     OW18907   2.578   3.561   3.629  0.9387  0.1608  0.0542
 2424SOL    HW118908   2.488   3.552   3.660  0.4879  0.4996 -1.1639
 2424SOL    HW218909   2.620   3.482   3.663 -2.3564 -1.7532 -0.3053
 2425SOL     OW18910   2.801   0.711   7.647  0.7544  0.1451 -0.7471
 2425SOL    HW118911   2.758   0.795   7.635 -0.6310 -0.4985 -0.2345
 2425SOL    HW218912   2.798   0.683   7.555 -1.6995  0.0656 -0.6430
 2426SOL     OW18913   3.516   0.279   3.268 -0.3752 -0.2073 -0.4512
 2426SOL    HW118914   3.537   0.187   3.253 -0.0363 -0.6637  2.7642
 2426SOL    HW218915   3.422   0.284   3.283 -0.1155 -0.8934  1.4662
 2427SOL     OW18916   1.687   2.775   8.581 -0.0332 -0.2301 -0.2403
 2427SOL    HW118917   1.604   2.810   8.615 -0.1547 -1.2749  0.5177
 2427SOL    HW218918   1.651   2.706   8.526  0.2571  0.2607 -1.0378
 2428SOL     OW18919   3.592   4.544   2.620 -0.0627  0.3083  0.2115
 2428SOL    HW118920   3.561   4.584   2.539 -0.0274 -1.3521 -0.6345
 2428SOL    HW218921   3.663   4.490   2.584  1.4443 -0.1207  3.8112
 2429SOL     OW18922   3.464   2.027   4.581  0.4480 -0.2580  0.0815
 2429SOL    HW118923   3.492   1.935   4.583 -0.6261 -0.5649  1.5102
 2429SOL    HW218924   3.430   2.033   4.671 -0.8829 -0.6089 -0.3881
 2430SOL     OW18925   1.057   0.035   0.092  0.3401 -0.2822  0.0589
 2430SOL    HW118926   1.070   0.000   0.181  0.4637  1.1257  0.5928
 2430SOL    HW218927   0.970   0.017   0.059  0.6087 -0.3214 -0.6172
 2431SOL     OW18928   0.358   1.000  13.714 -0.2073 -0.2204 -0.0885
 2431SOL    HW118929   0.396   1.043  13.791  0.4196  1.6223 -1.4379
 2431SOL    HW218930   0.409   1.041  13.645 -1.1727  1.2347  0.0684
 2432SOL     OW18931   2.462   0.972   2.518 -0.1371  0.5394  0.9296
 2432SOL    HW118932   2.422   0.885   2.518  0.2755  0.3427 -1.2844
 2432SOL    HW218933   2.389   1.035   2.517  0.3260  1.0176 -1.4521
 2433SOL     OW18934   3.183   2.571   9.317  0.1484  0.2907  0.5908
 2433SOL    HW118935   3.173   2.523   9.399  0.1456  3.2368  2.3159
 2433SOL    HW218936   3.172   2.661   9.347  1.7048  0.4106  0.7953
 2434SOL     OW18937   3.326   3.611   4.893  0.0999 -0.0817 -0.2114
 2434SOL    HW118938   3.387   3.539   4.876 -0.1628 -0.8316  1.9712
 2434SOL    HW218939   3.281   3.623   4.809  0.0714 -0.4910 -0.2537
 2435SOL     OW18940   3.846   2.994   2.654 -0.3051 -0.2839  0.3280
 2435SOL    HW118941   3.888   2.908   2.649  2.1114  0.7720  2.6721
 2435SOL    HW218942   3.764   2.978   2.700 -1.1748  1.8105 -0.4779
 2436SOL     OW18943   1.639   0.532   5.900  0.5968 -0.0214 -0.0240
 2436SOL    HW118944   1.573   0.474   5.862 -0.3730  1.1946 -0.1910
 2436SOL    HW218945   1.586   0.601   5.941  0.2390  0.3286 -1.0804
 2437SOL     OW18946   0.742   3.908   7.501 -0.1064  0.1686  0.0623
 2437SOL    HW118947   0.773   3.923   7.412  1.9360  0.6013  0.8537
 2437SOL    HW218948   0.779   3.983   7.548 -0.4047  1.0630 -1.1248
 2438SOL     OW18949   1.084   1.522  17.472  0.6577  0.0931 -0.0445
 2438SOL    HW118950   1.153   1.567  17.520 -1.7657  0.7878  2.7488
 2438SOL    HW218951   1.010   1.582  17.482 -1.0501 -2.2115  1.0223
 2439SOL     OW18952   2.955   3.900   6.559  0.2365  0.0561 -0.7241
 2439SOL    HW118953   2.997   3.911   6.644 -2.5397 -1.9801  0.9219
 2439SOL    HW218954   3.003   3.837   6.505  2.0175 -0.2995  1.2963
 2440SOL     OW18955   0.295   1.423   1.714  1.2750 -0.6639 -0.3434
 2440SOL    HW118956   0.382   1.388   1.735  0.8298 -1.2607  0.4874
 2440SOL    HW218957   0.281   1.481   1.789  2.4504 -3.3493  1.9736
 2441SOL     OW18958   2.385   1.645   8.439 -0.2046 -0.0401 -0.1026
 2441SOL    HW118959   2.444   1.686   8.503  0.6728 -1.1801 -0.1922
 2441SOL    HW218960   2.452   1.603   8.385  0.9034  0.0938  1.1573
 2442SOL     OW18961   2.889   0.473   0.005  0.2769  0.3044 -0.1779
 2442SOL    HW118962   2.816   0.426   0.044  1.0916 -0.0025  0.9496
 2442SOL    HW218963   2.917   0.538   0.069 -0.1851 -0.3226  0.6673
 2443SOL     OW18964   3.313   1.434  16.798 -0.3955 -0.3625 -0.3106
 2443SOL    HW118965   3.249   1.489  16.844 -0.4373  1.1305 -2.1239
 2443SOL    HW218966   3.269   1.350  16.785  2.3949 -2.0323  0.9667
 2444SOL     OW18967   1.971   1.127  10.109  0.0898 -0.3458 -0.2472
 2444SOL    HW118968   1.942   1.039  10.131  1.2974 -0.4669  0.8296
 2444SOL    HW218969   2.034   1.116  10.038 -1.4719 -2.4443 -1.3033
 2445SOL     OW18970   0.366   3.720  17.550 -0.3113 -0.1771  0.0344
 2445SOL    HW118971   0.403   3.648  17.499 -1.6028 -1.3599  0.7755
 2445SOL    HW218972   0.432   3.788  17.535 -3.8015  2.5465 -3.0431
 2446SOL     OW18973   1.307   1.534  15.755  0.1949  0.1221 -0.4121
 2446SOL    HW118974   1.322   1.502  15.666  3.9551 -1.0818  0.6654
 2446SOL    HW218975   1.212   1.535  15.759  0.3037 -1.3190  2.6298
 2447SOL     OW18976   3.291   3.596   3.280  0.7115  0.1657 -0.1458
 2447SOL    HW118977   3.358   3.576   3.215  1.1046 -2.3033  1.0169
 2447SOL    HW218978   3.336   3.635   3.356 -1.4670  0.4309  1.0212
 2448SOL     OW18979   3.397   4.300   4.976 -1.0361 -0.4676 -0.5102
 2448SOL    HW118980   3.371   4.392   4.971  0.5903  0.0659  0.5043
 2448SOL    HW218981   3.446   4.303   5.059 -0.6812 -0.4521 -0.7220
 2449SOL     OW18982   0.162   2.670   1.767 -0.2773 -0.2591  0.4393
 2449SOL    HW118983   0.196   2.682   1.855 -0.1400  1.1254  0.1973
 2449SOL    HW218984   0.198   2.744   1.718  1.7793 -2.0455 -0.7566
 2450SOL     OW18985   0.544   3.775  17.206  0.5194 -0.1842 -0.9128
 2450SOL    HW118986   0.493   3.855  17.209 -0.4044 -0.8084  0.1001
 2450SOL    HW218987   0.629   3.814  17.226 -0.3715  1.5667 -0.6247
 2451SOL     OW18988   0.214   1.963   7.250  0.0934 -0.1075  0.2204
 2451SOL    HW118989   0.269   1.891   7.217  0.7173 -0.7684  2.7186
 2451SOL    HW218990   0.153   1.977   7.178 -1.4689 -1.7589  1.2383
 2452SOL     OW18991   4.392   2.049   3.488 -0.0075  0.1412 -0.5037
 2452SOL    HW118992   4.411   2.126   3.540  1.3953  1.4683 -2.9622
 2452SOL    HW218993   4.422   1.979   3.546 -0.7421 -1.0113 -1.5191
 2453SOL     OW18994   0.737   4.182  14.994 -0.3717 -0.3232  0.4847
 2453SOL    HW118995   0.787   4.175  15.075  2.3835 -1.1616 -1.2953
 2453SOL    HW218996   0.792   4.224  14.927 -1.6317 -0.4451 -0.6413
 2454SOL     OW18997   2.338   0.686   6.592 -0.5293 -0.0227 -0.2142
 2454SOL    HW118998   2.287   0.686   6.674 -1.2491  0.8823 -0.6639
 2454SOL    HW218999   2.299   0.765   6.555 -1.5827 -0.9953 -1.1617
 2455SOL     OW19000   1.139   2.925   3.218 -0.8944 -0.0498  0.4358
 2455SOL    HW119001   1.066   2.865   3.203 -1.4648  1.5171 -3.0194
 2455SOL    HW219002   1.148   2.896   3.309  0.4603  0.2438  0.3967
 2456SOL     OW19003   2.100   1.546  15.174 -0.2466 -0.1660 -0.0952
 2456SOL    HW119004   2.144   1.565  15.256 -0.0033  2.7581 -0.8890
 2456SOL    HW219005   2.168   1.497  15.128  1.2801  2.3212 -0.4987
 2457SOL     OW19006   1.012   1.217   5.728  0.2946  0.1593 -0.1099
 2457SOL    HW119007   1.082   1.173   5.679 -0.9674  0.9786 -2.6903
 2457SOL    HW219008   1.020   1.310   5.707  1.6033  0.5045  1.9521
 2458SOL     OW19009   3.141   4.640   7.292  0.3198  0.2323 -0.2165
 2458SOL    HW119010   3.178   4.617   7.378 -1.4853  0.1730  0.5340
 2458SOL    HW219011   3.218   4.631   7.235 -0.2553 -0.4544 -0.8801
 2459SOL     OW19012   1.432   0.948   6.134  0.2118 -0.3325  0.0042
 2459SOL    HW119013   1.515   0.995   6.138 -0.4366  0.7748  0.4493
 2459SOL    HW219014   1.365   1.016   6.137 -0.4061 -0.9540  0.4276
 2460SOL     OW19015   3.613   4.087  12.219 -0.4547 -0.3248 -0.5000
 2460SOL    HW119016   3.605   4.101  12.124  0.1372 -0.5799 -0.5906
 2460SOL    HW219017   3.668   4.009  12.212 -0.4356 -0.1641 -2.0984
 2461SOL     OW19018   1.455   4.231   0.783 -0.4268 -0.1462  0.3351
 2461SOL    HW119019   1.516   4.287   0.735 -0.6471 -1.1254 -1.0768
 2461SOL    HW219020   1.408   4.199   0.706 -2.0691 -0.7916  1.6130
 2462SOL     OW19021   1.861   2.314   8.324  0.2770  0.1899 -0.0562
 2462SOL    HW119022   1.862   2.330   8.418  0.2755 -3.6586  0.5821
 2462SOL    HW219023   1.782   2.265   8.300  0.5552  0.2354 -1.0863
 2463SOL     OW19024   2.229   1.794   1.936 -0.3583  0.3134  0.1445
 2463SOL    HW119025   2.210   1.715   1.885 -1.6473  1.1878 -0.7258
 2463SOL    HW219026   2.167   1.802   2.009 -0.0930 -1.2025  0.5357
 2464SOL     OW19027   0.952   0.967   2.506 -0.2521 -0.1223  0.2341
 2464SOL    HW119028   1.004   0.907   2.559 -1.3764 -2.5793 -1.4559
 2464SOL    HW219029   0.868   0.950   2.548 -0.9442 -1.2659 -1.5966
 2465SOL     OW19030   0.502   4.511   6.712 -0.3502 -0.5072 -0.6346
 2465SOL    HW119031   0.419   4.487   6.755 -0.1056  0.6628  0.5159
 2465SOL    HW219032   0.482   4.596   6.673 -0.0516  1.0820  2.6323
 2466SOL     OW19033   2.957   3.427   6.158  0.4080 -0.5272  0.2516
 2466SOL    HW119034   2.876   3.473   6.138  2.5494  2.2152 -2.1359
 2466SOL    HW219035   2.933   3.374   6.234 -0.8684 -0.5310 -0.1530
 2467SOL     OW19036   2.819   0.270  11.550 -0.5797 -0.9914  0.2190
 2467SOL    HW119037   2.821   0.347  11.607  0.6003 -0.2454 -0.8431
 2467SOL    HW219038   2.818   0.204  11.619  2.5197 -1.3266 -0.0718
 2468SOL     OW19039   4.086   0.899   3.651  0.2492 -0.7095 -0.6469
 2468SOL    HW119040   4.010   0.944   3.687  0.5804  0.1040 -0.9609
 2468SOL    HW219041   4.154   0.933   3.708 -0.6693  0.8975 -0.5101
 2469SOL     OW19042   2.817   3.474   2.251  0.5656  0.5764 -0.0809
 2469SOL    HW119043   2.883   3.505   2.313  0.2732  1.1824 -0.0671
 2469SOL    HW219044   2.735   3.508   2.288  0.5989  0.0594  0.4645
 2470SOL     OW19045   1.371   4.286   4.147 -0.0466 -0.4523 -0.2155
 2470SOL    HW119046   1.383   4.288   4.242  0.0879 -0.2756 -0.2354
 2470SOL    HW219047   1.439   4.346   4.116 -1.5863  1.2519 -0.3459
 2471SOL     OW19048   2.668   0.963   4.416 -0.1509  0.1744  0.4183
 2471SOL    HW119049   2.746   0.909   4.422 -0.0937  0.0395 -1.5955
 2471SOL    HW219050   2.672   1.027   4.487  2.2473  0.8727 -0.3587
 2472SOL     OW19051   0.133   2.093   5.630  0.6224 -0.2619  0.4733
 2472SOL    HW119052   0.143   2.001   5.653 -0.7679 -0.2331  1.1799
 2472SOL    HW219053   0.187   2.148   5.686  0.5866 -1.2536  1.4735
 2473SOL     OW19054   3.148   2.444   9.547 -0.2257  0.0187  0.3007
 2473SOL    HW119055   3.085   2.388   9.593 -1.5683  0.9479 -0.3984
 2473SOL    HW219056   3.217   2.434   9.613 -0.7199  0.9391  0.9495
 2474SOL     OW19057   3.344   3.650   8.781  0.1749  0.1477 -0.4955
 2474SOL    HW119058   3.398   3.590   8.834  1.7598  0.2322 -2.0192
 2474SOL    HW219059   3.314   3.718   8.841 -1.4668 -0.5151 -0.5635
 2475SOL     OW19060   4.704   3.900   7.101 -0.2378  0.2787  0.5322
 2475SOL    HW119061   4.609   3.909   7.108 -0.1243  1.3117  0.6790
 2475SOL    HW219062   4.723   3.979   7.050  1.3221 -0.0698  0.5664
 2476SOL     OW19063   3.919   1.029   6.062 -0.1126 -0.2320  0.2844
 2476SOL    HW119064   3.953   1.110   6.101 -4.0484  1.5841 -0.0602
 2476SOL    HW219065   3.938   0.969   6.134  0.9617  0.4041  0.5341
 2477SOL     OW19066   1.929   2.933   7.991 -0.0907 -0.3106  0.1765
 2477SOL    HW119067   1.927   2.855   7.936  0.0797  1.1071 -1.8307
 2477SOL    HW219068   2.009   2.978   7.961  0.4123  0.4216  2.5831
 2478SOL     OW19069   1.543   2.073   4.166 -0.2740 -0.1393  0.0928
 2478SOL    HW119070   1.629   2.037   4.144  0.7956  1.4364  1.7034
 2478SOL    HW219071   1.571   2.164   4.179 -1.0144 -0.0217  0.8800
 2479SOL     OW19072   0.397   1.779   4.534 -1.0142  0.1811  0.3169
 2479SOL    HW119073   0.443   1.700   4.506  0.0604  0.8235  0.2587
 2479SOL    HW219074   0.461   1.843   4.502 -1.3440  1.0238  1.3528
 2480SOL     OW19075   1.737   3.254  14.645  0.0042 -0.2807  0.0008
 2480SOL    HW119076   1.778   3.170  14.668 -1.7822 -0.8781  0.9416
 2480SOL    HW219077   1.713   3.231  14.555  1.3836 -0.6695 -0.2823
 2481SOL     OW19078   2.030   0.772  16.305 -0.5049  0.8079 -0.7397
 2481SOL    HW119079   2.007   0.806  16.219  0.2317  0.0332 -1.2352
 2481SOL    HW219080   1.946   0.733  16.329  2.1303 -2.2780  3.5190
 2482SOL     OW19081   1.137   0.903  11.296 -0.2438  0.0575  0.2462
 2482SOL    HW119082   1.158   0.995  11.281  2.4042 -1.0318 -2.7899
 2482SOL    HW219083   1.224   0.868  11.280 -0.3015  0.6611 -1.4254
 2483SOL     OW19084   1.536   0.657   6.554 -0.2671  0.2221 -0.2033
 2483SOL    HW119085   1.523   0.631   6.463  1.4010 -2.4374  0.3016
 2483SOL    HW219086   1.528   0.753   6.553  0.9513  0.3479  1.8633
 2484SOL     OW19087   0.495   2.789   0.291  0.2198  0.2620 -0.6711
 2484SOL    HW119088   0.522   2.864   0.343  0.8460  0.4837 -1.3195
 2484SOL    HW219089   0.434   2.751   0.355 -2.4610  0.6529 -2.9739
 2485SOL     OW19090   0.885   3.863   6.054  0.0597 -0.0406  0.1702
 2485SOL    HW119091   0.886   3.790   5.992 -1.9945  0.0320  0.0660
 2485SOL    HW219092   0.804   3.845   6.101 -0.5077 -1.1895 -1.2404
 2486SOL     OW19093   0.569   2.678   0.066 -0.0322 -0.0724 -0.0550
 2486SOL    HW119094   0.541   2.718   0.148 -0.7257 -0.9092  0.1151
 2486SOL    HW219095   0.557   2.586   0.091 -1.7530  0.2583  0.3118
 2487SOL     OW19096   1.574   3.887   7.755 -0.6540 -0.7980 -0.0383
 2487SOL    HW119097   1.648   3.942   7.783 -0.4557 -0.5205 -1.1376
 2487SOL    HW219098   1.504   3.909   7.817 -1.9304 -0.3156 -1.6796
 2488SOL     OW19099   2.548   3.706   7.478  0.1226 -0.2669 -0.2942
 2488SOL    HW119100   2.510   3.764   7.413 -0.8566 -1.9945 -1.2603
 2488SOL    HW219101   2.640   3.727   7.462  0.4167 -1.8759 -0.6785
 2489SOL     OW19102   4.214   2.705   0.065 -0.0911  0.5904 -0.0856
 2489SOL    HW119103   4.137   2.705   0.007 -0.8169 -0.0607  0.8947
 2489SOL    HW219104   4.172   2.756   0.134 -0.6379  0.5779 -0.4071
 2490SOL     OW19105   2.767   4.402   8.313  0.4564  0.1138 -0.4648
 2490SOL    HW119106   2.762   4.426   8.405  0.5170  0.0098 -0.4336
 2490SOL    HW219107   2.673   4.400   8.292  0.2586  0.6006  0.4078
 2491SOL     OW19108   3.059   0.659   9.364 -0.4617  0.0515  0.1472
 2491SOL    HW119109   3.058   0.568   9.393  1.1572  0.3583  1.0992
 2491SOL    HW219110   3.147   0.679   9.393 -0.5789 -0.5277  0.9019
 2492SOL     OW19111   3.699   2.945  13.257  0.6092  0.2600 -0.2982
 2492SOL    HW119112   3.645   3.010  13.304  0.8331 -0.6967  1.2621
 2492SOL    HW219113   3.787   2.979  13.271 -0.2211  3.2580 -2.4077
 2493SOL     OW19114   0.980   0.703   3.404 -0.6719 -0.3892 -0.2542
 2493SOL    HW119115   1.020   0.774   3.454 -1.5438  0.3620 -0.6113
 2493SOL    HW219116   1.058   0.666   3.363  0.9119  0.9067  1.5986
 2494SOL     OW19117   3.336   2.731   5.166 -0.3795  0.3465 -0.1131
 2494SOL    HW119118   3.353   2.795   5.235 -0.1769 -0.6943  0.8063
 2494SOL    HW219119   3.312   2.784   5.090 -1.9876 -1.9139 -1.1832
 2495SOL     OW19120   0.131   2.431   3.620  0.3541  0.1470 -0.3337
 2495SOL    HW119121   0.050   2.380   3.610 -0.0195  0.7655 -0.4617
 2495SOL    HW219122   0.115   2.468   3.706 -0.5976 -1.0998  0.0351
 2496SOL     OW19123   2.740   1.728  15.062 -0.0292  0.0662  0.0033
 2496SOL    HW119124   2.823   1.776  15.072 -0.4193  1.0894 -1.6850
 2496SOL    HW219125   2.766   1.684  14.981  1.5073 -0.0774  0.5691
 2497SOL     OW19126   1.744   2.176   6.839 -1.2109 -0.2042 -0.1091
 2497SOL    HW119127   1.823   2.167   6.785 -0.3582  4.0805  0.3702
 2497SOL    HW219128   1.703   2.092   6.822 -1.3770 -0.4110  1.3193
 2498SOL     OW19129   4.428   3.147   6.196  0.0187 -0.2660 -0.1051
 2498SOL    HW119130   4.462   3.230   6.162 -0.0684  0.6057  1.9222
 2498SOL    HW219131   4.365   3.188   6.256 -1.4508 -3.1105  0.2690
 2499SOL     OW19132   2.152   1.667  14.011  0.2485 -0.3434 -0.1533
 2499SOL    HW119133   2.060   1.694  14.004  0.6583  0.8802 -0.9258
 2499SOL    HW219134   2.195   1.743  13.971  0.8514 -0.7159 -0.2046
 2500SOL     OW19135   1.343   4.013   1.976 -0.5337  0.2220 -0.8351
 2500SOL    HW119136   1.343   3.973   1.889 -0.8009 -2.8509  0.5851
 2500SOL    HW219137   1.418   4.072   1.979 -0.5586  0.2596 -0.9429
 2501SOL     OW19138   1.703   4.568   0.138 -0.6298 -0.4411  0.4483
 2501SOL    HW119139   1.751   4.509   0.196 -0.5880 -1.7330 -0.8965
 2501SOL    HW219140   1.633   4.509   0.108 -0.0915 -1.7128  1.6634
 2502SOL     OW19141   3.573   1.244   8.141  0.3849  0.0633 -0.0014
 2502SOL    HW119142   3.529   1.184   8.081  0.1345 -0.3975  0.6495
 2502SOL    HW219143   3.499   1.292   8.178  0.5176  1.7591 -1.9416
 2503SOL     OW19144   0.716   2.341  15.099 -0.4122 -0.7988  0.1336
 2503SOL    HW119145   0.720   2.425  15.053 -1.5693  0.2175  1.9050
 2503SOL    HW219146   0.742   2.373  15.186  0.4364  1.8554 -1.0993
 2504SOL     OW19147   4.038   2.524   2.395 -0.3320 -0.7097 -0.5235
 2504SOL    HW119148   4.089   2.508   2.475 -1.7653  0.0950  0.5502
 2504SOL    HW219149   3.992   2.440   2.400 -0.7695 -0.4416 -0.0001
 2505SOL     OW19150   1.248   3.783  15.741  0.4668 -0.4786 -0.4610
 2505SOL    HW119151   1.198   3.816  15.667  2.0933 -0.3611 -1.4867
 2505SOL    HW219152   1.288   3.709  15.696  0.3815  0.3512 -1.8963
 2506SOL     OW19153   3.096   3.396   3.364 -0.2350  0.1779  0.1984
 2506SOL    HW119154   3.133   3.440   3.288 -3.3163 -2.3082 -2.7811
 2506SOL    HW219155   3.107   3.457   3.437 -1.7590 -0.1966  0.7437
 2507SOL     OW19156   0.310   0.999   4.716  0.1493  0.6384 -0.3166
 2507SOL    HW119157   0.300   1.083   4.760 -1.5479  0.2197  0.0914
 2507SOL    HW219158   0.294   0.940   4.790  1.8099  2.8777  1.8208
 2508SOL     OW19159   2.496   0.349   2.910  0.0477  0.0924 -0.0334
 2508SOL    HW119160   2.440   0.423   2.885 -2.3965 -2.4519 -2.1786
 2508SOL    HW219161   2.465   0.294   2.838  2.0057 -0.2156 -0.6366
 2509SOL     OW19162   0.712   2.301   2.576 -0.4363 -0.0836 -0.8267
 2509SOL    HW119163   0.704   2.387   2.535  0.0104  0.3741  0.0621
 2509SOL    HW219164   0.764   2.329   2.650  0.2538 -2.3129 -0.4748
 2510SOL     OW19165   3.121   4.091   5.154  0.3897 -0.0553  0.2620
 2510SOL    HW119166   3.184   4.143   5.204  2.1006 -1.8235 -0.0590
 2510SOL    HW219167   3.153   4.093   5.063 -2.1791 -0.5672 -0.6614
 2511SOL     OW19168   4.238   1.090   5.317 -0.7352  0.7887 -0.0453
 2511SOL    HW119169   4.168   1.123   5.260 -1.9600 -1.2945  0.2430
 2511SOL    HW219170   4.264   1.014   5.266  0.7829  0.8093  0.6994
 2512SOL     OW19171   3.348   2.551   2.145  0.2931 -0.1825 -0.1284
 2512SOL    HW119172   3.386   2.638   2.157  2.4465 -1.2613  0.9748
 2512SOL    HW219173   3.418   2.515   2.092  1.8428  1.3366  0.8655
 2513SOL     OW19174   2.612   0.280   4.840 -0.4007  0.4367 -0.5625
 2513SOL    HW119175   2.706   0.287   4.855 -0.1706 -3.1171 -0.5001
 2513SOL    HW219176   2.612   0.279   4.744 -1.0988 -0.0072 -0.5598
 2514SOL     OW19177   3.048   0.658   8.592  0.0479  0.7399 -0.3363
 2514SOL    HW119178   3.019   0.656   8.683 -0.1543  0.1340 -0.4114
 2514SOL    HW219179   3.081   0.568   8.583 -0.6113  0.6816 -2.3243
 2515SOL     OW19180   4.273   0.640   5.345 -0.1401  0.0477  0.1769
 2515SOL    HW119181   4.361   0.606   5.361  0.1472  0.3985 -0.6863
 2515SOL    HW219182   4.255   0.670   5.434 -0.5039  1.3389 -0.3346
 2516SOL     OW19183   2.098   0.860   4.567 -0.0769 -0.3766  0.1885
 2516SOL    HW119184   2.006   0.881   4.552  0.4783 -0.2029 -2.9951
 2516SOL    HW219185   2.122   0.948   4.596 -2.4166  0.0939  0.7426
 2517SOL     OW19186   2.509   1.836   8.787 -0.7906 -0.1791 -0.2725
 2517SOL    HW119187   2.550   1.753   8.813  0.0571  0.6169  0.9637
 2517SOL    HW219188   2.416   1.829   8.810 -0.9414  1.1125 -0.5178
 2518SOL     OW19189   0.651   2.968   7.784  0.4554 -0.2269 -0.0045
 2518SOL    HW119190   0.615   3.046   7.743 -1.4233 -0.4751  1.2182
 2518SOL    HW219191   0.719   3.010   7.837  1.1170  0.0029 -1.0358
 2519SOL     OW19192   0.583   1.057   3.379 -0.2833  0.2098 -0.1094
 2519SOL    HW119193   0.639   1.105   3.319  0.5554 -1.0964 -0.3866
 2519SOL    HW219194   0.539   1.128   3.425 -0.9092  0.7439 -1.5458
 2520SOL     OW19195   1.142   1.497   4.978  0.0274  1.0812 -0.4745
 2520SOL    HW119196   1.177   1.423   5.026 -0.6147  0.9492 -0.2100
 2520SOL    HW219197   1.195   1.566   5.018  0.7136  0.5573 -0.4815
 2521SOL     OW19198   0.963   3.422   0.281 -0.0285 -0.5384  0.2257
 2521SOL    HW119199   0.951   3.376   0.198 -1.9264 -1.3730  0.9633
 2521SOL    HW219200   0.976   3.512   0.252 -2.3266 -0.0717  0.6744
 2522SOL     OW19201   2.168   3.707  11.361  0.0306 -0.2617  0.0021
 2522SOL    HW119202   2.217   3.751  11.431  0.6188 -0.2483 -0.4176
 2522SOL    HW219203   2.091   3.758  11.336  1.0545  0.2935 -1.9745
 2523SOL     OW19204   1.965   3.895   9.737 -0.1364 -0.1192  0.0188
 2523SOL    HW119205   2.006   3.830   9.679 -1.5773 -1.6201  0.6927
 2523SOL    HW219206   1.936   3.842   9.812  1.7522  1.3887  1.8255
 2524SOL     OW19207   1.831   4.469   5.662  0.4221 -0.1355 -0.1347
 2524SOL    HW119208   1.875   4.548   5.692  0.0576 -0.1327  0.3859
 2524SOL    HW219209   1.899   4.405   5.642  1.0779  1.6311 -3.6235
 2525SOL     OW19210   1.215   3.303   4.412 -0.3932 -0.0106 -0.3308
 2525SOL    HW119211   1.161   3.226   4.395  0.8755 -1.1949  0.9947
 2525SOL    HW219212   1.246   3.284   4.500 -1.7409  0.2373  0.1921
 2526SOL     OW19213   0.709   2.325   7.003  0.5608  0.4255 -0.8070
 2526SOL    HW119214   0.644   2.372   6.951 -1.4393 -1.7875 -0.2915
 2526SOL    HW219215   0.669   2.238   7.008 -0.7165  0.9779 -1.2691
 2527SOL     OW19216   0.328   1.272   2.827 -0.7565  0.7515 -0.0626
 2527SOL    HW119217   0.373   1.249   2.746  0.8885  0.7401  0.8315
 2527SOL    HW219218   0.327   1.183   2.863  0.1788  0.7319 -0.0696
 2528SOL     OW19219   4.119   3.476  11.914 -0.2297 -0.6380 -0.1313
 2528SOL    HW119220   4.183   3.546  11.908 -0.4329 -0.3088  1.4054
 2528SOL    HW219221   4.039   3.522  11.888 -0.9512 -0.8824  1.6121
 2529SOL     OW19222   0.745   1.092  17.506 -0.0179  0.5518 -0.3512
 2529SOL    HW119223   0.809   1.105  17.577 -1.1673  1.3886  0.5305
 2529SOL    HW219224   0.764   0.999  17.494 -0.4413  0.5832 -1.2053
 2530SOL     OW19225   2.518   0.016   8.113 -0.2308 -0.4246 -0.2592
 2530SOL    HW119226   2.435   4.715   8.134 -0.4610 -0.9162 -2.1490
 2530SOL    HW219227   2.494   0.061   8.032  0.7171 -0.6902 -0.6917
 2531SOL     OW19228   3.789   0.010   0.013 -0.4421  0.0459  0.4734
 2531SOL    HW119229   3.782   0.038  17.688 -0.0288  2.1329  1.0979
 2531SOL    HW219230   3.710   4.702   0.031  0.9000 -0.5235  4.7643
 2532SOL     OW19231   1.128   4.278   7.435 -0.1497  0.3797 -0.2327
 2532SOL    HW119232   1.158   4.290   7.525 -1.5656  0.0729  0.2808
 2532SOL    HW219233   1.200   4.324   7.392 -0.0425 -0.2719 -0.7443
 2533SOL     OW19234   0.541   3.146   2.719  0.5099  0.2803 -0.3350
 2533SOL    HW119235   0.591   3.207   2.664  1.1003 -1.2113 -1.4503
 2533SOL    HW219236   0.601   3.072   2.710  1.1917  0.8023 -0.1263
 2534SOL     OW19237   3.641   1.955   3.361 -0.5361 -0.1229  0.1177
 2534SOL    HW119238   3.735   1.963   3.377 -0.7374 -0.7315  1.5762
 2534SOL    HW219239   3.627   1.861   3.371  0.7351 -0.4997 -1.6458
 2535SOL     OW19240   3.208   4.702   2.929  0.6399  0.1243  0.2603
 2535SOL    HW119241   3.166   4.642   2.990  1.0101 -1.9850 -1.5924
 2535SOL    HW219242   3.134   0.012   2.897  1.2065 -1.1596 -3.1399
 2536SOL     OW19243   0.366   1.317   5.679  0.2367 -0.0625 -0.1914
 2536SOL    HW119244   0.329   1.265   5.749  1.2647 -1.5197 -0.7206
 2536SOL    HW219245   0.287   1.347   5.635  0.5438  0.6399 -0.2734
 2537SOL     OW19246   3.603   4.164   3.946 -0.3009  0.6318  0.3021
 2537SOL    HW119247   3.525   4.201   3.987 -0.1371  1.7714 -0.4128
 2537SOL    HW219248   3.578   4.167   3.854 -0.9866  0.9676  0.5009
 2538SOL     OW19249   1.108   3.372  15.109  0.0793 -0.1527 -0.1227
 2538SOL    HW119250   1.119   3.467  15.107  1.1909 -0.2979 -1.2778
 2538SOL    HW219251   1.103   3.356  15.204  1.3373  0.6016  0.0718
 2539SOL     OW19252   2.301   2.184   8.063 -0.3921  0.1858 -0.2827
 2539SOL    HW119253   2.356   2.106   8.077 -0.7449 -0.4399 -2.4618
 2539SOL    HW219254   2.235   2.172   8.131 -1.2067 -0.4687 -1.1864
 2540SOL     OW19255   2.583   0.755   9.994  0.1088 -0.2009  0.0008
 2540SOL    HW119256   2.563   0.788   9.907 -3.2121  0.0735  0.8681
 2540SOL    HW219257   2.587   0.661   9.974  1.0111 -0.7340  2.6956
 2541SOL     OW19258   1.625   0.995   0.183 -0.0843 -0.0743  0.0437
 2541SOL    HW119259   1.565   0.934   0.140 -0.5521 -1.0382  2.0476
 2541SOL    HW219260   1.704   1.007   0.131  1.3377  1.6558  2.5759
 2542SOL     OW19261   1.793   3.504   2.776  0.3282 -0.0860  0.1079
 2542SOL    HW119262   1.710   3.526   2.733  1.3520  2.0748 -0.7756
 2542SOL    HW219263   1.842   3.485   2.696 -0.6315 -0.6688 -0.3387
 2543SOL     OW19264   3.990   3.842   3.734 -0.4187 -0.3818  0.3566
 2543SOL    HW119265   3.918   3.780   3.722  0.2165 -1.2559  1.0187
 2543SOL    HW219266   4.058   3.802   3.679  0.0923  2.6202 -1.2189
 2544SOL     OW19267   1.615   2.230   6.579 -0.1706  0.0005 -0.3814
 2544SOL    HW119268   1.683   2.282   6.622 -2.0006  1.7638  0.3683
 2544SOL    HW219269   1.543   2.293   6.588 -0.1346 -0.1566  0.9434
 2545SOL     OW19270   1.466   0.375  12.619  0.2700  0.1268  0.0821
 2545SOL    HW119271   1.529   0.306  12.597 -0.5121 -0.8498  0.8675
 2545SOL    HW219272   1.452   0.342  12.708 -0.6450 -1.6428 -0.7018
 2546SOL     OW19273   3.231   1.929  16.949  0.8415  0.1883 -0.0444
 2546SOL    HW119274   3.170   1.966  16.885 -0.8382 -1.9299  0.3597
 2546SOL    HW219275   3.312   1.945  16.900  0.7730 -2.0689 -0.8787
 2547SOL     OW19276   3.377   4.372   7.645 -0.2414 -0.8097 -0.1006
 2547SOL    HW119277   3.437   4.367   7.719 -0.7589  0.7160  0.4120
 2547SOL    HW219278   3.416   4.302   7.593  3.0931  0.6262  0.4375
 2548SOL     OW19279   1.917   4.678   2.549 -0.0734 -0.7211 -0.2639
 2548SOL    HW119280   1.843   4.718   2.594  0.2435 -2.5022  1.8386
 2548SOL    HW219281   1.915   4.587   2.579 -1.5066 -0.4351  0.5177
 2549SOL     OW19282   3.848   0.051   5.901 -0.9155  0.5597 -0.1891
 2549SOL    HW119283   3.941   0.040   5.921 -0.4361 -0.2218 -2.8649
 2549SOL    HW219284   3.849   0.145   5.882  1.1576  0.4266 -0.8085
 2550SOL     OW19285   1.440   2.495   4.687  0.1909 -0.2623  0.6374
 2550SOL    HW119286   1.389   2.447   4.752 -0.8488  0.6686  0.5137
 2550SOL    HW219287   1.531   2.477   4.711  0.1996  1.3141  1.7889
 2551SOL     OW19288   3.477   2.021   1.289  0.7411  0.3311 -0.5949
 2551SOL    HW119289   3.423   2.018   1.368  0.7712 -1.4111 -0.6373
 2551SOL    HW219290   3.422   2.086   1.245  0.5580  0.8602  0.4167
 2552SOL     OW19291   1.075   1.090   8.848 -0.2635  0.4313  0.1040
 2552SOL    HW119292   1.085   1.028   8.776 -0.2690 -1.5631  1.8420
 2552SOL    HW219293   1.116   1.045   8.922 -3.5062 -1.7088  0.6052
 2553SOL     OW19294   2.828   0.395   8.808 -0.4457  0.5781 -0.0755
 2553SOL    HW119295   2.821   0.490   8.820 -0.0233  0.6640 -0.4877
 2553SOL    HW219296   2.837   0.367   8.899  1.5332 -1.8231 -1.0347
 2554SOL     OW19297   1.010   4.108  16.824  0.4097 -0.1849  0.2116
 2554SOL    HW119298   0.932   4.127  16.876 -1.9904  1.6405 -4.0237
 2554SOL    HW219299   0.961   4.079  16.747  0.7588  0.5445 -0.2902
 2555SOL     OW19300   1.798   0.269   6.767 -0.3434 -0.4552  0.6209
 2555SOL    HW119301   1.758   0.326   6.701 -0.6937 -0.5567  0.7486
 2555SOL    HW219302   1.864   0.328   6.806 -0.5027  0.8593 -1.0685
 2556SOL     OW19303   3.330   1.981   7.428 -0.3974 -0.3835  0.4573
 2556SOL    HW119304   3.334   1.896   7.473 -2.5031 -0.8608 -0.2058
 2556SOL    HW219305   3.392   2.034   7.477 -0.1197  0.7063 -1.0850
 2557SOL     OW19306   3.694   3.346   8.844 -0.0615 -0.3196  0.6300
 2557SOL    HW119307   3.664   3.433   8.870  0.4835 -0.4273  1.6082
 2557SOL    HW219308   3.631   3.320   8.777  0.8965 -0.7633 -0.1179
 2558SOL     OW19309   0.936   1.740   9.405  0.0776 -0.5111  0.2786
 2558SOL    HW119310   1.007   1.698   9.357 -1.1884 -1.1874 -0.9992
 2558SOL    HW219311   0.978   1.792   9.473  0.2977  0.5000 -0.6372
 2559SOL     OW19312   2.561   0.643   3.663  0.3288 -0.4014 -0.2862
 2559SOL    HW119313   2.626   0.677   3.725  1.1307 -1.8190 -0.3503
 2559SOL    HW219314   2.579   0.549   3.670 -0.8403 -0.6595 -0.8269
 2560SOL     OW19315   1.014   4.541   7.068  0.3734  0.4295  0.2131
 2560SOL    HW119316   1.079   4.480   7.032 -0.5014  0.4121 -1.3348
 2560SOL    HW219317   0.934   4.515   7.023  1.4595 -0.7347 -1.0853
 2561SOL     OW19318   1.672   2.715   3.826 -0.0150  0.0952 -0.0374
 2561SOL    HW119319   1.603   2.672   3.877  1.8371  0.7699  3.0480
 2561SOL    HW219320   1.659   2.805   3.855 -0.8090 -0.5108  1.5106
 2562SOL     OW19321   2.131   2.377   8.336  0.1487 -0.5731 -0.0178
 2562SOL    HW119322   2.065   2.308   8.324 -1.5325  0.9485  0.3808
 2562SOL    HW219323   2.097   2.421   8.414  0.9368  0.6208 -0.3558
 2563SOL     OW19324   3.193   0.696   7.182  0.3657 -0.0503  0.3586
 2563SOL    HW119325   3.200   0.721   7.275  1.2199 -0.6426  0.4518
 2563SOL    HW219326   3.181   0.604   7.203  2.3792 -0.8969 -2.2819
 2564SOL     OW19327   0.628   1.168   6.516 -0.4743 -0.4217  0.3788
 2564SOL    HW119328   0.687   1.199   6.585 -0.2772 -1.6986  0.7793
 2564SOL    HW219329   0.602   1.253   6.480  0.6615 -1.0653 -1.9136
 2565SOL     OW19330   0.531   3.070  11.754 -0.3081 -0.3699 -0.2771
 2565SOL    HW119331   0.457   3.011  11.770  0.5317 -1.8992 -2.0614
 2565SOL    HW219332   0.531   3.113  11.840 -0.9892  1.8664 -1.3994
 2566SOL     OW19333   2.317   3.117   6.495  0.8934 -0.2372  0.5332
 2566SOL    HW119334   2.238   3.063   6.494  0.9193 -0.2654 -1.5016
 2566SOL    HW219335   2.360   3.093   6.577  1.2421  0.3412  0.5187
 2567SOL     OW19336   1.907   4.328   4.580 -0.1651 -0.2873  0.2077
 2567SOL    HW119337   1.835   4.341   4.641 -3.4154 -1.1222 -3.4395
 2567SOL    HW219338   1.978   4.291   4.632  0.8410 -0.2221 -1.1046
 2568SOL     OW19339   0.015   2.910   5.719  0.3539 -0.3708 -0.3342
 2568SOL    HW119340   0.043   2.831   5.672  1.3705 -1.1404  1.5292
 2568SOL    HW219341   4.685   2.878   5.773 -1.4606  2.0200 -1.3779
 2569SOL     OW19342   2.423   4.710   5.747  0.1717 -0.1384 -0.1496
 2569SOL    HW119343   2.405   0.056   5.779  3.4874  0.6818 -0.5251
 2569SOL    HW219344   2.502   4.683   5.794 -1.1844 -2.2486  0.9463
 2570SOL     OW19345   2.624   3.955  14.872  0.2246  0.1004 -1.3111
 2570SOL    HW119346   2.621   4.051  14.869  1.8039  0.1727 -0.3872
 2570SOL    HW219347   2.549   3.940  14.814 -0.5365 -1.4332  0.0992
 2571SOL     OW19348   4.110   4.345   3.605 -0.0547  0.1458 -0.0858
 2571SOL    HW119349   4.074   4.259   3.628  1.4025 -0.3847  0.2278
 2571SOL    HW219350   4.165   4.357   3.682 -2.0190  1.5416  1.0928
 2572SOL     OW19351   2.964   4.685   7.671  0.2445  0.3822  0.4679
 2572SOL    HW119352   2.905   4.715   7.740  0.6578 -0.2095  1.0776
 2572SOL    HW219353   2.938   0.008   7.606 -1.8717  0.9339  1.8801
 2573SOL     OW19354   3.940   3.061   1.303 -0.1974 -0.0855  0.6451
 2573SOL    HW119355   3.995   3.025   1.234  0.4280  0.5891  0.7944
 2573SOL    HW219356   3.980   3.012   1.375 -0.2983  0.1180  0.8407
 2574SOL     OW19357   3.419   0.056   3.504  0.0030 -0.2299  0.1603
 2574SOL    HW119358   3.464   0.055   3.419  3.4513  1.4898  2.0061
 2574SOL    HW219359   3.382   4.710   3.507  1.3487 -0.9048 -2.9981
 2575SOL     OW19360   3.253   4.471   6.243  0.1996 -0.0392 -0.1288
 2575SOL    HW119361   3.249   4.376   6.239 -0.6633 -0.0646  1.3014
 2575SOL    HW219362   3.345   4.487   6.266  0.6612  1.6835 -3.1252
 2576SOL     OW19363   3.399   2.815   5.470 -0.0951  0.6818 -0.2059
 2576SOL    HW119364   3.417   2.909   5.471 -1.4061  0.9018  2.9424
 2576SOL    HW219365   3.319   2.813   5.523  0.1284 -2.4209  0.0009
 2577SOL     OW19366   2.165   4.132  14.495 -0.0115 -0.2049 -0.2566
 2577SOL    HW119367   2.108   4.092  14.560  3.1166 -2.1230  1.3114
 2577SOL    HW219368   2.207   4.200  14.547 -0.1430 -0.6276  0.3911
 2578SOL     OW19369   3.749   3.312   2.396 -1.2385 -0.3516  0.0026
 2578SOL    HW119370   3.668   3.362   2.408 -1.1040 -0.1777  0.1807
 2578SOL    HW219371   3.808   3.333   2.468 -1.7368 -1.6127  0.8018
 2579SOL     OW19372   3.923   4.507   2.879 -0.2303  0.0807  0.0270
 2579SOL    HW119373   3.915   4.432   2.819  1.3165 -0.4792  0.5102
 2579SOL    HW219374   3.879   4.572   2.824  2.5709 -0.6926 -3.1447
 2580SOL     OW19375   1.948   3.926   6.988  0.0377  0.1281 -0.1161
 2580SOL    HW119376   2.006   3.958   7.057  1.1836 -1.4880 -0.3360
 2580SOL    HW219377   2.006   3.891   6.921 -2.1751 -1.3359 -1.2489
 2581SOL     OW19378   4.238   2.153   5.283 -0.1128 -0.3584 -0.1689
 2581SOL    HW119379   4.333   2.146   5.274 -0.0979  2.5447 -2.2622
 2581SOL    HW219380   4.228   2.224   5.220 -1.5955 -0.4238  0.0045
 2582SOL     OW19381   4.511   3.994   2.696  0.4722 -0.3317  0.1834
 2582SOL    HW119382   4.470   4.079   2.709  0.6508 -0.8700  4.2029
 2582SOL    HW219383   4.551   3.976   2.781  1.6148 -0.3836 -0.3703
 2583SOL     OW19384   2.121   2.709   7.984  0.2429 -0.0394 -0.4301
 2583SOL    HW119385   2.117   2.804   7.996  0.4071 -0.3083  1.9165
 2583SOL    HW219386   2.162   2.702   7.898  2.2234 -1.8048  0.6451
 2584SOL     OW19387   0.704   0.522   6.537  0.3130  0.0780  0.1051
 2584SOL    HW119388   0.649   0.445   6.549  1.0935 -0.5401 -0.3121
 2584SOL    HW219389   0.774   0.516   6.602  0.2491 -1.0574  0.0673
 2585SOL     OW19390   1.910   3.457   3.013 -0.3371 -0.6251 -0.0127
 2585SOL    HW119391   1.890   3.470   2.920  2.1974  1.5152 -0.2462
 2585SOL    HW219392   1.870   3.372   3.030 -0.6359 -0.2441  1.2000
 2586SOL     OW19393   0.380   2.783  17.552  0.0857 -0.1694 -0.1459
 2586SOL    HW119394   0.336   2.725  17.490  1.8828 -0.4124 -1.2087
 2586SOL    HW219395   0.466   2.741  17.542 -0.1961 -0.8212  0.1703
 2587SOL     OW19396   4.442   3.415   7.542  0.3722 -0.3093  0.2536
 2587SOL    HW119397   4.380   3.381   7.478 -0.2964 -0.8377  1.1795
 2587SOL    HW219398   4.448   3.343   7.605 -1.5156 -0.0159  0.7858
 2588SOL     OW19399   3.146   4.281   3.452  0.4995  0.1167 -0.1696
 2588SOL    HW119400   3.108   4.264   3.366  0.3759  0.1059 -0.1134
 2588SOL    HW219401   3.194   4.201   3.470  3.1491  1.8616  0.5979
 2589SOL     OW19402   1.024   1.236   4.337  0.3573  0.0366 -0.2653
 2589SOL    HW119403   1.054   1.316   4.380 -0.3040  0.6055 -0.8618
 2589SOL    HW219404   1.062   1.249   4.250 -2.4269  2.7925 -1.0725
 2590SOL     OW19405   1.725   4.360   1.553 -0.1673 -0.0155  0.6017
 2590SOL    HW119406   1.779   4.427   1.594  2.1287  0.3384 -3.0584
 2590SOL    HW219407   1.784   4.327   1.486 -0.1867  0.5572  0.3089
 2591SOL     OW19408   1.868   3.911  10.075 -0.0744 -0.6766  0.6561
 2591SOL    HW119409   1.773   3.911  10.066 -0.0301 -1.4258  0.2288
 2591SOL    HW219410   1.884   4.002  10.103  2.6238 -0.5411 -1.2693
 2592SOL     OW19411   0.427   0.940  16.407 -0.3550  0.3837  0.2839
 2592SOL    HW119412   0.427   1.028  16.369  1.9195  1.0688  1.8790
 2592SOL    HW219413   0.467   0.886  16.338 -1.8168  0.8053 -0.8940
 2593SOL     OW19414   2.618   1.610   8.881  0.6920 -0.0133  0.3617
 2593SOL    HW119415   2.586   1.524   8.910  0.5624 -0.3826 -0.8715
 2593SOL    HW219416   2.690   1.621   8.943  0.6782  0.8537  0.2134
 2594SOL     OW19417   3.147   4.365  15.583 -0.2888  0.0570 -0.5059
 2594SOL    HW119418   3.241   4.345  15.583 -0.6081 -1.4258 -1.7262
 2594SOL    HW219419   3.147   4.456  15.611 -0.4170 -0.6573  1.8302
 2595SOL     OW19420   4.672   0.993   4.296 -0.1613  0.4077  0.9110
 2595SOL    HW119421   4.658   0.912   4.345 -0.1289  0.0494  0.3227
 2595SOL    HW219422   4.728   1.037   4.361  0.8076  1.7125 -0.8088
 2596SOL     OW19423   2.116   3.912  12.745  0.6346  0.1822  0.0511
 2596SOL    HW119424   2.125   3.912  12.650  1.4759  1.3875  0.1398
 2596SOL    HW219425   2.108   3.817  12.751 -0.7519  0.3810  1.1513
 2597SOL     OW19426   3.349   2.533   6.408 -0.0261  0.4156  0.1406
 2597SOL    HW119427   3.268   2.557   6.363 -0.0404 -2.2344 -1.2301
 2597SOL    HW219428   3.407   2.506   6.337  0.1857  0.4522  0.2985
 2598SOL     OW19429   0.169   4.027   1.983 -0.4069  0.1280  0.0127
 2598SOL    HW119430   0.242   4.082   2.011 -0.5140  0.8817 -1.1514
 2598SOL    HW219431   0.114   4.043   2.060  1.5327 -0.9896  1.6124
 2599SOL     OW19432   0.022   3.275   6.885  0.1902  0.1948 -0.1428
 2599SOL    HW119433   0.048   3.199   6.834 -2.7593  0.9863 -2.8376
 2599SOL    HW219434   4.669   3.275   6.874  0.1687 -1.3328  0.0742
 2600SOL     OW19435   3.935   4.315   7.275  0.3095 -0.5368 -0.0170
 2600SOL    HW119436   3.851   4.288   7.239 -0.3495  0.2127  0.9754
 2600SOL    HW219437   4.003   4.265   7.229  1.5274  1.0838  0.0118
 2601SOL     OW19438   1.882   0.692  11.247  0.8389 -0.2664  0.0311
 2601SOL    HW119439   1.848   0.750  11.315 -1.5760 -1.0754 -0.5152
 2601SOL    HW219440   1.930   0.759  11.198 -1.1539  1.2429  0.1400
 2602SOL     OW19441   2.866   1.687   8.723  0.2065 -0.2090  0.2606
 2602SOL    HW119442   2.783   1.693   8.770  0.3764 -0.2087  0.5573
 2602SOL    HW219443   2.883   1.593   8.733  0.8438 -0.0876  0.3383
 2603SOL     OW19444   1.216   0.441  12.947 -0.5082  0.0708  0.4606
 2603SOL    HW119445   1.155   0.450  13.020  0.6572  0.4837  1.3910
 2603SOL    HW219446   1.153   0.443  12.875 -0.3581  0.6506  0.3505
 2604SOL     OW19447   1.963   4.025   1.921 -0.0821  0.2243  0.2153
 2604SOL    HW119448   2.018   3.969   1.867  0.5953  0.6241  0.4846
 2604SOL    HW219449   2.006   4.010   2.005 -0.4440  0.7968  0.5048
 2605SOL     OW19450   2.469   0.564   6.147 -0.1446 -0.6899 -0.0489
 2605SOL    HW119451   2.498   0.648   6.183  0.2248 -0.1650 -1.6100
 2605SOL    HW219452   2.469   0.518   6.231 -1.3859 -0.0869  0.2754
 2606SOL     OW19453   4.377   4.381   5.954 -0.1076 -0.0082 -0.3093
 2606SOL    HW119454   4.311   4.312   5.948 -0.0757  0.0313 -1.1646
 2606SOL    HW219455   4.451   4.331   5.919 -0.9642 -0.6799 -1.1419
 2607SOL     OW19456   3.244   0.682   5.817 -0.2803  0.5453  0.0789
 2607SOL    HW119457   3.192   0.750   5.859  1.4860  1.4300  0.8216
 2607SOL    HW219458   3.253   0.616   5.886 -0.3964  0.3263 -0.1141
 2608SOL     OW19459   3.638   1.634   9.107 -0.2356 -0.0525 -0.3017
 2608SOL    HW119460   3.598   1.591   9.031  0.8465  0.6938 -1.2928
 2608SOL    HW219461   3.563   1.617   9.163 -0.3916  2.3797  0.1930
 2609SOL     OW19462   0.264   3.204   5.869 -0.0868  0.2447 -0.7519
 2609SOL    HW119463   0.312   3.124   5.848 -1.7579 -1.3294  1.4287
 2609SOL    HW219464   0.328   3.271   5.845  0.6182 -0.7612 -1.6625
 2610SOL     OW19465   1.655   3.590   7.094 -0.0534  0.4764 -0.5140
 2610SOL    HW119466   1.637   3.538   7.016 -0.5188 -0.6077  0.3206
 2610SOL    HW219467   1.586   3.655   7.080 -1.1627 -0.6651 -0.2672
 2611SOL     OW19468   2.923   0.686   1.400  0.1682  0.3699 -0.2299
 2611SOL    HW119469   2.911   0.759   1.460 -0.8247 -0.6601  0.8384
 2611SOL    HW219470   2.847   0.709   1.348  1.2405  2.2265 -0.9618
 2612SOL     OW19471   2.704   1.825  15.344 -0.5518  0.2078  0.0774
 2612SOL    HW119472   2.755   1.797  15.269 -0.4062 -0.7161  0.5262
 2612SOL    HW219473   2.724   1.759  15.410 -0.6521 -0.1353 -0.2360
 2613SOL     OW19474   2.605   1.176   4.611  0.3011 -0.0011 -0.5318
 2613SOL    HW119475   2.556   1.175   4.693 -0.8517 -0.8930 -1.2172
 2613SOL    HW219476   2.632   1.266   4.597  0.8016 -0.5215 -2.8810
 2614SOL     OW19477   4.518   3.462   6.434  0.7606  0.1768  0.0443
 2614SOL    HW119478   4.545   3.371   6.443 -1.6006 -0.3446  1.9059
 2614SOL    HW219479   4.566   3.493   6.357 -0.4455  3.9566  0.7879
 2615SOL     OW19480   0.658   0.031   7.575  0.5261 -0.2027  0.4835
 2615SOL    HW119481   0.706   0.039   7.492  0.9229 -2.9095  0.4519
 2615SOL    HW219482   0.717   0.081   7.630  0.3095  1.2111 -0.5593
 2616SOL     OW19483   2.486   0.328  10.387  0.2395  0.2098 -0.4658
 2616SOL    HW119484   2.576   0.300  10.374  0.8399  1.9058  0.0516
 2616SOL    HW219485   2.442   0.299  10.307 -1.6098  1.2424  0.1678
 2617SOL     OW19486   0.773   2.593   6.832 -0.6575 -0.1311  0.1400
 2617SOL    HW119487   0.678   2.588   6.844 -0.5842 -2.1818 -0.1633
 2617SOL    HW219488   0.807   2.628   6.914  1.4505 -0.4514 -0.6128
 2618SOL     OW19489   0.842   0.274   2.311  0.0288 -0.2056  0.0812
 2618SOL    HW119490   0.760   0.259   2.358 -0.1801 -0.8219 -0.4736
 2618SOL    HW219491   0.835   0.370   2.307  1.1415 -0.1273  0.0667
 2619SOL     OW19492   3.312   1.498   7.043  0.8560 -0.1679 -0.2805
 2619SOL    HW119493   3.253   1.555   7.093 -0.5167 -0.3562 -1.7154
 2619SOL    HW219494   3.301   1.529   6.953 -0.0439 -2.2003 -0.8511
 2620SOL     OW19495   0.523   2.467   8.210 -0.0257  0.2368 -0.0113
 2620SOL    HW119496   0.572   2.486   8.290 -0.1484 -0.5636  0.2492
 2620SOL    HW219497   0.445   2.420   8.239 -0.6567  1.4016  0.1769
 2621SOL     OW19498   1.525   3.476  14.078  0.0298 -0.0518  0.1569
 2621SOL    HW119499   1.503   3.553  14.024  0.9014 -0.1677 -0.3569
 2621SOL    HW219500   1.590   3.513  14.137  1.5155  0.6083 -1.8929
 2622SOL     OW19501   1.714   4.616   1.990 -0.2558 -0.2315 -0.2131
 2622SOL    HW119502   1.672   4.697   2.017  0.3570  0.3513 -0.9953
 2622SOL    HW219503   1.804   4.641   2.013 -0.7865  1.0160  0.4911
 2623SOL     OW19504   2.395   0.652  17.266 -0.4454  0.2386 -0.2486
 2623SOL    HW119505   2.413   0.661  17.360 -0.2472 -1.6361 -0.1160
 2623SOL    HW219506   2.412   0.735  17.221 -0.9445  0.6349  0.2873
 2624SOL     OW19507   2.016   2.414  10.686 -0.3603 -0.6296 -0.0678
 2624SOL    HW119508   2.063   2.452  10.760  0.6277 -0.5307 -0.7463
 2624SOL    HW219509   2.057   2.330  10.666  1.1800 -0.2138  1.3312
 2625SOL     OW19510   0.213   2.603   8.284 -1.0602  0.4281 -0.4843
 2625SOL    HW119511   0.261   2.630   8.206  1.3405  0.4803  1.0053
 2625SOL    HW219512   0.223   2.683   8.335  0.4962 -0.1335  0.0777
 2626SOL     OW19513   0.388   0.563   2.596 -0.6264 -0.5411 -0.6098
 2626SOL    HW119514   0.453   0.501   2.628 -2.4830 -2.2866 -0.2159
 2626SOL    HW219515   0.332   0.587   2.670 -0.6946  1.4715 -1.3168
 2627SOL     OW19516   4.340   0.392   4.486 -0.0522  0.6149  0.6988
 2627SOL    HW119517   4.263   0.371   4.539 -0.1937  0.6397  0.5038
 2627SOL    HW219518   4.373   0.465   4.539  1.5996  0.7393 -0.4959
 2628SOL     OW19519   3.637   0.481   3.844  0.0769  0.9191  0.1236
 2628SOL    HW119520   3.716   0.470   3.897 -0.0797 -0.5919  0.0500
 2628SOL    HW219521   3.633   0.403   3.789 -0.0307  0.7623  0.3535
 2629SOL     OW19522   2.146   2.806   4.795  0.1208 -0.1912 -0.5271
 2629SOL    HW119523   2.102   2.856   4.864  1.0614  1.8581 -1.4301
 2629SOL    HW219524   2.233   2.839   4.816 -0.0385 -0.2604  0.2511
 2630SOL     OW19525   2.271   0.037   3.332 -0.6179  0.3789  0.4053
 2630SOL    HW119526   2.223   0.116   3.305 -0.2334  0.0872 -1.1171
 2630SOL    HW219527   2.277   4.742   3.244  2.1338  2.1423 -0.1545
 2631SOL     OW19528   2.987   4.100   5.406 -0.0498  0.3598  0.0930
 2631SOL    HW119529   2.911   4.153   5.382  0.2612 -0.0915 -1.8703
 2631SOL    HW219530   3.030   4.087   5.322  1.3996  0.4232  0.8184
 2632SOL     OW19531   1.872   1.807   6.263  0.2836 -0.6356 -0.4807
 2632SOL    HW119532   1.781   1.812   6.235  0.1484  1.4834  0.3710
 2632SOL    HW219533   1.878   1.855   6.346 -1.6677 -1.9430  0.4154
 2633SOL     OW19534   4.617   4.546   0.103 -0.2655 -0.8111  0.1172
 2633SOL    HW119535   4.689   4.603   0.131 -0.9203  0.8380 -1.6377
 2633SOL    HW219536   4.627   4.476   0.168  0.4770 -0.8912 -0.0772
 2634SOL     OW19537   0.756   1.332   1.821 -0.1717  0.3900 -0.1940
 2634SOL    HW119538   0.717   1.247   1.802 -2.3383  1.3939 -0.2691
 2634SOL    HW219539   0.698   1.361   1.892  0.3162 -1.4939  0.9729
 2635SOL     OW19540   4.471   1.349   3.901 -0.4848  0.3139  0.5237
 2635SOL    HW119541   4.490   1.287   3.971 -1.3283  0.4078  0.8255
 2635SOL    HW219542   4.525   1.421   3.935 -0.4869 -0.3150  1.8409
 2636SOL     OW19543   2.325   4.730  10.998 -0.2661 -0.7628  0.2152
 2636SOL    HW119544   2.399   0.032  11.040 -1.6145 -1.3065  3.1158
 2636SOL    HW219545   2.297   0.049  10.930 -0.6416  1.1054  2.0305
 2637SOL     OW19546   0.028   1.286   5.721 -0.5781  0.2726 -0.6359
 2637SOL    HW119547   0.056   1.234   5.646 -0.3091 -0.6377  0.0975
 2637SOL    HW219548   0.076   1.244   5.793 -0.7759  0.6535 -0.2814
 2638SOL     OW19549   2.177   1.863  15.831  0.5812  0.1273  0.4100
 2638SOL    HW119550   2.238   1.838  15.762 -0.5491  1.0608 -0.9215
 2638SOL    HW219551   2.210   1.949  15.856  0.6547 -0.0691  1.0091
 2639SOL     OW19552   1.572   0.133   6.266  0.2070 -0.1024 -0.5764
 2639SOL    HW119553   1.508   0.123   6.336  1.1762  1.9467  0.5993
 2639SOL    HW219554   1.636   0.065   6.288 -0.7520 -0.4169  1.2374
 2640SOL     OW19555   1.744   3.716   6.592 -0.3045  0.9417 -0.0703
 2640SOL    HW119556   1.767   3.775   6.664 -1.5181  0.0098  1.0747
 2640SOL    HW219557   1.687   3.778   6.548 -1.4062 -0.7311 -0.9767
 2641SOL     OW19558   4.403   0.110   4.731 -0.2095  0.1261 -0.6587
 2641SOL    HW119559   4.421   0.179   4.794  2.9186 -0.7916 -0.5466
 2641SOL    HW219560   4.455   0.039   4.769 -2.0252  0.0256  1.6970
 2642SOL     OW19561   2.652   3.829   1.618  0.2861  0.0849 -0.0480
 2642SOL    HW119562   2.710   3.876   1.679 -1.7591  0.2269  1.8089
 2642SOL    HW219563   2.608   3.775   1.684 -0.3784 -0.5169 -0.9866
 2643SOL     OW19564   0.717   0.481  12.328 -0.0009  0.1320 -0.1567
 2643SOL    HW119565   0.735   0.568  12.362 -1.5648 -0.0685  1.1877
 2643SOL    HW219566   0.788   0.430  12.367 -0.1505  0.6323  0.7597
 2644SOL     OW19567   0.832   1.724   0.417  0.3455  0.2289 -0.5489
 2644SOL    HW119568   0.743   1.740   0.386  0.0805  0.4948  0.3385
 2644SOL    HW219569   0.888   1.784   0.369 -0.4383 -0.2941 -2.1106
 2645SOL     OW19570   0.959   4.262   5.739 -0.4570  0.4263 -0.2569
 2645SOL    HW119571   1.011   4.259   5.659  2.3344 -1.3176  1.6012
 2645SOL    HW219572   0.968   4.353   5.767  0.3069  1.0859 -2.6632
 2646SOL     OW19573   4.064   2.390   5.746  0.1416 -0.1869  0.7650
 2646SOL    HW119574   4.104   2.317   5.698  0.3934  0.2977  0.2359
 2646SOL    HW219575   4.077   2.460   5.682  2.5688  0.0105  1.4630
 2647SOL     OW19576   1.038   3.197   3.237  0.1909  0.2244 -0.9853
 2647SOL    HW119577   1.108   3.130   3.239  0.2954  0.3663  0.0054
 2647SOL    HW219578   1.045   3.239   3.323 -0.2256  0.7856 -1.2317
 2648SOL     OW19579   0.920   0.999  12.210 -0.1437  0.1635  0.0129
 2648SOL    HW119580   0.833   1.014  12.246 -0.3398 -0.9604 -0.0101
 2648SOL    HW219581   0.960   1.078  12.246  1.5522  0.0218 -1.5410
 2649SOL     OW19582   0.375   0.029   2.426  0.2557  0.6818 -0.1312
 2649SOL    HW119583   0.291   0.074   2.415  0.1728  0.5734  0.0411
 2649SOL    HW219584   0.346   4.710   2.494  0.3554  0.8465  0.0598
 2650SOL     OW19585   0.672   0.063   8.938 -0.1686 -0.3214 -0.6911
 2650SOL    HW119586   0.748   0.121   8.939 -2.0748  2.1383  0.6911
 2650SOL    HW219587   0.636   0.083   9.025 -0.7967 -0.0141 -1.0227
 2651SOL     OW19588   2.668   0.174   8.916 -0.1985  0.3737  0.0856
 2651SOL    HW119589   2.620   0.192   8.997 -2.1889 -1.6628 -0.6583
 2651SOL    HW219590   2.629   0.241   8.859  0.8776  2.5371  1.8629
 2652SOL     OW19591   3.285   0.885   3.773 -0.4265 -0.1289 -0.2272
 2652SOL    HW119592   3.369   0.879   3.726 -0.6624  0.3713 -0.7173
 2652SOL    HW219593   3.278   0.979   3.760 -1.2779 -0.3159 -1.0900
 2653SOL     OW19594   1.798   2.846  15.252 -0.0595 -0.4099  0.5149
 2653SOL    HW119595   1.752   2.784  15.196 -0.8209 -1.6159  2.4603
 2653SOL    HW219596   1.741   2.922  15.243  0.4545  0.2814  3.0892
 2654SOL     OW19597   0.303   0.412   3.532 -0.1853  0.3311  0.0779
 2654SOL    HW119598   0.366   0.424   3.461  0.4400  0.5906  0.6700
 2654SOL    HW219599   0.356   0.357   3.590  2.3447  0.7365 -1.8622
 2655SOL     OW19600   3.838   2.405  10.179  0.0113  0.6340 -0.3355
 2655SOL    HW119601   3.792   2.481  10.214  1.0960  1.2065 -0.1539
 2655SOL    HW219602   3.928   2.428  10.199  0.6082 -0.6472 -1.5660
 2656SOL     OW19603   2.585   0.764   6.389  0.1737 -0.4067 -0.4279
 2656SOL    HW119604   2.599   0.742   6.481 -0.8774  1.9810  0.2900
 2656SOL    HW219605   2.618   0.853   6.373  4.1417 -2.0342 -1.4660
 2657SOL     OW19606   4.359   3.846   8.794  0.2373  0.0607  0.5265
 2657SOL    HW119607   4.415   3.830   8.718  0.0025  0.9259  0.1717
 2657SOL    HW219608   4.411   3.904   8.849  1.1888 -1.2182  0.9662
 2658SOL     OW19609   4.112   1.726   9.767 -0.3017 -0.4953  0.9145
 2658SOL    HW119610   4.106   1.641   9.724 -1.0330  0.2002 -0.3773
 2658SOL    HW219611   4.204   1.747   9.755 -0.3326 -2.0993 -2.1456
 2659SOL     OW19612   2.807   3.959  15.464 -0.1460  0.2533  0.2749
 2659SOL    HW119613   2.826   4.005  15.382  1.1911 -0.5665  0.1188
 2659SOL    HW219614   2.788   4.028  15.527 -0.7222  0.0847  0.2842
 2660SOL     OW19615   1.811   4.436   8.605  0.1668  0.6199  0.1302
 2660SOL    HW119616   1.826   4.408   8.696 -1.3853  0.5221  0.3517
 2660SOL    HW219617   1.873   4.381   8.557  0.6750  1.4991 -0.2080
 2661SOL     OW19618   2.319   3.379  14.241  0.1381 -0.5477  0.1899
 2661SOL    HW119619   2.400   3.370  14.192 -0.9160 -0.1203 -1.6127
 2661SOL    HW219620   2.267   3.418  14.171 -0.4778  0.4984  1.2247
 2662SOL     OW19621   2.839   0.500   5.700  0.3448  0.0991  0.4906
 2662SOL    HW119622   2.757   0.458   5.675  0.8747 -0.4399 -0.3193
 2662SOL    HW219623   2.829   0.493   5.795 -0.6932 -0.1864  0.3668
 2663SOL     OW19624   3.290   3.321   1.500  0.2765  0.0037  0.4371
 2663SOL    HW119625   3.333   3.389   1.553  0.9241 -0.7821  0.9261
 2663SOL    HW219626   3.321   3.341   1.411  0.8351  1.3236  0.9173
 2664SOL     OW19627   4.676   4.207   6.611 -0.4245  0.7627 -0.4143
 2664SOL    HW119628   0.024   4.232   6.629 -0.4243  1.1158 -0.9012
 2664SOL    HW219629   4.662   4.138   6.676 -0.2491  1.7491  0.6656
 2665SOL     OW19630   0.805   1.591   8.448  1.1510  0.2889  0.3579
 2665SOL    HW119631   0.882   1.544   8.416  1.3445  0.9417 -0.1569
 2665SOL    HW219632   0.830   1.633   8.530  0.7877 -0.2558  0.7363
 2666SOL     OW19633   4.606   3.629  12.889 -0.2781 -0.1752 -0.2474
 2666SOL    HW119634   4.606   3.659  12.979 -0.8923  1.7142 -0.8793
 2666SOL    HW219635   4.675   3.683  12.851 -0.5572  0.8143  0.6511
 2667SOL     OW19636   2.541   3.121  16.921 -0.2377  0.4404 -0.6319
 2667SOL    HW119637   2.636   3.131  16.914 -0.1536  0.9348  1.0825
 2667SOL    HW219638   2.531   3.041  16.974  1.3580  1.1945  0.8325
 2668SOL     OW19639   0.488   3.067  10.994  0.1578 -0.4936 -0.2416
 2668SOL    HW119640   0.437   3.041  10.917 -1.2606  0.6447  0.3121
 2668SOL    HW219641   0.453   3.012  11.064 -0.8114 -0.2358 -0.5281
 2669SOL     OW19642   0.933   0.861   7.394  0.2177  0.5808 -0.0567
 2669SOL    HW119643   0.876   0.876   7.470  0.4582  2.6393 -0.2849
 2669SOL    HW219644   1.018   0.897   7.419  1.5003 -1.7311 -1.0638
 2670SOL     OW19645   3.455   3.562  13.027  0.1103 -0.6025  0.4496
 2670SOL    HW119646   3.476   3.587  13.118 -0.6707  0.0578  0.4539
 2670SOL    HW219647   3.491   3.638  12.980  2.3363 -1.7815  0.2416
 2671SOL     OW19648   3.886   2.771   5.938  0.0597  0.5421 -0.2096
 2671SOL    HW119649   3.949   2.751   5.869  1.5452  1.5774  0.8577
 2671SOL    HW219650   3.805   2.782   5.888 -0.1272  0.4647  0.0747
 2672SOL     OW19651   4.612   1.020  16.849 -0.0196  0.2555 -0.3508
 2672SOL    HW119652   4.528   0.977  16.828  1.3662 -2.4040 -0.4314
 2672SOL    HW219653   4.656   0.986  16.771 -1.4136  0.5358 -1.2681
 2673SOL     OW19654   3.815   2.480   1.272  0.3741  0.5308  0.1206
 2673SOL    HW119655   3.771   2.401   1.241 -0.0214  0.5083  0.7250
 2673SOL    HW219656   3.901   2.444   1.295  0.8682  1.3655 -0.4409
 2674SOL     OW19657   2.782   4.025   6.077  0.3670 -0.1559  0.5403
 2674SOL    HW119658   2.718   3.972   6.125  0.2109  1.4960  2.1959
 2674SOL    HW219659   2.735   4.062   6.002 -2.3148 -2.3560  1.1166
 2675SOL     OW19660   4.692   0.364   7.575 -0.4267  0.3275  0.5424
 2675SOL    HW119661   4.622   0.430   7.579 -1.0274 -0.3029  0.3524
 2675SOL    HW219662   4.648   0.285   7.544  1.6820 -0.9927  0.9432
 2676SOL     OW19663   0.362   1.297  12.262 -0.3942 -0.3519  0.1765
 2676SOL    HW119664   0.324   1.350  12.332 -1.9699 -1.4597  0.1793
 2676SOL    HW219665   0.360   1.207  12.296 -1.7613 -0.3684  0.0690
 2677SOL     OW19666   1.516   3.988  12.306  0.2262 -1.2629 -0.1876
 2677SOL    HW119667   1.610   3.967  12.308  0.2166 -1.1303  1.5667
 2677SOL    HW219668   1.481   3.901  12.318  2.1446 -1.7381  1.9482
 2678SOL     OW19669   2.371   3.211   6.249 -0.0249 -0.1429 -0.0931
 2678SOL    HW119670   2.334   3.170   6.327 -1.5739 -1.1761 -1.3553
 2678SOL    HW219671   2.465   3.191   6.256  0.2787  0.2369 -3.0958
 2679SOL     OW19672   0.077   1.515   3.177  0.0550 -0.4402 -0.2679
 2679SOL    HW119673   0.118   1.514   3.090 -0.3767 -2.0678 -0.4349
 2679SOL    HW219674   0.121   1.585   3.226 -2.4577  0.9836 -0.0736
 2680SOL     OW19675   3.966   2.046   9.125 -0.2176 -0.4438  0.1989
 2680SOL    HW119676   3.932   2.078   9.041  4.0274  0.2395 -1.2688
 2680SOL    HW219677   3.893   1.999   9.166 -1.0579 -0.2341 -1.0489
 2681SOL     OW19678   3.565   1.142   7.178 -0.7127 -0.1094 -0.5844
 2681SOL    HW119679   3.590   1.116   7.266  0.4679 -0.2967 -0.9725
 2681SOL    HW219680   3.472   1.125   7.189 -0.2379 -2.0519  0.5407
 2682SOL     OW19681   2.949   2.960   8.435 -0.0054 -0.2855  0.1201
 2682SOL    HW119682   2.878   2.896   8.432 -0.5819  0.3597  0.0961
 2682SOL    HW219683   2.989   2.966   8.348  2.7161  2.2118  1.5401
 2683SOL     OW19684   1.926   3.193   2.799  0.2539  0.1714 -0.0401
 2683SOL    HW119685   1.869   3.217   2.726 -0.0615 -0.7309 -0.1024
 2683SOL    HW219686   1.893   3.248   2.870 -1.5646  1.1741 -1.6511
 2684SOL     OW19687   0.968   0.386  12.413  0.0253  0.2054 -0.4049
 2684SOL    HW119688   1.049   0.340  12.436  1.1589  1.9063 -1.0267
 2684SOL    HW219689   0.945   0.341  12.332 -0.0016 -0.3107 -0.1171
 2685SOL     OW19690   2.159   2.204   0.715 -0.8314 -0.1518  0.4849
 2685SOL    HW119691   2.081   2.257   0.694 -1.3725 -0.8338  0.7700
 2685SOL    HW219692   2.126   2.118   0.688  2.0939 -0.6672 -1.4133
 2686SOL     OW19693   2.236   0.650   8.050  0.1965 -0.1240 -0.3955
 2686SOL    HW119694   2.220   0.623   8.141 -1.5060  0.4742 -0.5209
 2686SOL    HW219695   2.186   0.732   8.046  0.9982  0.1726 -3.9481
 2687SOL     OW19696   3.645   1.553   4.437  0.0769  0.0252 -0.1180
 2687SOL    HW119697   3.735   1.520   4.433  0.0014 -0.2092  0.1369
 2687SOL    HW219698   3.605   1.516   4.516  2.0894  1.5846  1.6189
 2688SOL     OW19699   4.348   0.484   2.925  0.3254 -0.5467 -0.0487
 2688SOL    HW119700   4.295   0.555   2.888  2.6886  2.1056  1.7165
 2688SOL    HW219701   4.282   0.448   2.984  0.4886 -0.4031  0.2190
 2689SOL     OW19702   3.965   0.798   8.826  0.8715  0.2066 -0.0269
 2689SOL    HW119703   4.049   0.751   8.829  0.8521  0.2179  0.9480
 2689SOL    HW219704   3.999   0.882   8.796  2.0637 -0.0192  0.6503
 2690SOL     OW19705   2.022   4.269   1.782  0.3214 -0.1235 -0.3893
 2690SOL    HW119706   1.982   4.194   1.826 -0.4781  0.9057  0.6360
 2690SOL    HW219707   2.071   4.227   1.711  0.1270  1.2630 -1.3430
 2691SOL     OW19708   4.112   3.942   3.117 -0.3113 -0.1186 -0.6258
 2691SOL    HW119709   4.094   4.035   3.103  1.5418  0.2273 -0.8095
 2691SOL    HW219710   4.027   3.906   3.138  0.0295  0.5787  1.9591
 2692SOL     OW19711   3.468   1.702   3.136  0.2466 -0.2818 -0.1606
 2692SOL    HW119712   3.503   1.734   3.053  1.1022  0.1830  0.3753
 2692SOL    HW219713   3.543   1.654   3.172  0.7146  2.9045  3.2379
 2693SOL     OW19714   4.490   1.428   9.034  0.2827 -0.1882  0.7985
 2693SOL    HW119715   4.417   1.423   9.095  0.7909 -0.7337  1.3631
 2693SOL    HW219716   4.462   1.514   9.001 -1.0208 -0.8251  0.2645
 2694SOL     OW19717   4.221   3.456  12.293  0.1173  0.7796  0.2212
 2694SOL    HW119718   4.227   3.550  12.308 -3.2850  1.2348 -1.2403
 2694SOL    HW219719   4.286   3.438  12.226  0.9594  2.6658  0.5550
 2695SOL     OW19720   0.629   2.431  17.388 -0.1460  0.2796 -0.0938
 2695SOL    HW119721   0.659   2.459  17.302 -0.8490 -0.9673 -0.7543
 2695SOL    HW219722   0.656   2.339  17.391  0.8099  0.5611 -0.2240
 2696SOL     OW19723   2.464   4.173  11.433  0.0189 -0.2847  0.1378
 2696SOL    HW119724   2.542   4.228  11.423  0.0100 -0.2400  0.3217
 2696SOL    HW219725   2.407   4.247  11.456 -0.4484 -0.7007  0.3081
 2697SOL     OW19726   4.158   0.782  16.319 -0.8344 -0.1399  0.1375
 2697SOL    HW119727   4.113   0.866  16.309  0.5313  0.3207 -2.4458
 2697SOL    HW219728   4.248   0.814  16.327 -1.2143  0.7432  0.9194
 2698SOL     OW19729   0.720   2.482  16.778  0.1347  0.1152 -0.8693
 2698SOL    HW119730   0.715   2.578  16.771 -0.5793  0.3590  2.9293
 2698SOL    HW219731   0.780   2.461  16.707 -0.3872  0.9298 -1.5484
 2699SOL     OW19732   3.749   0.094   3.484  0.2597  0.0295 -0.0451
 2699SOL    HW119733   3.809   0.115   3.413  2.5285 -0.5855  1.7086
 2699SOL    HW219734   3.677   0.070   3.426  1.3163  0.7066 -1.6182
 2700SOL     OW19735   2.160   2.433   9.583 -0.3510 -0.0990 -0.0906
 2700SOL    HW119736   2.090   2.492   9.556  1.4356  1.8027 -0.5422
 2700SOL    HW219737   2.108   2.366   9.627 -1.7265  0.8200 -0.3096
 2701SOL     OW19738   2.539   4.324  17.436  0.4432 -0.1232  0.2265
 2701SOL    HW119739   2.456   4.301  17.477  0.9435 -0.2111  1.2072
 2701SOL    HW219740   2.537   4.413  17.470 -0.5615  0.3677 -1.1377
 2702SOL     OW19741   3.000   2.603   7.072 -0.5124  0.1947  0.2364
 2702SOL    HW119742   2.936   2.572   7.008 -2.3066 -0.1077  2.2079
 2702SOL    HW219743   3.047   2.522   7.092  0.7394  1.3207  1.7977
 2703SOL     OW19744   0.658   1.817   3.255 -0.4877 -0.0653 -0.5533
 2703SOL    HW119745   0.630   1.729   3.277 -1.0896 -0.3909 -2.6717
 2703SOL    HW219746   0.588   1.865   3.299 -1.5309 -0.5752 -1.6620
 2704SOL     OW19747   0.509   1.727  13.109 -0.4634  0.1284  0.1380
 2704SOL    HW119748   0.536   1.819  13.117  0.4464 -0.0192 -1.2961
 2704SOL    HW219749   0.419   1.741  13.138 -0.0831  0.8753  0.9722
 2705SOL     OW19750   1.237   0.429   6.568 -0.5882 -0.0646  0.5226
 2705SOL    HW119751   1.244   0.503   6.507 -0.3849 -1.1020 -0.7286
 2705SOL    HW219752   1.297   0.366   6.529 -1.3070 -0.2930 -0.2314
 2706SOL     OW19753   0.414   4.688  14.666 -0.7811  0.1101 -0.1311
 2706SOL    HW119754   0.335   4.714  14.714 -1.0434 -2.3429  0.7486
 2706SOL    HW219755   0.416   4.595  14.688  0.2394  0.1032 -0.2425
 2707SOL     OW19756   1.276   2.869   6.422 -0.2461 -0.4901 -0.4288
 2707SOL    HW119757   1.223   2.796   6.454  0.1087 -0.6751 -0.2609
 2707SOL    HW219758   1.222   2.875   6.343  0.0036  1.5438 -0.4319
 2708SOL     OW19759   1.034   0.671  15.689 -0.2198 -0.1015 -0.3452
 2708SOL    HW119760   1.046   0.576  15.701  0.9804  0.1605  0.4854
 2708SOL    HW219761   1.053   0.712  15.773 -1.0528 -0.1709 -0.1184
 2709SOL     OW19762   0.569   0.289  15.266  0.4813  0.1918  0.1780
 2709SOL    HW119763   0.565   0.292  15.170  2.2358  2.4158  0.1536
 2709SOL    HW219764   0.480   0.296  15.301  1.0143  0.1645  1.5347
 2710SOL     OW19765   3.547   4.530   3.857  0.1483  0.2310  0.0918
 2710SOL    HW119766   3.562   4.498   3.768  1.1275  0.0558  0.3258
 2710SOL    HW219767   3.494   4.458   3.892  1.7613 -1.0016  0.0104
 2711SOL     OW19768   0.330   0.406  10.275 -0.2073 -0.7437 -0.1869
 2711SOL    HW119769   0.358   0.461  10.202  0.6161 -1.4040 -0.3654
 2711SOL    HW219770   0.374   0.322  10.261  0.8534 -0.6605  2.7283
 2712SOL     OW19771   3.134   2.227   2.538 -0.6255 -0.0648  0.0078
 2712SOL    HW119772   3.155   2.289   2.467 -1.2681  0.6764  0.4715
 2712SOL    HW219773   3.191   2.153   2.518 -0.8329 -0.4093  0.7343
 2713SOL     OW19774   2.787   2.628   4.937 -0.0838  0.0817 -0.4886
 2713SOL    HW119775   2.773   2.539   4.905  1.2548 -0.2865 -0.0831
 2713SOL    HW219776   2.697   2.660   4.938 -0.5367 -1.1879 -0.3149
 2714SOL     OW19777   3.495   2.077   8.429  0.7651 -0.7966  0.0263
 2714SOL    HW119778   3.483   2.160   8.477 -0.8289 -0.5559 -0.7937
 2714SOL    HW219779   3.451   2.018   8.490  0.5790  2.4583  3.1068
 2715SOL     OW19780   4.589   0.065   3.778  0.1717 -0.1516 -0.0989
 2715SOL    HW119781   4.603   0.159   3.768 -2.1456  0.1779 -0.2262
 2715SOL    HW219782   4.532   0.049   3.703 -0.6247 -1.7000  0.8283
 2716SOL     OW19783   3.186   1.714   8.456 -0.3255 -0.0345 -0.4179
 2716SOL    HW119784   3.146   1.782   8.401 -0.3164  0.4608  0.1796
 2716SOL    HW219785   3.223   1.656   8.390 -0.7682 -1.5544  0.6602
 2717SOL     OW19786   3.054   1.992   2.283 -0.0103 -0.1843  1.1943
 2717SOL    HW119787   2.994   2.067   2.279  0.4459  0.0715 -0.7808
 2717SOL    HW219788   3.001   1.919   2.252 -1.4008  1.2175  0.2360
 2718SOL     OW19789   0.278   4.567   2.603  0.2827  0.6823  0.0127
 2718SOL    HW119790   0.209   4.504   2.624  0.9700 -0.0053  0.2524
 2718SOL    HW219791   0.337   4.499   2.569 -0.6140  0.1024 -0.3834
 2719SOL     OW19792   4.589   3.483   2.809  0.1588 -0.6544 -0.1401
 2719SOL    HW119793   4.553   3.529   2.733 -0.6889  0.7916  1.1363
 2719SOL    HW219794   4.578   3.549   2.878  1.3200 -0.5255 -0.0761
 2720SOL     OW19795   3.934   2.339   6.370  0.0682  0.3917  0.2186
 2720SOL    HW119796   3.962   2.416   6.420 -1.2091 -1.0892  3.2412
 2720SOL    HW219797   3.839   2.349   6.377  0.0103 -0.1912  0.2579
 2721SOL     OW19798   3.737   1.837   9.416 -0.3097  0.2238 -0.1437
 2721SOL    HW119799   3.798   1.903   9.449  0.8909 -0.4123 -1.1001
 2721SOL    HW219800   3.714   1.870   9.329 -1.8280 -0.6091 -0.0493
 2722SOL     OW19801   1.769   2.897   8.268  0.0631  0.5757  0.0425
 2722SOL    HW119802   1.784   2.810   8.306  0.1198 -0.1962 -1.7156
 2722SOL    HW219803   1.844   2.913   8.211  0.9007  0.3922  1.1010
 2723SOL     OW19804   2.728   3.747   7.099 -0.0371  0.0410  0.1051
 2723SOL    HW119805   2.744   3.807   7.026 -2.8724 -0.3346 -0.8166
 2723SOL    HW219806   2.776   3.675   7.059  1.3956  1.9993 -1.6911
 2724SOL     OW19807   2.797   0.935   4.722 -0.0241 -0.1083  0.8136
 2724SOL    HW119808   2.819   1.025   4.698  1.4808 -0.1828  1.9365
 2724SOL    HW219809   2.873   0.890   4.686 -1.2474 -1.2929 -0.2854
 2725SOL     OW19810   4.062   1.184   3.952 -0.0652 -0.9027  0.0822
 2725SOL    HW119811   4.017   1.101   3.943 -1.2111 -0.1351 -1.3499
 2725SOL    HW219812   4.149   1.148   3.938  0.0859  0.0318 -1.3477
 2726SOL     OW19813   0.618   0.264   3.395 -0.1687 -0.3025 -0.2279
 2726SOL    HW119814   0.566   0.332   3.352 -0.7380  0.2276  1.3283
 2726SOL    HW219815   0.698   0.267   3.342  1.1556 -0.2039  1.7665
 2727SOL     OW19816   3.080   0.309   1.234 -0.9728  0.4542  0.0267
 2727SOL    HW119817   3.118   0.254   1.164 -2.3645  0.4689 -0.7418
 2727SOL    HW219818   3.001   0.257   1.251 -1.6769  1.2639 -0.7563
 2728SOL     OW19819   0.064   2.317   0.917 -0.2259 -0.3533  0.1380
 2728SOL    HW119820   0.015   2.243   0.880 -1.6383  0.6616 -0.0134
 2728SOL    HW219821   0.149   2.292   0.881  1.1755  0.4752  2.9213
 2729SOL     OW19822   1.190   4.181   2.853  0.0096  0.0686 -0.3801
 2729SOL    HW119823   1.235   4.172   2.937 -1.7487  0.4030  0.6021
 2729SOL    HW219824   1.183   4.090   2.825  1.0842 -0.4591  1.0564
 2730SOL     OW19825   0.495   3.599   8.909 -0.1713 -0.0190  0.4633
 2730SOL    HW119826   0.562   3.649   8.862 -2.3551  1.5691 -0.9335
 2730SOL    HW219827   0.509   3.628   8.999 -0.1943 -1.6889  1.0150
 2731SOL     OW19828   0.448   0.436   3.288  0.6922  0.3313 -0.6065
 2731SOL    HW119829   0.522   0.497   3.286 -0.2757  1.4548 -2.0832
 2731SOL    HW219830   0.402   0.456   3.206 -0.0628  1.7662  0.1817
 2732SOL     OW19831   0.135   2.649   0.767  0.1280 -0.6185  0.1942
 2732SOL    HW119832   0.201   2.586   0.739 -0.5632 -1.0955 -0.3970
 2732SOL    HW219833   0.069   2.618   0.704  0.3574 -0.5340 -0.0859
 2733SOL     OW19834   4.347   3.047   5.631 -0.3997  0.4686  0.0537
 2733SOL    HW119835   4.403   2.971   5.621 -0.0574  0.8347 -0.7856
 2733SOL    HW219836   4.277   3.010   5.685  1.3538 -1.1431  1.2029
 2734SOL     OW19837   4.168   4.628   2.291  0.5340 -0.2352  0.4609
 2734SOL    HW119838   4.113   4.652   2.216  2.4259 -0.8068 -1.1069
 2734SOL    HW219839   4.102   4.615   2.360  2.4299 -4.6222  1.4586
 2735SOL     OW19840   2.994   0.623   0.575  0.1885 -0.1363 -0.1213
 2735SOL    HW119841   2.972   0.716   0.573  0.7660  0.0173  0.7390
 2735SOL    HW219842   3.008   0.614   0.669 -0.8599  0.5477  0.1054
 2736SOL     OW19843   4.680   0.889   7.832 -0.0920 -0.6474 -0.4043
 2736SOL    HW119844   4.642   0.939   7.904  2.8263  0.8798  0.0730
 2736SOL    HW219845   4.701   0.948   7.759 -1.5107  0.5561  0.1593
 2737SOL     OW19846   3.117   1.233  13.727 -0.2125 -0.2856  0.0429
 2737SOL    HW119847   3.114   1.304  13.662 -0.6594  0.2681  0.6747
 2737SOL    HW219848   3.055   1.174  13.684 -1.9357  0.9422  0.8406
 2738SOL     OW19849   0.189   3.106   7.206  0.3318  0.0626  0.3421
 2738SOL    HW119850   0.230   3.192   7.211 -0.7200  0.5803  0.0186
 2738SOL    HW219851   0.172   3.082   7.297  1.0334  0.4353  0.5762
 2739SOL     OW19852   0.067   4.314   3.700 -0.1889 -0.3079 -0.1550
 2739SOL    HW119853   0.069   4.318   3.796 -0.8250  1.4436 -0.2074
 2739SOL    HW219854   4.732   4.368   3.683  1.1258  1.6628  0.1359
 2740SOL     OW19855   3.223   0.771   8.283 -0.0230  0.5032 -0.2558
 2740SOL    HW119856   3.262   0.720   8.353 -0.7599 -2.5327 -2.0910
 2740SOL    HW219857   3.132   0.746   8.301 -0.3327  2.0080  0.2878
 2741SOL     OW19858   3.301   1.535   2.786  0.0268  0.4303  0.1406
 2741SOL    HW119859   3.316   1.497   2.699 -0.7504  0.4168  0.0138
 2741SOL    HW219860   3.206   1.540   2.792 -0.0210  0.3834 -0.6323
 2742SOL     OW19861   0.726   4.726   8.046 -0.0989  0.4110 -0.2154
 2742SOL    HW119862   0.654   4.662   8.046  0.1475  0.1425  0.7066
 2742SOL    HW219863   0.679   0.058   8.008  1.7049  0.1665 -2.8871
 2743SOL     OW19864   1.683   1.050   9.885 -0.0311  0.1888 -0.4110
 2743SOL    HW119865   1.770   1.063   9.847  0.0999  0.7621  0.1015
 2743SOL    HW219866   1.694   0.968   9.933  2.2419  1.5285  1.3025
 2744SOL     OW19867   4.641   4.721   0.787  0.0633  0.6358  0.1204
 2744SOL    HW119868   4.623   4.637   0.830 -3.2869  0.9097 -0.7334
 2744SOL    HW219869   4.560   4.728   0.738  0.2966  0.7722 -0.2414
 2745SOL     OW19870   0.669   1.800   7.745  0.2055  0.3470 -0.3097
 2745SOL    HW119871   0.592   1.819   7.800 -0.0292  1.3003 -0.9710
 2745SOL    HW219872   0.718   1.882   7.746  2.7962 -1.1885 -2.6661
 2746SOL     OW19873   0.556   1.711   3.543  0.4531  0.6335 -0.1748
 2746SOL    HW119874   0.484   1.774   3.554  1.8959  1.6898  3.2338
 2746SOL    HW219875   0.543   1.669   3.458  0.5680  2.0821 -0.9191
 2747SOL     OW19876   1.052   1.201   2.696 -0.1106  0.1563 -0.5416
 2747SOL    HW119877   1.066   1.121   2.644  0.9274 -0.9357  1.4325
 2747SOL    HW219878   0.992   1.255   2.644 -1.2686 -0.1930  0.4327
 2748SOL     OW19879   0.504   3.264  10.365 -0.0997 -0.2662 -0.2610
 2748SOL    HW119880   0.421   3.266  10.316  0.2942 -1.1729 -0.9589
 2748SOL    HW219881   0.489   3.196  10.431 -1.4852 -1.8380 -2.1975
 2749SOL     OW19882   2.870   0.981   5.512 -0.4600 -1.2070  0.1433
 2749SOL    HW119883   2.831   0.976   5.424 -0.2864  0.8977 -0.0585
 2749SOL    HW219884   2.879   0.888   5.531  3.2725 -0.9847 -0.5572
 2750SOL     OW19885   0.760   2.767  11.000  0.1066 -0.6597  0.2202
 2750SOL    HW119886   0.676   2.725  11.016 -0.4661  0.6688  0.7635
 2750SOL    HW219887   0.816   2.717  11.060  1.5629  0.6328 -0.0321
 2751SOL     OW19888   2.001   2.285   0.130 -0.4669 -0.0870 -0.1844
 2751SOL    HW119889   1.936   2.337   0.083 -1.5909 -0.7284  0.6507
 2751SOL    HW219890   2.024   2.215   0.068  0.2951 -0.8880  1.0104
 2752SOL     OW19891   4.288   3.474   6.604  0.4590 -0.4517  0.0918
 2752SOL    HW119892   4.346   3.490   6.530  0.0689  1.1083  0.1159
 2752SOL    HW219893   4.352   3.435   6.664  0.1015 -3.3911 -1.4483
 2753SOL     OW19894   2.320   1.466   8.111 -0.2366  0.2493 -0.1907
 2753SOL    HW119895   2.251   1.532   8.104  1.7214  2.4350  1.4173
 2753SOL    HW219896   2.356   1.493   8.195 -1.9643 -0.6187  0.8491
 2754SOL     OW19897   1.965   3.481   9.333 -0.2546 -0.3658 -0.2043
 2754SOL    HW119898   1.963   3.477   9.428  0.1732 -0.0904 -0.1872
 2754SOL    HW219899   1.873   3.496   9.309 -0.4913 -2.7458 -0.8172
 2755SOL     OW19900   4.380   2.442  15.106  0.3758  0.5886  0.0090
 2755SOL    HW119901   4.315   2.490  15.158  2.2596 -1.4454  4.2020
 2755SOL    HW219902   4.339   2.461  15.021 -0.1931 -0.1512  0.1225
 2756SOL     OW19903   4.402   3.961  16.976 -0.3145  0.1070  0.2664
 2756SOL    HW119904   4.495   3.945  16.960  0.1800  1.4292  1.8775
 2756SOL    HW219905   4.407   4.056  16.984 -1.3781  0.1602  0.2581
 2757SOL     OW19906   4.623   4.394   1.991  0.1728  0.1218 -0.3176
 2757SOL    HW119907   4.585   4.464   2.045  1.9058  1.3309 -0.6695
 2757SOL    HW219908   4.551   4.348   1.947  0.8363 -1.4626  0.2480
 2758SOL     OW19909   3.909   4.088   1.358  0.0980  0.2173  0.6179
 2758SOL    HW119910   3.821   4.063   1.386  0.7456 -1.7755  0.8929
 2758SOL    HW219911   3.904   4.161   1.297  1.3625 -0.6020 -0.4866
 2759SOL     OW19912   4.442   1.428   1.913 -0.1501  0.1176 -0.2058
 2759SOL    HW119913   4.526   1.381   1.917 -1.3503 -1.9781  0.1457
 2759SOL    HW219914   4.384   1.372   1.861  3.3642 -1.8375 -2.0773
 2760SOL     OW19915   4.181   4.644   4.681 -1.2097  0.1266 -0.1577
 2760SOL    HW119916   4.151   4.721   4.633  0.4276  1.1926  0.5357
 2760SOL    HW219917   4.234   4.675   4.755 -2.4903 -2.6785  1.9497
 2761SOL     OW19918   3.622   4.158   9.719 -0.1194 -0.1714  0.3541
 2761SOL    HW119919   3.582   4.227   9.667 -3.4629 -0.6916  2.2086
 2761SOL    HW219920   3.544   4.152   9.774  0.1728 -2.1193  0.5768
 2762SOL     OW19921   0.714   4.641   1.692  0.0457 -0.7187  0.2623
 2762SOL    HW119922   0.788   4.700   1.706 -0.1585 -0.4886  0.3702
 2762SOL    HW219923   0.742   4.579   1.759 -0.1026  0.1568  1.1376
 2763SOL     OW19924   1.982   2.474   3.096 -0.2195  0.1543 -0.0745
 2763SOL    HW119925   1.895   2.434   3.096 -0.2264  0.1645 -1.2539
 2763SOL    HW219926   1.954   2.565   3.081 -1.0090 -0.3225 -1.5365
 2764SOL     OW19927   4.162   1.585   9.415 -0.4686  0.0947  0.4085
 2764SOL    HW119928   4.097   1.607   9.349  2.7444 -2.2327 -3.5740
 2764SOL    HW219929   4.228   1.653   9.400 -1.3380  0.6865 -0.7432
 2765SOL     OW19930   3.178   0.118  16.985  0.8387 -0.3359  0.4372
 2765SOL    HW119931   3.090   0.139  17.016  0.3875  1.6442 -2.2138
 2765SOL    HW219932   3.198   0.028  17.012  1.5552  0.1476  1.4705
 2766SOL     OW19933   1.179   3.701   5.415  0.1219 -0.2978  0.7125
 2766SOL    HW119934   1.267   3.738   5.403 -0.5027  1.2134  0.7575
 2766SOL    HW219935   1.206   3.647   5.489  2.9124 -0.4129 -0.3640
 2767SOL     OW19936   2.589   4.175   2.437 -0.6028 -0.2171 -0.2765
 2767SOL    HW119937   2.500   4.210   2.441  0.7475  3.0078  1.8283
 2767SOL    HW219938   2.637   4.247   2.478 -0.5644 -0.2043 -0.3435
 2768SOL     OW19939   0.738   1.121   9.781 -0.1772 -0.1746  0.3326
 2768SOL    HW119940   0.734   1.042   9.728  2.5746 -0.9334  1.2395
 2768SOL    HW219941   0.809   1.088   9.836  0.6304 -3.1421 -2.5049
 2769SOL     OW19942   2.140   1.044   4.292 -0.0197  0.4848 -0.8190
 2769SOL    HW119943   2.070   1.098   4.331 -0.3685  1.0757 -2.2670
 2769SOL    HW219944   2.191   1.019   4.369  1.4109 -0.1852 -1.9918
 2770SOL     OW19945   4.116   4.201   4.230 -0.0032  0.7332 -0.1310
 2770SOL    HW119946   4.052   4.145   4.185  0.1982 -0.8961  1.6242
 2770SOL    HW219947   4.071   4.285   4.222  0.7382  1.0373 -1.1500
 2771SOL     OW19948   1.908   1.557   7.041 -0.0150  0.2419 -0.3432
 2771SOL    HW119949   1.978   1.574   7.104 -0.2030 -0.1304 -0.0335
 2771SOL    HW219950   1.954   1.535   6.960  2.1751 -3.2706  1.8361
 2772SOL     OW19951   0.136   3.711   6.719 -0.1455 -0.0718 -0.2499
 2772SOL    HW119952   0.064   3.650   6.705 -1.0484  0.7038  0.8937
 2772SOL    HW219953   0.184   3.636   6.754 -1.5261 -1.1763 -0.7588
 2773SOL     OW19954   3.914   3.082   1.649 -0.4495  0.1005  0.9940
 2773SOL    HW119955   3.924   3.065   1.743 -2.4332 -0.7851  1.0466
 2773SOL    HW219956   3.992   3.129   1.622  0.1745 -1.0366  0.8217
 2774SOL     OW19957   2.264   0.899   9.590 -0.5840 -0.2407 -0.5103
 2774SOL    HW119958   2.220   0.869   9.670 -1.1769  0.7766 -0.4633
 2774SOL    HW219959   2.289   0.809   9.566 -1.4051 -0.9831  1.4242
 2775SOL     OW19960   0.339   0.048   6.278  0.1137 -0.2124 -0.2906
 2775SOL    HW119961   0.424   0.061   6.236  0.3693  0.9922  0.6156
 2775SOL    HW219962   0.298   4.728   6.218 -0.0363  0.9015 -1.3494
 2776SOL     OW19963   3.458   3.867  14.978  0.5717  0.3274  0.5116
 2776SOL    HW119964   3.452   3.842  15.070 -2.3724  2.4211  0.9158
 2776SOL    HW219965   3.553   3.880  14.975  0.5127 -0.0820 -3.7656
 2777SOL     OW19966   0.890   3.709   5.600  0.1201  0.5162  0.1022
 2777SOL    HW119967   0.817   3.767   5.620 -1.0675 -0.6841 -0.8370
 2777SOL    HW219968   0.854   3.644   5.539 -2.1837 -0.2349  2.2637
 2778SOL     OW19969   3.011   3.475   2.648  0.5510 -0.4868  0.0803
 2778SOL    HW119970   3.027   3.465   2.741  1.6068  0.5142  0.0027
 2778SOL    HW219971   2.969   3.561   2.643 -1.5881 -1.4910  0.4219
 2779SOL     OW19972   2.912   0.484  11.668 -0.9368 -0.1797  0.2433
 2779SOL    HW119973   2.969   0.560  11.653 -1.1813 -0.3671 -1.6916
 2779SOL    HW219974   2.970   0.429  11.720 -0.3812 -0.7708 -1.0065
 2780SOL     OW19975   2.236   1.782   1.257  0.6191  0.3109 -0.3228
 2780SOL    HW119976   2.278   1.709   1.211 -0.4987 -0.2066 -0.5350
 2780SOL    HW219977   2.270   1.854   1.203  1.9490 -0.1488 -0.0893
 2781SOL     OW19978   1.638   2.289   2.102 -0.3744 -0.5199 -0.0378
 2781SOL    HW119979   1.724   2.287   2.060 -0.0292 -0.9681  0.6998
 2781SOL    HW219980   1.595   2.272   2.018 -1.6494  2.2516  0.0443
 2782SOL     OW19981   1.785   0.064   3.393 -0.5214 -0.1494 -0.1358
 2782SOL    HW119982   1.789   0.106   3.479  1.3644 -0.4324 -0.0970
 2782SOL    HW219983   1.693   0.080   3.372 -0.6082  0.1959  0.5217
 2783SOL     OW19984   1.152   1.160   9.488  0.3065  0.0065  0.2026
 2783SOL    HW119985   1.066   1.120   9.501 -0.4820  1.3046 -0.8983
 2783SOL    HW219986   1.188   1.161   9.576  0.9746 -0.5331 -0.0680
 2784SOL     OW19987   4.740   2.927   3.984 -0.1319 -0.2705 -0.1030
 2784SOL    HW119988   0.032   2.895   4.067  1.9608 -0.2366 -0.9508
 2784SOL    HW219989   0.038   3.014   3.985 -2.6020  0.8656  1.0854
 2785SOL     OW19990   3.256   1.574   3.796  0.2854 -0.3090 -0.0683
 2785SOL    HW119991   3.194   1.647   3.799 -1.0392 -1.3843 -1.3812
 2785SOL    HW219992   3.326   1.609   3.850  1.5236  0.4727 -2.1879
 2786SOL     OW19993   0.522   3.198   7.698  0.0123 -0.4682 -0.2351
 2786SOL    HW119994   0.431   3.228   7.709  0.2349  0.3563 -0.6432
 2786SOL    HW219995   0.567   3.279   7.675  1.6394 -1.5262 -0.7130
 2787SOL     OW19996   0.845   3.901  13.131 -0.0507  0.8497  0.2251
 2787SOL    HW119997   0.817   3.869  13.217  0.5034 -0.7736 -0.1876
 2787SOL    HW219998   0.771   3.958  13.109 -0.6148  0.5058  1.1983
 2788SOL     OW19999   4.383   0.093   1.691  0.1650 -0.0531 -0.4577
 2788SOL    HW120000   4.327   0.065   1.764 -0.3244 -1.1457 -1.2557
 2788SOL    HW220001   4.460   0.041   1.712  0.2254 -1.6236 -4.5612
 2789SOL     OW20002   2.165   2.897   2.251 -0.3112  0.1117 -0.0541
 2789SOL    HW120003   2.123   2.813   2.234  1.4263 -0.7173 -0.1811
 2789SOL    HW220004   2.221   2.874   2.325  0.9577  1.7995 -0.4998
 2790SOL     OW20005   0.422   2.342   7.956 -0.6458 -0.2208  0.4270
 2790SOL    HW120006   0.391   2.255   7.983  0.1979 -0.2101  1.4258
 2790SOL    HW220007   0.476   2.362   8.031  1.8925 -0.7329 -1.2636
 2791SOL     OW20008   3.233   2.507   7.700 -0.0330  0.0821 -0.3273
 2791SOL    HW120009   3.305   2.501   7.763 -1.1887 -3.4196  0.6626
 2791SOL    HW220010   3.245   2.600   7.683  0.4138 -0.5159 -3.2389
 2792SOL     OW20011   1.113   0.476  16.341  1.0193  0.5435 -0.3842
 2792SOL    HW120012   1.177   0.465  16.271  1.7709 -2.6744  0.7996
 2792SOL    HW220013   1.162   0.453  16.420  1.0987 -1.2190 -0.9485
 2793SOL     OW20014   0.451   3.316   8.935  0.2636 -0.5738  0.2442
 2793SOL    HW120015   0.462   3.410   8.941 -1.6173 -0.3870  0.7879
 2793SOL    HW220016   0.413   3.327   8.848  2.0174 -1.2527 -0.6115
 2794SOL     OW20017   3.925   0.672  13.164  0.2286 -0.1847 -0.1427
 2794SOL    HW120018   4.018   0.690  13.181  0.0308  0.1131  0.6093
 2794SOL    HW220019   3.885   0.657  13.249 -0.2813  0.2126 -0.3141
 2795SOL     OW20020   2.187   2.341   4.387  0.3988 -0.1170  0.0110
 2795SOL    HW120021   2.140   2.297   4.316 -1.1611  1.8923 -0.2150
 2795SOL    HW220022   2.209   2.419   4.335 -1.6664  0.2906 -0.2436
 2796SOL     OW20023   3.520   2.133   7.595 -0.2796 -0.1100  0.4129
 2796SOL    HW120024   3.521   2.151   7.689 -0.5817 -1.2349  0.6368
 2796SOL    HW220025   3.573   2.053   7.600  1.6616  1.1716  0.3251
 2797SOL     OW20026   3.351   1.174  16.952 -0.6435 -0.2230  0.6629
 2797SOL    HW120027   3.396   1.132  16.879  1.2461 -0.1703  1.7858
 2797SOL    HW220028   3.358   1.110  17.022  1.0518  1.0627  1.6780
 2798SOL     OW20029   3.968   3.596   2.749 -0.0544  0.5896  0.0230
 2798SOL    HW120030   3.901   3.645   2.797 -2.2146 -2.4751  0.1437
 2798SOL    HW220031   4.033   3.562   2.811  2.4934  1.0701 -2.4092
 2799SOL     OW20032   3.047   2.565  11.916 -0.1853  0.0241  0.4806
 2799SOL    HW120033   3.120   2.545  11.857 -0.4469 -1.8225  0.7686
 2799SOL    HW220034   3.034   2.658  11.897 -1.0834  0.2437  2.2413
 2800SOL     OW20035   4.177   4.145  15.634  0.2205 -0.0880 -0.0492
 2800SOL    HW120036   4.156   4.119  15.724 -2.7431 -0.1407 -0.7429
 2800SOL    HW220037   4.241   4.075  15.618  2.0609  1.6490 -0.2537
 2801SOL     OW20038   3.330   2.362   3.445  0.3220 -0.2365 -0.5148
 2801SOL    HW120039   3.381   2.352   3.525  0.0032  0.7712 -0.1749
 2801SOL    HW220040   3.277   2.441   3.461 -1.8932 -1.6746 -0.7655
 2802SOL     OW20041   1.166   3.252   7.745 -0.1541 -0.2769  0.3639
 2802SOL    HW120042   1.249   3.291   7.773  0.0781 -1.8884  1.9855
 2802SOL    HW220043   1.096   3.313   7.768 -0.9681 -1.0150 -0.1885
 2803SOL     OW20044   1.129   1.552   4.695  0.2837  0.3695 -0.3401
 2803SOL    HW120045   1.115   1.563   4.789  2.0569 -0.2400 -0.0082
 2803SOL    HW220046   1.162   1.462   4.698  1.5263  0.7736 -1.9538
 2804SOL     OW20047   1.089   4.536   6.130 -0.2931 -0.0887 -0.1819
 2804SOL    HW120048   1.105   4.480   6.206  0.4589  0.4848  0.0898
 2804SOL    HW220049   1.005   4.496   6.109 -0.5306 -0.0520  0.6864
 2805SOL     OW20050   1.161   0.279  11.287  0.2898  0.2853  0.2087
 2805SOL    HW120051   1.154   0.373  11.302 -1.2157  0.1085  0.6052
 2805SOL    HW220052   1.072   0.250  11.306 -0.3007  1.7767 -0.2916
 2806SOL     OW20053   1.810   2.213   4.906 -0.3210  0.0452 -0.5551
 2806SOL    HW120054   1.785   2.302   4.882  0.6430  0.0911 -1.3869
 2806SOL    HW220055   1.874   2.238   4.974 -1.1454  1.3683 -0.2620
 2807SOL     OW20056   0.749   3.204   8.467  0.1740  0.1908  0.1076
 2807SOL    HW120057   0.779   3.250   8.389 -0.7912  1.3719  0.4366
 2807SOL    HW220058   0.663   3.174   8.441 -0.4376  1.4928  0.6182
 2808SOL     OW20059   4.370   2.376   9.974  0.1684  0.0371  0.3169
 2808SOL    HW120060   4.366   2.286   9.943  1.7838  0.1871 -0.3158
 2808SOL    HW220061   4.458   2.365  10.010  0.7794 -1.0529 -1.5179
 2809SOL     OW20062   3.042   3.541  15.428  0.6912 -0.3616  0.2157
 2809SOL    HW120063   3.050   3.521  15.335 -0.9462 -0.3451  0.0674
 2809SOL    HW220064   3.112   3.493  15.471  2.9071  3.2825  0.6864
 2810SOL     OW20065   2.764   1.127   8.754  0.0926 -0.0725  0.4929
 2810SOL    HW120066   2.814   1.096   8.678  0.4605  1.0458  0.2802
 2810SOL    HW220067   2.719   1.054   8.796 -0.6353  0.6173  0.9016
 2811SOL     OW20068   4.528   3.075   1.979  0.1584  0.7080 -0.4165
 2811SOL    HW120069   4.592   3.071   2.049  0.8478 -0.3440 -1.1180
 2811SOL    HW220070   4.516   2.983   1.955 -0.4788  0.9655 -1.0782
 2812SOL     OW20071   2.832   4.395  10.330  0.1451  0.3984 -0.3040
 2812SOL    HW120072   2.875   4.424  10.411 -1.0143 -0.8073  0.7530
 2812SOL    HW220073   2.834   4.299  10.332 -0.0563  0.3807 -1.0083
 2813SOL     OW20074   1.462   0.452   4.512  0.1117 -0.3805  0.4541
 2813SOL    HW120075   1.417   0.536   4.518 -0.4932 -0.6216 -0.8034
 2813SOL    HW220076   1.389   0.392   4.499 -0.3817  0.1172  0.9252
 2814SOL     OW20077   2.882   2.413  12.392 -0.2755 -0.3128  0.0914
 2814SOL    HW120078   2.941   2.461  12.451 -2.4252  2.5845 -0.0707
 2814SOL    HW220079   2.917   2.437  12.306 -0.9858 -1.2952 -0.4703
 2815SOL     OW20080   2.005   2.488   1.869 -0.5127  0.2317  0.1877
 2815SOL    HW120081   1.911   2.475   1.880 -0.9217  2.9850  0.1311
 2815SOL    HW220082   2.010   2.583   1.857  1.7617  0.1785  0.8047
 2816SOL     OW20083   3.577   1.266   6.669 -0.1230  0.6764  0.0750
 2816SOL    HW120084   3.486   1.275   6.642 -0.7936 -1.4102  1.6285
 2816SOL    HW220085   3.571   1.283   6.764 -0.9973  1.9411 -0.2000
 2817SOL     OW20086   3.477   4.604   6.452  0.5198 -0.6397  0.1603
 2817SOL    HW120087   3.495   4.518   6.489 -0.6002 -0.1487  1.8359
 2817SOL    HW220088   3.526   4.607   6.370 -0.4199 -2.7854 -0.4827
 2818SOL     OW20089   3.703   1.691   4.184 -0.5862 -0.6205 -0.0102
 2818SOL    HW120090   3.676   1.656   4.269  0.2392 -0.6496  0.2337
 2818SOL    HW220091   3.622   1.733   4.154  0.0286 -0.0704 -0.8896
 2819SOL     OW20092   2.687   2.652   6.564 -0.3603  0.2662 -0.0842
 2819SOL    HW120093   2.713   2.560   6.561 -2.2466 -0.2196 -1.9480
 2819SOL    HW220094   2.650   2.649   6.652  0.3141 -2.8490  0.0904
 2820SOL     OW20095   1.298   0.675  12.711  0.4070  0.0781 -0.1742
 2820SOL    HW120096   1.268   0.604  12.767 -1.8981  0.3600 -1.0652
 2820SOL    HW220097   1.224   0.694  12.654  1.2723  2.7905 -0.3890
 2821SOL     OW20098   2.657   2.303   7.376 -0.0446 -0.1028  0.8469
 2821SOL    HW120099   2.594   2.305   7.304 -0.6797  0.2696  1.4160
 2821SOL    HW220100   2.609   2.259   7.445  0.8093 -1.2254  0.7301
 2822SOL     OW20101   1.024   3.434   5.722  0.0762 -0.0571  0.1334
 2822SOL    HW120102   1.066   3.349   5.703  0.9208  0.7223 -1.5272
 2822SOL    HW220103   0.941   3.408   5.681  1.0965 -2.0223 -0.7112
 2823SOL     OW20104   2.580   1.521   8.298 -0.0957  0.1180 -0.0122
 2823SOL    HW120105   2.666   1.560   8.307  0.9276 -1.6721 -1.9403
 2823SOL    HW220106   2.596   1.427   8.306  0.7325 -0.1052 -4.0070
 2824SOL     OW20107   3.758   3.691   0.922  0.1169  0.1001  0.4099
 2824SOL    HW120108   3.738   3.677   1.014  2.3107  0.2685  0.9063
 2824SOL    HW220109   3.753   3.787   0.917 -0.9498  0.1803  2.7810
 2825SOL     OW20110   4.331   0.701  15.856  0.2257  0.0689  0.1411
 2825SOL    HW120111   4.320   0.775  15.915 -1.8398  0.4877 -0.7606
 2825SOL    HW220112   4.332   0.755  15.777 -0.6628 -1.3343 -0.8195
 2826SOL     OW20113   2.918   4.641   4.059  0.4462  0.0350 -0.6357
 2826SOL    HW120114   2.902   4.570   3.996  0.0356 -0.2169 -0.2440
 2826SOL    HW220115   3.013   4.633   4.060  0.4350 -0.1092 -0.7567
 2827SOL     OW20116   0.331   3.672   5.512 -0.0687  0.0569  0.6690
 2827SOL    HW120117   0.242   3.685   5.545 -1.0858 -3.5230 -0.6344
 2827SOL    HW220118   0.317   3.592   5.460  0.0368 -0.3225  1.2304
 2828SOL     OW20119   4.408   1.863   6.326  0.0971  0.2984 -0.7488
 2828SOL    HW120120   4.438   1.774   6.309  1.0902  0.5599 -0.3267
 2828SOL    HW220121   4.483   1.920   6.311  0.3224 -0.5143 -2.7284
 2829SOL     OW20122   2.294   3.958  11.084 -0.0110  0.2126  0.6333
 2829SOL    HW120123   2.321   3.908  11.161 -1.1828 -0.8273  0.3811
 2829SOL    HW220124   2.275   4.033  11.141  0.9298  0.2481  0.8990
 2830SOL     OW20125   1.091   3.315  11.528  0.0524 -0.2994 -0.2241
 2830SOL    HW120126   1.080   3.409  11.543  0.5896 -0.0340 -1.5522
 2830SOL    HW220127   1.013   3.295  11.477 -0.1715  0.8380 -0.3275
 2831SOL     OW20128   4.547   1.196   4.144  0.1041  0.3463 -0.1334
 2831SOL    HW120129   4.619   1.149   4.187 -0.3677 -0.9079 -0.6895
 2831SOL    HW220130   4.474   1.158   4.193  1.0033 -1.8927 -0.5237
 2832SOL     OW20131   2.052   3.458  10.733  0.8275 -0.3286  0.3937
 2832SOL    HW120132   2.141   3.485  10.712  0.4864 -0.5405 -1.3614
 2832SOL    HW220133   2.046   3.508  10.814 -0.7438 -0.7159  0.5247
 2833SOL     OW20134   4.452   2.885   8.618 -0.7563  0.7963  0.4319
 2833SOL    HW120135   4.389   2.955   8.635 -1.7395  1.1797 -4.6904
 2833SOL    HW220136   4.399   2.838   8.553  2.8039 -1.6173 -0.7777
 2834SOL     OW20137   1.526   2.225   4.987  0.3220  0.4717 -0.0322
 2834SOL    HW120138   1.593   2.182   4.934  0.3663 -0.1026  0.4907
 2834SOL    HW220139   1.561   2.307   5.022  0.5046  1.5325 -2.7424
 2835SOL     OW20140   0.071   1.813   5.394  0.3822  0.2895  0.2212
 2835SOL    HW120141   4.729   1.858   5.383  0.4338  0.2691 -0.2367
 2835SOL    HW220142   0.069   1.752   5.321 -0.1930 -0.4321  0.8429
 2836SOL     OW20143   4.350   0.588  12.533 -0.1704  0.1143 -0.0047
 2836SOL    HW120144   4.308   0.674  12.539  1.8841  1.1139 -0.0859
 2836SOL    HW220145   4.434   0.607  12.573 -0.5537 -0.2684  0.9836
 2837SOL     OW20146   3.330   3.900   6.052 -0.6307 -0.0456 -0.4209
 2837SOL    HW120147   3.384   3.973   6.083 -0.2833  0.5509 -2.4631
 2837SOL    HW220148   3.336   3.839   6.126  1.9318 -1.1718 -1.5593
 2838SOL     OW20149   3.339   2.616  10.938 -0.3153 -0.6360 -0.0491
 2838SOL    HW120150   3.418   2.624  10.991  1.4937  1.6841 -3.1606
 2838SOL    HW220151   3.297   2.542  10.982 -1.3170  0.3681  0.7109
 2839SOL     OW20152   2.012   4.438   8.967  0.2551 -0.1182 -0.0862
 2839SOL    HW120153   1.943   4.384   8.928  0.3105  1.4413 -2.3097
 2839SOL    HW220154   2.072   4.368   8.995 -0.3107  0.1457  1.8147
 2840SOL     OW20155   0.336   1.064   6.522 -0.0139  0.2333  0.4537
 2840SOL    HW120156   0.330   0.970   6.501 -1.4117  0.7681 -1.5379
 2840SOL    HW220157   0.429   1.078   6.540  0.6327 -3.8541  0.2752
 2841SOL     OW20158   3.360   4.060  16.437  0.0117 -0.0252 -0.1953
 2841SOL    HW120159   3.288   4.003  16.411 -1.0738  1.3423 -0.2006
 2841SOL    HW220160   3.317   4.144  16.421  0.9797  0.2998 -1.1087
 2842SOL     OW20161   2.817   2.365   8.889  0.5575  1.0653  0.5663
 2842SOL    HW120162   2.789   2.446   8.931 -1.0959  0.3721  0.7825
 2842SOL    HW220163   2.881   2.398   8.825 -1.3128 -0.7111 -2.2221
 2843SOL     OW20164   1.643   1.202  11.877  0.8065 -0.1516  0.5057
 2843SOL    HW120165   1.591   1.122  11.867 -0.1703  0.4757  0.5823
 2843SOL    HW220166   1.726   1.168  11.911  0.5003 -0.4140  0.9767
 2844SOL     OW20167   3.347   0.153   3.828  0.4646  0.1095  0.3878
 2844SOL    HW120168   3.294   0.086   3.784  0.8097  0.0682  0.0362
 2844SOL    HW220169   3.434   0.122   3.804  0.2298 -0.8881  0.8088
 2845SOL     OW20170   2.610   1.919   2.397  0.1131 -0.5907  0.2172
 2845SOL    HW120171   2.565   1.882   2.474 -1.5654  0.1452 -0.4074
 2845SOL    HW220172   2.549   1.905   2.325 -0.2317 -0.0888  0.4089
 2846SOL     OW20173   2.781   3.742   8.916  0.2737 -0.0904 -0.0394
 2846SOL    HW120174   2.710   3.739   8.851  1.0916 -1.5407 -0.8649
 2846SOL    HW220175   2.845   3.686   8.872 -0.2866  0.2033 -1.2074
 2847SOL     OW20176   2.735   2.420  12.612 -0.4176  0.8520  0.0011
 2847SOL    HW120177   2.649   2.385  12.588 -0.3117 -0.9275  2.1876
 2847SOL    HW220178   2.798   2.395  12.544 -0.7467 -0.3615  0.1400
 2848SOL     OW20179   3.604   4.537   8.494 -0.1699 -0.7356  0.3590
 2848SOL    HW120180   3.530   4.597   8.485  0.6031 -0.0581 -1.5065
 2848SOL    HW220181   3.648   4.565   8.573  1.9291  0.8627 -1.3789
 2849SOL     OW20182   2.700   0.141   4.052  0.5532  0.3739 -0.1311
 2849SOL    HW120183   2.757   0.161   3.978  1.7561 -1.3116  0.3427
 2849SOL    HW220184   2.732   0.066   4.101 -1.0020 -0.8395 -0.9785
 2850SOL     OW20185   0.520   1.134   7.479 -0.2184 -0.1887  0.2348
 2850SOL    HW120186   0.488   1.192   7.409 -0.8158 -0.3758  0.3545
 2850SOL    HW220187   0.546   1.056   7.430 -3.0922 -0.8371 -0.2263
 2851SOL     OW20188   1.078   3.275  15.374 -0.0194 -0.2513 -0.8374
 2851SOL    HW120189   0.984   3.291  15.367  0.2473  1.5281 -0.2559
 2851SOL    HW220190   1.066   3.191  15.419 -0.5977  0.6387  0.6540
 2852SOL     OW20191   1.379   1.507  10.693  0.1991  0.0405  0.8704
 2852SOL    HW120192   1.345   1.596  10.682  1.2628  0.6372  2.3962
 2852SOL    HW220193   1.419   1.520  10.779 -0.5956 -1.1409  1.4176
 2853SOL     OW20194   0.310   2.023   5.059  0.3330  0.1956  0.1750
 2853SOL    HW120195   0.398   2.029   5.097  0.8315 -0.9894 -0.8353
 2853SOL    HW220196   0.286   1.931   5.064 -0.1369  0.3200  0.2165
 2854SOL     OW20197   2.377   3.853   2.428  0.1881 -0.1721  0.2380
 2854SOL    HW120198   2.296   3.899   2.410  0.5207  0.3745  0.1589
 2854SOL    HW220199   2.374   3.821   2.519 -2.3838 -1.2468 -0.2340
 2855SOL     OW20200   1.207   1.678   8.151  0.4364 -0.1231 -0.4737
 2855SOL    HW120201   1.222   1.685   8.057  1.6690 -0.0703 -0.2753
 2855SOL    HW220202   1.256   1.597   8.168  1.1860  0.0975 -1.6025
 2856SOL     OW20203   3.692   3.433  17.135  0.0254  0.5020  0.4364
 2856SOL    HW120204   3.641   3.499  17.180  1.2073  0.2462  2.1542
 2856SOL    HW220205   3.640   3.405  17.059  1.2637  1.5917 -0.8112
 2857SOL     OW20206   0.026   3.775   4.252  0.4024  0.0575  0.3381
 2857SOL    HW120207   4.715   3.703   4.285 -0.3596  0.5869  0.2731
 2857SOL    HW220208   0.003   3.837   4.321 -0.6999  1.2414 -1.1103
 2858SOL     OW20209   2.229   4.709   6.032  0.4922  0.0791  0.3597
 2858SOL    HW120210   2.245   4.616   6.023 -1.0827  0.0006 -1.6035
 2858SOL    HW220211   2.189   4.717   6.119 -0.8122  1.7716 -0.3873
 2859SOL     OW20212   4.025   0.891   4.057 -0.1825 -0.8250  0.4029
 2859SOL    HW120213   4.029   0.845   4.141 -2.3623  0.9534  1.4760
 2859SOL    HW220214   4.118   0.883   4.035  0.0232  0.1537  0.9180
 2860SOL     OW20215   0.297   2.904   2.855  0.5675 -0.3573  0.0533
 2860SOL    HW120216   0.358   2.946   2.915  1.2171 -1.3949  0.1231
 2860SOL    HW220217   0.306   2.811   2.877 -1.5119 -1.1606 -2.4717
 2861SOL     OW20218   2.554   2.204   7.624  0.3189  0.0876  0.3000
 2861SOL    HW120219   2.461   2.224   7.628  0.8980  2.5714  1.4630
 2861SOL    HW220220   2.589   2.267   7.688 -0.5906  0.8281  0.0633
 2862SOL     OW20221   1.398   0.829  15.557  0.2058  0.0083 -0.0454
 2862SOL    HW120222   1.322   0.881  15.582  0.8932 -0.0969  2.2562
 2862SOL    HW220223   1.371   0.787  15.476  1.1622  1.0476 -0.9032
 2863SOL     OW20224   0.991   0.321   3.939  0.0172 -0.2145  0.7472
 2863SOL    HW120225   0.907   0.308   3.895  0.3907  2.6620 -0.8422
 2863SOL    HW220226   1.056   0.296   3.874  0.3265 -0.1581  1.0383
 2864SOL     OW20227   3.423   0.961   8.240  0.4184  0.2040  0.0540
 2864SOL    HW120228   3.401   0.999   8.155 -1.5433  0.9798  0.8915
 2864SOL    HW220229   3.349   0.903   8.261  0.7228  0.3225  1.4494
 2865SOL     OW20230   3.524   2.308   5.881  0.0437 -0.0469  0.0777
 2865SOL    HW120231   3.479   2.336   5.801 -1.6049 -0.1266  0.9858
 2865SOL    HW220232   3.613   2.341   5.865 -0.4607  0.2203 -2.1237
 2866SOL     OW20233   0.929   3.762   8.436 -0.2493  0.2034  0.5475
 2866SOL    HW120234   0.973   3.676   8.441 -0.9031 -0.1947 -0.7753
 2866SOL    HW220235   0.957   3.808   8.515 -0.7446  3.6199 -1.2802
 2867SOL     OW20236   4.025   3.680   6.150 -0.3375 -0.3675  0.0737
 2867SOL    HW120237   4.115   3.648   6.141  0.3033  2.1523 -2.8618
 2867SOL    HW220238   4.042   3.723   6.233  1.6605 -0.1255 -0.4629
 2868SOL     OW20239   0.723   3.568   2.871 -0.0967  0.9856 -0.4112
 2868SOL    HW120240   0.649   3.507   2.871  0.4510  0.3215 -0.4611
 2868SOL    HW220241   0.680   3.642   2.914 -2.7083 -1.8679  1.8914
 2869SOL     OW20242   0.892   3.538   1.534 -0.3990 -0.0986 -0.0242
 2869SOL    HW120243   0.860   3.594   1.464  1.2855  0.8595 -0.0292
 2869SOL    HW220244   0.834   3.551   1.609 -0.8213 -2.1777  0.0211
 2870SOL     OW20245   1.535   0.409  16.017  0.3628  0.1348 -0.5382
 2870SOL    HW120246   1.579   0.461  15.950  2.4276 -2.0883 -0.9151
 2870SOL    HW220247   1.500   0.330  15.975 -0.0590 -0.2662  0.5623
 2871SOL     OW20248   3.085   3.280   5.967 -0.2926  0.1957 -0.1690
 2871SOL    HW120249   3.028   3.208   5.996  2.8038 -1.8192  1.0181
 2871SOL    HW220250   3.075   3.346   6.036  0.8075 -0.0029  0.1883
 2872SOL     OW20251   4.261   0.256   2.180 -0.2820  0.2696 -0.5648
 2872SOL    HW120252   4.207   0.322   2.136 -0.5171  0.4642  0.0120
 2872SOL    HW220253   4.247   0.286   2.269 -1.1150  0.5172 -0.7806
 2873SOL     OW20254   2.662   3.443   1.130  0.1834  0.0162 -0.4890
 2873SOL    HW120255   2.722   3.424   1.202 -1.1513 -0.4925  0.4770
 2873SOL    HW220256   2.682   3.529   1.094 -0.2872  1.8951  3.8109
 2874SOL     OW20257   0.442   2.076   4.744  0.0268 -0.0043 -0.3511
 2874SOL    HW120258   0.508   2.026   4.794  1.5216  1.6762 -0.6324
 2874SOL    HW220259   0.379   2.123   4.797 -1.4263 -2.4777  0.1099
 2875SOL     OW20260   0.956   0.797  11.905 -0.1436  0.4039  0.1083
 2875SOL    HW120261   1.051   0.797  11.900 -0.2507  0.4633 -1.6677
 2875SOL    HW220262   0.957   0.791  12.001  0.5396  0.6930  0.1205
 2876SOL     OW20263   2.387   1.646   4.572 -0.2868  0.0937 -0.0895
 2876SOL    HW120264   2.332   1.707   4.622 -0.5234  0.8534 -1.2947
 2876SOL    HW220265   2.443   1.607   4.639  1.2671  1.2268 -0.7320
 2877SOL     OW20266   2.833   0.666  15.404 -0.2512 -0.1222  0.7541
 2877SOL    HW120267   2.825   0.665  15.500 -2.6987  0.9361  0.5780
 2877SOL    HW220268   2.788   0.586  15.377 -0.5681 -0.7638  3.1447
 2878SOL     OW20269   1.843   4.335   5.296  0.1126  0.2054  0.2311
 2878SOL    HW120270   1.860   4.429   5.294  2.9108 -0.3013  0.3374
 2878SOL    HW220271   1.923   4.292   5.326  1.0607  2.2353  0.6135
 2879SOL     OW20272   1.691   1.193   9.526  0.0929 -0.3346 -0.0822
 2879SOL    HW120273   1.631   1.177   9.599 -2.2214  0.4244 -1.8180
 2879SOL    HW220274   1.774   1.151   9.551 -0.6543 -1.4487  0.5362
 2880SOL     OW20275   4.013   1.451   3.926 -0.4822  0.0968  0.5857
 2880SOL    HW120276   4.096   1.472   3.884 -1.4487  1.4389 -0.6539
 2880SOL    HW220277   4.027   1.358   3.946  1.6128  0.5155  1.0223
 2881SOL     OW20278   0.373   4.459   8.990  0.1915  0.2691  0.0059
 2881SOL    HW120279   0.462   4.451   8.956  0.6406 -0.7133  1.4232
 2881SOL    HW220280   0.330   4.424   8.911  0.8518  0.4720 -0.4468
 2882SOL     OW20281   1.479   1.738   7.333 -0.1902  0.2232 -0.0867
 2882SOL    HW120282   1.527   1.754   7.414 -2.6062 -2.6517  1.8630
 2882SOL    HW220283   1.500   1.816   7.281  1.5063  0.5670  1.0830
 2883SOL     OW20284   3.993   2.263   9.748 -0.3233 -0.0605 -0.2674
 2883SOL    HW120285   4.001   2.173   9.781  0.0709  0.1280  0.1473
 2883SOL    HW220286   4.022   2.307   9.828 -1.6511 -1.6079  1.0828
 2884SOL     OW20287   1.416   2.699   4.261  0.1322  0.1384 -0.1342
 2884SOL    HW120288   1.404   2.781   4.214  1.9036  0.6984  0.3898
 2884SOL    HW220289   1.511   2.693   4.269  0.2419  1.7209 -0.2643
 2885SOL     OW20290   2.801   0.121   7.051 -0.6218  0.1541  0.1979
 2885SOL    HW120291   2.775   0.052   7.112  0.5264 -0.7675 -0.3481
 2885SOL    HW220292   2.891   0.134   7.081 -0.0351 -1.7141 -0.7696
 2886SOL     OW20293   3.207   2.071  14.933  0.1243 -0.1890 -0.3071
 2886SOL    HW120294   3.134   2.127  14.960  0.6551  0.9249 -1.1960
 2886SOL    HW220295   3.281   2.132  14.930 -1.3167  1.4992 -1.2931
 2887SOL     OW20296   2.785   0.166   1.264 -0.1473  0.5802  0.4163
 2887SOL    HW120297   2.814   0.086   1.308  2.1228  0.9318 -0.4318
 2887SOL    HW220298   2.788   0.142   1.171 -1.0954  1.5881  0.1296
 2888SOL     OW20299   4.385   4.527   1.640 -0.1105  0.5002  0.3543
 2888SOL    HW120300   4.480   4.536   1.648 -0.0664  0.8244 -0.5369
 2888SOL    HW220301   4.375   4.486   1.554 -0.1441 -1.8683  1.4972
 2889SOL     OW20302   4.360   2.862  11.117  0.4799 -0.0734 -0.0510
 2889SOL    HW120303   4.267   2.869  11.095  0.5213 -2.6620 -1.0006
 2889SOL    HW220304   4.402   2.919  11.052 -3.1696 -0.6054 -2.9066
 2890SOL     OW20305   0.419   1.259   3.522  0.4118  0.1674 -0.1045
 2890SOL    HW120306   0.339   1.312   3.518  1.2014  1.3674  0.0034
 2890SOL    HW220307   0.441   1.267   3.615 -0.0421 -1.1870  0.1145
 2891SOL     OW20308   2.429   4.161   8.983 -0.1500 -0.1924  0.3465
 2891SOL    HW120309   2.521   4.170   8.956 -0.7129 -0.9899 -1.7418
 2891SOL    HW220310   2.424   4.066   8.974 -1.9356 -0.0830  0.3462
 2892SOL     OW20311   2.401   2.159   9.089 -0.3218  0.5206 -0.4267
 2892SOL    HW120312   2.356   2.075   9.087 -0.1227  0.3636  2.0073
 2892SOL    HW220313   2.382   2.186   9.179  0.4220 -1.4783  0.3219
 2893SOL     OW20314   2.873   4.703   0.569  0.0374 -0.2816 -0.3272
 2893SOL    HW120315   2.902   0.020   0.638 -0.4869  1.2306 -1.4246
 2893SOL    HW220316   2.943   4.637   0.577  0.3089  0.0615  0.1174
 2894SOL     OW20317   1.152   4.369  14.652 -0.9053 -0.0455 -0.0821
 2894SOL    HW120318   1.107   4.411  14.579 -1.1293  0.4412  0.3370
 2894SOL    HW220319   1.238   4.410  14.664 -1.5563  1.1952  0.3124
 2895SOL     OW20320   0.704   2.734   7.922  0.1497 -0.2109 -0.2357
 2895SOL    HW120321   0.697   2.820   7.881 -0.0989 -0.4533 -0.7143
 2895SOL    HW220322   0.713   2.676   7.846  1.4557 -0.1074 -0.1510
 2896SOL     OW20323   4.384   0.635   4.319 -0.7072  0.2241  0.4182
 2896SOL    HW120324   4.379   0.566   4.385  0.3005 -0.5191 -0.2948
 2896SOL    HW220325   4.446   0.588   4.264 -0.1429  1.6074 -0.1345
 2897SOL     OW20326   4.717   3.803   5.869  0.7056  0.0663  0.1551
 2897SOL    HW120327   0.032   3.760   5.932 -0.8512 -2.1742  0.0501
 2897SOL    HW220328   4.670   3.723   5.843  1.2762 -0.4522  0.7449
 2898SOL     OW20329   1.436   0.380   6.376  0.1129 -0.2300 -0.3427
 2898SOL    HW120330   1.378   0.309   6.347  0.7980 -1.2635  0.8460
 2898SOL    HW220331   1.477   0.420   6.299  0.6307  0.6900  0.4116
 2899SOL     OW20332   1.517   4.683   4.842 -0.1287  0.0356  0.4551
 2899SOL    HW120333   1.454   0.001   4.881 -0.9170 -0.5651  0.1231
 2899SOL    HW220334   1.472   4.627   4.778  0.8396 -1.6760  1.2690
 2900SOL     OW20335   0.207   4.611   6.137 -0.2676  0.2066 -0.1547
 2900SOL    HW120336   0.163   4.549   6.080 -1.9349 -0.1330  1.4864
 2900SOL    HW220337   0.133   4.670   6.154 -1.2439 -1.3717  1.1236
 2901SOL     OW20338   1.446   1.533   5.692  0.1791 -0.2045 -0.8421
 2901SOL    HW120339   1.434   1.506   5.783  1.4809  0.6771 -0.4130
 2901SOL    HW220340   1.401   1.464   5.642 -2.7950 -0.2524  1.9042
 2902SOL     OW20341   3.159   0.220   3.577  0.1183 -0.4922  0.0803
 2902SOL    HW120342   3.254   0.210   3.578  0.3491  1.8895  0.2791
 2902SOL    HW220343   3.153   0.310   3.607  0.8759 -0.3792 -0.1023
 2903SOL     OW20344   0.308   3.627   2.781 -0.2783 -1.0237 -0.0968
 2903SOL    HW120345   0.372   3.624   2.853 -0.5828  2.3870  0.3423
 2903SOL    HW220346   0.275   3.538   2.781 -0.1025 -1.0839 -1.3969
 2904SOL     OW20347   1.398   1.257   3.289 -0.6569  0.1848  0.3084
 2904SOL    HW120348   1.410   1.346   3.255 -0.6421  0.6421  1.5320
 2904SOL    HW220349   1.315   1.237   3.245 -0.1016  0.4716 -0.8672
 2905SOL     OW20350   2.025   3.172   3.420 -0.3259 -0.0003  0.0102
 2905SOL    HW120351   2.050   3.154   3.511 -0.6099  1.0168  0.2882
 2905SOL    HW220352   2.104   3.148   3.371 -1.1976 -1.4928 -0.6377
 2906SOL     OW20353   0.023   3.815   3.031  0.4689  0.2711  0.4075
 2906SOL    HW120354   0.025   3.899   2.984  1.9463  0.1779  0.3213
 2906SOL    HW220355   0.076   3.827   3.109 -2.1920 -0.9634  2.3891
 2907SOL     OW20356   3.233   1.314   5.039 -0.0491  0.1222 -0.0476
 2907SOL    HW120357   3.189   1.307   5.124 -0.6029  0.1138 -0.3319
 2907SOL    HW220358   3.243   1.225   5.006 -0.3718  0.6816 -1.6330
 2908SOL     OW20359   0.032   3.576  17.510  0.2578 -0.3774  0.1198
 2908SOL    HW120360   0.062   3.485  17.512  1.3518 -0.0360 -0.9784
 2908SOL    HW220361   4.698   3.569  17.452  1.3432  0.8733 -1.4436
 2909SOL     OW20362   1.019   3.962   6.857 -0.0089  0.0706 -0.1594
 2909SOL    HW120363   1.073   4.035   6.886  1.0041 -1.0292  0.7197
 2909SOL    HW220364   0.961   3.939   6.929 -2.5087  0.5324 -2.0306
 2910SOL     OW20365   1.472   2.215   1.882  0.6857 -0.6224  0.3437
 2910SOL    HW120366   1.512   2.186   1.799  2.4818 -0.7352  1.2436
 2910SOL    HW220367   1.385   2.232   1.847 -0.0783 -1.4507  1.8816
 2911SOL     OW20368   2.936   1.828  12.600  0.0693  0.2386  0.0075
 2911SOL    HW120369   2.852   1.780  12.598  0.6865 -0.9071  2.4944
 2911SOL    HW220370   2.993   1.762  12.561  0.0608 -0.9308  2.0139
 2912SOL     OW20371   2.769   2.418   6.116 -0.6009  0.1171  0.1072
 2912SOL    HW120372   2.699   2.388   6.175 -0.8981  1.6101  0.5056
 2912SOL    HW220373   2.846   2.420   6.173 -0.6834  2.0150  0.1473
 2913SOL     OW20374   0.672   3.442  14.172  0.2110 -0.2199 -0.6921
 2913SOL    HW120375   0.715   3.477  14.094  2.4801 -1.4964 -0.0368
 2913SOL    HW220376   0.737   3.435  14.243 -0.5780  2.8946  0.3145
 2914SOL     OW20377   0.696   1.791  11.115 -0.3887  0.4697  0.5565
 2914SOL    HW120378   0.752   1.743  11.176 -2.6934 -1.8915  0.8385
 2914SOL    HW220379   0.726   1.752  11.033 -2.1585 -0.5594  0.3990
 2915SOL     OW20380   4.236   2.147   4.451 -0.0064  0.2162 -0.4912
 2915SOL    HW120381   4.143   2.162   4.434 -0.3313 -1.6097 -0.3646
 2915SOL    HW220382   4.273   2.178   4.369  0.4852  1.7947  0.3312
 2916SOL     OW20383   1.083   1.762   0.091  0.1005  0.0792 -0.5034
 2916SOL    HW120384   1.106   1.706   0.165 -0.2662 -1.3631 -1.4830
 2916SOL    HW220385   0.989   1.751   0.073 -0.0219  1.2974 -0.6256
 2917SOL     OW20386   2.973   2.603  13.985 -0.1126  0.4103  0.0167
 2917SOL    HW120387   2.937   2.676  13.935  0.8025  2.7601  2.8115
 2917SOL    HW220388   3.059   2.639  14.002  0.3150  0.1322 -1.5183
 2918SOL     OW20389   2.274   1.717   5.537 -0.2369 -0.4077 -0.0965
 2918SOL    HW120390   2.180   1.699   5.534 -0.0849 -1.5511  1.5153
 2918SOL    HW220391   2.284   1.792   5.479 -2.5001  0.8584  1.1563
 2919SOL     OW20392   0.663   1.217   5.123  0.4526 -0.4798 -0.5907
 2919SOL    HW120393   0.578   1.174   5.126  0.4536 -0.4981 -0.8456
 2919SOL    HW220394   0.699   1.178   5.044 -2.3005 -0.0614 -2.0561
 2920SOL     OW20395   1.147   0.467   4.458  0.4052 -0.4478  0.2539
 2920SOL    HW120396   1.124   0.549   4.413  0.0356 -0.1976  0.8946
 2920SOL    HW220397   1.138   0.413   4.380 -0.9322  0.6836 -0.3669
 2921SOL     OW20398   1.054   1.466   8.374 -0.4703 -0.6457  0.0179
 2921SOL    HW120399   1.043   1.416   8.293 -2.7631  1.2375 -0.8619
 2921SOL    HW220400   1.145   1.489   8.357 -0.2312 -1.8662 -0.3351
 2922SOL     OW20401   3.370   0.967   4.741  0.3208  0.1589  0.1524
 2922SOL    HW120402   3.377   1.014   4.658 -0.8251 -0.2492 -0.1716
 2922SOL    HW220403   3.308   0.896   4.723  0.2275  0.1464  0.5192
 2923SOL     OW20404   0.039   1.693   8.757 -0.2570 -0.1155 -0.3689
 2923SOL    HW120405   0.056   1.671   8.665  0.5725 -0.5250 -0.1189
 2923SOL    HW220406   0.131   1.711   8.774 -0.1875 -0.9977  0.1815
 2924SOL     OW20407   2.270   4.475   5.372 -0.0117 -0.2198 -0.3941
 2924SOL    HW120408   2.212   4.534   5.421  0.8188 -1.0190  1.5474
 2924SOL    HW220409   2.308   4.543   5.316  0.7703  1.3880  2.0927
 2925SOL     OW20410   0.197   4.022  14.862  0.2081 -0.5830 -0.2195
 2925SOL    HW120411   0.141   4.014  14.939 -0.9386 -2.2940 -1.2279
 2925SOL    HW220412   0.135   4.074  14.812 -0.2609 -1.6566 -0.7630
 2926SOL     OW20413   2.385   1.058   8.893  0.2904  0.2833  0.1076
 2926SOL    HW120414   2.429   0.987   8.939  1.7731  0.8779 -0.4097
 2926SOL    HW220415   2.394   1.040   8.799 -0.1154 -0.3773  0.1949
 2927SOL     OW20416   3.238   1.207   6.668 -0.0967 -0.4043 -0.2132
 2927SOL    HW120417   3.212   1.179   6.756 -2.1244  1.5005 -0.2171
 2927SOL    HW220418   3.184   1.282   6.643  2.4348  1.8883  1.1882
 2928SOL     OW20419   3.923   2.560   2.163  0.0917  0.2728 -0.3048
 2928SOL    HW120420   3.978   2.506   2.105  1.7670  0.6917  0.8849
 2928SOL    HW220421   3.964   2.553   2.250  0.4825  0.4165 -0.4798
 2929SOL     OW20422   3.590   3.922  15.908 -0.1657 -0.1991 -0.1646
 2929SOL    HW120423   3.539   3.911  15.988 -0.3302  3.5101  0.2583
 2929SOL    HW220424   3.556   3.849  15.857  1.1573 -0.2683 -0.9691
 2930SOL     OW20425   4.574   1.870   2.171 -0.3097  0.4944  0.9421
 2930SOL    HW120426   4.585   1.806   2.242 -1.2924 -0.1294  0.5351
 2930SOL    HW220427   4.573   1.955   2.214  0.6060  0.4814  0.9885
 2931SOL     OW20428   0.275   1.332   6.456 -0.0837  0.7879  0.4214
 2931SOL    HW120429   0.349   1.351   6.514  1.0520  0.8322 -1.0527
 2931SOL    HW220430   0.298   1.240   6.440  1.8907  1.1609  1.0904
 2932SOL     OW20431   0.949   2.789   6.677 -0.1512  0.3154  0.3117
 2932SOL    HW120432   0.888   2.724   6.712 -1.5980  1.4450 -0.1324
 2932SOL    HW220433   0.917   2.802   6.588  0.6258  0.9828  0.1246
 2933SOL     OW20434   0.868   3.005   8.607 -0.2295 -0.3087  0.4866
 2933SOL    HW120435   0.951   3.004   8.561  0.6543 -0.0973  2.0723
 2933SOL    HW220436   0.837   3.082   8.560  0.7356  0.0567  0.4473
 2934SOL     OW20437   1.802   0.213   4.026 -0.0519 -0.3982  0.3180
 2934SOL    HW120438   1.780   0.215   4.119 -1.0138  2.8238  0.0287
 2934SOL    HW220439   1.750   0.283   3.986 -3.9549 -0.9453  4.3631
 2935SOL     OW20440   1.723   0.698   8.517  0.4511  0.0903 -0.3013
 2935SOL    HW120441   1.748   0.776   8.567  0.6486  0.3556 -0.8053
 2935SOL    HW220442   1.649   0.741   8.475 -1.6071 -2.2284  1.0156
 2936SOL     OW20443   2.279   3.280   8.440  0.4442 -0.0522 -0.3153
 2936SOL    HW120444   2.315   3.210   8.385  1.3735 -0.5449  0.9163
 2936SOL    HW220445   2.212   3.236   8.493  1.2222  0.5877  1.2173
 2937SOL     OW20446   0.584   3.042  17.092 -0.5826 -0.2913  0.0004
 2937SOL    HW120447   0.582   3.133  17.122 -1.8551 -1.3372  3.1061
 2937SOL    HW220448   0.631   3.050  17.010  1.9297  0.0123  1.4564
 2938SOL     OW20449   3.451   2.538   8.504  0.1448 -0.2599  0.9763
 2938SOL    HW120450   3.455   2.633   8.503 -1.2228 -0.2231 -0.4952
 2938SOL    HW220451   3.410   2.520   8.589 -0.4178  1.3808  1.0536
 2939SOL     OW20452   1.370   4.218  14.534 -0.2996  0.3411 -0.3625
 2939SOL    HW120453   1.277   4.243  14.542 -1.1037 -2.2304 -1.7697
 2939SOL    HW220454   1.363   4.134  14.489  0.0894 -1.2906  2.6304
 2940SOL     OW20455   0.966   1.914   2.052 -0.3127 -0.0796 -0.1640
 2940SOL    HW120456   0.915   1.853   1.998 -0.4866  0.7526 -0.9524
 2940SOL    HW220457   1.035   1.923   1.986  0.3459  2.0674  0.8268
 2941SOL     OW20458   1.157   2.331  14.665  0.1252 -0.2207  0.1363
 2941SOL    HW120459   1.143   2.358  14.756  2.3051  2.0802 -0.2273
 2941SOL    HW220460   1.070   2.293  14.648  1.3582 -3.7140  1.6305
 2942SOL     OW20461   2.591   0.439   7.073  0.1065 -0.7338  0.4601
 2942SOL    HW120462   2.504   0.444   7.032  1.3909 -0.3413 -2.2276
 2942SOL    HW220463   2.633   0.358   7.041 -0.9440 -1.7712  1.7076
 2943SOL     OW20464   3.467   2.225  11.758 -0.4487 -0.5542 -0.2871
 2943SOL    HW120465   3.425   2.176  11.829 -2.4536  0.4076 -0.7954
 2943SOL    HW220466   3.479   2.150  11.701 -0.6331  0.5841 -1.8211
 2944SOL     OW20467   1.933   1.940  11.505 -0.0286  0.0647  0.2774
 2944SOL    HW120468   1.973   1.931  11.591  2.8180 -0.7730 -1.1271
 2944SOL    HW220469   1.864   1.875  11.505 -0.5704  0.6478  1.2372
 2945SOL     OW20470   1.400   4.618   2.899 -0.3870  0.3602  0.6224
 2945SOL    HW120471   1.345   4.694   2.916 -1.0662 -0.2681  1.2284
 2945SOL    HW220472   1.341   4.564   2.847 -1.6968  1.2898  1.1489
 2946SOL     OW20473   3.079   0.966   9.115 -0.1822  0.2567 -0.1895
 2946SOL    HW120474   3.074   0.949   9.021 -3.5446  0.5745 -0.0834
 2946SOL    HW220475   3.126   1.048   9.100  0.7688 -0.6077 -1.9652
 2947SOL     OW20476   2.763   0.032   1.756 -0.1497 -0.0346 -0.1989
 2947SOL    HW120477   2.805   4.714   1.694  0.5842 -0.7823  1.0434
 2947SOL    HW220478   2.675   0.042   1.719  0.0063 -0.7847 -0.7743
 2948SOL     OW20479   0.891   3.236   4.174  0.2549  0.1705  0.8740
 2948SOL    HW120480   0.940   3.318   4.164 -0.6866  0.6624  0.2059
 2948SOL    HW220481   0.924   3.187   4.249  0.9773 -0.8819 -0.1346
 2949SOL     OW20482   0.389   2.398   7.677 -0.0281  0.2073  0.0767
 2949SOL    HW120483   0.417   2.392   7.769 -0.7671  0.5578  0.3227
 2949SOL    HW220484   0.379   2.309   7.644 -1.6692  0.7331 -0.8228
 2950SOL     OW20485   1.700   2.355   3.080  0.3358  0.1602 -0.0848
 2950SOL    HW120486   1.609   2.362   3.109 -0.3031  0.7728 -2.2382
 2950SOL    HW220487   1.690   2.318   2.992 -1.3158 -0.3379  0.3090
 2951SOL     OW20488   2.987   1.834   3.141  0.4716  0.0542  0.5695
 2951SOL    HW120489   3.065   1.782   3.162 -0.6427 -1.9356 -0.2463
 2951SOL    HW220490   3.009   1.920   3.176  0.5636  0.1510  0.2764
 2952SOL     OW20491   4.662   2.524   0.593 -0.4147 -0.0833 -0.4339
 2952SOL    HW120492   4.690   2.434   0.575 -0.3793 -0.2494  0.4674
 2952SOL    HW220493   4.570   2.519   0.566 -0.4308  0.0565 -0.4017
 2953SOL     OW20494   3.429   2.779   6.201 -0.1783 -0.4516  0.3291
 2953SOL    HW120495   3.430   2.685   6.182  0.4829 -0.0752 -1.5689
 2953SOL    HW220496   3.339   2.809   6.190 -0.5307 -1.7376 -0.1967
 2954SOL     OW20497   4.019   1.073   4.491 -0.0152 -0.0366 -0.5395
 2954SOL    HW120498   4.095   1.106   4.537 -0.2064  1.4881 -1.3271
 2954SOL    HW220499   4.031   1.118   4.407 -0.1862 -0.6234 -0.8900
 2955SOL     OW20500   4.524   0.015  13.513 -0.1930 -0.4652 -0.4843
 2955SOL    HW120501   4.560   4.671  13.491 -2.2641 -1.5070  0.2191
 2955SOL    HW220502   4.596   0.075  13.494  1.3024 -2.6748 -1.8253
 2956SOL     OW20503   0.204   4.320   3.347 -0.1667 -0.5215  0.2810
 2956SOL    HW120504   0.270   4.262   3.384  1.4917  0.5829 -0.9628
 2956SOL    HW220505   0.233   4.316   3.256 -0.3727  2.0642  0.0977
 2957SOL     OW20506   1.887   3.604   8.434  0.0368 -0.3440  0.2942
 2957SOL    HW120507   1.868   3.650   8.352  1.2051 -1.8336 -0.8143
 2957SOL    HW220508   1.826   3.531   8.432  0.7467 -0.9485  0.6359
 2958SOL     OW20509   0.882   4.227   6.980  0.1612  0.2719  0.0546
 2958SOL    HW120510   0.919   4.204   7.065  1.4598  0.8713 -0.3491
 2958SOL    HW220511   0.957   4.273   6.943  0.7398 -0.0074  0.8878
 2959SOL     OW20512   3.795   3.386   9.605 -0.7643 -0.1359 -0.4869
 2959SOL    HW120513   3.753   3.418   9.525 -3.4414 -4.6866 -0.8909
 2959SOL    HW220514   3.841   3.308   9.572  0.7008  0.3884  0.3005
 2960SOL     OW20515   4.492   4.011   2.230 -0.3031 -0.5756  0.3179
 2960SOL    HW120516   4.480   4.091   2.281  2.1884  0.1676 -0.2383
 2960SOL    HW220517   4.479   3.949   2.302 -0.3069 -0.3201  0.5374
 2961SOL     OW20518   1.421   1.151   8.815  0.2856 -0.0900 -0.6259
 2961SOL    HW120519   1.482   1.222   8.796 -0.4085  0.7841  0.4280
 2961SOL    HW220520   1.367   1.154   8.736 -1.3837  1.3296  0.5672
 2962SOL     OW20521   4.660   2.764  10.906 -0.1006  0.7210 -0.0356
 2962SOL    HW120522   4.597   2.696  10.930  1.0119 -0.4554 -0.4480
 2962SOL    HW220523   4.650   2.824  10.979  0.5321  0.7374  0.0343
 2963SOL     OW20524   1.644   0.295   5.018  0.3206 -0.0467  0.2074
 2963SOL    HW120525   1.739   0.287   5.023  0.3945  2.1430  2.3672
 2963SOL    HW220526   1.614   0.307   4.928 -0.5931  1.4715  0.7072
 2964SOL     OW20527   1.281   2.372   4.076 -0.0248  0.3057 -0.2011
 2964SOL    HW120528   1.240   2.358   4.162  1.1325  0.5629  0.4023
 2964SOL    HW220529   1.371   2.341   4.088 -0.4718 -0.4499  1.1769
 2965SOL     OW20530   3.855   2.124   8.090 -0.2746 -0.0809 -0.3703
 2965SOL    HW120531   3.773   2.109   8.043  0.3337 -0.4350 -1.3037
 2965SOL    HW220532   3.884   2.035   8.108 -0.7613 -0.5094 -1.7190
 2966SOL     OW20533   0.604   2.219   5.910  0.3487  0.2239  0.2940
 2966SOL    HW120534   0.613   2.165   5.989 -0.2150 -0.0573  0.1675
 2966SOL    HW220535   0.549   2.164   5.854  1.5045 -0.5695 -0.0695
 2967SOL     OW20536   1.877   1.425  14.798 -0.3284  0.0375 -0.4204
 2967SOL    HW120537   1.853   1.503  14.748  0.3638  0.1720 -0.5303
 2967SOL    HW220538   1.853   1.458  14.885 -1.9482 -0.8864 -0.5014
 2968SOL     OW20539   1.379   4.092   7.446  0.2270 -0.5533 -0.3386
 2968SOL    HW120540   1.302   4.040   7.424 -0.6493 -0.5493  2.8007
 2968SOL    HW220541   1.373   4.097   7.541 -0.4655  0.2356 -0.4265
 2969SOL     OW20542   1.015   2.513   5.535 -0.5775  0.3162  0.1778
 2969SOL    HW120543   1.063   2.578   5.484 -2.0430  1.6295  0.4657
 2969SOL    HW220544   1.068   2.433   5.538 -1.3347 -0.1953 -0.2014
 2970SOL     OW20545   1.031   3.487   5.356  0.1485  0.1925  0.5405
 2970SOL    HW120546   1.104   3.548   5.363 -0.7537  1.5511 -1.9506
 2970SOL    HW220547   0.971   3.550   5.318  0.3581 -1.3015 -2.2519
 2971SOL     OW20548   0.999   0.535   6.336  0.3666  0.0388  0.2353
 2971SOL    HW120549   1.036   0.623   6.335  0.9381 -0.2189 -0.7981
 2971SOL    HW220550   0.924   0.546   6.395 -0.1633 -0.7990 -0.2754
 2972SOL     OW20551   4.570   2.941   8.093  0.2861  0.0125 -0.0244
 2972SOL    HW120552   4.586   2.940   8.187  0.0707  1.1245  0.0302
 2972SOL    HW220553   4.494   2.883   8.092 -0.8805  1.5583 -0.7424
 2973SOL     OW20554   2.188   3.716   5.476  0.5867 -0.1325  0.0095
 2973SOL    HW120555   2.238   3.798   5.476  0.1425  0.1326  0.4631
 2973SOL    HW220556   2.110   3.752   5.517  0.1895 -1.2556  0.2430
 2974SOL     OW20557   3.426   0.980   3.091 -0.0773 -0.4663  0.0453
 2974SOL    HW120558   3.493   1.030   3.138  0.3337  0.5141 -1.5710
 2974SOL    HW220559   3.442   1.017   3.004  0.0732 -1.7406 -0.4738
 2975SOL     OW20560   1.150   2.965   3.798 -0.3607 -0.1855 -0.2936
 2975SOL    HW120561   1.063   2.969   3.837 -0.9752 -1.8049 -1.5249
 2975SOL    HW220562   1.146   3.038   3.737 -1.0077  2.2114  2.5811
 2976SOL     OW20563   4.613   2.455   7.245  0.1698  0.0521 -0.2671
 2976SOL    HW120564   4.575   2.390   7.305  0.3073  0.3734  0.1655
 2976SOL    HW220565   4.678   2.404   7.196  0.9369 -0.2904  1.1328
 2977SOL     OW20566   2.793   4.707   6.657 -0.3858  0.0374 -0.0108
 2977SOL    HW120567   2.794   4.616   6.685  0.4282  0.4625  1.3601
 2977SOL    HW220568   2.824   0.004   6.739  0.6979  1.8662 -1.3014
 2978SOL     OW20569   1.425   2.417   6.629  0.1608 -0.0300  0.0725
 2978SOL    HW120570   1.338   2.387   6.655 -0.4622  1.7985  0.0870
 2978SOL    HW220571   1.416   2.510   6.650  1.5309  0.4781 -1.6641
 2979SOL     OW20572   3.825   2.182  15.034 -0.3275  0.0792 -0.2840
 2979SOL    HW120573   3.746   2.210  15.079 -2.0142 -0.5661 -2.8402
 2979SOL    HW220574   3.840   2.089  15.053 -2.0566  0.1113  1.1425
 2980SOL     OW20575   2.257   4.363   0.749  0.1471 -0.3806  0.3920
 2980SOL    HW120576   2.187   4.414   0.788 -0.0816 -1.0664  0.8733
 2980SOL    HW220577   2.311   4.430   0.706  1.6336 -1.5569  0.4353
 2981SOL     OW20578   2.590   0.365   7.551  0.6135 -0.2425 -0.0257
 2981SOL    HW120579   2.504   0.327   7.530  0.6615 -0.5367  0.3106
 2981SOL    HW220580   2.630   0.295   7.603 -1.1331 -0.4045  1.1410
 2982SOL     OW20581   4.682   1.655   5.175  0.3532  0.4475  0.0441
 2982SOL    HW120582   4.721   1.637   5.090  0.6139 -2.5922  0.8274
 2982SOL    HW220583   4.660   1.567   5.204 -1.0668  0.2290 -1.6592
 2983SOL     OW20584   1.105   1.514   6.999 -0.4590 -0.1265 -0.1782
 2983SOL    HW120585   1.096   1.609   7.002 -1.1044 -0.2092  0.4570
 2983SOL    HW220586   1.194   1.495   7.031 -1.1056  0.3551  1.9191
 2984SOL     OW20587   3.776   3.056   4.802  0.2259  0.5458  0.9482
 2984SOL    HW120588   3.825   3.055   4.884  0.8958 -1.4627  0.5338
 2984SOL    HW220589   3.846   3.103   4.756 -0.7593  1.4036  0.3478
 2985SOL     OW20590   4.505   3.466   1.446 -0.1981 -0.3794 -0.0801
 2985SOL    HW120591   4.549   3.530   1.502 -1.9236  2.0465 -1.5475
 2985SOL    HW220592   4.448   3.524   1.397  0.8226 -0.9646 -1.9361
 2986SOL     OW20593   0.308   3.000   5.178  0.4229  0.0803 -0.1545
 2986SOL    HW120594   0.336   3.059   5.248 -2.2449 -0.2894  1.2263
 2986SOL    HW220595   0.392   2.962   5.150  1.6127  1.4047  1.6567
 2987SOL     OW20596   0.811   0.268   5.319  0.3299 -0.1197 -0.2872
 2987SOL    HW120597   0.764   0.301   5.242 -0.6240 -1.9540 -0.4795
 2987SOL    HW220598   0.868   0.338   5.352 -1.0696  0.6650  0.4636
 2988SOL     OW20599   2.945   0.785   5.836  0.0593 -0.0363  0.4945
 2988SOL    HW120600   2.853   0.761   5.849 -0.1014  0.7960  0.9075
 2988SOL    HW220601   2.987   0.703   5.809  0.8317  0.5519 -0.0719
 2989SOL     OW20602   0.824   3.202   3.908 -0.6177 -0.7486  0.1340
 2989SOL    HW120603   0.840   3.225   3.999 -0.6584  1.0815 -0.3324
 2989SOL    HW220604   0.740   3.158   3.924  0.3260 -1.9275  1.9038
 2990SOL     OW20605   2.376   3.487  10.481  0.2187 -0.0980  0.3823
 2990SOL    HW120606   2.461   3.450  10.504  0.2839 -0.4035 -0.3507
 2990SOL    HW220607   2.333   3.522  10.559  1.3395  0.1506  0.8879
 2991SOL     OW20608   2.501   4.627   1.601 -0.0844  0.7419 -0.1345
 2991SOL    HW120609   2.463   4.687   1.665  2.4102  0.2504  1.8071
 2991SOL    HW220610   2.430   4.567   1.577  0.0481 -0.2326  1.9214
 2992SOL     OW20611   4.050   1.254   5.572 -0.2293 -0.2456  0.2342
 2992SOL    HW120612   4.011   1.331   5.613  0.7999  0.7459 -0.6641
 2992SOL    HW220613   4.091   1.304   5.502  1.8097 -1.4974  0.5394
 2993SOL     OW20614   0.572   2.317   1.966 -0.0731 -0.5839 -0.0782
 2993SOL    HW120615   0.634   2.328   2.039 -0.0314  0.6419 -0.3000
 2993SOL    HW220616   0.535   2.405   1.972 -3.5661 -2.1219  1.3031
 2994SOL     OW20617   0.920   0.071   6.666  0.2512  0.2601 -0.2363
 2994SOL    HW120618   0.870   0.007   6.717 -0.3935 -0.4462 -1.7541
 2994SOL    HW220619   0.943   0.029   6.583  1.0970 -2.1990  1.2512
 2995SOL     OW20620   4.672   2.493   6.743 -0.3901  0.2106 -0.0618
 2995SOL    HW120621   4.736   2.543   6.793 -0.4683  0.6926 -0.4396
 2995SOL    HW220622   4.590   2.540   6.757 -1.1587 -0.8920 -0.8495
 2996SOL     OW20623   3.459   0.163   8.230  0.4734  0.0253 -0.0391
 2996SOL    HW120624   3.467   0.245   8.183  1.4557  0.0840  0.2432
 2996SOL    HW220625   3.400   0.112   8.174  1.1739 -1.4611  0.5786
 2997SOL     OW20626   0.074   0.645   2.951  0.1447  0.9443 -0.0383
 2997SOL    HW120627   0.014   0.716   2.976 -0.7412  0.4214 -0.6749
 2997SOL    HW220628   0.074   0.604   3.037 -1.8593  1.3285  0.1647
 2998SOL     OW20629   4.540   4.577   8.803  0.1051  0.0958 -0.4075
 2998SOL    HW120630   4.635   4.586   8.799  0.0373  1.6878  1.5682
 2998SOL    HW220631   4.523   4.483   8.805 -2.4444  0.5724  0.4008
 2999SOL     OW20632   1.542   2.191  17.368 -0.3820 -0.1949  0.0583
 2999SOL    HW120633   1.499   2.276  17.367 -1.9160 -0.9485  1.4184
 2999SOL    HW220634   1.577   2.188  17.279 -0.8312  0.7267 -0.1449
 3000SOL     OW20635   2.151   2.229   7.205 -0.0214 -0.1711  0.4377
 3000SOL    HW120636   2.110   2.303   7.160  0.5609  0.8985  1.6823
 3000SOL    HW220637   2.150   2.265   7.293  2.2358 -0.9163  0.7666
 3001SOL     OW20638   0.244   1.252   8.839  0.1769 -0.0780  0.6077
 3001SOL    HW120639   0.275   1.181   8.783 -1.1070 -0.2407  0.0899
 3001SOL    HW220640   0.152   1.224   8.846  0.4230 -0.5861  1.6645
 3002SOL     OW20641   2.843   4.254   0.887  0.1983 -0.2445 -0.3135
 3002SOL    HW120642   2.818   4.331   0.936 -3.4242 -1.8650  0.3716
 3002SOL    HW220643   2.885   4.198   0.953  0.8201 -1.2359 -1.5442
 3003SOL     OW20644   2.769   2.991  12.359  0.3639 -0.7319  0.2675
 3003SOL    HW120645   2.683   2.950  12.366 -0.7201  1.6194  0.4330
 3003SOL    HW220646   2.809   2.980  12.446 -0.7993 -1.8878  0.6517
 3004SOL     OW20647   2.113   0.556  17.335 -0.2618  0.1905 -0.1360
 3004SOL    HW120648   2.180   0.624  17.333  0.7626 -0.8168 -0.5496
 3004SOL    HW220649   2.150   0.492  17.274 -1.4264 -0.1355 -0.4931
 3005SOL     OW20650   3.428   4.494   2.111 -0.4801  0.4956  0.0865
 3005SOL    HW120651   3.392   4.459   2.193 -0.9192  0.8413  0.0360
 3005SOL    HW220652   3.376   4.442   2.051 -0.5123 -0.0870  0.6207
 3006SOL     OW20653   3.208   0.424   7.209  0.6040 -0.2661 -0.1728
 3006SOL    HW120654   3.141   0.411   7.275  1.3768  0.9495  0.8418
 3006SOL    HW220655   3.231   0.334   7.186  0.8738  0.2284 -1.8976
 3007SOL     OW20656   3.769   4.248   2.705  0.0685 -0.2542 -0.0888
 3007SOL    HW120657   3.862   4.223   2.703 -0.3642 -2.0202  2.1013
 3007SOL    HW220658   3.756   4.261   2.611 -1.2608 -0.2289  0.1026
 3008SOL     OW20659   2.932   2.386   8.291 -0.3576 -0.3739  0.0320
 3008SOL    HW120660   2.987   2.308   8.302  1.1831  0.4247 -2.0182
 3008SOL    HW220661   2.994   2.455   8.269 -0.5007 -0.5105 -0.7889
 3009SOL     OW20662   2.713   2.705   1.686  0.5456 -0.1818  0.1669
 3009SOL    HW120663   2.691   2.734   1.598  2.4505 -0.3621 -0.3820
 3009SOL    HW220664   2.713   2.609   1.684 -0.7424 -0.1434 -1.1801
 3010SOL     OW20665   4.331   3.663  11.990  0.0055 -0.1608  0.0221
 3010SOL    HW120666   4.403   3.622  11.942 -0.2724 -1.9027  1.1106
 3010SOL    HW220667   4.365   3.713  12.064 -0.6698  0.1520  0.1189
 3011SOL     OW20668   0.860   2.097  11.735 -0.5228  0.1525 -0.3615
 3011SOL    HW120669   0.828   2.054  11.656 -1.6221 -2.0734  1.2868
 3011SOL    HW220670   0.850   2.026  11.798  2.1045  0.8963  0.9255
 3012SOL     OW20671   2.915   0.091   7.943 -0.3107 -0.1613 -0.0497
 3012SOL    HW120672   2.986   0.051   7.993 -0.0423  1.4232  0.8357
 3012SOL    HW220673   2.958   0.177   7.938  1.1707 -0.7716  2.2105
 3013SOL     OW20674   0.895   0.334   3.204  0.0482 -0.0745  0.3079
 3013SOL    HW120675   0.838   0.392   3.155 -0.1267  0.9397  1.6996
 3013SOL    HW220676   0.883   0.255   3.152 -1.2963  0.1488  0.2757
 3014SOL     OW20677   1.745   0.969  16.438  0.0590 -0.7500  0.5907
 3014SOL    HW120678   1.737   1.027  16.363 -1.4026 -1.1596  0.4421
 3014SOL    HW220679   1.722   1.024  16.513  0.6650  1.1878 -0.6517
 3015SOL     OW20680   0.858   0.134   7.728 -0.3875 -0.2809 -0.4075
 3015SOL    HW120681   0.946   0.162   7.705 -0.2862  0.2407  0.6342
 3015SOL    HW220682   0.844   0.193   7.802 -1.6112 -0.4154 -0.5262
 3016SOL     OW20683   0.366   3.818   8.486 -0.3121  0.1341 -0.2108
 3016SOL    HW120684   0.380   3.866   8.405  0.9533 -0.9625 -0.6379
 3016SOL    HW220685   0.280   3.777   8.477  0.1995 -0.6230 -1.5787
 3017SOL     OW20686   1.709   3.610   5.425  0.6437  0.0355 -0.6332
 3017SOL    HW120687   1.709   3.705   5.415 -1.6366  0.1215  0.1578
 3017SOL    HW220688   1.762   3.582   5.350  1.6018 -1.7827  0.7290
 3018SOL     OW20689   2.164   0.773   7.669  0.5440 -0.6179  0.7818
 3018SOL    HW120690   2.140   0.863   7.692  1.5529  0.6078 -2.8964
 3018SOL    HW220691   2.084   0.734   7.702 -0.4496  0.4218 -0.3737
 3019SOL     OW20692   2.439   0.900  17.130 -0.2523  0.0135 -0.2241
 3019SOL    HW120693   2.348   0.873  17.115 -0.0395 -0.4893 -0.6325
 3019SOL    HW220694   2.432   0.993  17.151  2.2920  0.2720 -0.5196
 3020SOL     OW20695   1.151   3.770  16.978 -0.2013  0.2183 -0.6974
 3020SOL    HW120696   1.056   3.771  16.972 -0.3261 -0.7198  1.0821
 3020SOL    HW220697   1.183   3.806  16.895 -3.6268  1.9905 -1.2591
 3021SOL     OW20698   1.315   0.381   4.153 -0.6037  0.1033 -0.1404
 3021SOL    HW120699   1.222   0.358   4.157 -0.3986 -0.8362 -0.7105
 3021SOL    HW220700   1.311   0.470   4.117 -2.9689 -0.3035 -0.8457
 3022SOL     OW20701   4.472   0.570   3.881  0.5522  0.2315 -0.4477
 3022SOL    HW120702   4.415   0.607   3.815  0.5927  2.9258  1.0387
 3022SOL    HW220703   4.559   0.555   3.843 -1.0029 -1.3031 -3.3849
 3023SOL     OW20704   2.579   0.279   4.559  0.0222 -0.2662  0.0914
 3023SOL    HW120705   2.569   0.234   4.475 -0.9842  1.6592 -0.8231
 3023SOL    HW220706   2.617   0.364   4.539  0.0060 -0.4510 -0.7261
 3024SOL     OW20707   1.784   0.904   6.408  0.3328  0.0084 -0.1696
 3024SOL    HW120708   1.864   0.871   6.448 -0.6018 -1.2539  0.6457
 3024SOL    HW220709   1.764   0.826   6.357 -0.2793  0.7830 -1.1055
 3025SOL     OW20710   2.197   2.525   4.697 -0.3783  0.3285 -0.3859
 3025SOL    HW120711   2.167   2.614   4.716 -2.5768 -0.0697 -1.8760
 3025SOL    HW220712   2.253   2.545   4.622 -2.0011  1.9490 -1.1786
 3026SOL     OW20713   1.958   0.776  14.875  0.1170 -0.1613 -0.2977
 3026SOL    HW120714   2.018   0.789  14.948  1.0729  1.7901 -1.4183
 3026SOL    HW220715   1.961   0.682  14.857 -0.4856  0.0411 -1.4616
 3027SOL     OW20716   0.611   1.220   8.744 -0.1008 -0.2284 -0.4854
 3027SOL    HW120717   0.565   1.298   8.775  0.3621 -0.6984  1.4145
 3027SOL    HW220718   0.698   1.227   8.784 -0.7412 -0.9774  1.0416
 3028SOL     OW20719   2.157   1.844   4.671 -0.0276  0.2945  0.4033
 3028SOL    HW120720   2.070   1.880   4.690  0.0775 -0.6137  2.5465
 3028SOL    HW220721   2.137   1.760   4.630  0.0302  0.3353  0.2918
 3029SOL     OW20722   4.721   0.714   9.056 -0.3088 -0.4515 -0.4014
 3029SOL    HW120723   4.723   0.649   9.125 -0.3000 -1.2409 -1.1441
 3029SOL    HW220724   0.009   0.791   9.104  0.4792  0.5676 -2.5148
 3030SOL     OW20725   3.437   1.502   6.006 -0.1135 -0.2533  0.2876
 3030SOL    HW120726   3.457   1.410   5.992  1.1996  0.0032  0.4456
 3030SOL    HW220727   3.434   1.507   6.101 -0.5158  1.1176  0.2008
 3031SOL     OW20728   3.853   1.397  13.501 -0.3757  0.5314 -0.0855
 3031SOL    HW120729   3.911   1.455  13.550  2.4756 -1.7438 -0.8035
 3031SOL    HW220730   3.808   1.360  13.577  0.3914  1.0373  0.6148
 3032SOL     OW20731   3.731   1.315   6.416  0.2320  0.1919  0.4369
 3032SOL    HW120732   3.797   1.246   6.425 -2.2746 -2.4438 -1.4642
 3032SOL    HW220733   3.691   1.292   6.500 -1.0539 -1.1366 -0.5404
 3033SOL     OW20734   1.571   1.236   8.133 -0.3011  0.3365 -0.3236
 3033SOL    HW120735   1.529   1.213   8.216  1.8146 -1.9950  0.0961
 3033SOL    HW220736   1.660   1.242   8.168  0.4980 -2.0690 -1.9298
 3034SOL     OW20737   0.262   1.814   8.866  0.0508 -0.2585  0.0192
 3034SOL    HW120738   0.267   1.778   8.954  1.1866  0.2785  0.1769
 3034SOL    HW220739   0.245   1.907   8.883 -1.4301 -0.5082 -0.0835
 3035SOL     OW20740   4.716   1.509   5.561 -0.0105  0.0312 -0.8442
 3035SOL    HW120741   0.014   1.434   5.603  0.0165 -0.1423 -1.1787
 3035SOL    HW220742   0.006   1.499   5.471 -0.2661 -0.6894 -0.8519
 3036SOL     OW20743   1.600   1.863  14.383  0.3415 -0.2042 -0.0803
 3036SOL    HW120744   1.637   1.778  14.362 -0.9906  0.2594 -4.1848
 3036SOL    HW220745   1.645   1.873  14.467 -0.2460  3.5048 -0.2001
 3037SOL     OW20746   0.179   0.220  14.301  0.0264 -0.8754 -0.2331
 3037SOL    HW120747   0.200   0.224  14.395  0.4338 -0.6961 -0.3305
 3037SOL    HW220748   0.247   0.281  14.272  0.9576 -0.7189  2.2801
 3038SOL     OW20749   1.062   1.934   8.154  0.0151  0.1375  0.4572
 3038SOL    HW120750   1.127   1.867   8.174 -0.8221 -0.8752 -0.2234
 3038SOL    HW220751   0.992   1.877   8.122  0.3072 -1.6540  2.9624
 3039SOL     OW20752   0.380   2.714   5.600 -0.1191 -0.2703  0.0398
 3039SOL    HW120753   0.417   2.802   5.612 -2.3270  0.9544 -2.2022
 3039SOL    HW220754   0.446   2.655   5.637  0.1944  0.3435  0.4753
 3040SOL     OW20755   0.975   0.632   8.115  0.0599  0.2329  0.2735
 3040SOL    HW120756   0.940   0.633   8.204 -1.5417 -0.1853 -0.3563
 3040SOL    HW220757   0.945   0.546   8.086 -0.5486  0.6451 -0.3153
 3041SOL     OW20758   3.907   4.211   1.785  0.3028  0.1525  0.5985
 3041SOL    HW120759   3.946   4.127   1.762  0.4144  0.0184  1.2679
 3041SOL    HW220760   3.937   4.269   1.716 -0.5186  0.0275  0.1359
 3042SOL     OW20761   0.087   4.029  10.274 -0.2246 -0.6477  0.1940
 3042SOL    HW120762   0.129   3.997  10.194  1.2815  0.6560  0.4531
 3042SOL    HW220763   0.092   4.125  10.267 -2.3673 -0.7052 -2.0217
 3043SOL     OW20764   0.283   3.304   7.722 -0.1251 -0.0370  0.3692
 3043SOL    HW120765   0.214   3.244   7.694  0.6486 -0.1802 -1.2045
 3043SOL    HW220766   0.261   3.384   7.674 -0.6446 -0.0985  0.5060
 3044SOL     OW20767   3.756   0.446  15.012  0.4314  0.1537  0.0102
 3044SOL    HW120768   3.696   0.396  14.956 -1.8687  0.1389  2.5165
 3044SOL    HW220769   3.827   0.439  14.948 -1.2016  0.5377 -1.8655
 3045SOL     OW20770   2.916   4.639   3.322 -0.0316 -0.0991 -0.1910
 3045SOL    HW120771   2.849   4.615   3.259  0.0037 -0.6276 -0.0253
 3045SOL    HW220772   2.865   4.708   3.365 -0.8576 -1.2578  0.6792
 3046SOL     OW20773   3.139   1.883  14.771  0.2458 -0.0240  0.4827
 3046SOL    HW120774   3.222   1.836  14.773 -0.5132 -1.3788 -0.9103
 3046SOL    HW220775   3.163   1.955  14.829  0.8380  1.2836 -1.3918
 3047SOL     OW20776   0.943   2.659  15.344 -0.2659  0.4597 -0.1721
 3047SOL    HW120777   0.867   2.707  15.313  0.0303  1.2299  0.2929
 3047SOL    HW220778   0.925   2.660  15.438 -0.2191 -1.5531 -0.1399
 3048SOL     OW20779   4.212   4.354   2.276 -0.5834 -0.0972 -0.6482
 3048SOL    HW120780   4.199   4.443   2.242 -1.5094 -0.1144 -0.3413
 3048SOL    HW220781   4.244   4.372   2.364  1.7365  0.3291 -1.5782
 3049SOL     OW20782   4.551   2.579  10.222 -0.2033  0.1315  0.1758
 3049SOL    HW120783   4.619   2.544  10.164  0.6448  0.1190  1.1806
 3049SOL    HW220784   4.488   2.620  10.163  1.4775 -0.9505 -2.3926
 3050SOL     OW20785   2.816   0.688   8.483 -0.3907  0.3555 -0.2972
 3050SOL    HW120786   2.897   0.684   8.533 -1.7834  1.7133  2.0437
 3050SOL    HW220787   2.754   0.671   8.554 -1.1466 -2.4411 -1.6198
 3051SOL     OW20788   3.644   1.572  12.831  0.1282 -0.1620  0.4205
 3051SOL    HW120789   3.709   1.565  12.902  2.3028 -0.0924 -1.5604
 3051SOL    HW220790   3.638   1.477  12.822 -0.4199 -0.2717  1.8971
 3052SOL     OW20791   2.109   1.811  10.011  0.5264 -0.5664 -0.4642
 3052SOL    HW120792   2.023   1.853  10.013  0.6295 -0.5193  2.6845
 3052SOL    HW220793   2.156   1.882  10.055 -1.2220 -0.2719  0.9185
 3053SOL     OW20794   3.993   1.691   5.431 -0.2608  0.8154 -0.8146
 3053SOL    HW120795   3.904   1.711   5.402 -1.4206 -1.6269  1.0916
 3053SOL    HW220796   4.039   1.766   5.394  0.1815  0.6066 -0.6874
 3054SOL     OW20797   2.085   1.723   7.239  0.3781  0.4008  0.3500
 3054SOL    HW120798   2.043   1.807   7.220  0.0778 -0.2073 -1.6381
 3054SOL    HW220799   2.174   1.746   7.266  0.7802 -0.7916  0.0257
 3055SOL     OW20800   1.853   2.929   4.123 -0.0223  0.1067 -0.5017
 3055SOL    HW120801   1.838   3.017   4.089  1.8682  0.4474 -0.4289
 3055SOL    HW220802   1.773   2.897   4.081 -0.3364  1.3254 -0.8465
 3056SOL     OW20803   1.980   3.039   9.904  0.2575  1.1018 -0.3246
 3056SOL    HW120804   1.898   3.073   9.940 -0.5419 -0.4713 -0.6659
 3056SOL    HW220805   2.003   2.983   9.978  0.4118  1.6631  0.0457
 3057SOL     OW20806   3.999   4.206   2.136 -0.3322  0.0540 -0.0903
 3057SOL    HW120807   3.967   4.259   2.063 -1.3193 -0.9867 -0.4051
 3057SOL    HW220808   4.090   4.234   2.137 -0.8925  1.9859 -3.1655
 3058SOL     OW20809   2.232   2.715   5.956 -0.2023  0.2960  0.9538
 3058SOL    HW120810   2.313   2.736   5.909 -0.6128  0.3384  0.2730
 3058SOL    HW220811   2.226   2.784   6.022 -0.1322 -0.8191  2.1541
 3059SOL     OW20812   1.860   2.937   2.874 -0.4981 -0.5296  0.1582
 3059SOL    HW120813   1.770   2.959   2.899  0.2567  2.7372 -0.0700
 3059SOL    HW220814   1.889   3.025   2.853  0.6510 -1.5181 -2.4909
 3060SOL     OW20815   1.805   3.979   7.285  0.2136 -0.1866 -0.1638
 3060SOL    HW120816   1.818   3.904   7.227  1.1863 -0.5663  0.5502
 3060SOL    HW220817   1.837   4.052   7.232 -1.3531  2.0958  2.0452
 3061SOL     OW20818   2.577   3.403   2.807  0.7888 -0.6526  0.0722
 3061SOL    HW120819   2.626   3.417   2.726 -0.3676  1.7208 -0.2355
 3061SOL    HW220820   2.584   3.491   2.844  0.0993  0.2497 -1.9065
 3062SOL     OW20821   1.892   1.659  10.106  0.7698 -0.5876  0.3306
 3062SOL    HW120822   1.976   1.705  10.103 -0.0315  0.7418 -1.3375
 3062SOL    HW220823   1.887   1.633  10.015  0.8811 -0.3802  0.2659
 3063SOL     OW20824   3.356   0.913   5.745 -0.1648 -0.0564 -0.6558
 3063SOL    HW120825   3.441   0.910   5.701  0.4618  1.2115  0.4888
 3063SOL    HW220826   3.363   0.825   5.784 -0.1673  0.6398  0.9051
 3064SOL     OW20827   0.014   4.631   3.952  0.1171  0.5398  0.0789
 3064SOL    HW120828   4.707   4.685   3.891 -0.4984  1.2628  1.2237
 3064SOL    HW220829   0.069   4.701   3.985 -1.2673  1.6001  0.1435
 3065SOL     OW20830   0.741   3.452   1.094 -0.3082 -0.1310  0.1907
 3065SOL    HW120831   0.814   3.469   1.034 -2.1104  2.4079 -1.3148
 3065SOL    HW220832   0.686   3.529   1.076  0.5306  0.2930 -0.5321
 3066SOL     OW20833   4.713   1.667   1.946  0.1619  0.0658  1.1586
 3066SOL    HW120834   0.020   1.742   1.978 -0.7033  0.6391  1.1434
 3066SOL    HW220835   4.739   1.606   2.015  3.2584  0.4807  0.3238
 3067SOL     OW20836   3.635   3.767   5.599 -0.1306 -0.4485  0.4042
 3067SOL    HW120837   3.691   3.695   5.630  2.9973  0.7964 -2.2716
 3067SOL    HW220838   3.609   3.812   5.679 -0.4710 -0.5902  0.3721
 3068SOL     OW20839   1.498   2.924   5.640  0.2780  0.6345 -0.3765
 3068SOL    HW120840   1.553   2.927   5.718 -0.9978  0.1908  0.5249
 3068SOL    HW220841   1.410   2.896   5.662  1.1665 -0.2224  2.0894
 3069SOL     OW20842   1.190   0.914   3.062 -0.0392  0.3426  0.0535
 3069SOL    HW120843   1.105   0.920   3.104 -0.3669  0.6712 -0.6499
 3069SOL    HW220844   1.155   0.915   2.973 -1.2970  0.5109  0.5532
 3070SOL     OW20845   0.566   2.155  11.798 -0.4631  0.0905 -0.3555
 3070SOL    HW120846   0.658   2.131  11.798 -0.2561  0.9118 -0.0905
 3070SOL    HW220847   0.565   2.247  11.823  1.2026  0.8010 -2.9344
 3071SOL     OW20848   3.849   2.704   5.246  0.0002 -0.1372 -0.2272
 3071SOL    HW120849   3.763   2.677   5.213 -0.5034  1.0812  0.0928
 3071SOL    HW220850   3.822   2.731   5.334 -0.4375 -0.0766 -0.3782
 3072SOL     OW20851   4.630   3.853   7.515 -0.1543 -0.1985  0.1244
 3072SOL    HW120852   4.601   3.845   7.606 -0.9817  0.6615 -0.0647
 3072SOL    HW220853   4.553   3.880   7.465 -0.4780 -0.2289  0.6041
 3073SOL     OW20854   1.093   1.051   8.040 -0.0728 -0.3381 -0.1924
 3073SOL    HW120855   1.189   1.051   8.038 -0.0836 -1.8266 -0.2403
 3073SOL    HW220856   1.064   0.983   7.980  2.2008 -1.2146 -0.2948
 3074SOL     OW20857   3.878   2.297   5.293  0.2406 -0.5344 -0.0253
 3074SOL    HW120858   3.795   2.264   5.328 -0.6050 -0.4361 -1.9418
 3074SOL    HW220859   3.880   2.270   5.201  0.4735 -1.4935  0.2531
 3075SOL     OW20860   2.074   1.440   7.283  0.1924 -0.6089 -0.1529
 3075SOL    HW120861   2.167   1.418   7.293  0.3319 -1.2140 -2.8966
 3075SOL    HW220862   2.064   1.533   7.306  1.1126 -0.9348  1.5609
 3076SOL     OW20863   2.168   0.742   9.795  0.1939 -0.2703 -0.1102
 3076SOL    HW120864   2.073   0.740   9.811  0.5263  1.1618  2.0907
 3076SOL    HW220865   2.198   0.654   9.815 -0.3176 -0.5948 -0.7722
 3077SOL     OW20866   3.299   0.106  11.076  0.1172  0.3486 -0.2924
 3077SOL    HW120867   3.233   0.175  11.080  2.2011  2.4748 -2.3077
 3077SOL    HW220868   3.345   0.115  11.159 -1.5360 -1.8060  0.8792
 3078SOL     OW20869   0.670   4.590   8.467  0.6142  0.4583  0.8327
 3078SOL    HW120870   0.758   4.624   8.448  0.8321 -0.9311 -0.6297
 3078SOL    HW220871   0.622   4.668   8.494 -2.3681 -1.2851  0.6009
 3079SOL     OW20872   4.522   4.593  16.215 -0.2680 -0.3692  0.0473
 3079SOL    HW120873   4.559   4.506  16.234  0.7947  0.4406  1.6087
 3079SOL    HW220874   4.601   4.629  16.175 -2.7275  1.1440 -3.4661
 3080SOL     OW20875   2.473   2.716   2.572 -0.1042 -0.4615 -0.2052
 3080SOL    HW120876   2.395   2.768   2.594 -0.0519  0.9103 -3.2845
 3080SOL    HW220877   2.471   2.650   2.641 -1.1373 -1.9842 -1.6960
 3081SOL     OW20878   0.828   0.824  17.479 -0.2512 -0.2517  0.3612
 3081SOL    HW120879   0.881   0.782  17.411 -1.4919 -0.0091 -0.7536
 3081SOL    HW220880   0.774   0.755  17.517  1.7989 -3.1611 -2.0337
 3082SOL     OW20881   0.468   0.500   6.732  0.3060  0.4023  0.1996
 3082SOL    HW120882   0.461   0.496   6.827 -0.6994 -1.6116  0.0601
 3082SOL    HW220883   0.543   0.557   6.716  1.0023  0.4192  3.5505
 3083SOL     OW20884   3.115   2.061   6.674  0.4926  0.0568 -0.1001
 3083SOL    HW120885   3.064   1.996   6.723  0.7446 -0.0765 -0.0171
 3083SOL    HW220886   3.155   2.113   6.744  4.0168 -1.0507 -1.3019
 3084SOL     OW20887   0.740   1.904   8.196  0.1677 -0.1000 -0.0073
 3084SOL    HW120888   0.781   1.855   8.125  0.6660  1.5469 -0.8588
 3084SOL    HW220889   0.719   1.837   8.262 -0.4960 -0.1979 -0.3178
 3085SOL     OW20890   3.101   3.702   3.117 -0.4932 -0.4651  0.0853
 3085SOL    HW120891   3.105   3.794   3.146  0.2007 -1.4925  3.1879
 3085SOL    HW220892   3.160   3.657   3.177  0.8037 -2.0104 -2.3667
 3086SOL     OW20893   2.554   4.641   3.657 -0.2381  0.0259  0.1925
 3086SOL    HW120894   2.493   4.568   3.665 -0.0359 -0.3405 -1.7382
 3086SOL    HW220895   2.496   4.703   3.613 -1.7310 -2.2358 -1.0414
 3087SOL     OW20896   0.911   2.671   5.082  0.7976  0.1504  0.1630
 3087SOL    HW120897   0.834   2.639   5.034  0.5260 -1.0964  1.4256
 3087SOL    HW220898   0.915   2.612   5.157 -0.9352  0.0903  0.2036
 3088SOL     OW20899   2.397   0.559   9.809  0.4371  0.3729  0.3363
 3088SOL    HW120900   2.470   0.560   9.746  0.5577 -1.5800  0.4450
 3088SOL    HW220901   2.414   0.645   9.847  1.5650  0.6864 -0.8669
 3089SOL     OW20902   2.302   1.088   1.286 -0.2554  1.0225 -0.7593
 3089SOL    HW120903   2.325   1.181   1.286  1.5239  0.5855 -1.4520
 3089SOL    HW220904   2.240   1.086   1.212  1.3633 -1.3143 -2.0575
 3090SOL     OW20905   1.423   0.007   7.384  0.0881  0.3553 -0.3444
 3090SOL    HW120906   1.408   4.657   7.363 -2.7588  0.7960 -0.3027
 3090SOL    HW220907   1.419   0.037   7.294 -2.5043 -1.0872 -0.7367
 3091SOL     OW20908   4.105   3.974   7.072 -0.0061  1.2203  0.1035
 3091SOL    HW120909   4.050   3.960   7.149  0.6912 -3.9730 -0.2974
 3091SOL    HW220910   4.042   3.991   7.003  2.2953  0.0198 -2.2857
 3092SOL     OW20911   1.025   1.180   5.153 -0.5313 -0.1660  0.5103
 3092SOL    HW120912   0.957   1.172   5.219 -0.7212  0.2003  0.3648
 3092SOL    HW220913   0.970   1.200   5.077  1.6250  1.9663 -0.4904
 3093SOL     OW20914   0.101   1.708  13.503 -1.0677  0.2028 -0.9249
 3093SOL    HW120915   0.026   1.708  13.561  0.5520 -1.9848  1.2077
 3093SOL    HW220916   0.097   1.796  13.466  0.5811  1.3667  1.6571
 3094SOL     OW20917   3.370   3.088   5.536 -0.1281  0.2925  0.2723
 3094SOL    HW120918   3.409   3.127   5.614 -0.9212  0.3744  0.6361
 3094SOL    HW220919   3.388   3.148   5.464  1.6778 -1.0494 -0.3742
 3095SOL     OW20920   0.751   2.329   3.979  0.0126  0.1005  0.2911
 3095SOL    HW120921   0.785   2.268   3.913  0.3236  3.7273 -2.8657
 3095SOL    HW220922   0.690   2.287   4.041 -1.0734  2.0336  0.5242
 3096SOL     OW20923   1.684   2.248   5.652 -0.0938  0.1950 -0.1989
 3096SOL    HW120924   1.721   2.195   5.723  0.7134 -0.9020 -1.4538
 3096SOL    HW220925   1.761   2.289   5.614 -0.6618  0.7421 -0.7698
 3097SOL     OW20926   2.678   3.900   7.332 -0.1461  0.8002  0.4331
 3097SOL    HW120927   2.703   3.992   7.325  0.8114  0.6099  1.3624
 3097SOL    HW220928   2.676   3.867   7.242  1.1729  1.9190 -0.0103
 3098SOL     OW20929   3.244   3.001   5.860 -0.3146  0.4347 -0.1654
 3098SOL    HW120930   3.194   3.069   5.815  1.2874  0.3269 -2.1195
 3098SOL    HW220931   3.233   2.934   5.792  0.9497  0.0816 -0.0246
 3099SOL     OW20932   3.986   2.144  11.217  0.3739  0.4039  1.2044
 3099SOL    HW120933   3.944   2.076  11.165  1.0966  1.9633 -1.3801
 3099SOL    HW220934   4.077   2.116  11.208 -0.0448 -0.6144  0.1595
 3100SOL     OW20935   1.070   3.805   2.868 -0.4076 -0.3806  0.5957
 3100SOL    HW120936   1.083   3.732   2.808  0.6663  0.5763 -0.3551
 3100SOL    HW220937   1.135   3.786   2.936 -0.1934 -0.8706  0.2529
 3101SOL     OW20938   2.538   1.720   6.181  0.4867  0.1537 -0.1657
 3101SOL    HW120939   2.538   1.631   6.145 -2.2146 -0.0200  0.2744
 3101SOL    HW220940   2.619   1.710   6.230  1.3529  2.4746 -1.1047
 3102SOL     OW20941   3.906   0.920  12.578 -0.8267  0.6578  0.2754
 3102SOL    HW120942   3.966   0.852  12.547 -2.6662 -0.0200 -1.8414
 3102SOL    HW220943   3.973   0.983  12.602  0.3910 -0.5990  0.1519
 3103SOL     OW20944   1.135   4.495   5.842 -0.2361 -0.5211 -0.2128
 3103SOL    HW120945   1.187   4.480   5.921  0.0043 -0.3057 -0.3298
 3103SOL    HW220946   1.053   4.523   5.882  0.5350  1.1104  0.2389
 3104SOL     OW20947   1.997   1.817   4.222 -0.0481  0.3860  0.1052
 3104SOL    HW120948   1.991   1.735   4.174 -0.1986  0.3702  0.1523
 3104SOL    HW220949   2.087   1.849   4.212  0.7159 -1.0564  2.3950
 3105SOL     OW20950   2.948   2.033   4.430 -0.0800  0.4169 -0.1661
 3105SOL    HW120951   2.923   2.026   4.522  1.0699  0.3933  0.1457
 3105SOL    HW220952   3.027   2.087   4.436 -1.1212  2.0215 -0.7765
 3106SOL     OW20953   3.036   0.319   5.650  0.1950  0.0037 -0.9604
 3106SOL    HW120954   2.995   0.270   5.721 -0.5462 -0.6087 -1.8157
 3106SOL    HW220955   2.977   0.394   5.647 -0.6281 -0.5505  1.0280
 3107SOL     OW20956   0.150   3.591  11.357 -0.3576  0.2133 -0.8894
 3107SOL    HW120957   0.182   3.672  11.317 -1.7509  1.2177  0.0368
 3107SOL    HW220958   0.056   3.608  11.361 -0.1552  1.6580 -2.0196
 3108SOL     OW20959   1.345   2.667   3.331 -0.1842 -0.0508  0.8961
 3108SOL    HW120960   1.269   2.694   3.382 -0.1881  1.7080 -0.0343
 3108SOL    HW220961   1.308   2.589   3.289  1.9604  0.0162 -1.0853
 3109SOL     OW20962   2.709   0.258   9.754 -0.8480 -0.4685 -0.7448
 3109SOL    HW120963   2.661   0.271   9.835 -2.5694 -2.3848 -1.4746
 3109SOL    HW220964   2.643   0.296   9.696  0.0498  1.6635 -0.3889
 3110SOL     OW20965   3.141   1.036  11.591 -0.3865 -0.0100 -0.1171
 3110SOL    HW120966   3.173   0.952  11.558 -2.5593 -0.7047 -0.4609
 3110SOL    HW220967   3.158   1.091  11.515 -0.4566  0.1599 -0.0112
 3111SOL     OW20968   3.832   4.036   9.553  0.0006  0.0094  0.4001
 3111SOL    HW120969   3.794   4.124   9.564 -0.3990 -0.2427  1.0611
 3111SOL    HW220970   3.759   3.980   9.528  0.9193 -0.0811 -2.0886
 3112SOL     OW20971   3.011   3.741   7.584 -0.6665  0.0380  1.1695
 3112SOL    HW120972   3.005   3.725   7.489 -0.8222 -1.7981  1.4902
 3112SOL    HW220973   2.994   3.834   7.569  0.6753  0.1873  0.6186
 3113SOL     OW20974   2.184   0.758  13.090 -0.2397  0.4473 -0.3018
 3113SOL    HW120975   2.190   0.664  13.071 -2.3431 -0.2713  2.4858
 3113SOL    HW220976   2.251   0.792  13.031 -1.1686  2.1966 -0.3290
 3114SOL     OW20977   4.295   3.605   8.054 -0.1575  0.4250 -0.0617
 3114SOL    HW120978   4.350   3.527   8.055  2.1405  2.0720  2.9585
 3114SOL    HW220979   4.303   3.613   7.959 -0.0466  0.5404 -0.0437
 3115SOL     OW20980   0.092   4.598  11.591  0.1545  0.2787  0.3427
 3115SOL    HW120981   0.084   4.678  11.643 -0.4811 -0.0296  0.7140
 3115SOL    HW220982   0.187   4.600  11.581  0.0981  0.7656 -0.0884
 3116SOL     OW20983   1.561   1.970   7.836  0.6366 -0.5806  0.0176
 3116SOL    HW120984   1.567   1.885   7.879 -0.1541 -1.9910 -2.6582
 3116SOL    HW220985   1.474   1.997   7.865  0.7458  0.1854 -0.3531
 3117SOL     OW20986   2.070   0.580   2.963  0.5077 -0.5488  0.1310
 3117SOL    HW120987   2.027   0.572   3.048 -4.0398  1.1656 -2.0232
 3117SOL    HW220988   2.086   0.674   2.954 -0.1440 -0.3173  1.4694
 3118SOL     OW20989   1.385   2.832   0.708  0.4868 -0.1241  0.0598
 3118SOL    HW120990   1.421   2.910   0.665  1.4697 -0.5045  0.1979
 3118SOL    HW220991   1.346   2.874   0.785  1.5012 -0.8804  0.9754
 3119SOL     OW20992   1.498   1.465   3.161 -0.2901 -0.1224 -0.2267
 3119SOL    HW120993   1.514   1.558   3.177  0.0510 -0.5526  2.0086
 3119SOL    HW220994   1.589   1.437   3.171 -0.1131 -0.6554 -3.3297
 3120SOL     OW20995   2.927   4.544   2.370  0.4636  0.2618  0.0725
 3120SOL    HW120996   3.013   4.508   2.391  1.3155  1.6185 -1.0815
 3120SOL    HW220997   2.945   4.577   2.282  1.0473 -2.2718 -0.7672
 3121SOL     OW20998   1.722   3.507   3.821 -0.8116  0.5244  0.0425
 3121SOL    HW120999   1.696   3.463   3.740  1.6519  1.8541 -1.4803
 3121SOL    HW221000   1.651   3.560   3.856 -0.7778  1.5858 -1.4824
 3122SOL     OW21001   4.156   3.258  17.746  0.9063 -0.3532  0.2180
 3122SOL    HW121002   4.237   3.268  17.695  0.6903 -1.0606 -0.2765
 3122SOL    HW221003   4.148   3.342   0.025  0.3103 -1.0545  1.4057
 3123SOL     OW21004   0.335   2.976   9.050  0.4206 -0.3702  0.1879
 3123SOL    HW121005   0.367   2.978   8.960 -0.8495  2.4910 -0.1983
 3123SOL    HW221006   0.317   2.882   9.054  1.1950 -0.5592 -0.8677
 3124SOL     OW21007   1.782   3.982  11.166 -0.7275 -0.2133 -0.2508
 3124SOL    HW121008   1.857   4.006  11.111 -1.9279  3.3089 -0.3919
 3124SOL    HW221009   1.763   4.062  11.215  1.9306  0.9041 -1.0185
 3125SOL     OW21010   1.734   4.414   7.192 -0.7997 -0.2242  0.5547
 3125SOL    HW121011   1.804   4.368   7.145  0.1627  0.2643  1.5180
 3125SOL    HW221012   1.752   4.397   7.284 -0.5795 -1.0287  0.3674
 3126SOL     OW21013   1.100   2.498   2.871  0.0734  0.1738  0.3688
 3126SOL    HW121014   1.145   2.537   2.946  0.7051 -0.9224  0.5738
 3126SOL    HW221015   1.079   2.584   2.834  1.7111  0.6569  0.5551
 3127SOL     OW21016   3.860   1.514  14.404 -0.2934  0.1071  0.5635
 3127SOL    HW121017   3.770   1.492  14.427 -0.6868  2.5255  1.3441
 3127SOL    HW221018   3.873   1.484  14.314  1.8194 -1.5117  1.4273
 3128SOL     OW21019   2.737   3.953   3.778 -0.2316  0.4247 -0.0387
 3128SOL    HW121020   2.671   3.921   3.840  1.2082  1.4473  2.0234
 3128SOL    HW221021   2.768   3.878   3.726  1.3249  0.1174  1.3432
 3129SOL     OW21022   2.771   2.905   6.553 -0.1934 -0.1104  0.1600
 3129SOL    HW121023   2.744   2.816   6.574 -1.3468  0.3225  0.5543
 3129SOL    HW221024   2.836   2.911   6.622  0.4298 -0.6857 -0.3862
 3130SOL     OW21025   0.733   0.667   2.890  0.4679 -0.2656 -0.3608
 3130SOL    HW121026   0.741   0.577   2.858 -2.4150 -0.4831 -0.4589
 3130SOL    HW221027   0.735   0.662   2.985  0.4999  0.3181 -0.3288
 3131SOL     OW21028   0.941   3.510   0.872  0.0981 -0.3526 -0.0753
 3131SOL    HW121029   0.989   3.438   0.830  0.8594 -0.4209  0.9223
 3131SOL    HW221030   1.013   3.544   0.925  0.1998  0.7943 -0.9445
 3132SOL     OW21031   1.572   4.213   4.634 -0.3069 -0.1028  0.1180
 3132SOL    HW121032   1.644   4.205   4.571  0.3562 -3.0692  1.2739
 3132SOL    HW221033   1.604   4.270   4.704  0.2996  1.3698 -1.3416
 3133SOL     OW21034   2.135   1.276   5.203  0.0703 -0.3842  0.0729
 3133SOL    HW121035   2.191   1.353   5.190 -0.3937  0.0065  0.3985
 3133SOL    HW221036   2.098   1.303   5.287  0.9534 -0.2065  0.4041
 3134SOL     OW21037   0.358   4.097   8.814 -0.3272 -0.1433  0.1199
 3134SOL    HW121038   0.292   4.039   8.851  0.2635 -1.3958 -0.7755
 3134SOL    HW221039   0.422   4.118   8.882 -0.9297  1.0381  0.3326
 3135SOL     OW21040   0.829   0.467   9.039  0.3717  0.3135 -0.2863
 3135SOL    HW121041   0.761   0.508   8.987 -0.1525  1.8032  1.5785
 3135SOL    HW221042   0.860   0.546   9.083  0.8930 -1.0370  1.7771
 3136SOL     OW21043   4.506   2.956   6.467  0.1134  0.1366 -0.6817
 3136SOL    HW121044   4.419   2.946   6.428 -0.1727  2.5478 -0.6747
 3136SOL    HW221045   4.495   2.895   6.540  1.7712  0.6262 -0.0467
 3137SOL     OW21046   3.424   2.743   4.828  0.2246 -0.1604  0.8417
 3137SOL    HW121047   3.430   2.812   4.762 -1.0445 -0.4570  0.4321
 3137SOL    HW221048   3.333   2.716   4.815  0.1639  0.7543 -0.6377
 3138SOL     OW21049   1.739   3.383  13.007  0.5449  0.2950  0.1860
 3138SOL    HW121050   1.695   3.299  12.997 -1.8264  1.4713  0.8363
 3138SOL    HW221051   1.773   3.394  12.918  3.2230 -2.1628  0.9281
 3139SOL     OW21052   4.714   1.247   2.172  0.4953 -0.5716  0.3482
 3139SOL    HW121053   0.059   1.208   2.172  0.7423 -0.0147 -0.1675
 3139SOL    HW221054   4.677   1.210   2.253 -2.2736 -1.0538 -1.1355
 3140SOL     OW21055   3.578   4.641   4.658 -0.1559  0.4190 -0.3780
 3140SOL    HW121056   3.598   4.649   4.565 -0.8925 -1.0123 -0.6542
 3140SOL    HW221057   3.574   4.545   4.658 -3.3713  0.5439 -2.8406
 3141SOL     OW21058   0.318   1.052  14.002  0.2882 -0.1698 -0.8284
 3141SOL    HW121059   0.295   1.127  13.947  3.1550  1.8729  0.7352
 3141SOL    HW221060   0.233   1.013  14.024 -0.3426  1.5152 -0.2608
 3142SOL     OW21061   3.956   4.415   4.140 -0.1102  0.1485  0.1442
 3142SOL    HW121062   3.957   4.366   4.058  1.9377  0.2005  0.1584
 3142SOL    HW221063   3.861   4.429   4.150 -0.0997 -0.3639  1.0209
 3143SOL     OW21064   4.188   4.033   5.340  0.0618 -0.6827  0.5568
 3143SOL    HW121065   4.102   4.072   5.328  1.8234  2.7422 -0.9727
 3143SOL    HW221066   4.163   3.942   5.359  3.2539 -0.8793  3.8487
 3144SOL     OW21067   3.006   1.816   6.487  0.0967  0.1282  0.0174
 3144SOL    HW121068   3.025   1.822   6.393 -0.4189 -1.0111 -0.1533
 3144SOL    HW221069   3.055   1.737   6.509  0.5576  0.2560 -0.5584
 3145SOL     OW21070   3.858   3.543   7.985  0.3325  0.1068 -0.2885
 3145SOL    HW121071   3.939   3.559   8.034  0.5003  1.8495 -1.1458
 3145SOL    HW221072   3.825   3.474   8.043 -1.1459  0.7939 -0.3169
 3146SOL     OW21073   4.295   3.159   7.146  0.1231  0.5684  0.1671
 3146SOL    HW121074   4.370   3.209   7.180  0.8066 -2.7058  3.5571
 3146SOL    HW221075   4.336   3.072   7.153 -0.8170 -0.0272 -1.7715
 3147SOL     OW21076   0.566   1.678   8.346 -0.7467 -0.3134 -0.3947
 3147SOL    HW121077   0.637   1.646   8.402 -0.5413  0.4481 -0.2109
 3147SOL    HW221078   0.520   1.596   8.331 -2.2449  0.0844  1.8902
 3148SOL     OW21079   3.634   4.040   5.288  0.5618 -0.8084  0.0148
 3148SOL    HW121080   3.699   4.071   5.351  0.5870 -1.8086  0.4799
 3148SOL    HW221081   3.560   4.027   5.347  0.4675  0.7331  0.2300
 3149SOL     OW21082   3.675   3.762   3.128  0.3738  0.5576  0.3853
 3149SOL    HW121083   3.612   3.711   3.178  0.2795  0.0798 -0.2149
 3149SOL    HW221084   3.627   3.844   3.133  1.5461  1.1864  1.3575
 3150SOL     OW21085   1.572   1.159  14.990 -0.2444 -0.2445 -0.1676
 3150SOL    HW121086   1.546   1.110  15.068  0.0957  0.2054  0.2256
 3150SOL    HW221087   1.663   1.132  14.976 -0.0293  1.1738 -1.5289
 3151SOL     OW21088   1.469   4.435   5.398  0.2359 -0.2250  0.0674
 3151SOL    HW121089   1.519   4.443   5.479  0.0472  2.7129 -0.1063
 3151SOL    HW221090   1.520   4.494   5.341 -0.0661 -0.3309 -0.3145
 3152SOL     OW21091   1.962   3.102   6.574  0.2530  0.4775  0.4981
 3152SOL    HW121092   1.891   3.165   6.559 -0.4533 -0.4726 -0.1753
 3152SOL    HW221093   2.002   3.102   6.487  1.4590  1.2968  1.0612
 3153SOL     OW21094   2.152   0.406  16.899 -0.1167  0.3473 -0.3953
 3153SOL    HW121095   2.107   0.367  16.824 -0.4813 -0.9678  0.5133
 3153SOL    HW221096   2.215   0.466  16.859 -0.0658  0.4231 -0.2025
 3154SOL     OW21097   2.229   3.424  11.913 -0.3809  0.3273 -0.4212
 3154SOL    HW121098   2.319   3.447  11.891 -0.4190 -1.5171 -2.5560
 3154SOL    HW221099   2.185   3.467  11.839  0.8537 -2.2514 -2.6521
 3155SOL     OW21100   1.815   0.706   3.703  0.2047 -0.1064 -0.5320
 3155SOL    HW121101   1.842   0.742   3.619 -0.1088 -1.5541 -1.2651
 3155SOL    HW221102   1.729   0.749   3.711  0.4945  0.5312 -0.8332
 3156SOL     OW21103   4.526   2.471   7.868  0.3310  0.0840  0.3674
 3156SOL    HW121104   4.550   2.563   7.874 -1.0244  0.2199  3.8069
 3156SOL    HW221105   4.489   2.469   7.956 -0.9817  1.3315 -0.1707
 3157SOL     OW21106   3.610   3.919  17.190 -0.2079  0.5646 -0.5219
 3157SOL    HW121107   3.677   3.900  17.124  0.8087 -0.1093  0.6844
 3157SOL    HW221108   3.546   3.969  17.141 -0.2392 -0.6419 -1.7159
 3158SOL     OW21109   2.858   1.643   7.066 -0.0377  0.3056 -0.9181
 3158SOL    HW121110   2.780   1.588   7.059  0.5704 -0.7373  0.5766
 3158SOL    HW221111   2.909   1.597   7.132 -1.6716  1.1076  0.9058
 3159SOL     OW21112   0.070   2.043   9.525  0.5667 -0.0416  0.1592
 3159SOL    HW121113   0.147   2.033   9.469  0.6106 -1.0729  0.4045
 3159SOL    HW221114   0.006   1.989   9.480  0.1642  0.3265  0.2900
 3160SOL     OW21115   3.637   0.489  10.972 -0.3378  0.6730  0.5149
 3160SOL    HW121116   3.610   0.570  11.016 -0.0842  1.5001 -0.8496
 3160SOL    HW221117   3.729   0.512  10.957 -0.5115  0.6582 -0.5257
 3161SOL     OW21118   2.309   0.774  14.481  0.1710 -0.0421 -0.0189
 3161SOL    HW121119   2.312   0.844  14.416  0.6548  1.1161  1.2408
 3161SOL    HW221120   2.230   0.799  14.530  2.0261 -0.3825  3.1059
 3162SOL     OW21121   1.639   2.258  10.225 -0.2943 -0.1958  0.0568
 3162SOL    HW121122   1.591   2.261  10.308  3.2876 -0.5170  2.1927
 3162SOL    HW221123   1.652   2.163  10.217  0.6498 -0.1574  1.0668
 3163SOL     OW21124   3.270   0.790  11.539  0.2129  0.1328 -0.7046
 3163SOL    HW121125   3.229   0.718  11.587  1.3066  0.1579  0.2755
 3163SOL    HW221126   3.342   0.748  11.492  0.3133 -0.4933  0.0138
 3164SOL     OW21127   2.577   3.654   6.807 -0.0534  0.2787 -0.1948
 3164SOL    HW121128   2.518   3.671   6.881  0.3505 -0.6073  0.3249
 3164SOL    HW221129   2.648   3.599   6.840  0.1516 -0.6726 -2.1575
 3165SOL     OW21130   4.565   4.573  16.915 -0.5710 -0.0421 -0.6331
 3165SOL    HW121131   4.657   4.570  16.939 -1.3115 -0.8361  2.0702
 3165SOL    HW221132   4.548   4.665  16.892  1.8878  0.8254  1.0891
 3166SOL     OW21133   4.585   4.654   8.528  0.4140  0.2825  0.0888
 3166SOL    HW121134   4.614   4.660   8.619 -2.1239 -1.1011  0.9761
 3166SOL    HW221135   4.491   4.666   8.542  0.0166 -1.9612 -0.6239
 3167SOL     OW21136   3.181   0.875  12.778 -0.2719 -0.7768  0.0141
 3167SOL    HW121137   3.197   0.959  12.736  1.9550 -1.4104 -0.3673
 3167SOL    HW221138   3.144   0.893  12.865 -1.9358 -1.7026 -0.5014
 3168SOL     OW21139   0.295   0.517   8.389  0.0716  0.3564 -0.5104
 3168SOL    HW121140   0.249   0.576   8.447 -2.9966 -2.4219 -0.0966
 3168SOL    HW221141   0.222   0.493   8.332 -0.2912 -0.2094  0.1930
 3169SOL     OW21142   2.045   3.260  17.516 -0.2073  0.0625  0.1010
 3169SOL    HW121143   2.085   3.340  17.551 -0.8202  0.5040 -0.2085
 3169SOL    HW221144   2.028   3.205  17.592 -1.7687  2.1332  1.2206
 3170SOL     OW21145   4.094   3.139   5.270 -0.1850 -0.5416 -0.0322
 3170SOL    HW121146   4.071   3.071   5.334  0.3483 -2.2487 -1.6531
 3170SOL    HW221147   4.183   3.161   5.296 -0.2904 -0.9013  0.6417
 3171SOL     OW21148   4.499   2.098   5.254  0.0665  0.8433 -0.8589
 3171SOL    HW121149   4.503   2.029   5.187  0.2196  0.2311 -0.2253
 3171SOL    HW221150   4.502   2.043   5.332  1.2907  1.9546 -0.1151
 3172SOL     OW21151   3.310   0.375   5.304 -0.5584  0.0289  0.4779
 3172SOL    HW121152   3.370   0.447   5.284  1.6023 -1.0668  3.0258
 3172SOL    HW221153   3.368   0.300   5.298  0.7129  0.9199  1.6063
 3173SOL     OW21154   4.737   0.471   4.369  0.5540  0.5459 -0.2206
 3173SOL    HW121155   4.712   0.398   4.425  1.0822  1.4060  1.1413
 3173SOL    HW221156   4.666   0.467   4.305  0.9637 -0.9549 -0.5753
 3174SOL     OW21157   0.347   0.352  16.407  0.0318  0.0670  0.3695
 3174SOL    HW121158   0.379   0.435  16.370  1.7030 -0.1268  1.3532
 3174SOL    HW221159   0.414   0.297  16.366 -1.6026 -0.7763 -1.1410
 3175SOL     OW21160   0.704   2.573   4.951 -0.0404  0.5811  0.3778
 3175SOL    HW121161   0.715   2.515   4.876 -0.5399  1.0435 -0.0446
 3175SOL    HW221162   0.685   2.517   5.027 -0.3666 -1.9916 -1.5954
 3176SOL     OW21163   0.271   2.233   2.467  0.1379 -0.0246 -1.0282
 3176SOL    HW121164   0.299   2.279   2.388 -0.6684 -1.2686 -2.0325
 3176SOL    HW221165   0.354   2.204   2.506  0.3416 -0.7434 -2.0001
 3177SOL     OW21166   3.053   4.219  17.636 -0.6071 -0.1873 -0.3214
 3177SOL    HW121167   3.095   4.272  17.569 -0.6458 -1.6727 -1.5134
 3177SOL    HW221168   2.969   4.262  17.650 -1.1833 -1.2237 -0.6251
 3178SOL     OW21169   3.355   3.731   5.812 -0.6720  0.1318 -0.7919
 3178SOL    HW121170   3.313   3.792   5.872  1.4156  2.4361 -1.6587
 3178SOL    HW221171   3.351   3.652   5.866 -1.8641  2.2573  2.2048
 3179SOL     OW21172   3.182   1.851   1.848 -0.2194  0.1995 -0.4093
 3179SOL    HW121173   3.162   1.802   1.768 -0.1444 -0.6067  0.0577
 3179SOL    HW221174   3.269   1.884   1.830  0.5195 -1.2259  0.5401
 3180SOL     OW21175   1.339   3.582   4.579 -0.5850 -0.6812 -0.9608
 3180SOL    HW121176   1.433   3.582   4.599 -0.0209 -0.0572 -3.5145
 3180SOL    HW221177   1.336   3.617   4.490 -0.4308  0.6706 -0.4314
 3181SOL     OW21178   2.252   2.550   9.196 -0.1144  0.2957  0.1712
 3181SOL    HW121179   2.237   2.456   9.194 -0.9826  0.3991  2.3136
 3181SOL    HW221180   2.168   2.582   9.160 -0.3800 -0.3371  0.2368
 3182SOL     OW21181   1.036   3.713  13.188 -0.3275  0.2387  0.0113
 3182SOL    HW121182   1.006   3.636  13.140  1.1665 -0.8886  0.8579
 3182SOL    HW221183   0.972   3.780  13.164 -1.3628  0.0512  2.3350
 3183SOL     OW21184   3.587   3.910   5.837  0.0324 -0.1346 -0.2268
 3183SOL    HW121185   3.517   3.845   5.842 -0.6315  0.4656 -1.7190
 3183SOL    HW221186   3.543   3.989   5.804 -0.6147 -0.5670 -0.3988
 3184SOL     OW21187   1.816   2.826   8.821  0.0808 -0.1194 -0.1012
 3184SOL    HW121188   1.781   2.793   8.738  1.0471  0.5187 -0.7710
 3184SOL    HW221189   1.817   2.745   8.871 -0.5679 -0.7931 -1.1799
 3185SOL     OW21190   4.631   1.247   4.702  0.2449 -0.2083  0.1112
 3185SOL    HW121191   4.660   1.260   4.792 -0.0002 -0.8153  0.2771
 3185SOL    HW221192   4.599   1.157   4.713  1.1899 -0.2451  2.4007
 3186SOL     OW21193   4.146   2.607   5.540 -0.5476 -0.8806 -0.0531
 3186SOL    HW121194   4.239   2.590   5.526 -0.5501 -1.4162  0.6409
 3186SOL    HW221195   4.113   2.568   5.459 -1.4123 -1.4697  0.5822
 3187SOL     OW21196   0.694   2.320   2.214  1.1383  0.4534  0.3497
 3187SOL    HW121197   0.734   2.233   2.213 -0.7415 -0.4092 -0.6997
 3187SOL    HW221198   0.775   2.365   2.240 -0.1449  1.8477  1.9078
 3188SOL     OW21199   4.554   4.194   7.991 -0.0980  0.0980  0.4833
 3188SOL    HW121200   4.574   4.118   8.045 -1.2004  1.1058  2.2948
 3188SOL    HW221201   4.628   4.184   7.931  0.0743  0.0386  0.7044
 3189SOL     OW21202   0.507   4.068   9.467 -0.0976 -0.4224  0.3465
 3189SOL    HW121203   0.431   4.057   9.410 -1.5563 -0.6591  2.3569
 3189SOL    HW221204   0.545   3.980   9.461 -2.5079 -1.5796  2.3474
 3190SOL     OW21205   1.918   2.140   0.509  0.5155  0.4237 -0.2653
 3190SOL    HW121206   1.949   2.052   0.529  0.3420  0.1844 -1.0265
 3190SOL    HW221207   1.843   2.151   0.568  0.7278  2.0555 -0.3023
 3191SOL     OW21208   1.459   1.655   0.099  0.4062  0.1383  0.4056
 3191SOL    HW121209   1.386   1.648   0.160  0.6815 -0.5665  0.6630
 3191SOL    HW221210   1.435   1.728   0.042  0.4740  0.6379  1.0073
 3192SOL     OW21211   3.544   2.096   6.988  0.1277  0.0866  0.2805
 3192SOL    HW121212   3.533   2.174   7.043 -0.7796  1.0121 -1.2146
 3192SOL    HW221213   3.588   2.139   6.914 -2.4641 -0.1376 -1.3801
 3193SOL     OW21214   0.074   4.175   7.017 -0.0390  0.2536 -0.0167
 3193SOL    HW121215   4.725   4.195   6.994 -1.1503 -1.7024  2.7168
 3193SOL    HW221216   0.084   4.112   6.945 -1.9738  0.9086 -0.8615
 3194SOL     OW21217   1.328   3.482   8.799 -0.6710 -0.4926 -0.5765
 3194SOL    HW121218   1.241   3.502   8.766 -0.3390  2.2243  0.1926
 3194SOL    HW221219   1.372   3.565   8.783 -0.7202  0.0738  2.2341
 3195SOL     OW21220   1.679   4.495   2.301  0.3584  0.2369  0.0049
 3195SOL    HW121221   1.698   4.404   2.323  0.9503 -0.3110 -2.7699
 3195SOL    HW221222   1.653   4.484   2.209 -0.8424  0.3471  0.3302
 3196SOL     OW21223   3.389   1.698  16.658  0.1408 -0.7562 -0.2984
 3196SOL    HW121224   3.346   1.622  16.699  0.5957 -1.0700 -0.4054
 3196SOL    HW221225   3.325   1.762  16.690  0.1471 -1.0631  0.3322
 3197SOL     OW21226   0.253   2.774   3.689  0.1255  0.5062  0.0721
 3197SOL    HW121227   0.207   2.715   3.748  1.9976 -1.7851 -0.7364
 3197SOL    HW221228   0.223   2.742   3.603  0.7269 -1.4082  0.5670
 3198SOL     OW21229   0.065   0.035   9.766  0.1231 -0.5605 -0.4511
 3198SOL    HW121230   0.141   0.075   9.808  0.0330 -0.3632 -0.4736
 3198SOL    HW221231   0.045   4.707   9.827  0.4939 -0.9469 -0.7777
 3199SOL     OW21232   0.800   2.684  14.676 -0.0872 -0.3201  0.3227
 3199SOL    HW121233   0.843   2.613  14.629 -0.6285 -1.3309  1.3726
 3199SOL    HW221234   0.719   2.688  14.625 -0.5714 -2.5946  0.9444
 3200SOL     OW21235   0.787   3.216   5.207  0.6679 -0.0186  0.4003
 3200SOL    HW121236   0.837   3.263   5.140  0.8017 -0.8179 -0.0586
 3200SOL    HW221237   0.857   3.200   5.269  1.3785  1.5447  0.0060
 3201SOL     OW21238   2.195   1.456   8.500  0.2000 -0.0181  0.2214
 3201SOL    HW121239   2.273   1.400   8.497  0.8844  0.9997 -0.8283
 3201SOL    HW221240   2.227   1.543   8.523  0.5191 -0.6055  1.9924
 3202SOL     OW21241   3.265   3.420  12.074 -0.1703 -0.4299  0.0244
 3202SOL    HW121242   3.271   3.437  11.980  0.0077  1.1199  0.3199
 3202SOL    HW221243   3.294   3.329  12.075  1.6997  0.1727 -1.0313
 3203SOL     OW21244   3.545   4.376   4.657 -0.4013 -0.0138 -0.0549
 3203SOL    HW121245   3.456   4.358   4.626 -0.6115  3.0127 -1.1384
 3203SOL    HW221246   3.600   4.332   4.592  0.4457 -0.4745  0.9740
 3204SOL     OW21247   2.938   1.600   1.301 -0.8864  0.1951 -0.5298
 3204SOL    HW121248   3.032   1.594   1.285 -1.0199 -1.6162 -0.6547
 3204SOL    HW221249   2.926   1.689   1.334  0.0922  0.2120 -0.2114
 3205SOL     OW21250   1.988   3.557   3.937 -0.0546 -0.0860  1.1199
 3205SOL    HW121251   2.051   3.485   3.944  0.0621 -0.1393 -0.5441
 3205SOL    HW221252   1.915   3.510   3.898 -1.4891  2.2774  1.0167
 3206SOL     OW21253   0.691   3.387   6.414  0.3332 -0.1293  0.1303
 3206SOL    HW121254   0.763   3.420   6.360 -0.4175 -1.2994 -1.5806
 3206SOL    HW221255   0.719   3.389   6.506 -0.2372 -0.3005  0.3043
 3207SOL     OW21256   2.146   0.369   2.625 -0.3960 -0.6656  0.3709
 3207SOL    HW121257   2.126   0.296   2.566 -1.4966 -1.4828  1.7634
 3207SOL    HW221258   2.071   0.372   2.683 -1.3259  0.0597 -0.8698
 3208SOL     OW21259   2.294   2.632   6.885 -0.0371  0.1562 -0.1442
 3208SOL    HW121260   2.241   2.711   6.874  0.1231  0.6142  2.3807
 3208SOL    HW221261   2.259   2.605   6.971  0.1990 -0.0644 -0.1188
 3209SOL     OW21262   4.171   1.446   6.372  0.2763  0.0423 -0.0786
 3209SOL    HW121263   4.169   1.387   6.447  1.2575  1.2876  0.9236
 3209SOL    HW221264   4.099   1.507   6.392  0.5474  0.8965 -1.6816
 3210SOL     OW21265   2.290   0.562   3.249 -0.1458  0.0964 -0.3203
 3210SOL    HW121266   2.252   0.553   3.336 -2.2563 -1.1433 -1.3820
 3210SOL    HW221267   2.218   0.596   3.196 -0.2393  0.6216  0.1402
 3211SOL     OW21268   2.217   1.362  17.019 -0.5093  0.0433  0.1352
 3211SOL    HW121269   2.223   1.279  16.972 -0.7983 -0.7283  1.4756
 3211SOL    HW221270   2.180   1.420  16.953 -1.6644 -2.2316 -1.2068
 3212SOL     OW21271   3.074   1.955   7.541  0.3140 -0.2522 -0.3011
 3212SOL    HW121272   3.168   1.953   7.521  0.5257 -2.9288  1.0757
 3212SOL    HW221273   3.037   1.937   7.454 -0.5289 -2.2234  0.4684
 3213SOL     OW21274   0.203   1.395   5.418  0.0861  0.5892  0.0761
 3213SOL    HW121275   0.201   1.330   5.348 -0.1474  0.0697  0.5624
 3213SOL    HW221276   0.242   1.468   5.371  1.9990 -1.7886 -2.0327
 3214SOL     OW21277   4.527   1.637  15.163 -0.0606  0.1663 -0.4621
 3214SOL    HW121278   4.571   1.682  15.091  0.1600 -1.1225 -1.1341
 3214SOL    HW221279   4.558   1.547  15.153 -0.2208  0.2531 -1.6677
 3215SOL     OW21280   2.989   1.299   1.131 -0.6157  0.1371  0.2086
 3215SOL    HW121281   2.915   1.358   1.120  0.8627  1.8098 -0.7043
 3215SOL    HW221282   3.069   1.347   1.108 -1.4007  1.5070  0.3277
 3216SOL     OW21283   2.036   3.095  16.701  0.1005  0.5988  0.1584
 3216SOL    HW121284   2.049   3.108  16.795  0.1480  3.0698 -0.1769
 3216SOL    HW221285   1.957   3.149  16.701  0.3842  1.0408 -1.3377
 3217SOL     OW21286   0.064   4.471   9.061 -0.2095  0.3274 -0.4773
 3217SOL    HW121287   0.045   4.378   9.048  2.4731 -0.1689 -0.9500
 3217SOL    HW221288   0.152   4.463   9.099  0.1037 -1.0595 -1.4432
 3218SOL     OW21289   0.927   0.507   5.382 -0.3516 -0.0058 -1.0316
 3218SOL    HW121290   0.904   0.520   5.289  1.5448 -0.6468 -1.5764
 3218SOL    HW221291   1.009   0.556   5.386 -0.9883  1.2681 -3.2909
 3219SOL     OW21292   4.250   4.634   7.144  0.1543  0.0933 -0.4580
 3219SOL    HW121293   4.202   4.597   7.070  2.4318  0.8352 -2.3170
 3219SOL    HW221294   4.298   4.555   7.171 -0.6538 -1.0793 -2.4268
 3220SOL     OW21295   2.098   0.619  15.765 -0.0703 -0.0381  0.1465
 3220SOL    HW121296   2.174   0.561  15.769 -1.5217 -1.9038  0.4472
 3220SOL    HW221297   2.115   0.668  15.684  0.0628 -1.3687 -0.6264
 3221SOL     OW21298   1.477   0.874   5.733  0.6445 -0.3357  0.3013
 3221SOL    HW121299   1.465   0.808   5.801 -0.0157  0.3669  0.8688
 3221SOL    HW221300   1.462   0.818   5.657 -0.3137 -1.4937  1.3447
 3222SOL     OW21301   4.324   4.513  17.031  0.1584  0.5392 -0.6443
 3222SOL    HW121302   4.402   4.561  17.003  1.0603 -0.9348 -0.6561
 3222SOL    HW221303   4.290   4.564  17.104 -1.5649 -0.1666 -0.9493
 3223SOL     OW21304   4.197   3.437   1.685 -0.1724 -0.0311  0.6270
 3223SOL    HW121305   4.253   3.369   1.720 -1.1814 -1.8536 -1.3290
 3223SOL    HW221306   4.199   3.497   1.761  1.1106 -1.4097  1.6697
 3224SOL     OW21307   2.359   0.098   2.996 -0.5205  0.0188 -0.2315
 3224SOL    HW121308   2.296   0.071   2.928  1.4693 -1.9498 -1.2818
 3224SOL    HW221309   2.320   0.174   3.039  1.7012  0.7121  0.5646
 3225SOL     OW21310   0.995   4.138   4.137 -0.9213 -0.5630 -0.4571
 3225SOL    HW121311   0.987   4.043   4.150  1.5258 -0.6340  0.6386
 3225SOL    HW221312   1.018   4.158   4.227 -0.2477  1.4225 -1.0796
 3226SOL     OW21313   2.509   4.483   4.856 -0.0373 -0.7880  0.7589
 3226SOL    HW121314   2.426   4.435   4.858  0.0825 -0.9445  2.1924
 3226SOL    HW221315   2.476   4.573   4.863 -1.5361 -1.1131 -2.1400
 3227SOL     OW21316   0.077   3.445   8.752  0.0688  0.1852  0.0607
 3227SOL    HW121317   0.075   3.446   8.656 -0.3234  2.0115  0.0831
 3227SOL    HW221318   0.063   3.354   8.778 -2.2135  0.9489  1.4669
 3228SOL     OW21319   4.047   0.447   5.670  0.1814 -0.1019 -0.0309
 3228SOL    HW121320   4.001   0.450   5.586 -3.4153  1.2415  2.0075
 3228SOL    HW221321   4.087   0.534   5.673 -1.9622  0.7931  2.4582
 3229SOL     OW21322   2.656   0.487   9.987 -0.0408 -0.5834 -0.1178
 3229SOL    HW121323   2.640   0.398  10.019 -0.6996 -0.1802  0.6622
 3229SOL    HW221324   2.700   0.530  10.060  1.0934 -0.6143 -0.7725
 3230SOL     OW21325   2.279   4.698   9.232 -0.2998 -0.4304  0.3222
 3230SOL    HW121326   2.196   4.650   9.238 -0.1541 -0.6722  0.3996
 3230SOL    HW221327   2.259   0.048   9.221 -0.1201 -0.3114  0.9809
 3231SOL     OW21328   0.347   0.813   9.356 -0.2737  0.9512  0.1000
 3231SOL    HW121329   0.277   0.748   9.347  0.2001  0.5000 -0.2982
 3231SOL    HW221330   0.301   0.893   9.328  1.1147  2.2138  1.4107
 3232SOL     OW21331   0.853   4.417   2.172 -0.2086  0.2276 -0.2604
 3232SOL    HW121332   0.900   4.500   2.174  0.2264  0.0011 -1.1126
 3232SOL    HW221333   0.825   4.408   2.263  0.1331  1.0623 -0.0816
 3233SOL     OW21334   2.364   0.539   7.829  0.2331  0.1285  0.0510
 3233SOL    HW121335   2.310   0.567   7.903 -1.9823  0.6603 -1.7786
 3233SOL    HW221336   2.340   0.612   7.772  1.1678 -0.9310 -1.7008
 3234SOL     OW21337   2.704   1.692  12.581  0.0221 -0.2786 -0.2801
 3234SOL    HW121338   2.643   1.698  12.508 -1.3182  2.0242  1.0339
 3234SOL    HW221339   2.699   1.600  12.608 -0.2807 -0.0795  0.3371
 3235SOL     OW21340   2.588   4.132   5.054 -0.2243 -0.1419  0.5427
 3235SOL    HW121341   2.665   4.132   5.112 -1.2010  0.6192  1.8556
 3235SOL    HW221342   2.575   4.227   5.049  3.2021  0.4188  1.6857
 3236SOL     OW21343   3.977   1.506   2.144  0.3523  0.2692 -0.1234
 3236SOL    HW121344   3.894   1.498   2.190  0.4513  1.5777  0.2763
 3236SOL    HW221345   4.026   1.541   2.219 -1.1715  0.0392  0.9751
 3237SOL     OW21346   0.688   1.423   6.172  0.0608  0.3958  0.6426
 3237SOL    HW121347   0.686   1.497   6.232 -2.3140 -0.1077  1.1820
 3237SOL    HW221348   0.780   1.425   6.144 -0.1026 -3.4471 -0.1499
 3238SOL     OW21349   2.695   2.721   7.811  0.0967  0.2536 -1.4526
 3238SOL    HW121350   2.700   2.716   7.907 -1.1607 -0.3262 -1.4168
 3238SOL    HW221351   2.777   2.770   7.814  0.5798 -0.6876  0.4910
 3239SOL     OW21352   0.388   0.148   2.034  0.4084  0.6220 -0.1912
 3239SOL    HW121353   0.313   0.125   1.980 -0.7911  4.9911 -0.4012
 3239SOL    HW221354   0.350   0.201   2.104 -0.7445  1.9659 -1.8449
 3240SOL     OW21355   3.352   4.354   3.034 -0.2414  1.0230 -0.6276
 3240SOL    HW121356   3.376   4.402   2.955 -0.6759 -0.7614 -1.8387
 3240SOL    HW221357   3.258   4.373   3.039 -0.3899 -0.3492  2.2851
 3241SOL     OW21358   3.020   4.116   9.455  0.0961  0.7358  0.8443
 3241SOL    HW121359   3.045   4.152   9.370 -2.2839 -2.9769 -1.3990
 3241SOL    HW221360   3.011   4.024   9.430  1.7490  0.7342  0.2476
 3242SOL     OW21361   1.639   0.808   4.324 -0.0154  0.2381 -0.1439
 3242SOL    HW121362   1.712   0.833   4.268 -0.8328 -0.6496 -1.6033
 3242SOL    HW221363   1.567   0.795   4.262 -1.1811 -1.4548  1.5699
 3243SOL     OW21364   3.759   3.249  17.502  0.2672  0.2996 -0.1539
 3243SOL    HW121365   3.779   3.266  17.594 -0.0848 -1.9700  0.3549
 3243SOL    HW221366   3.838   3.286  17.464 -0.1273  0.6902 -0.5924
 3244SOL     OW21367   4.681   2.750  17.645  0.3832 -0.4627 -0.3791
 3244SOL    HW121368   4.738   2.789  17.579  1.0073 -2.4781 -1.0199
 3244SOL    HW221369   4.668   2.823  17.706 -0.3136  0.0526 -1.1322
 3245SOL     OW21370   3.541   0.946   9.688  0.0339 -0.2228 -0.4604
 3245SOL    HW121371   3.582   1.032   9.695 -1.7330  0.7269 -1.8260
 3245SOL    HW221372   3.611   0.892   9.724 -1.0501 -1.1120  0.3053
 3246SOL     OW21373   4.114   1.178   4.243  0.1204  0.0592 -0.0618
 3246SOL    HW121374   4.186   1.122   4.213  0.1392  0.5604 -0.9177
 3246SOL    HW221375   4.063   1.192   4.164 -1.9566 -0.1721  1.2299
 3247SOL     OW21376   1.465   0.620   7.034  0.6904 -0.1174  0.4924
 3247SOL    HW121377   1.475   0.533   7.072 -0.6168 -0.3580  0.2744
 3247SOL    HW221378   1.516   0.607   6.954 -2.6368  0.1241 -1.6704
 3248SOL     OW21379   0.008   0.319   5.781  0.1897  0.1059  0.2186
 3248SOL    HW121380   0.067   0.252   5.814  0.8300  0.4178 -0.2894
 3248SOL    HW221381   0.014   0.388   5.848 -1.7754 -0.2456  0.7606
 3249SOL     OW21382   3.506   3.426   6.792 -0.0612  0.0903  0.3700
 3249SOL    HW121383   3.524   3.405   6.700  0.9576 -1.2757  0.8778
 3249SOL    HW221384   3.434   3.366   6.807 -0.4303  0.3777 -0.2322
 3250SOL     OW21385   2.241   3.623  16.153 -0.5647 -0.1461 -0.1411
 3250SOL    HW121386   2.309   3.667  16.205  0.2445  0.0409 -1.3650
 3250SOL    HW221387   2.275   3.534  16.152 -0.8969 -0.2675 -0.7882
 3251SOL     OW21388   2.403   4.152   2.709  0.3929  0.1693  0.1000
 3251SOL    HW121389   2.363   4.194   2.634 -1.2671 -1.7859 -0.1146
 3251SOL    HW221390   2.325   4.159   2.764  0.8901  0.7800  0.7264
 3252SOL     OW21391   0.696   2.892   3.747  0.0956 -0.2103  0.0981
 3252SOL    HW121392   0.715   2.817   3.803 -0.6568 -0.3035  0.2216
 3252SOL    HW221393   0.768   2.953   3.764  0.7824 -1.6163  2.2778
 3253SOL     OW21394   1.969   1.501  14.225 -0.0118 -0.0066  0.9047
 3253SOL    HW121395   2.003   1.412  14.233 -0.1137 -0.0833  0.5080
 3253SOL    HW221396   2.037   1.549  14.272  2.2196  0.1388 -2.4523
 3254SOL     OW21397   2.538   4.185   6.634 -0.2298 -0.4058  0.2609
 3254SOL    HW121398   2.583   4.101   6.642  0.9096  0.0864 -0.7568
 3254SOL    HW221399   2.453   4.148   6.657 -1.4259  0.1449 -3.3030
 3255SOL     OW21400   4.109   1.924   5.300 -0.2232  0.3372 -0.1211
 3255SOL    HW121401   4.147   2.011   5.303 -0.4310  0.3398  2.2822
 3255SOL    HW221402   4.030   1.940   5.248 -0.2581 -2.2910 -0.8969
 3256SOL     OW21403   1.385   2.155   3.430 -0.3573 -1.1798  0.3485
 3256SOL    HW121404   1.476   2.180   3.445 -0.3714 -0.0567 -1.4444
 3256SOL    HW221405   1.365   2.120   3.517 -0.3493 -2.1766 -0.0444
 3257SOL     OW21406   4.408   1.636   3.111  0.0846  0.8474  1.0349
 3257SOL    HW121407   4.453   1.632   3.195  1.5827  1.9407  0.2804
 3257SOL    HW221408   4.460   1.695   3.057 -1.6971  1.2680 -0.2383
 3258SOL     OW21409   3.619   4.577   5.028 -0.4697  0.0142 -0.2013
 3258SOL    HW121410   3.652   4.663   5.053 -3.0653  0.2374  2.5317
 3258SOL    HW221411   3.525   4.593   5.016 -0.1428 -0.0102 -2.7242
 3259SOL     OW21412   0.558   1.957   4.417  0.1312  0.5634  0.1723
 3259SOL    HW121413   0.520   2.041   4.442 -0.2667  0.0083  1.4853
 3259SOL    HW221414   0.649   1.951   4.449 -0.1730  0.9893  1.1363
 3260SOL     OW21415   4.741   1.397   1.697 -0.1237 -1.0948  0.3649
 3260SOL    HW121416   4.724   1.365   1.786  1.9081 -0.9162  0.8193
 3260SOL    HW221417   0.094   1.408   1.703 -0.3179  0.6557  0.2293
 3261SOL     OW21418   1.879   2.733   7.187  0.1467  0.0943 -0.0433
 3261SOL    HW121419   1.966   2.773   7.195  0.1739 -0.1423  0.8644
 3261SOL    HW221420   1.882   2.703   7.096 -0.3865  1.8581 -0.6436
 3262SOL     OW21421   3.379   2.940   6.827 -0.0735 -0.9199  0.4764
 3262SOL    HW121422   3.382   2.926   6.922 -0.5240  0.0731  0.6368
 3262SOL    HW221423   3.284   2.947   6.818 -0.4859 -2.5048  3.4367
 3263SOL     OW21424   4.524   0.371   8.093  0.3749  0.2435 -0.3350
 3263SOL    HW121425   4.527   0.391   7.999 -1.7222  0.1415 -0.4253
 3263SOL    HW221426   4.433   0.385   8.118  1.0447  0.9943  1.6527
 3264SOL     OW21427   3.610   1.417  14.394  0.0213 -0.3622 -0.2735
 3264SOL    HW121428   3.635   1.327  14.418 -1.6356 -0.9024 -0.5784
 3264SOL    HW221429   3.538   1.440  14.453  1.1453 -0.2941  1.0748
 3265SOL     OW21430   3.226   0.743   8.881 -0.0879  0.0543  0.2672
 3265SOL    HW121431   3.187   0.656   8.891 -1.8755  0.6696 -1.4178
 3265SOL    HW221432   3.299   0.741   8.943 -0.0298 -0.0008  0.1976
 3266SOL     OW21433   2.202   2.031  10.135  0.3506 -0.2035  0.9016
 3266SOL    HW121434   2.140   2.031  10.208  0.9051  0.5152  1.3623
 3266SOL    HW221435   2.185   2.115  10.094  0.1907 -0.3226  0.7226
 3267SOL     OW21436   2.993   3.191   9.967  0.4308  0.2259  0.1507
 3267SOL    HW121437   2.950   3.275   9.983  0.4078 -0.3482  3.0497
 3267SOL    HW221438   2.926   3.131   9.999 -0.2484  0.0119 -1.6784
 3268SOL     OW21439   4.728   1.402   9.433 -0.8125  0.1281  0.1335
 3268SOL    HW121440   4.642   1.390   9.472 -0.8446 -0.2994 -0.0698
 3268SOL    HW221441   4.723   1.498   9.436 -1.1767  0.1030  0.3177
 3269SOL     OW21442   4.128   2.573   7.925 -0.0519 -0.3098 -0.6386
 3269SOL    HW121443   4.168   2.527   7.852 -1.8252 -1.9041 -0.5966
 3269SOL    HW221444   4.114   2.655   7.879  2.2660  0.8833  0.7795
 3270SOL     OW21445   1.000   4.383  17.368 -0.2258 -0.1229 -0.6302
 3270SOL    HW121446   1.093   4.402  17.357 -0.5563  0.6950 -1.9396
 3270SOL    HW221447   0.950   4.461  17.345 -0.7109 -0.4672 -0.7455
 3271SOL     OW21448   0.772   3.649  10.888 -0.2122  0.5791 -0.5135
 3271SOL    HW121449   0.822   3.672  10.810  0.4061  0.9398 -0.0166
 3271SOL    HW221450   0.732   3.732  10.915 -0.8987 -0.5296  1.9110
 3272SOL     OW21451   2.896   4.349   3.575 -0.1305  0.4143  0.2270
 3272SOL    HW121452   2.990   4.344   3.556  0.4042  2.2741  2.4206
 3272SOL    HW221453   2.890   4.443   3.591  2.6229  0.1219  3.1132
 3273SOL     OW21454   3.389   2.858   3.991 -0.6800  0.0230  0.2961
 3273SOL    HW121455   3.405   2.868   3.897 -1.1227  0.4426  0.2655
 3273SOL    HW221456   3.349   2.771   3.989 -0.4458 -0.0423 -2.1791
 3274SOL     OW21457   2.372   4.417   8.783 -0.8477  0.4493 -0.2982
 3274SOL    HW121458   2.377   4.472   8.861 -0.2764 -0.4917  0.3116
 3274SOL    HW221459   2.303   4.356   8.810  1.1637 -1.2218  0.9737
 3275SOL     OW21460   4.231   3.231   9.699 -0.5645  0.1473 -0.3375
 3275SOL    HW121461   4.247   3.159   9.638  0.0790 -0.5083  0.5908
 3275SOL    HW221462   4.189   3.200   9.779  0.1948 -0.0148  0.0004
 3276SOL     OW21463   3.341   1.661   0.459  0.3567  0.4650  0.3739
 3276SOL    HW121464   3.337   1.609   0.379  0.0678  0.0246  0.6753
 3276SOL    HW221465   3.369   1.593   0.520  2.2584  0.0912 -0.8938
 3277SOL     OW21466   0.923   0.460  12.091 -0.2612  0.1223  0.3485
 3277SOL    HW121467   0.967   0.475  12.007 -0.5535 -1.9121 -0.1624
 3277SOL    HW221468   0.930   0.547  12.130  2.2902 -0.0229  0.1531
 3278SOL     OW21469   2.704   1.710   4.182 -0.4250  0.4514 -0.7293
 3278SOL    HW121470   2.684   1.674   4.096  0.0966  0.4438 -0.8446
 3278SOL    HW221471   2.644   1.662   4.239  0.2882 -1.4741 -1.6125
 3279SOL     OW21472   0.625   4.589  16.276  0.3654  0.4385 -0.1859
 3279SOL    HW121473   0.590   4.675  16.299 -0.3501  0.7650 -2.5865
 3279SOL    HW221474   0.667   4.581  16.362 -2.4803  0.6274  1.2280
 3280SOL     OW21475   4.320   4.056   6.559 -0.4337  0.6976 -0.1927
 3280SOL    HW121476   4.378   4.104   6.500  0.0672  1.5761  0.9990
 3280SOL    HW221477   4.279   3.999   6.495  0.9545  1.9611 -2.1880
 3281SOL     OW21478   2.724   2.697   3.584  0.1480 -0.1063  0.2997
 3281SOL    HW121479   2.756   2.688   3.495  0.4524 -1.9140  0.5937
 3281SOL    HW221480   2.723   2.608   3.618  0.5094 -0.7938 -1.5029
 3282SOL     OW21481   2.952   1.919   7.315  0.0677  0.5172 -0.1039
 3282SOL    HW121482   2.858   1.913   7.298  0.1544  0.0961 -0.4124
 3282SOL    HW221483   2.990   1.888   7.233  0.2425  1.4314 -0.3705
 3283SOL     OW21484   0.854   0.690   7.753 -0.5944  0.1801  0.2555
 3283SOL    HW121485   0.847   0.774   7.707 -1.2839 -0.7498 -1.3355
 3283SOL    HW221486   0.779   0.642   7.719 -1.9087 -0.1780  3.6041
 3284SOL     OW21487   1.472   1.668   9.595 -0.6226 -0.0664  0.4920
 3284SOL    HW121488   1.422   1.608   9.539  0.5482 -0.4943 -0.1034
 3284SOL    HW221489   1.409   1.687   9.664 -0.4431  0.3326  0.5480
 3285SOL     OW21490   1.507   4.588  17.302 -0.3941  0.5290  0.0982
 3285SOL    HW121491   1.570   4.516  17.293  0.0280  1.0420 -1.0516
 3285SOL    HW221492   1.555   4.640  17.366 -0.5620 -1.1391  1.5797
 3286SOL     OW21493   1.433   4.565  11.255 -0.0163 -0.0320  0.3347
 3286SOL    HW121494   1.512   4.566  11.309 -0.2984 -0.2280  0.7503
 3286SOL    HW221495   1.375   4.621  11.306 -2.5814 -0.8584 -1.7036
 3287SOL     OW21496   4.270   0.993   3.900 -0.4826  0.3620 -0.6540
 3287SOL    HW121497   4.320   0.958   3.974  0.4554 -0.9038 -1.8992
 3287SOL    HW221498   4.329   0.978   3.827 -0.4770  0.3298 -0.6430
 3288SOL     OW21499   4.291   1.734   2.131  0.1997 -0.1962 -0.2942
 3288SOL    HW121500   4.262   1.679   2.058 -0.9651  1.7721 -1.2942
 3288SOL    HW221501   4.379   1.763   2.110  0.3583  0.5915  1.4855
 3289SOL     OW21502   4.135   3.633   1.490  0.2704  0.4100 -0.4326
 3289SOL    HW121503   4.152   3.566   1.423 -0.6545 -1.1480  0.8734
 3289SOL    HW221504   4.155   3.573   1.562  0.4994 -1.6319 -2.1977
 3290SOL     OW21505   3.658   0.879   8.073  0.0519  0.1012 -0.5330
 3290SOL    HW121506   3.710   0.933   8.132  1.7308 -2.4294  0.2933
 3290SOL    HW221507   3.569   0.895   8.103  0.5230  0.1365  0.8305
 3291SOL     OW21508   0.510   0.096   9.464 -0.7724 -0.4613  0.2048
 3291SOL    HW121509   0.501   0.034   9.392 -3.9182  0.0452  0.1672
 3291SOL    HW221510   0.606   0.097   9.464 -0.7635 -0.7680 -2.4761
 3292SOL     OW21511   2.138   1.358   9.524  0.1005  0.7635  0.2857
 3292SOL    HW121512   2.227   1.389   9.537  0.3852  1.0970 -2.4509
 3292SOL    HW221513   2.134   1.264   9.537 -2.2926  0.5799 -1.6986
 3293SOL     OW21514   1.036   4.475   2.635  0.3650  0.2165  0.5358
 3293SOL    HW121515   1.024   4.566   2.661 -1.2234 -0.0433  0.7189
 3293SOL    HW221516   0.944   4.449   2.627  0.5168  0.3943 -1.8572
 3294SOL     OW21517   2.192   3.290   9.214  0.4938  0.5115  0.4548
 3294SOL    HW121518   2.180   3.208   9.262 -0.8332  0.2903 -0.2696
 3294SOL    HW221519   2.131   3.350   9.256 -1.8456 -1.4557 -0.0918
 3295SOL     OW21520   2.632   2.176   8.108 -0.6800  0.6353 -0.3038
 3295SOL    HW121521   2.614   2.213   8.195 -0.6248  1.5745 -0.6986
 3295SOL    HW221522   2.713   2.218   8.080 -0.4721 -1.3800 -2.7312
 3296SOL     OW21523   0.184   2.882   3.196 -0.5263 -0.0384  0.5293
 3296SOL    HW121524   0.155   2.941   3.266 -0.1610 -0.1755  0.7943
 3296SOL    HW221525   0.260   2.834   3.230 -0.1930 -0.2453 -0.5182
 3297SOL     OW21526   0.609   3.712   5.464 -0.0161 -0.1955 -0.3857
 3297SOL    HW121527   0.525   3.727   5.508 -1.2941 -2.6671 -1.9721
 3297SOL    HW221528   0.574   3.671   5.385 -2.1285 -1.9377  1.4434
 3298SOL     OW21529   1.621   1.879   5.177  0.2166 -0.5581 -0.6141
 3298SOL    HW121530   1.603   1.870   5.084 -1.0319  0.7833 -0.4973
 3298SOL    HW221531   1.641   1.792   5.212 -0.7139 -0.3463  0.4507
 3299SOL     OW21532   4.343   3.923  15.635  0.5431 -0.0003  0.2629
 3299SOL    HW121533   4.407   3.967  15.579 -0.6491  2.2473  0.6908
 3299SOL    HW221534   4.298   3.866  15.572 -0.7934  0.7111  0.5691
 3300SOL     OW21535   4.289   3.229   2.616 -0.2060  0.2535  0.1254
 3300SOL    HW121536   4.209   3.241   2.668  0.0295  1.5628  0.2012
 3300SOL    HW221537   4.294   3.137   2.591  0.3654 -0.4740  2.8803
 3301SOL     OW21538   0.400   1.612  13.650 -0.3300  0.7413 -0.4932
 3301SOL    HW121539   0.383   1.573  13.564  1.0811  0.7933 -0.7972
 3301SOL    HW221540   0.382   1.704  13.632 -0.9773  1.0011  1.4982
 3302SOL     OW21541   2.614   0.568   1.735 -0.2684 -0.1609  0.1371
 3302SOL    HW121542   2.679   0.635   1.756  1.4149 -1.4580 -0.8931
 3302SOL    HW221543   2.627   0.572   1.640 -3.4566  1.0566 -0.2449
 3303SOL     OW21544   0.835   2.703  11.385 -0.3034 -0.2368 -0.2771
 3303SOL    HW121545   0.752   2.747  11.403  0.5323  0.2591  2.4091
 3303SOL    HW221546   0.889   2.714  11.463  2.0893 -0.5787 -1.8964
 3304SOL     OW21547   1.755   3.564   5.854 -0.6388  0.3916 -0.2224
 3304SOL    HW121548   1.844   3.528   5.854 -1.6859 -2.2253 -1.4382
 3304SOL    HW221549   1.730   3.557   5.946 -1.0959 -0.1697 -0.3899
 3305SOL     OW21550   0.166   1.890   7.927 -0.4314  0.1176  0.0871
 3305SOL    HW121551   0.106   1.960   7.900  2.1600  2.1432 -0.3295
 3305SOL    HW221552   0.145   1.874   8.019 -2.8202  0.0336 -0.4555
 3306SOL     OW21553   0.375   2.266   5.592 -1.0257 -0.2282  0.5290
 3306SOL    HW121554   0.440   2.209   5.633 -0.6151 -0.9080 -1.0581
 3306SOL    HW221555   0.369   2.336   5.657  1.9872  1.6675 -1.2166
 3307SOL     OW21556   2.744   4.508   8.569  0.0913 -0.1336  0.1919
 3307SOL    HW121557   2.830   4.528   8.605 -0.9980 -0.4818  2.9560
 3307SOL    HW221558   2.686   4.572   8.610  0.2652  0.5766 -0.6720
 3308SOL     OW21559   1.121   2.482  14.894  0.2140 -0.0708  0.4500
 3308SOL    HW121560   1.038   2.435  14.891  0.1476 -0.0409  1.5698
 3308SOL    HW221561   1.092   2.546  14.960 -0.0362 -1.0693  1.3092
 3309SOL     OW21562   0.250   2.598   2.218 -0.5579  0.0452  0.0526
 3309SOL    HW121563   0.302   2.678   2.226 -1.8583  0.7277  1.5996
 3309SOL    HW221564   0.318   2.534   2.193 -3.2114 -2.7631  0.0221
 3310SOL     OW21565   2.074   2.193   2.657  0.0589 -0.6921  0.5236
 3310SOL    HW121566   2.073   2.102   2.629  0.6453 -0.6511  0.3798
 3310SOL    HW221567   2.167   2.213   2.671 -0.0791  0.7723 -0.6767
 3311SOL     OW21568   2.080   3.745   6.841 -0.4413  0.0183 -0.0097
 3311SOL    HW121569   2.165   3.788   6.838  0.6542 -2.2392 -1.6154
 3311SOL    HW221570   2.076   3.713   6.751 -0.2043  1.2072 -0.4392
 3312SOL     OW21571   2.574   0.368   7.931  0.7510 -0.3798  0.2271
 3312SOL    HW121572   2.532   0.387   8.014 -3.3330 -1.7917 -1.5303
 3312SOL    HW221573   2.524   0.426   7.872  0.1678 -0.0167  1.0830
 3313SOL     OW21574   3.520   0.020   5.287 -0.1592 -0.6372  0.1840
 3313SOL    HW121575   3.526   0.107   5.328 -0.1579 -1.0113  0.9832
 3313SOL    HW221576   3.425   0.009   5.289 -0.3143  0.6951 -0.1642
 3314SOL     OW21577   3.560   0.593  15.531  0.0935  0.1219  0.4532
 3314SOL    HW121578   3.596   0.626  15.449 -2.3448  0.3258 -0.5306
 3314SOL    HW221579   3.577   0.499  15.521  2.4473  0.2986  2.7284
 3315SOL     OW21580   1.353   3.541   6.234  0.1807  0.4628 -0.1567
 3315SOL    HW121581   1.301   3.461   6.236  0.0174  0.6000  1.3488
 3315SOL    HW221582   1.377   3.547   6.326 -1.3994  0.3107  0.2626
 3316SOL     OW21583   4.718   3.908   4.533 -0.2596  0.5801  0.7497
 3316SOL    HW121584   4.690   3.895   4.623  0.8456 -3.0686  0.5825
 3316SOL    HW221585   4.651   3.971   4.507  0.8174  1.8410  1.0554
 3317SOL     OW21586   0.111   3.504  16.549 -0.2191 -0.1795 -0.0843
 3317SOL    HW121587   0.082   3.470  16.465 -0.2122 -0.8771  0.1944
 3317SOL    HW221588   0.135   3.424  16.596 -0.5491 -0.2369 -0.0119
 3318SOL     OW21589   3.706   3.506  11.001  0.4059  0.2402 -0.2899
 3318SOL    HW121590   3.685   3.559  11.078 -1.2588  3.4646 -2.9294
 3318SOL    HW221591   3.800   3.496  11.011  0.3893 -2.7483 -3.0262
 3319SOL     OW21592   2.613   2.090   8.915  0.2376  0.2251  0.0284
 3319SOL    HW121593   2.568   2.006   8.919  0.0444  0.2709 -1.2920
 3319SOL    HW221594   2.548   2.141   8.963  0.8347 -0.0180  1.0913
 3320SOL     OW21595   0.806   3.169   6.257 -0.2427 -0.2367  0.5102
 3320SOL    HW121596   0.748   3.245   6.255  0.1217  0.1827  4.5570
 3320SOL    HW221597   0.867   3.201   6.324 -0.8181  0.5566  0.6575
 3321SOL     OW21598   2.641   4.629   5.853  0.2561  0.1948 -0.7533
 3321SOL    HW121599   2.682   4.668   5.930 -1.9155  1.6097 -0.3066
 3321SOL    HW221600   2.637   4.536   5.878  1.7162  0.0875 -0.9387
 3322SOL     OW21601   4.280   1.870   4.310  0.0056 -0.7201 -0.0853
 3322SOL    HW121602   4.217   1.927   4.355  0.5975  0.1294 -0.3409
 3322SOL    HW221603   4.308   1.825   4.390  1.5770  0.5639  0.0790
 3323SOL     OW21604   3.744   0.942   2.628 -0.7518  0.0411 -0.2473
 3323SOL    HW121605   3.652   0.956   2.652 -0.3803  2.8322 -0.4102
 3323SOL    HW221606   3.760   1.017   2.570  0.8791  0.4388  0.7183
 3324SOL     OW21607   4.306   0.061   6.928 -0.2300  0.1172 -0.0892
 3324SOL    HW121608   4.276   0.002   6.997  0.6591 -0.8207 -0.5073
 3324SOL    HW221609   4.399   0.069   6.952 -0.6642 -0.1044  1.6951
 3325SOL     OW21610   0.690   2.913   7.065 -0.1679  0.7885 -0.2610
 3325SOL    HW121611   0.737   2.848   7.118 -1.6401  0.1864  0.3057
 3325SOL    HW221612   0.763   2.937   7.008 -0.3327  1.3855 -0.2194
 3326SOL     OW21613   3.847   0.957   7.187  0.1585 -0.3934 -0.0667
 3326SOL    HW121614   3.929   0.938   7.232  0.6076 -0.1010 -0.7668
 3326SOL    HW221615   3.788   0.979   7.259  0.4734 -1.4167  0.4966
 3327SOL     OW21616   1.705   1.599   5.732 -0.1898 -0.1457 -0.1656
 3327SOL    HW121617   1.708   1.683   5.685 -0.0727 -1.7880 -3.0862
 3327SOL    HW221618   1.612   1.575   5.729 -0.9455  2.5217  2.2927
 3328SOL     OW21619   4.569   1.972   8.085  0.6264  0.3104 -0.0426
 3328SOL    HW121620   4.548   2.014   8.169 -2.1902 -0.9707 -0.1188
 3328SOL    HW221621   4.552   2.055   8.040  0.0465 -0.5664 -1.4551
 3329SOL     OW21622   1.679   0.497   1.911 -0.3858 -0.1094  0.3914
 3329SOL    HW121623   1.634   0.450   1.841 -0.5885  0.0789  0.3970
 3329SOL    HW221624   1.605   0.530   1.962 -1.9017 -1.2540 -1.0711
 3330SOL     OW21625   2.726   0.084  16.652  0.3663  0.4512 -0.3253
 3330SOL    HW121626   2.740   0.035  16.571  0.1064 -0.3672  0.1259
 3330SOL    HW221627   2.639   0.053  16.676 -0.6711  3.9072  0.3516
 3331SOL     OW21628   1.502   3.039   4.719 -0.1426  0.3585  0.1452
 3331SOL    HW121629   1.430   3.083   4.674 -1.5981  1.0063  3.0979
 3331SOL    HW221630   1.540   3.120   4.752  0.6647  0.5504 -1.2709
 3332SOL     OW21631   2.718   3.267   5.084  0.4595  1.3456 -0.2153
 3332SOL    HW121632   2.662   3.222   5.148 -0.7578  2.1895 -0.6699
 3332SOL    HW221633   2.803   3.226   5.096 -0.5505 -0.9749 -0.8722
 3333SOL     OW21634   1.815   3.725   3.047  0.5884 -0.1257 -0.1514
 3333SOL    HW121635   1.860   3.642   3.035  3.7580  1.6730 -0.6073
 3333SOL    HW221636   1.809   3.737   2.952 -1.3071  0.1813  0.0007
 3334SOL     OW21637   2.952   2.932   6.348  0.5947  0.3541 -0.6495
 3334SOL    HW121638   2.931   2.925   6.255 -1.7610  1.1419 -0.1801
 3334SOL    HW221639   2.868   2.942   6.393 -1.0439 -0.9762 -3.4679
 3335SOL     OW21640   1.015   0.872  11.541 -0.4180  0.4970  0.3843
 3335SOL    HW121641   1.107   0.849  11.531 -0.4130  0.1928  1.0975
 3335SOL    HW221642   0.986   0.781  11.553  2.5106 -0.5990 -0.7842
 3336SOL     OW21643   0.941   3.185   9.865  0.5952 -0.2898 -0.9958
 3336SOL    HW121644   0.933   3.209   9.958  0.1844 -1.2521 -0.7828
 3336SOL    HW221645   0.904   3.258   9.816  0.4023 -1.7783 -3.0475
 3337SOL     OW21646   0.789   2.054   0.070  0.0376  0.4316 -0.7169
 3337SOL    HW121647   0.736   2.005   0.132  3.0671 -0.4720  1.1401
 3337SOL    HW221648   0.845   2.106   0.127  0.6340 -1.0139  0.0165
 3338SOL     OW21649   0.032   0.091   6.575  0.8887  0.1219 -0.4081
 3338SOL    HW121650   4.728   0.092   6.491 -2.0455 -0.4270  1.2011
 3338SOL    HW221651   4.700   0.119   6.628  0.2184 -0.7374 -0.8958
 3339SOL     OW21652   3.928   1.044   7.947  1.0307  0.8578  0.3094
 3339SOL    HW121653   3.919   1.028   8.041  1.0682  0.4745  0.2474
 3339SOL    HW221654   3.946   1.138   7.944 -1.2479  1.2428 -0.7674
 3340SOL     OW21655   3.137   2.652   4.401  0.1282  0.7888  0.1558
 3340SOL    HW121656   3.118   2.617   4.488 -0.3906 -1.1925 -0.7624
 3340SOL    HW221657   3.227   2.622   4.387 -0.1249  0.3505 -0.5515
 3341SOL     OW21658   1.881   0.388   5.857  0.0134  0.5690  0.7113
 3341SOL    HW121659   1.962   0.437   5.839  1.0375 -0.8615  1.3924
 3341SOL    HW221660   1.811   0.451   5.872  0.9668  2.2540 -1.8343
 3342SOL     OW21661   2.312   4.700   6.643  0.4899  0.4885  0.6129
 3342SOL    HW121662   2.309   0.025   6.575  1.5616 -2.4054 -2.2633
 3342SOL    HW221663   2.319   4.618   6.595 -0.5356 -2.3029  5.2250
 3343SOL     OW21664   2.718   1.172   3.727  0.9340  0.0684 -0.4626
 3343SOL    HW121665   2.800   1.127   3.749  1.2348  0.0803 -1.5640
 3343SOL    HW221666   2.667   1.104   3.682  1.5846 -0.4978 -0.3471
 3344SOL     OW21667   2.809   3.304  13.902  0.2378  0.2207  0.5861
 3344SOL    HW121668   2.731   3.341  13.942  1.0816 -1.1025  3.4499
 3344SOL    HW221669   2.873   3.375  13.900  0.9129 -0.3340  2.3976
 3345SOL     OW21670   1.181   2.652  17.139 -0.1621 -0.1287 -0.9961
 3345SOL    HW121671   1.149   2.693  17.219  0.2911  0.7712 -1.2786
 3345SOL    HW221672   1.276   2.655  17.152  0.0052 -1.4368 -1.8492
 3346SOL     OW21673   2.943   0.026   5.804  0.1864  0.2591 -0.3513
 3346SOL    HW121674   2.863   4.724   5.778  0.3993 -0.6296  0.4951
 3346SOL    HW221675   2.919   0.085   5.876 -0.1995  0.9033 -1.0102
 3347SOL     OW21676   1.031   3.405   1.813 -0.6301  0.0919  0.5683
 3347SOL    HW121677   0.973   3.334   1.840 -0.0161 -0.7102 -0.1857
 3347SOL    HW221678   0.970   3.466   1.772  0.6992  1.4832  0.6795
 3348SOL     OW21679   1.814   1.008  12.418 -0.7478 -0.0357 -0.4020
 3348SOL    HW121680   1.816   1.102  12.398  0.4698 -0.2778 -1.4460
 3348SOL    HW221681   1.749   1.006  12.487 -1.3846  0.3722 -0.9886
 3349SOL     OW21682   3.566   0.744  10.766  0.7197 -0.0518 -0.1838
 3349SOL    HW121683   3.476   0.712  10.760  1.3532 -2.0971  1.2992
 3349SOL    HW221684   3.550   0.834  10.796  2.2033  0.2723 -0.3720
 3350SOL     OW21685   4.685   1.372  11.788  0.0575 -0.1545 -0.2285
 3350SOL    HW121686   0.038   1.385  11.792 -0.1972  0.9906  1.9930
 3350SOL    HW221687   4.673   1.293  11.840 -2.2125  0.2211 -0.1968
 3351SOL     OW21688   0.823   0.901   6.975  0.3095  0.1563  0.0425
 3351SOL    HW121689   0.843   0.811   7.002 -1.5358 -0.4307 -0.5408
 3351SOL    HW221690   0.907   0.941   6.997  0.5344 -0.6263  0.6347
 3352SOL     OW21691   0.470   4.385   2.512  0.6070 -0.2141  0.3914
 3352SOL    HW121692   0.449   4.318   2.447 -0.3708  0.9882 -0.5383
 3352SOL    HW221693   0.509   4.329   2.579  3.3898  2.2828  0.8353
 3353SOL     OW21694   0.580   0.778   6.726 -0.2596 -0.4535 -0.1122
 3353SOL    HW121695   0.532   0.776   6.809 -0.3161 -0.2252 -0.1387
 3353SOL    HW221696   0.631   0.859   6.730  0.8304 -1.1673  0.4758
 3354SOL     OW21697   2.706   3.001   7.758  0.5818 -0.3185  0.1636
 3354SOL    HW121698   2.752   2.938   7.703  2.2415  0.3780  0.7835
 3354SOL    HW221699   2.671   3.069   7.701  2.2019 -1.3531 -2.0568
 3355SOL     OW21700   2.187   3.958   1.334 -0.0465  0.0190 -0.9381
 3355SOL    HW121701   2.279   3.944   1.356  0.7515  1.7372 -3.1093
 3355SOL    HW221702   2.200   3.987   1.243  2.1946  0.0011 -0.6289
 3356SOL     OW21703   3.500   3.371  12.826  0.2582  0.4962  0.4687
 3356SOL    HW121704   3.485   3.425  12.904  0.1703  0.5870  0.3877
 3356SOL    HW221705   3.548   3.433  12.772 -2.0334  0.9763 -1.0242
 3357SOL     OW21706   2.815   2.244   5.329 -0.2756 -0.0912 -0.5237
 3357SOL    HW121707   2.810   2.285   5.416  2.9322 -0.6526 -0.0588
 3357SOL    HW221708   2.896   2.193   5.332 -0.5086 -0.3503  1.5944
 3358SOL     OW21709   2.414   2.671   9.366 -0.7488  0.2348 -0.1587
 3358SOL    HW121710   2.351   2.626   9.310  2.5977 -0.9380 -2.9940
 3358SOL    HW221711   2.389   2.762   9.350 -1.0720  0.2155  0.2470
 3359SOL     OW21712   1.799   2.841   3.374  0.4297 -0.3577  0.6229
 3359SOL    HW121713   1.811   2.933   3.349 -0.2318 -0.6936 -0.9231
 3359SOL    HW221714   1.723   2.820   3.319  0.0783 -0.7870  1.2685
 3360SOL     OW21715   4.386   2.916   6.076  0.0625 -0.7396  0.3504
 3360SOL    HW121716   4.471   2.924   6.032 -0.5496  1.7057 -0.3705
 3360SOL    HW221717   4.391   2.996   6.129  2.0499  1.8724 -3.8290
 3361SOL     OW21718   3.305   4.704   4.476  0.1989 -0.6875  0.1752
 3361SOL    HW121719   3.349   4.650   4.410 -1.1944 -1.8745  0.2149
 3361SOL    HW221720   3.219   4.705   4.433  0.5294  0.4891 -0.4578
 3362SOL     OW21721   2.179   3.368   9.520 -0.0257 -0.0068 -0.3359
 3362SOL    HW121722   2.220   3.438   9.572 -1.6005  2.6172 -2.6465
 3362SOL    HW221723   2.088   3.353   9.545 -0.2662  1.6513 -0.2134
 3363SOL     OW21724   0.755   0.978  10.025 -0.5065  0.5276  0.3376
 3363SOL    HW121725   0.698   1.047  10.058 -1.3162 -0.1134  0.2818
 3363SOL    HW221726   0.802   0.950  10.104 -0.2789  3.3979  1.2004
 3364SOL     OW21727   0.366   0.493  11.161  0.0117 -0.0319  0.1825
 3364SOL    HW121728   0.277   0.523  11.145 -0.1064 -0.2182  0.4791
 3364SOL    HW221729   0.422   0.566  11.134 -1.2658  1.0575  0.4823
 3365SOL     OW21730   3.976   3.409   5.917  0.2405 -0.2302  0.4287
 3365SOL    HW121731   3.907   3.343   5.923 -1.3483  1.3086 -0.9189
 3365SOL    HW221732   3.933   3.479   5.965 -0.6728 -0.3887 -0.1542
 3366SOL     OW21733   1.773   3.260   2.143  0.3315 -0.1771  0.1087
 3366SOL    HW121734   1.750   3.236   2.053  0.2443 -1.2968  0.4334
 3366SOL    HW221735   1.835   3.188   2.156 -0.0929 -0.8795 -1.7688
 3367SOL     OW21736   3.466   3.583   1.887  0.0173 -0.7506 -0.5292
 3367SOL    HW121737   3.480   3.546   1.800 -1.4122  1.6813 -1.7928
 3367SOL    HW221738   3.371   3.577   1.897  0.3213 -1.0583  1.9451
 3368SOL     OW21739   1.111   3.769  10.898  0.4079 -0.1466  0.0354
 3368SOL    HW121740   1.076   3.687  10.934  1.1359 -1.2556 -1.7633
 3368SOL    HW221741   1.060   3.767  10.817 -0.7317  1.3823  0.7286
 3369SOL     OW21742   3.664   1.158   1.806 -0.1774 -0.1980 -0.5541
 3369SOL    HW121743   3.755   1.127   1.802  0.0540  0.5604 -1.2691
 3369SOL    HW221744   3.625   1.132   1.723 -2.4044 -1.1883  0.8045
 3370SOL     OW21745   2.363   4.578   4.410  0.6940 -0.0044  0.8808
 3370SOL    HW121746   2.351   4.506   4.472 -1.1064 -1.6688 -1.4039
 3370SOL    HW221747   2.425   4.534   4.351  2.7503  2.0035  1.5238
 3371SOL     OW21748   1.156   4.437   3.850  0.9034  0.6343 -0.1142
 3371SOL    HW121749   1.235   4.436   3.905 -0.8164  1.1193  2.3548
 3371SOL    HW221750   1.149   4.342   3.843 -0.7955  0.8400 -1.1464
 3372SOL     OW21751   1.186   3.622  15.266 -0.6847 -0.3252 -0.3609
 3372SOL    HW121752   1.113   3.676  15.233 -0.5803 -0.8287 -1.4160
 3372SOL    HW221753   1.259   3.673  15.231  0.2540 -2.9253 -2.1726
 3373SOL     OW21754   0.773   2.258   5.686  0.3437 -0.1870 -0.3774
 3373SOL    HW121755   0.768   2.332   5.626  0.6124  1.7328  1.9440
 3373SOL    HW221756   0.708   2.272   5.756  1.0322 -1.4342  0.5044
 3374SOL     OW21757   0.655   2.468   8.439 -0.1675 -0.5219 -0.1061
 3374SOL    HW121758   0.714   2.503   8.505  0.4920  0.6383 -1.3227
 3374SOL    HW221759   0.709   2.401   8.398 -0.8739 -1.2780  0.2004
 3375SOL     OW21760   4.727   4.382   8.146 -0.4128 -0.2163  0.2366
 3375SOL    HW121761   0.063   4.331   8.124 -2.2892 -2.5316 -1.0223
 3375SOL    HW221762   4.666   4.327   8.097 -0.5088  0.3572 -0.2926
 3376SOL     OW21763   3.237   0.221   6.693  0.2514  0.4259  0.6520
 3376SOL    HW121764   3.318   0.271   6.681 -0.2712  1.4985  1.5848
 3376SOL    HW221765   3.231   0.219   6.788 -0.0532 -0.9861  0.6037
 3377SOL     OW21766   1.726   4.350   2.819  0.1624  0.1604 -0.1770
 3377SOL    HW121767   1.812   4.312   2.835  0.4780  0.9315 -0.0820
 3377SOL    HW221768   1.722   4.433   2.867  1.5953  0.2565 -0.2416
 3378SOL     OW21769   0.066   1.952   6.470  0.0415  0.4889 -0.0932
 3378SOL    HW121770   0.015   1.871   6.474 -0.4559  0.6807 -2.7525
 3378SOL    HW221771   0.017   2.010   6.413  0.2379 -1.5432 -2.3222
 3379SOL     OW21772   1.787   1.729   7.863 -0.1787 -0.6236  0.0810
 3379SOL    HW121773   1.876   1.749   7.891 -0.3848  1.9172 -1.0454
 3379SOL    HW221774   1.730   1.726   7.940 -0.3614 -0.8441 -0.0618
 3380SOL     OW21775   2.898   4.655   8.220 -0.0729  0.0305  0.1130
 3380SOL    HW121776   2.849   4.573   8.221 -0.2132  0.0915 -0.8440
 3380SOL    HW221777   2.830   4.719   8.240  0.8774  0.8315  0.7988
 3381SOL     OW21778   4.459   0.425  13.738 -0.7145  0.0058  0.0331
 3381SOL    HW121779   4.540   0.396  13.694 -0.2809  1.9529 -0.4321
 3381SOL    HW221780   4.463   0.365  13.812 -0.8834  4.0015  3.2736
 3382SOL     OW21781   1.921   1.281   4.737  0.1060 -0.3495  0.0709
 3382SOL    HW121782   1.830   1.310   4.735  0.3745  0.4536 -0.8771
 3382SOL    HW221783   1.917   1.229   4.817 -0.7547 -0.4399 -0.0333
 3383SOL     OW21784   3.417   3.864   8.993 -0.0735 -0.2898  0.1777
 3383SOL    HW121785   3.512   3.876   9.000 -0.3234  2.8987 -1.7760
 3383SOL    HW221786   3.393   3.819   9.074 -0.2930  1.0398  0.8615
 3384SOL     OW21787   4.485   4.169   6.356  0.0890  0.1169  0.1616
 3384SOL    HW121788   4.535   4.227   6.299  1.5613 -0.4691  0.8539
 3384SOL    HW221789   4.544   4.179   6.431 -0.3897  0.1556  0.5355
 3385SOL     OW21790   2.015   0.996   7.808  0.0930  0.1956  0.2438
 3385SOL    HW121791   1.926   1.027   7.788 -0.4487 -0.4347  1.7444
 3385SOL    HW221792   2.055   1.083   7.802  2.2006 -0.7496  0.6697
 3386SOL     OW21793   2.279   3.962  12.942 -0.1990 -0.0036 -1.0456
 3386SOL    HW121794   2.215   3.971  12.871 -0.1653 -3.8317 -1.5594
 3386SOL    HW221795   2.352   3.920  12.897  1.2865 -0.6686  1.9937
 3387SOL     OW21796   0.179   2.411   1.457 -0.4004 -0.2177  0.4407
 3387SOL    HW121797   0.194   2.496   1.414 -2.5986  0.0906  0.2881
 3387SOL    HW221798   0.180   2.359   1.376  0.1541 -1.5565  1.3054
 3388SOL     OW21799   1.880   3.541  11.905  1.2888  0.2351  0.6657
 3388SOL    HW121800   1.856   3.457  11.867  0.3814  0.5833  0.4671
 3388SOL    HW221801   1.820   3.613  11.883  0.2702 -1.3054 -1.6999
 3389SOL     OW21802   0.373   4.359   8.191  0.0032  0.0020 -0.2839
 3389SOL    HW121803   0.326   4.335   8.111 -0.0537 -0.3975 -0.1298
 3389SOL    HW221804   0.372   4.276   8.237 -2.7917 -0.7594 -1.7674
 3390SOL     OW21805   1.277   3.564  13.089 -0.0317 -0.1677  0.0307
 3390SOL    HW121806   1.341   3.628  13.056 -0.5121  0.3195  0.0334
 3390SOL    HW221807   1.207   3.626  13.111  0.1898  0.0890  0.0183
 3391SOL     OW21808   0.670   0.399   3.069 -0.7256  0.1576  0.2671
 3391SOL    HW121809   0.623   0.320   3.045 -0.6565  0.3014 -0.3405
 3391SOL    HW221810   0.592   0.449   3.095  0.2259  1.0932  1.3120
 3392SOL     OW21811   1.241   2.393   1.971 -0.4442  0.0432  0.2053
 3392SOL    HW121812   1.305   2.382   2.041 -1.4201 -0.2763  1.0411
 3392SOL    HW221813   1.162   2.348   1.999 -0.6332 -1.3839 -2.5236
 3393SOL     OW21814   3.506   0.331  14.975  0.6931  0.3234  0.0770
 3393SOL    HW121815   3.418   0.352  15.005  0.4281  1.3754 -1.4321
 3393SOL    HW221816   3.521   0.240  15.001  1.0205  0.7787  1.5032
 3394SOL     OW21817   4.130   0.546   6.601 -0.4982 -0.5046 -0.3179
 3394SOL    HW121818   4.067   0.555   6.672  1.2096  0.7063  1.0484
 3394SOL    HW221819   4.188   0.619   6.624 -2.0206  1.8063 -3.7947
 3395SOL     OW21820   0.979   1.040   8.362  0.4289  0.1473  0.5810
 3395SOL    HW121821   0.920   1.107   8.399 -1.8231 -1.6361  0.2486
 3395SOL    HW221822   0.996   1.065   8.271 -1.6654 -2.8402 -0.6457
 3396SOL     OW21823   2.264   3.427   2.091 -0.4788  0.4235 -0.0686
 3396SOL    HW121824   2.264   3.337   2.124  0.2657  0.2988 -0.4190
 3396SOL    HW221825   2.170   3.448   2.092 -0.4914  0.3986 -0.7644
 3397SOL     OW21826   1.893   1.896   8.925 -0.2353 -0.4560  0.2093
 3397SOL    HW121827   1.872   1.811   8.966 -3.7846  0.6214  0.6179
 3397SOL    HW221828   1.873   1.880   8.833 -0.3552 -0.3164  0.2103
 3398SOL     OW21829   1.710   2.561   4.452 -0.5924  0.5058  0.1688
 3398SOL    HW121830   1.718   2.601   4.365 -1.1715  0.2993  0.0185
 3398SOL    HW221831   1.697   2.643   4.500  3.3483  1.9923 -1.2408
 3399SOL     OW21832   3.757   3.147  14.229  0.2036 -0.2322  0.2711
 3399SOL    HW121833   3.707   3.202  14.168  0.4506 -2.3107 -1.7927
 3399SOL    HW221834   3.843   3.157  14.187  0.1013  1.1286  0.3818
 3400SOL     OW21835   3.277   0.300  17.441 -0.1548 -0.3712  0.4239
 3400SOL    HW121836   3.328   0.275  17.518 -0.7672  1.9000  1.5866
 3400SOL    HW221837   3.200   0.335  17.486  0.9026  0.9425  1.2177
 3401SOL     OW21838   1.316   4.697   4.136  0.3480  0.2050 -0.5068
 3401SOL    HW121839   1.252   4.626   4.141  2.3489 -1.6020 -0.3889
 3401SOL    HW221840   1.399   4.661   4.168 -0.2298 -0.5537  0.1375
 3402SOL     OW21841   2.912   2.323   5.632  0.2147  0.5170 -0.2469
 3402SOL    HW121842   2.852   2.321   5.707  0.3906  1.6900 -0.0671
 3402SOL    HW221843   2.921   2.233   5.603 -1.8999  0.3565 -0.4430
 3403SOL     OW21844   1.915   4.599   9.697  0.5694  0.7109  0.1328
 3403SOL    HW121845   1.960   4.516   9.677  0.0972  0.0556  1.7509
 3403SOL    HW221846   1.895   4.622   9.607  0.6453  1.3233  0.2774
 3404SOL     OW21847   1.709   2.060  14.877 -0.2638  0.0422  0.1372
 3404SOL    HW121848   1.629   2.111  14.895 -0.7825 -1.2036  1.3225
 3404SOL    HW221849   1.760   2.130  14.917 -0.2053  0.7403 -1.1629
 3405SOL     OW21850   1.696   3.189   5.793  0.0584  0.2086 -0.9752
 3405SOL    HW121851   1.727   3.265   5.744 -0.6911  0.3439 -1.2474
 3405SOL    HW221852   1.742   3.185   5.877 -0.1884 -1.1991 -0.9178
 3406SOL     OW21853   0.338   0.530   8.980  0.7876  0.1803 -0.2526
 3406SOL    HW121854   0.311   0.522   9.072  0.6019 -0.1698 -0.3382
 3406SOL    HW221855   0.263   0.583   8.950 -1.0520 -1.5621  1.2777
 3407SOL     OW21856   3.285   1.054  15.135  0.2886 -0.0702 -0.2219
 3407SOL    HW121857   3.312   0.995  15.065  0.3041  0.5075 -0.7017
 3407SOL    HW221858   3.238   1.120  15.083 -1.7763  0.4862  2.3636
 3408SOL     OW21859   3.891   2.260   8.603 -0.5493 -1.1530 -0.1850
 3408SOL    HW121860   3.857   2.263   8.513 -1.5941 -0.5438  0.2386
 3408SOL    HW221861   3.914   2.168   8.590  1.1667 -0.6729 -0.5427
 3409SOL     OW21862   1.896   0.083   8.219 -0.0228  0.0894 -0.4078
 3409SOL    HW121863   1.976   0.123   8.186 -0.9439  0.7288 -1.8485
 3409SOL    HW221864   1.826   0.113   8.161 -2.5301 -1.0886  2.0255
 3410SOL     OW21865   3.427   0.653  11.378 -0.2679  0.2934  0.0182
 3410SOL    HW121866   3.469   0.673  11.294  0.4972 -0.3634  0.2420
 3410SOL    HW221867   3.360   0.594  11.343  0.3625 -0.8852  0.7931
 3411SOL     OW21868   3.551   1.240   6.108  0.7362  0.3283 -0.3031
 3411SOL    HW121869   3.475   1.189   6.137  0.2888 -0.9493 -3.6330
 3411SOL    HW221870   3.616   1.173   6.087  1.3968  0.7192  0.4931
 3412SOL     OW21871   2.458   1.505  12.744 -0.4266  0.1754 -0.4409
 3412SOL    HW121872   2.391   1.532  12.681 -0.2748  3.0747  0.6430
 3412SOL    HW221873   2.448   1.564  12.818  0.6579  1.4035 -1.2490
 3413SOL     OW21874   2.646   0.765   5.911 -0.6187 -0.1230 -0.0369
 3413SOL    HW121875   2.612   0.818   5.983  0.7960  1.5932 -0.6258
 3413SOL    HW221876   2.580   0.780   5.843  0.6502  0.8728 -1.0655
 3414SOL     OW21877   3.099   3.788   2.687 -0.4336 -0.0560  0.3049
 3414SOL    HW121878   3.027   3.826   2.738 -0.4638  0.4239 -0.0969
 3414SOL    HW221879   3.101   3.846   2.611  0.5032 -0.9467 -0.3535
 3415SOL     OW21880   0.722   0.770   6.416 -0.0894 -0.5848 -0.2726
 3415SOL    HW121881   0.667   0.694   6.433  0.8419 -1.4505 -1.0750
 3415SOL    HW221882   0.775   0.772   6.496 -0.5179  2.5074 -0.1034
 3416SOL     OW21883   0.450   0.372   9.250  0.1327  0.4814 -0.4887
 3416SOL    HW121884   0.376   0.365   9.189 -1.8419  1.6731  1.7628
 3416SOL    HW221885   0.439   0.294   9.304  1.5026  1.0550  0.6038
 3417SOL     OW21886   2.394   0.564   5.887 -0.4395 -0.3204 -0.1863
 3417SOL    HW121887   2.432   0.550   5.974 -0.6290  0.2544 -0.0165
 3417SOL    HW221888   2.465   0.517   5.843  2.0843  3.0310  0.3146
 3418SOL     OW21889   1.630   2.912   7.605 -0.2678 -0.2706 -0.0715
 3418SOL    HW121890   1.597   2.824   7.626  1.2769 -1.4251 -2.4736
 3418SOL    HW221891   1.674   2.900   7.521  2.1456 -0.9530  1.3040
 3419SOL     OW21892   1.482   0.973  14.259  0.3452 -0.5391  0.2095
 3419SOL    HW121893   1.425   0.897  14.247  0.4847 -0.2991 -1.9791
 3419SOL    HW221894   1.492   0.967  14.354 -0.1951 -1.0321  0.2362
 3420SOL     OW21895   4.715   3.153   5.878 -0.6327 -0.6861 -0.0446
 3420SOL    HW121896   0.055   3.198   5.861 -1.0313  0.7913  2.0090
 3420SOL    HW221897   4.720   3.065   5.839 -0.3170 -0.7852  0.2160
 3421SOL     OW21898   1.081   4.276  10.340 -0.4271  0.2751  0.8760
 3421SOL    HW121899   0.998   4.234  10.319 -0.9703  1.7593  0.0202
 3421SOL    HW221900   1.061   4.316  10.424  1.6814  3.4847 -0.1312
 3422SOL     OW21901   2.787   4.023  12.571 -0.1355 -0.0243  0.1757
 3422SOL    HW121902   2.772   3.929  12.573 -0.1681  0.0260  1.9673
 3422SOL    HW221903   2.799   4.046  12.663  2.3741  2.0644 -0.6699
 3423SOL     OW21904   3.599   4.445   3.604 -0.0195 -0.3782 -0.2111
 3423SOL    HW121905   3.687   4.455   3.567 -0.8550  2.1891 -1.5319
 3423SOL    HW221906   3.606   4.356   3.639  0.1214  0.0651  0.8983
 3424SOL     OW21907   0.100   2.917  12.554  0.2269  0.1349 -0.9795
 3424SOL    HW121908   0.026   2.927  12.493  1.3155  2.4710 -1.9267
 3424SOL    HW221909   0.168   2.907  12.487 -0.2239  0.5628 -1.5067
 3425SOL     OW21910   2.290   4.168   3.474  0.3230  0.0876  0.2679
 3425SOL    HW121911   2.277   4.073   3.485 -1.5293  0.3183  0.1540
 3425SOL    HW221912   2.197   4.194   3.474  0.2709 -0.1292 -1.4014
 3426SOL     OW21913   1.056   2.571   0.770 -1.0321 -0.3341  0.2860
 3426SOL    HW121914   1.092   2.567   0.681 -2.6888 -1.0533 -0.3478
 3426SOL    HW221915   1.002   2.650   0.769  0.0043  0.3812 -0.0170
 3427SOL     OW21916   1.085   3.420  12.039  0.2110  0.2365  0.2270
 3427SOL    HW121917   1.146   3.360  12.083 -0.5440  0.5900  1.7692
 3427SOL    HW221918   1.005   3.369  12.028 -0.7219  1.2627  2.3023
 3428SOL     OW21919   1.644   0.689   3.398  0.2956  0.0413  0.3604
 3428SOL    HW121920   1.652   0.619   3.333  2.5712 -1.5673  2.3446
 3428SOL    HW221921   1.551   0.710   3.388  0.4273  0.8501  0.8421
 3429SOL     OW21922   0.692   4.076   4.981 -0.4460 -0.1417 -0.0559
 3429SOL    HW121923   0.690   4.066   4.886  1.2953 -1.9294  0.1081
 3429SOL    HW221924   0.600   4.058   4.998 -0.3626 -0.7633 -0.2706
 3430SOL     OW21925   2.162   2.667  11.265  0.0590  0.2850  0.5982
 3430SOL    HW121926   2.127   2.581  11.243  1.1199  0.1254 -0.4894
 3430SOL    HW221927   2.219   2.687  11.190  0.9664  3.9845  2.2961
 3431SOL     OW21928   2.972   0.865  15.610  0.3247  0.0146  0.7323
 3431SOL    HW121929   3.035   0.857  15.538 -2.0069  0.0783 -1.3031
 3431SOL    HW221930   2.895   0.885  15.558  1.7341  1.4259 -0.7927
 3432SOL     OW21931   1.917   4.600  15.359 -0.5632 -0.3208 -0.3685
 3432SOL    HW121932   1.874   4.544  15.294  0.2697 -0.7985 -0.5103
 3432SOL    HW221933   1.846   4.648  15.400 -0.9172  0.5769 -2.0288
 3433SOL     OW21934   4.576   0.642  14.883 -0.8394 -0.3848 -0.0792
 3433SOL    HW121935   4.632   0.701  14.833  0.6772 -1.3415  0.4747
 3433SOL    HW221936   4.565   0.577  14.814  0.9080  1.4589 -2.0807
 3434SOL     OW21937   4.200   0.636  13.282 -0.2581  0.6529  0.3668
 3434SOL    HW121938   4.234   0.629  13.193  0.0338 -0.5319  0.5615
 3434SOL    HW221939   4.244   0.570  13.336 -0.8898 -0.2976 -0.2736
 3435SOL     OW21940   4.203   4.163   6.775 -0.2229  0.0441 -0.2809
 3435SOL    HW121941   4.229   4.082   6.732  2.4774  0.5239  0.4411
 3435SOL    HW221942   4.219   4.217   6.698  1.9101  0.7742  0.6604
 3436SOL     OW21943   1.951   3.008  11.894 -0.4412  0.3271 -0.3472
 3436SOL    HW121944   1.874   3.029  11.947 -2.3054 -0.3137 -2.8054
 3436SOL    HW221945   2.015   3.039  11.958 -0.9733 -0.0977  0.3865
 3437SOL     OW21946   1.116   3.520   7.977 -0.7373 -0.0987 -0.6001
 3437SOL    HW121947   1.075   3.455   8.034  1.8517 -2.1060 -1.0162
 3437SOL    HW221948   1.208   3.491   7.975 -0.2247  1.4121  0.1812
 3438SOL     OW21949   4.037   2.557  12.608 -0.0412  0.1613  0.0048
 3438SOL    HW121950   4.067   2.644  12.581 -1.5965  0.5582 -0.3929
 3438SOL    HW221951   3.971   2.594  12.665 -0.5744  0.2389 -0.6680
 3439SOL     OW21952   4.500   4.170   3.645  0.7173 -0.6085 -0.3191
 3439SOL    HW121953   4.561   4.194   3.575  1.6333  0.4371  0.8363
 3439SOL    HW221954   4.433   4.130   3.589  0.3834 -0.3690 -0.0883
 3440SOL     OW21955   1.878   2.557   5.422 -0.2035 -0.1709  0.0777
 3440SOL    HW121956   1.837   2.476   5.390 -3.1791  0.9941  0.9518
 3440SOL    HW221957   1.819   2.627   5.394  0.2467  0.4709  0.7492
 3441SOL     OW21958   0.980   2.258   1.048  0.2580  0.3201 -0.6250
 3441SOL    HW121959   1.028   2.190   1.000  0.6710  1.3407 -1.6531
 3441SOL    HW221960   1.037   2.270   1.124  2.1163  0.8685 -2.0941
 3442SOL     OW21961   4.096   4.099   8.569 -0.1215 -0.0153 -0.8420
 3442SOL    HW121962   4.023   4.100   8.506 -1.9872  0.0294  1.3184
 3442SOL    HW221963   4.169   4.045   8.539  0.7120 -0.0753  1.3027
 3443SOL     OW21964   0.155   0.356   2.548 -0.1452  0.6751 -0.0547
 3443SOL    HW121965   0.247   0.361   2.523 -0.3278 -0.3555 -0.9322
 3443SOL    HW221966   0.150   0.391   2.637  0.2181  0.4758  0.0430
 3444SOL     OW21967   2.520   2.751   5.943 -0.1996  0.3623  0.6228
 3444SOL    HW121968   2.588   2.783   6.002  0.1259  2.2279 -0.7611
 3444SOL    HW221969   2.515   2.656   5.956  0.6263  0.2741  0.2986
 3445SOL     OW21970   0.562   2.822   7.477  0.3810 -0.7365  0.0356
 3445SOL    HW121971   0.504   2.844   7.404  1.2251  1.2503 -0.0295
 3445SOL    HW221972   0.494   2.782   7.530  0.2176  0.1384  0.4773
 3446SOL     OW21973   0.156   3.028   7.475  0.3775  0.3163  0.4011
 3446SOL    HW121974   0.249   3.047   7.480  0.3443  1.4607 -2.9237
 3446SOL    HW221975   0.117   3.110   7.505 -1.7182 -0.0329 -1.2905
 3447SOL     OW21976   1.581   1.386  16.881  0.6590 -0.3131 -0.7848
 3447SOL    HW121977   1.675   1.400  16.884  0.7134 -0.9837  0.8076
 3447SOL    HW221978   1.565   1.363  16.973 -2.3498  1.0134 -0.9700
 3448SOL     OW21979   3.605   1.772   1.513 -0.5797 -0.3354  0.6057
 3448SOL    HW121980   3.552   1.847   1.488  0.0594 -0.8658 -2.2681
 3448SOL    HW221981   3.571   1.699   1.461  1.5338 -0.8847 -0.0030
 3449SOL     OW21982   0.648   4.069  16.600 -0.0061 -0.3294  0.0587
 3449SOL    HW121983   0.597   3.999  16.561 -0.9576  1.5059 -1.9254
 3449SOL    HW221984   0.741   4.047  16.605 -0.0593 -0.1428  2.0852
 3450SOL     OW21985   3.430   0.457   8.456  0.3135  0.2782 -0.4000
 3450SOL    HW121986   3.412   0.525   8.521  1.6707  1.6439 -1.4558
 3450SOL    HW221987   3.504   0.411   8.497 -0.0667 -1.0165 -1.1784
 3451SOL     OW21988   1.557   0.558  14.991 -0.2095 -0.9617 -0.2153
 3451SOL    HW121989   1.616   0.582  15.063 -1.1519  2.1266 -0.4850
 3451SOL    HW221990   1.542   0.465  15.007 -1.3718 -0.8565 -0.6552
 3452SOL     OW21991   1.750   1.727  10.331 -0.6104  0.6823 -0.3216
 3452SOL    HW121992   1.695   1.652  10.354  2.5388 -1.3508  0.6926
 3452SOL    HW221993   1.776   1.691  10.246  0.1792  1.9883 -0.6371
 3453SOL     OW21994   0.243   2.558   3.177 -0.6753  0.5130 -0.3584
 3453SOL    HW121995   0.238   2.612   3.098 -3.0799  0.5028 -0.2137
 3453SOL    HW221996   0.232   2.476   3.128 -0.2702 -0.2219  0.7644
 3454SOL     OW21997   3.778   2.940   7.335  0.1379 -0.0844 -0.1479
 3454SOL    HW121998   3.782   2.851   7.302  0.6988  0.2413 -0.9823
 3454SOL    HW221999   3.735   2.986   7.263 -2.3361  1.9172  2.5899
 3455SOL     OW22000   2.905   4.460   7.265 -0.3717 -0.5992 -0.0706
 3455SOL    HW122001   2.889   4.451   7.359  0.3891  0.3151  0.1501
 3455SOL    HW222002   2.951   4.543   7.259  0.6913 -1.0981  1.0771
 3456SOL     OW22003   3.461   2.720   9.067 -0.6146  0.0959  0.3380
 3456SOL    HW122004   3.520   2.781   9.023 -1.0320 -0.6223 -1.2271
 3456SOL    HW222005   3.476   2.726   9.161 -0.6108  2.3855  0.1930
 3457SOL     OW22006   2.678   3.082   6.325  0.1856 -0.6792  0.0265
 3457SOL    HW122007   2.759   3.125   6.296 -0.4918  0.7447  0.2762
 3457SOL    HW222008   2.689   3.040   6.410 -2.3434 -1.6518 -0.1206
 3458SOL     OW22009   2.928   0.884   0.628  0.6824  0.2767  0.2024
 3458SOL    HW122010   2.883   0.908   0.709  0.7151  0.5333  0.1442
 3458SOL    HW222011   2.899   0.962   0.581 -2.4597 -0.0296  1.6518
 3459SOL     OW22012   2.149   2.725   8.311  0.0620 -0.0786 -0.3905
 3459SOL    HW122013   2.114   2.804   8.269 -1.8361 -0.0568  1.2279
 3459SOL    HW222014   2.204   2.694   8.239 -0.6889 -2.0237 -0.1057
 3460SOL     OW22015   4.381   0.146   7.868 -0.5963 -0.3747  0.2085
 3460SOL    HW122016   4.304   0.109   7.824  1.1958 -3.3155 -0.4142
 3460SOL    HW222017   4.365   0.120   7.959  0.1837  2.0699  1.0425
 3461SOL     OW22018   0.730   4.578  13.126  0.4952  0.1243  0.4771
 3461SOL    HW122019   0.812   4.528  13.125 -0.4279 -1.3912 -0.0939
 3461SOL    HW222020   0.678   4.527  13.189 -0.2465  1.4326  0.9250
 3462SOL     OW22021   0.703   4.721  15.011  0.3057 -0.5279  0.1086
 3462SOL    HW122022   0.631   4.659  15.020 -0.2973  0.0408 -0.8062
 3462SOL    HW222023   0.731   4.710  14.920 -0.5781  1.2102 -0.3648
 3463SOL     OW22024   2.428   0.858   4.456  0.1773  0.1765  0.2825
 3463SOL    HW122025   2.405   0.884   4.367 -0.8950  2.4957  1.2522
 3463SOL    HW222026   2.510   0.906   4.455  0.9646 -1.1763 -0.8246
 3464SOL     OW22027   3.007   3.618   0.718  0.3842 -0.5726  0.4184
 3464SOL    HW122028   3.102   3.633   0.718  0.0693  1.5140 -2.0541
 3464SOL    HW222029   2.997   3.638   0.811 -1.9817 -0.2703  0.0760
 3465SOL     OW22030   4.596   4.342   0.287 -0.0360  0.1954  0.3415
 3465SOL    HW122031   4.602   4.377   0.376 -1.7906  0.4846  0.3387
 3465SOL    HW222032   4.627   4.252   0.300  0.0017  0.0666 -0.6738
 3466SOL     OW22033   3.631   0.738   2.789  0.4115 -0.2725 -0.1853
 3466SOL    HW122034   3.699   0.801   2.809  0.1837 -0.5998  1.6103
 3466SOL    HW222035   3.593   0.713   2.873  0.1426  2.2862  0.4555
 3467SOL     OW22036   4.013   2.876   7.028  0.9744 -0.1782  1.0712
 3467SOL    HW122037   4.049   2.829   7.104  0.5995  0.5575  1.7010
 3467SOL    HW222038   4.001   2.959   7.074  1.9007 -0.1262  1.2309
 3468SOL     OW22039   3.231   1.878   2.118  0.1313  0.1093 -0.0834
 3468SOL    HW122040   3.163   1.837   2.064 -0.5912  0.1441  0.7951
 3468SOL    HW222041   3.176   1.907   2.190  1.1083  0.1356  0.6531
 3469SOL     OW22042   0.327   3.630   7.360 -0.1595 -0.2519  0.0986
 3469SOL    HW122043   0.393   3.691   7.392 -1.0224 -0.5172  2.3794
 3469SOL    HW222044   0.298   3.666   7.276  1.0817 -0.8163 -0.5875
 3470SOL     OW22045   0.160   0.060   7.541 -0.6869  0.1538  0.0884
 3470SOL    HW122046   0.149   0.042   7.448 -0.3260  2.2497 -0.3547
 3470SOL    HW222047   0.070   0.064   7.572 -0.5321 -0.1285  0.5870
 3471SOL     OW22048   1.899   3.879   2.523 -0.0413  0.2793 -0.0288
 3471SOL    HW122049   1.928   3.827   2.448 -0.3273  0.8717 -0.5500
 3471SOL    HW222050   1.809   3.886   2.491  0.2775  1.5149 -0.6497
 3472SOL     OW22051   2.303   3.134   7.672 -0.0669  0.1465 -0.2087
 3472SOL    HW122052   2.338   3.223   7.672 -1.9250  0.8721 -0.8930
 3472SOL    HW222053   2.359   3.086   7.732  0.1688 -0.8638 -1.2442
 3473SOL     OW22054   2.619   3.383   0.858  0.2386  0.1289  0.4970
 3473SOL    HW122055   2.581   3.466   0.831  0.9929  0.6449  1.0135
 3473SOL    HW222056   2.630   3.393   0.952  1.2641 -1.2692  0.5378
 3474SOL     OW22057   3.605   2.176   5.305  0.2599 -0.3612  0.8061
 3474SOL    HW122058   3.634   2.085   5.294 -1.7787 -0.9116  0.0663
 3474SOL    HW222059   3.589   2.173   5.399  0.4350 -1.5889  0.8020
 3475SOL     OW22060   1.614   3.313   7.433  0.2834 -0.1270 -0.5205
 3475SOL    HW122061   1.601   3.407   7.428  0.4422 -0.1020 -0.4402
 3475SOL    HW222062   1.682   3.297   7.368 -0.4538 -0.9721 -1.0933
 3476SOL     OW22063   1.798   2.140   5.889 -0.1985  0.4180 -0.1986
 3476SOL    HW122064   1.787   2.045   5.880 -0.0953  0.0885  3.1045
 3476SOL    HW222065   1.893   2.147   5.894 -0.0766  0.9644 -3.1207
 3477SOL     OW22066   4.369   3.404   1.019  1.1465 -0.3708 -0.2161
 3477SOL    HW122067   4.300   3.341   0.999  1.4648 -0.8142  0.0950
 3477SOL    HW222068   4.417   3.406   0.937 -0.2704 -0.0814 -1.0325
 3478SOL     OW22069   3.097   1.423  13.534  0.1947  0.3280  0.5100
 3478SOL    HW122070   3.043   1.467  13.469  0.0598 -1.1769 -0.4124
 3478SOL    HW222071   3.154   1.377  13.472  0.2430  0.7487  0.2472
 3479SOL     OW22072   3.440   0.260  17.234  0.5965  0.6748 -0.1795
 3479SOL    HW122073   3.394   0.309  17.303 -1.3194 -0.0222 -0.9519
 3479SOL    HW222074   3.441   0.315  17.156 -1.1240  0.4555 -0.3578
 3480SOL     OW22075   2.981   4.730   4.821 -0.9674  0.4652 -0.2448
 3480SOL    HW122076   3.051   4.680   4.778 -1.1883  0.1204 -0.2007
 3480SOL    HW222077   2.924   0.014   4.749 -1.9726 -0.5784  0.1761
 3481SOL     OW22078   4.519   0.036   5.980 -0.2744 -0.0318 -0.4990
 3481SOL    HW122079   4.532   0.095   5.906 -1.8241 -0.7711 -1.3826
 3481SOL    HW222080   4.440   4.732   5.949 -0.1230 -0.5341 -0.1378
 3482SOL     OW22081   2.375   0.536   4.387 -0.0968 -0.4455 -0.3496
 3482SOL    HW122082   2.386   0.448   4.350 -0.6020  0.4389 -2.5616
 3482SOL    HW222083   2.320   0.567   4.316 -1.3968  0.2640  0.9741
 3483SOL     OW22084   0.080   2.292   1.703  0.0055 -0.2750 -0.2145
 3483SOL    HW122085   0.100   2.333   1.619 -0.9206  0.2277 -0.1895
 3483SOL    HW222086   0.148   2.325   1.761 -1.0303 -1.3576  1.6098
 3484SOL     OW22087   1.375   2.091   7.515 -0.5034 -0.6768  0.1436
 3484SOL    HW122088   1.306   2.157   7.524  1.1509  0.8960  1.1844
 3484SOL    HW222089   1.329   2.012   7.485 -2.3233  0.3006  0.3999
 3485SOL     OW22090   0.133   2.562   2.465 -0.3335 -0.0221  0.4606
 3485SOL    HW122091   0.039   2.564   2.447 -0.1753 -0.3968 -0.3848
 3485SOL    HW222092   0.173   2.582   2.381 -1.0985 -0.1437  0.0699
 3486SOL     OW22093   4.119   2.985   5.783  0.0906  0.0384  0.1166
 3486SOL    HW122094   4.079   2.905   5.751  0.6815  0.1965 -1.0144
 3486SOL    HW222095   4.087   2.983   5.874 -0.0667 -1.8947  0.0224
 3487SOL     OW22096   1.608   2.147   1.650  0.0976 -0.0659  0.4207
 3487SOL    HW122097   1.700   2.173   1.652  0.1245  0.0987 -2.9708
 3487SOL    HW222098   1.606   2.132   1.556  1.6180 -0.9101  0.5237
 3488SOL     OW22099   4.210   2.419   1.139  0.1404  0.4652  0.0025
 3488SOL    HW122100   4.285   2.472   1.165 -0.2110  0.3917  1.1925
 3488SOL    HW222101   4.240   2.330   1.122 -2.9000 -0.2215 -1.8430
 3489SOL     OW22102   0.504   3.910   3.891  0.0807 -0.2641  0.6284
 3489SOL    HW122103   0.542   3.907   3.803  2.0669  0.0088  1.4864
 3489SOL    HW222104   0.526   4.000   3.915  2.6795 -0.9921  0.9260
 3490SOL     OW22105   3.645   2.728   5.466 -0.2274 -0.5560  0.2857
 3490SOL    HW122106   3.656   2.653   5.524 -0.7030 -0.6507  0.2471
 3490SOL    HW222107   3.552   2.738   5.450  0.4844  1.7813 -2.3787
 3491SOL     OW22108   1.273   3.959   6.203  0.7904  0.3991 -0.0511
 3491SOL    HW122109   1.234   3.913   6.278  0.1808 -1.1518 -1.3008
 3491SOL    HW222110   1.212   3.945   6.131  0.2467  1.2109  0.2612
 3492SOL     OW22111   0.077   1.348   4.546  0.1281  0.1926  0.4157
 3492SOL    HW122112   0.132   1.285   4.499 -1.2107 -1.0843  0.5941
 3492SOL    HW222113   0.015   1.290   4.589  0.3695 -0.9429 -0.7693
 3493SOL     OW22114   0.036   2.972   3.643 -0.0554 -0.6751  0.5960
 3493SOL    HW122115   0.028   3.049   3.700 -0.1155 -0.4139  0.2357
 3493SOL    HW222116   0.111   2.929   3.683  0.7430 -0.3984 -0.6185
 3494SOL     OW22117   1.590   2.130   6.072 -0.2333  0.1767 -0.4484
 3494SOL    HW122118   1.665   2.133   6.012 -0.3111 -1.1024 -0.6087
 3494SOL    HW222119   1.526   2.178   6.020 -1.2972 -0.0555  0.6532
 3495SOL     OW22120   2.269   4.239  17.405  0.1527  0.1451  0.6366
 3495SOL    HW122121   2.211   4.293  17.352  1.0543  0.7955  0.3115
 3495SOL    HW222122   2.291   4.165  17.349  0.6035  1.2785 -0.6794
 3496SOL     OW22123   1.558   2.116   8.969 -0.2180 -0.2705  0.2843
 3496SOL    HW122124   1.620   2.080   9.032  0.1892  0.3792  0.2567
 3496SOL    HW222125   1.518   2.035   8.938 -1.3081  0.3799  0.0086
 3497SOL     OW22126   3.386   3.254   9.398  0.3221 -0.0449 -0.5936
 3497SOL    HW122127   3.322   3.299   9.342  0.2618  1.0554  0.3582
 3497SOL    HW222128   3.355   3.284   9.483 -1.4699 -0.2617 -1.1638
 3498SOL     OW22129   3.521   4.627  11.329 -0.0003  0.0564  0.5319
 3498SOL    HW122130   3.572   4.616  11.409  3.2990  1.6758 -1.3354
 3498SOL    HW222131   3.467   4.703  11.354  2.4158  1.4899  1.3640
 3499SOL     OW22132   4.189   2.786  16.434 -0.4410 -0.0013 -0.1286
 3499SOL    HW122133   4.141   2.715  16.392 -0.9212 -1.1204  2.3210
 3499SOL    HW222134   4.211   2.748  16.519  0.2275  0.5943 -0.0413
 3500SOL     OW22135   0.240   0.695   6.019  0.0042  0.1804 -0.0872
 3500SOL    HW122136   0.235   0.684   6.114  2.6788 -0.4263 -0.0331
 3500SOL    HW222137   0.331   0.721   6.010  0.8254 -2.1848  1.1329
 3501SOL     OW22138   1.474   1.902  14.142  0.7299  0.1992 -0.0108
 3501SOL    HW122139   1.392   1.854  14.133 -0.2832  1.6628  1.3770
 3501SOL    HW222140   1.495   1.866  14.229 -1.4409  0.6531  0.6895
 3502SOL     OW22141   2.406   3.668  15.741  0.0604 -0.2450 -0.1525
 3502SOL    HW122142   2.334   3.632  15.690 -2.2589  0.1352  2.8294
 3502SOL    HW222143   2.459   3.699  15.668 -0.7810  0.8030 -0.3326
 3503SOL     OW22144   3.193   3.586   6.176 -0.0545  0.2200  0.7427
 3503SOL    HW122145   3.142   3.665   6.157  0.7859  0.1509 -1.6823
 3503SOL    HW222146   3.126   3.518   6.173  0.6121 -0.4511  1.0800
 3504SOL     OW22147   2.909   0.845   2.801  0.0376 -0.2375 -0.0804
 3504SOL    HW122148   2.866   0.771   2.843 -0.3425  0.2680  0.4307
 3504SOL    HW222149   2.902   0.828   2.707 -1.3594 -0.3118  0.0382
 3505SOL     OW22150   2.756   4.504   5.612 -0.2657  0.0867  0.7944
 3505SOL    HW122151   2.710   4.517   5.695  1.4267  1.3846  1.5324
 3505SOL    HW222152   2.834   4.460   5.644  0.1970  0.4629  0.1787
 3506SOL     OW22153   0.711   0.974   7.225  0.4522 -0.0587  0.3161
 3506SOL    HW122154   0.765   0.919   7.281  0.5023  1.1338  1.4412
 3506SOL    HW222155   0.752   0.946   7.143 -0.5520 -1.6304  0.3468
 3507SOL     OW22156   1.708   4.469  13.530  0.0961 -0.2467 -0.1825
 3507SOL    HW122157   1.749   4.382  13.521  1.2532  0.1184  1.5178
 3507SOL    HW222158   1.651   4.477  13.454  0.6270 -0.5531 -0.6145
 3508SOL     OW22159   4.322   4.005   2.920  0.4472 -0.0804 -0.4335
 3508SOL    HW122160   4.243   3.993   2.972  0.1657 -0.1133 -0.8748
 3508SOL    HW222161   4.388   3.996   2.989 -0.0831 -1.7054 -0.1504
 3509SOL     OW22162   4.475   1.053   6.308  0.3798  0.2133  0.4691
 3509SOL    HW122163   4.452   1.131   6.258  1.1668  0.3548  0.3376
 3509SOL    HW222164   4.560   1.072   6.347  1.7933  0.5120 -2.8322
 3510SOL     OW22165   0.652   2.058   3.783  0.1326 -0.0232 -0.4546
 3510SOL    HW122166   0.685   1.987   3.729  0.8883 -0.0050 -0.0090
 3510SOL    HW222167   0.716   2.128   3.788  0.2966 -0.2554  0.7196
 3511SOL     OW22168   3.794   1.351   3.771  0.1219 -0.1973 -0.1443
 3511SOL    HW122169   3.781   1.402   3.691  3.2257  0.8889  0.0342
 3511SOL    HW222170   3.883   1.382   3.792 -0.3876  1.8748 -1.0002
 3512SOL     OW22171   3.100   3.111   9.704  0.4128  0.0820 -0.8066
 3512SOL    HW122172   3.055   3.037   9.664  0.8484 -0.5906 -0.0526
 3512SOL    HW222173   3.069   3.124   9.794  1.1807 -2.0052 -0.2590
 3513SOL     OW22174   3.183   3.738   8.301 -0.2723 -0.1385  0.2110
 3513SOL    HW122175   3.241   3.676   8.346  0.2008  0.7295  0.7870
 3513SOL    HW222176   3.230   3.820   8.314 -0.3943  0.2292 -1.7218
 3514SOL     OW22177   1.023   2.262   7.132 -0.3290 -0.3013  0.1310
 3514SOL    HW122178   0.975   2.333   7.175  0.8418  2.0557 -2.4962
 3514SOL    HW222179   1.072   2.229   7.207  0.4151  0.3278 -0.0798
 3515SOL     OW22180   1.528   0.147   6.682 -0.1828  0.4115 -0.0916
 3515SOL    HW122181   1.445   0.187   6.707 -0.9061 -0.1696 -1.5825
 3515SOL    HW222182   1.573   0.139   6.766 -0.7690 -0.6247  0.1089
 3516SOL     OW22183   3.976   2.285  17.488 -0.1103 -0.2067 -0.2007
 3516SOL    HW122184   4.033   2.285  17.565  0.4558  1.6537 -0.6243
 3516SOL    HW222185   3.893   2.315  17.525 -0.0477 -0.8107  0.4303
 3517SOL     OW22186   4.565   3.622   3.079 -0.1434  0.4923 -0.0264
 3517SOL    HW122187   4.485   3.634   3.028 -0.9315 -1.4960  0.7731
 3517SOL    HW222188   4.615   3.698   3.049 -0.9852  1.1809  0.3168
 3518SOL     OW22189   0.212   2.477   4.126  0.8050 -0.7154 -0.0377
 3518SOL    HW122190   0.192   2.388   4.156 -2.1033 -0.7440 -2.0753
 3518SOL    HW222191   0.180   2.534   4.196 -0.7917 -0.3013 -1.0990
 3519SOL     OW22192   2.946   4.433  16.004 -0.1143 -0.0979  0.5160
 3519SOL    HW122193   2.853   4.455  15.997  0.4567  2.1835  0.0928
 3519SOL    HW222194   2.959   4.409  15.912 -0.7150 -0.7107  0.5897
 3520SOL     OW22195   4.342   1.739   6.602 -0.0521  0.7767 -0.1505
 3520SOL    HW122196   4.358   1.682   6.527  0.6491 -0.2719  0.8014
 3520SOL    HW222197   4.255   1.770   6.576  0.2654  0.0776 -2.0175
 3521SOL     OW22198   0.751   0.491   0.287 -0.0035  0.0118  0.4436
 3521SOL    HW122199   0.821   0.439   0.247 -2.0108 -1.4828 -1.1269
 3521SOL    HW222200   0.676   0.432   0.296 -0.0016 -0.4235 -2.4594
 3522SOL     OW22201   2.973   2.184   7.197 -0.3057  0.1986  0.5811
 3522SOL    HW122202   2.999   2.095   7.221  1.0983  0.4581  0.0037
 3522SOL    HW222203   2.916   2.207   7.270  0.9292  1.0568  1.2577
 3523SOL     OW22204   3.243   1.525  14.159  0.5124 -0.3299  0.5948
 3523SOL    HW122205   3.226   1.457  14.094 -0.9485  1.4112 -0.8410
 3523SOL    HW222206   3.209   1.479  14.235  2.6209 -0.9079  1.1923
 3524SOL     OW22207   2.746   0.156   6.459  0.1803 -0.1988 -0.2072
 3524SOL    HW122208   2.793   0.120   6.384  1.0302 -0.6248  0.5305
 3524SOL    HW222209   2.765   0.092   6.527  1.4834 -0.8422 -1.1789
 3525SOL     OW22210   0.352   2.862   7.301 -0.5399  0.3175  0.9325
 3525SOL    HW122211   0.273   2.810   7.307 -0.4732 -0.1469 -1.9385
 3525SOL    HW222212   0.326   2.954   7.295 -1.0422  0.2797  2.4802
 3526SOL     OW22213   2.146   3.274  14.638 -0.0900 -0.0350  0.1965
 3526SOL    HW122214   2.222   3.256  14.693 -1.4423  0.0563  2.0806
 3526SOL    HW222215   2.182   3.254  14.551 -1.9578  0.9834 -0.8015
 3527SOL     OW22216   1.150   1.859  10.062 -0.1592  0.2491 -0.2310
 3527SOL    HW122217   1.171   1.951  10.048  1.8777  0.1425  2.0221
 3527SOL    HW222218   1.055   1.865  10.065  0.0544  2.1534  2.5768
 3528SOL     OW22219   3.165   2.063   9.664 -0.2293 -0.5352  0.4506
 3528SOL    HW122220   3.110   2.142   9.664  0.7164  0.1262 -0.1795
 3528SOL    HW222221   3.194   2.062   9.573 -0.7239 -0.5588  0.2900
 3529SOL     OW22222   0.085   3.735  12.764  0.2957 -0.1072  0.0329
 3529SOL    HW122223   0.152   3.758  12.828  0.2604  2.3301 -0.8467
 3529SOL    HW222224   0.138   3.695  12.695  0.4964 -1.6525  1.0725
 3530SOL     OW22225   2.173   2.005   6.131  0.0431  0.2141 -0.0654
 3530SOL    HW122226   2.158   2.043   6.218 -0.9518 -0.0250 -0.1341
 3530SOL    HW222227   2.264   1.975   6.133 -0.0981 -0.2446 -0.7529
 3531SOL     OW22228   0.187   1.391   6.191  0.1676 -0.6125  0.2170
 3531SOL    HW122229   0.243   1.379   6.269 -0.0976  2.2132  0.8499
 3531SOL    HW222230   0.142   1.308   6.176  0.1894 -1.0163  2.3821
 3532SOL     OW22231   0.608   0.267  13.799  0.2139  0.4130 -0.1112
 3532SOL    HW122232   0.550   0.198  13.833  1.8206 -0.2613  1.2585
 3532SOL    HW222233   0.543   0.334  13.777 -0.3625  0.1905  0.9105
 3533SOL     OW22234   2.108   1.566  12.786 -0.6343 -0.0670 -0.1754
 3533SOL    HW122235   2.080   1.495  12.843  2.0234 -0.6910  0.3789
 3533SOL    HW222236   2.032   1.624  12.788 -0.3235  0.4081 -1.6098
 3534SOL     OW22237   4.612   0.389   2.159 -0.1641 -0.0483 -0.1323
 3534SOL    HW122238   4.558   0.354   2.088 -1.1774  0.5123  0.3665
 3534SOL    HW222239   4.557   0.463   2.184  0.9483  0.2155  1.5780
 3535SOL     OW22240   1.040   1.609   7.810 -0.0776 -0.1570 -0.1381
 3535SOL    HW122241   0.983   1.611   7.733 -1.0446  1.1613  0.6082
 3535SOL    HW222242   1.127   1.627   7.775 -0.2524 -1.2665 -1.1253
 3536SOL     OW22243   1.303   1.796   3.077  0.4799 -0.2330 -0.0459
 3536SOL    HW122244   1.392   1.769   3.098  0.1182  0.0353  1.8407
 3536SOL    HW222245   1.300   1.888   3.100  0.3461 -0.7414  1.9048
 3537SOL     OW22246   1.803   3.374   7.659  0.4064 -0.3589 -0.0638
 3537SOL    HW122247   1.739   3.357   7.729 -2.0585  1.3152 -1.9267
 3537SOL    HW222248   1.819   3.285   7.630 -1.7919 -1.0402  0.8004
 3538SOL     OW22249   2.491   3.614   9.296 -0.3088 -0.2731  0.3374
 3538SOL    HW122250   2.529   3.693   9.335  0.0106  0.6590 -1.8734
 3538SOL    HW222251   2.451   3.658   9.222  0.8000  1.5456  0.8101
 3539SOL     OW22252   4.143   4.603   0.593  0.5095 -0.2303 -0.1253
 3539SOL    HW122253   4.132   4.694   0.566 -4.0143 -0.9110 -0.5267
 3539SOL    HW222254   4.052   4.584   0.618 -0.1237  0.4669 -1.9377
 3540SOL     OW22255   4.491   2.450   1.212 -0.0582  0.5464 -0.3489
 3540SOL    HW122256   4.551   2.458   1.138 -1.8033  0.4610 -1.7731
 3540SOL    HW222257   4.509   2.360   1.238 -0.3840  0.4170 -0.5732
 3541SOL     OW22258   2.329   1.738   7.484 -0.0556 -0.6681  0.0317
 3541SOL    HW122259   2.295   1.688   7.558 -0.1957  1.3880  1.3904
 3541SOL    HW222260   2.291   1.822   7.512  0.2075 -1.0118  1.4359
 3542SOL     OW22261   3.658   1.374   1.125 -0.1692 -0.0844 -0.5975
 3542SOL    HW122262   3.656   1.341   1.215 -1.2060  1.2579 -0.1301
 3542SOL    HW222263   3.713   1.452   1.131  1.0114 -1.0468  1.2850
 3543SOL     OW22264   2.546   0.197   4.279 -0.2944  0.2110 -0.0851
 3543SOL    HW122265   2.568   0.104   4.285  0.6130  0.3455 -1.3139
 3543SOL    HW222266   2.604   0.206   4.203  0.0295  0.3792  0.1788
 3544SOL     OW22267   0.715   2.470   5.512  0.2495  0.2235 -0.0137
 3544SOL    HW122268   0.809   2.462   5.497 -0.0841 -1.1407 -1.4849
 3544SOL    HW222269   0.687   2.507   5.428  3.1998 -0.7499 -1.4122
 3545SOL     OW22270   1.984   4.036   3.710  0.5835 -0.4617 -0.0040
 3545SOL    HW122271   1.983   3.951   3.666  1.0131 -1.9444  2.8931
 3545SOL    HW222272   1.989   4.013   3.802  0.3697  2.0781  0.6477
 3546SOL     OW22273   1.885   2.129  11.963 -0.1729  0.5735 -0.3364
 3546SOL    HW122274   1.897   2.130  12.058  3.2004 -1.4998 -0.7230
 3546SOL    HW222275   1.836   2.049  11.945  0.8496  0.3839 -2.4126
 3547SOL     OW22276   4.371   0.214   4.265  0.5256  0.0876  0.1430
 3547SOL    HW122277   4.371   0.128   4.307 -2.9961  0.1468  0.2363
 3547SOL    HW222278   4.398   0.275   4.335 -2.1157  2.0290 -0.5228
 3548SOL     OW22279   4.351   1.275  15.835  0.1647 -0.7023  0.3515
 3548SOL    HW122280   4.318   1.269  15.745  1.6262 -0.1425 -0.2161
 3548SOL    HW222281   4.399   1.357  15.843  0.2982 -0.4454 -3.1299
 3549SOL     OW22282   1.473   3.542   6.520  0.2560  0.4664 -0.4383
 3549SOL    HW122283   1.504   3.632   6.517 -0.4691  0.7309  0.1824
 3549SOL    HW222284   1.382   3.548   6.550  0.5737 -1.6654  0.9393
 3550SOL     OW22285   0.777   1.194   8.511 -0.0138  0.1085 -0.1271
 3550SOL    HW122286   0.709   1.192   8.578  0.4926 -1.0996  0.3573
 3550SOL    HW222287   0.728   1.172   8.432  1.3361  2.4472 -1.6129
 3551SOL     OW22288   3.498   4.553   5.893  0.3019  0.1007 -0.1999
 3551SOL    HW122289   3.542   4.615   5.952 -1.8954  0.1393  1.3724
 3551SOL    HW222290   3.492   4.604   5.812 -1.6128 -0.6495 -0.5213
 3552SOL     OW22291   4.391   2.456   7.637  0.2546 -0.5338 -0.5757
 3552SOL    HW122292   4.440   2.458   7.719 -0.2450  2.0147 -0.3188
 3552SOL    HW222293   4.303   2.432   7.665  0.4646  0.0433  0.5958
 3553SOL     OW22294   2.593   0.148   8.608  0.1572  0.0150 -0.4644
 3553SOL    HW122295   2.540   0.226   8.624 -2.0695 -1.5414 -0.1783
 3553SOL    HW222296   2.590   0.144   8.512  1.2986 -0.0838 -0.4967
 3554SOL     OW22297   2.827   2.618  13.623 -0.3997  0.4711 -0.2111
 3554SOL    HW122298   2.843   2.691  13.682  0.5803 -0.2274  0.3998
 3554SOL    HW222299   2.792   2.657  13.544 -0.5992 -1.9637 -1.3187
 3555SOL     OW22300   1.983   0.871  16.583 -0.0499  0.7827 -0.1418
 3555SOL    HW122301   1.923   0.892  16.511 -1.0549  1.5663  0.9311
 3555SOL    HW222302   1.956   0.779  16.587  0.5531  0.5701 -1.0863
 3556SOL     OW22303   3.583   1.485   6.275 -0.0514  0.3438  0.3155
 3556SOL    HW122304   3.645   1.453   6.340 -0.8519 -1.6443  0.0880
 3556SOL    HW222305   3.594   1.410   6.216  2.0365  1.4190 -0.6794
 3557SOL     OW22306   3.395   2.017   6.107  0.6042 -0.7840  0.1763
 3557SOL    HW122307   3.371   2.109   6.109  1.2880 -0.6290  1.0575
 3557SOL    HW222308   3.393   1.999   6.013 -0.6902  0.3734 -0.0126
 3558SOL     OW22309   2.281   0.238   9.183  0.3213  0.4320 -0.2139
 3558SOL    HW122310   2.264   0.210   9.093  1.1069 -0.0940 -0.2016
 3558SOL    HW222311   2.377   0.248   9.182  0.1334  2.2455 -0.3922
 3559SOL     OW22312   1.399   1.509  11.753 -0.0512 -0.0396 -0.4122
 3559SOL    HW122313   1.480   1.557  11.734  0.3325 -0.2735  0.6166
 3559SOL    HW222314   1.406   1.442  11.686  1.4404  0.2165 -0.5081
 3560SOL     OW22315   1.885   0.838   3.446 -0.2696 -0.1313  0.0758
 3560SOL    HW122316   1.933   0.873   3.371 -1.4365 -4.0133 -2.4759
 3560SOL    HW222317   1.806   0.797   3.412 -0.4628 -0.7411  1.2777
 3561SOL     OW22318   1.789   3.199   3.039  0.1523  0.4632 -0.0278
 3561SOL    HW122319   1.720   3.134   3.025 -0.3672  0.6490  1.6712
 3561SOL    HW222320   1.816   3.176   3.128  0.9044 -0.9650 -0.6194
 3562SOL     OW22321   1.036   1.466   3.837  0.0387  0.0902  0.2098
 3562SOL    HW122322   1.015   1.474   3.744 -2.9790  1.0587  0.9923
 3562SOL    HW222323   1.089   1.546   3.837 -0.4130  0.3899  0.7586
 3563SOL     OW22324   4.133   2.795   7.776  0.0574 -0.8841 -0.4100
 3563SOL    HW122325   4.070   2.866   7.765  1.5069  0.4202 -0.2701
 3563SOL    HW222326   4.194   2.829   7.710  0.5061 -1.3347 -0.2344
 3564SOL     OW22327   0.572   2.851  13.316  0.1874 -0.4235 -0.0348
 3564SOL    HW122328   0.619   2.864  13.398  1.1314  0.6231 -0.7587
 3564SOL    HW222329   0.601   2.921  13.258 -1.2204  0.0241 -0.1946
 3565SOL     OW22330   2.212   3.225   5.513  0.7348  0.1185 -0.0439
 3565SOL    HW122331   2.195   3.312   5.550  0.5343  0.5914 -1.2357
 3565SOL    HW222332   2.133   3.177   5.538  1.4322 -0.8628  0.2305
 3566SOL     OW22333   3.109   1.876   7.915 -0.0280 -0.1713  0.1258
 3566SOL    HW122334   3.100   1.967   7.887  0.0860  0.7547  3.0392
 3566SOL    HW222335   3.166   1.889   7.991 -0.0525  2.5509 -0.3528
 3567SOL     OW22336   0.097   4.646   8.147 -0.0320 -0.5069 -0.6645
 3567SOL    HW122337   0.017   4.663   8.096 -0.9792  1.1684  1.3927
 3567SOL    HW222338   0.085   4.553   8.168  0.3051 -0.5259 -0.5589
 3568SOL     OW22339   4.688   3.044  17.171  0.3474  0.2651 -0.1434
 3568SOL    HW122340   4.620   2.980  17.150 -1.8416  2.6937 -0.4184
 3568SOL    HW222341   4.655   3.120  17.124  0.6291 -0.6317 -1.7977
 3569SOL     OW22342   4.193   2.799  13.771  0.1813 -0.6054 -0.4393
 3569SOL    HW122343   4.204   2.755  13.687 -2.3152 -0.2579 -0.9723
 3569SOL    HW222344   4.256   2.758  13.830 -0.3786  1.6956  1.7727
 3570SOL     OW22345   4.420   4.542   8.003 -0.1149 -0.7471  0.2972
 3570SOL    HW122346   4.490   4.479   7.988 -0.9332 -2.1876  2.4460
 3570SOL    HW222347   4.464   4.608   8.056  1.6052 -0.5511 -1.3741
 3571SOL     OW22348   3.079   1.879   7.056  0.7509  0.1776 -0.3693
 3571SOL    HW122349   3.059   1.831   6.975  2.5573 -1.9356  0.4476
 3571SOL    HW222350   3.171   1.854   7.050  0.1469 -1.9760 -0.8245
 3572SOL     OW22351   2.058   1.164   6.830 -0.2370  0.0494 -0.3651
 3572SOL    HW122352   2.118   1.188   6.759  0.3156  0.4099  0.2270
 3572SOL    HW222353   1.975   1.196   6.794  1.0264  4.0605  0.2360
 3573SOL     OW22354   3.891   0.550   5.028 -0.5261 -0.1960  0.2763
 3573SOL    HW122355   3.804   0.583   5.007 -1.2013 -2.4996 -0.4959
 3573SOL    HW222356   3.867   0.486   5.094  2.0990 -0.5327  0.9232
 3574SOL     OW22357   4.294   3.207   0.576 -0.0070  0.2364 -0.4667
 3574SOL    HW122358   4.330   3.264   0.644 -1.7375  0.3539  0.3642
 3574SOL    HW222359   4.256   3.272   0.517  1.0193 -0.0161 -1.3860
 3575SOL     OW22360   2.047   4.677   8.852 -0.1876  0.0764  0.0592
 3575SOL    HW122361   1.985   4.668   8.779 -0.7542  1.5948  0.3673
 3575SOL    HW222362   2.033   4.594   8.897 -0.7186  0.5524  0.7633
 3576SOL     OW22363   0.794   1.798   5.865  0.0645  0.3719 -0.0608
 3576SOL    HW122364   0.800   1.860   5.792  0.9788 -0.7339 -0.9332
 3576SOL    HW222365   0.745   1.853   5.927 -2.0913 -0.2602 -1.1915
 3577SOL     OW22366   4.610   3.628   1.643 -0.1763 -0.1028  0.5186
 3577SOL    HW122367   4.551   3.704   1.641 -0.2182 -0.1876 -2.0675
 3577SOL    HW222368   4.588   3.589   1.727 -0.0710  0.6030  0.8742
 3578SOL     OW22369   1.610   1.767   7.566 -0.8844 -0.6995  0.0310
 3578SOL    HW122370   1.618   1.775   7.661  0.4598 -0.4276 -0.1001
 3578SOL    HW222371   1.694   1.807   7.540 -1.4910  0.1432 -0.6239
 3579SOL     OW22372   1.372   2.634  14.061  0.3090 -0.1469  0.1741
 3579SOL    HW122373   1.296   2.688  14.082 -0.5631 -1.1096 -0.5292
 3579SOL    HW222374   1.395   2.653  13.970 -1.5476 -2.1872 -0.7349
 3580SOL     OW22375   4.108   3.415   5.433 -0.1409  0.6079 -0.1433
 3580SOL    HW122376   4.047   3.485   5.455  0.0747  0.9487 -0.6230
 3580SOL    HW222377   4.081   3.348   5.495  0.9588 -0.1801 -0.4938
 3581SOL     OW22378   1.351   4.414   6.597  0.5472  0.2570  0.2370
 3581SOL    HW122379   1.390   4.497   6.573 -1.2436  1.4115  1.3455
 3581SOL    HW222380   1.258   4.438   6.593  0.3981 -0.4472 -0.5617
 3582SOL     OW22381   1.077   3.771   4.154  0.0913  0.6940 -0.2267
 3582SOL    HW122382   0.991   3.792   4.118 -0.2248 -1.8611 -0.9169
 3582SOL    HW222383   1.139   3.808   4.090  0.3276 -0.7872 -0.8520
 3583SOL     OW22384   3.705   4.178   2.978 -0.4067  0.2731 -0.0906
 3583SOL    HW122385   3.739   4.182   2.888  2.0499  1.3120  0.8873
 3583SOL    HW222386   3.651   4.255   2.986  1.1013  1.2106  0.9992
 3584SOL     OW22387   3.453   2.450   9.025 -0.8792 -0.2161 -0.0702
 3584SOL    HW122388   3.363   2.422   9.041 -0.3906 -1.1398  1.0418
 3584SOL    HW222389   3.458   2.545   9.042  2.5273 -0.1435 -1.3317
 3585SOL     OW22390   0.385   1.981   2.240 -0.0832  0.0320  0.2343
 3585SOL    HW122391   0.356   1.942   2.323  2.1552  0.0962  1.0463
 3585SOL    HW222392   0.471   1.940   2.250  0.5095  1.5028  1.1965
 3586SOL     OW22393   4.184   0.911   2.292 -0.2229  0.2126  0.5846
 3586SOL    HW122394   4.113   0.958   2.249  1.0069  0.9568 -0.6266
 3586SOL    HW222395   4.170   0.816   2.292  1.7382 -0.0424 -1.8174
 3587SOL     OW22396   1.701   3.865   2.818  0.7318 -0.5360  0.0256
 3587SOL    HW122397   1.679   3.955   2.841 -0.7450 -0.9608  0.2379
 3587SOL    HW222398   1.621   3.833   2.776  2.2041 -0.5416 -2.7772
 3588SOL     OW22399   2.001   3.316   8.909  0.1245  0.2096 -0.1968
 3588SOL    HW122400   1.975   3.227   8.887 -2.2844 -0.1668  4.0990
 3588SOL    HW222401   2.078   3.295   8.962  0.3540 -1.7357 -1.3099
 3589SOL     OW22402   4.209   1.415   9.139 -0.0333 -0.8261 -0.2556
 3589SOL    HW122403   4.166   1.441   9.221  0.2453 -0.1575 -0.3214
 3589SOL    HW222404   4.231   1.323   9.156  1.4278 -0.3584  0.3470
 3590SOL     OW22405   1.774   3.018   5.484 -0.3815 -0.0892 -0.4829
 3590SOL    HW122406   1.693   3.032   5.533  0.4421 -0.2565  0.9310
 3590SOL    HW222407   1.770   3.101   5.437  2.6679  0.4650  0.1894
 3591SOL     OW22408   0.383   4.713   9.686  0.0566  0.1891 -0.0601
 3591SOL    HW122409   0.308   0.015   9.646  0.0976  1.0169  0.7657
 3591SOL    HW222410   0.455   0.002   9.630  0.3294 -0.7669 -0.2333
 3592SOL     OW22411   1.554   2.194   1.345  0.5002  0.1867 -0.4118
 3592SOL    HW122412   1.533   2.223   1.256  0.1011  1.3326  0.0559
 3592SOL    HW222413   1.631   2.138   1.333 -1.3093 -2.5620  0.9512
 3593SOL     OW22414   3.835   1.857   4.491 -0.2917 -0.6003  0.6834
 3593SOL    HW122415   3.924   1.839   4.521  0.1579  0.0750 -0.2073
 3593SOL    HW222416   3.838   1.865   4.396  0.3686 -0.8520  0.6859
 3594SOL     OW22417   1.812   2.434   4.115  0.3521  0.2274  0.4393
 3594SOL    HW122418   1.896   2.392   4.133 -0.0500  0.6462  3.2060
 3594SOL    HW222419   1.823   2.456   4.022 -0.4960 -0.2599  0.2261
 3595SOL     OW22420   4.668   3.068   9.426  0.0479  0.0041  0.2598
 3595SOL    HW122421   4.580   3.030   9.419  0.0316 -0.2915  2.0946
 3595SOL    HW222422   4.660   3.114   9.510 -0.5905  1.5117 -0.6355
 3596SOL     OW22423   1.403   4.202   5.318  0.1394  0.4178 -0.0463
 3596SOL    HW122424   1.347   4.162   5.383 -0.9321  1.8143 -0.1105
 3596SOL    HW222425   1.413   4.292   5.350  0.1707  0.1588  0.6535
 3597SOL     OW22426   1.894   0.533   4.886  0.5587 -0.4701  0.3840
 3597SOL    HW122427   1.911   0.563   4.976  0.2847 -0.0587  0.2984
 3597SOL    HW222428   1.973   0.560   4.841 -2.2334  2.9089 -2.4690
 3598SOL     OW22429   3.909   3.686   9.553  0.3660  0.1960  0.5461
 3598SOL    HW122430   3.853   3.635   9.612  0.8036  0.8360  1.5214
 3598SOL    HW222431   3.970   3.736   9.607 -1.4897  0.6027  2.2650
 3599SOL     OW22432   0.648   1.952   2.884 -0.3949 -0.2483 -0.4718
 3599SOL    HW122433   0.742   1.969   2.880 -0.3131 -0.6101 -0.1075
 3599SOL    HW222434   0.616   2.014   2.949 -2.0178 -2.4496  0.8537
 3600SOL     OW22435   3.433   3.819  16.138  0.4904  0.9522  0.2513
 3600SOL    HW122436   3.400   3.730  16.146  1.2045  0.3549 -3.1268
 3600SOL    HW222437   3.365   3.867  16.185 -1.2648  1.2532 -2.5750
 3601SOL     OW22438   0.909   3.290  16.972 -1.0859  0.3210  0.5900
 3601SOL    HW122439   1.003   3.306  16.967 -1.0763 -0.5278 -1.9885
 3601SOL    HW222440   0.890   3.308  17.064 -1.2405  0.6753  0.4898
 3602SOL     OW22441   4.058   1.680   3.637  0.0813  0.1244  0.4565
 3602SOL    HW122442   3.974   1.644   3.665 -0.0489 -1.3690 -1.7928
 3602SOL    HW222443   4.107   1.599   3.617 -0.0333  0.0627  0.4267
 3603SOL     OW22444   1.171   4.674   6.758  0.2322 -1.1760  0.0003
 3603SOL    HW122445   1.154   4.650   6.667  0.4544 -1.2008 -0.0360
 3603SOL    HW222446   1.102   4.739   6.772  0.4242 -0.8189 -0.6755
 3604SOL     OW22447   2.758   2.920   7.484  0.4131 -0.1273  0.3209
 3604SOL    HW122448   2.847   2.905   7.452  1.1975  3.2213  0.9634
 3604SOL    HW222449   2.733   2.999   7.436  0.2001  0.2403  1.0426
 3605SOL     OW22450   2.507   3.477   9.526  0.1294  0.0861  0.6434
 3605SOL    HW122451   2.461   3.541   9.579  0.2392 -0.6273  1.5976
 3605SOL    HW222452   2.502   3.511   9.437 -0.1099 -3.4539 -0.7039
 3606SOL     OW22453   4.197   3.252  10.555  0.4405 -0.1645 -0.2392
 3606SOL    HW122454   4.183   3.346  10.569  1.5849 -0.2521  1.5790
 3606SOL    HW222455   4.114   3.216  10.524 -0.7632  3.0704 -0.7874
 3607SOL     OW22456   0.941   1.416  15.591 -0.1064  0.6522  0.0303
 3607SOL    HW122457   0.985   1.462  15.662  0.8661  0.5671 -0.5223
 3607SOL    HW222458   0.875   1.478  15.559 -2.3211 -1.5053  0.4216
 3608SOL     OW22459   4.106   1.403  10.388  0.4073  0.7385  0.4361
 3608SOL    HW122460   4.125   1.333  10.450  0.6672  0.5584  0.1451
 3608SOL    HW222461   4.047   1.361  10.325 -0.6717  2.4753  0.2871
 3609SOL     OW22462   3.741   0.228   6.308 -0.1327  0.2613 -0.3837
 3609SOL    HW122463   3.653   0.242   6.344  1.0477 -0.1650  2.6134
 3609SOL    HW222464   3.799   0.276   6.367 -0.7271  1.2621 -0.6150
 3610SOL     OW22465   2.168   1.756   8.338 -0.4061  0.0659  0.5006
 3610SOL    HW122466   2.175   1.852   8.344  2.1794 -0.4530  6.1153
 3610SOL    HW222467   2.247   1.716   8.375 -0.1857 -0.0822 -0.1385
 3611SOL     OW22468   3.382   3.079   1.705  0.4543 -0.3732 -0.1796
 3611SOL    HW122469   3.407   3.107   1.617 -0.8666 -1.5398 -0.9178
 3611SOL    HW222470   3.318   3.012   1.681 -0.2526  0.7780 -1.5314
 3612SOL     OW22471   1.149   2.924  13.918 -0.1090 -0.0161  0.5777
 3612SOL    HW122472   1.136   2.830  13.931  0.2292 -0.1460  0.0002
 3612SOL    HW222473   1.127   2.959  14.004 -1.2861 -1.2587  0.7744
 3613SOL     OW22474   3.956   3.095   8.159  0.1755 -0.2013 -0.1500
 3613SOL    HW122475   3.923   3.081   8.247 -0.0154  1.5492  0.0528
 3613SOL    HW222476   4.051   3.086   8.162  0.2072  0.0298 -0.4075
 3614SOL     OW22477   0.269   1.179   5.884  0.4987  0.0597  0.1925
 3614SOL    HW122478   0.271   1.085   5.899 -0.1841 -0.2928 -1.8526
 3614SOL    HW222479   0.332   1.209   5.950  0.3218 -0.6496  0.6785
 3615SOL     OW22480   0.743   3.602   8.152 -0.3873  0.4675  0.0699
 3615SOL    HW122481   0.678   3.632   8.089  1.0702 -1.7774 -2.5361
 3615SOL    HW222482   0.721   3.648   8.233  1.4582 -0.2978  1.0176
 3616SOL     OW22483   1.896   0.786   5.779  0.3890 -0.8322 -0.3117
 3616SOL    HW122484   1.991   0.785   5.776  0.4363  0.8625  0.7185
 3616SOL    HW222485   1.883   0.843   5.855  0.4124 -1.4971  0.1893
 3617SOL     OW22486   3.561   4.190   3.670  0.5147  0.6419 -0.1020
 3617SOL    HW122487   3.482   4.156   3.628  0.7973  0.4481 -0.4857
 3617SOL    HW222488   3.625   4.155   3.608  0.3057 -0.9652  0.5812
 3618SOL     OW22489   1.581   1.958   2.109 -0.5695  0.0801 -0.0062
 3618SOL    HW122490   1.532   2.040   2.108  0.8952  0.9414 -1.0587
 3618SOL    HW222491   1.532   1.903   2.048 -0.2551  0.4755 -0.6020
 3619SOL     OW22492   4.494   1.500   0.274 -0.5317  0.3126  0.1585
 3619SOL    HW122493   4.491   1.484   0.180 -1.4983  0.8947  0.0812
 3619SOL    HW222494   4.585   1.513   0.300 -0.7876 -0.4879  1.4195
 3620SOL     OW22495   4.665   1.568   2.350  0.5184  0.6297  0.1179
 3620SOL    HW122496   4.705   1.585   2.435 -0.5134  1.5862  0.4056
 3620SOL    HW222497   4.593   1.627   2.368 -0.1140 -0.2523  0.4922
 3621SOL     OW22498   4.260   3.102  12.704  0.0917 -0.2554 -0.1415
 3621SOL    HW122499   4.253   3.013  12.737  2.7064  0.2867  1.8873
 3621SOL    HW222500   4.231   3.151  12.782 -1.8749  1.6899 -2.0689
 3622SOL     OW22501   0.130   0.655  12.984  0.2614  0.3625  0.1642
 3622SOL    HW122502   0.069   0.603  13.036  1.8124 -0.7880  0.8493
 3622SOL    HW222503   0.076   0.694  12.916 -1.3996 -0.5531  0.9790
 3623SOL     OW22504   3.610   2.350  15.602 -0.4580 -0.3627  0.0639
 3623SOL    HW122505   3.670   2.398  15.659  1.0423 -1.7901 -0.3373
 3623SOL    HW222506   3.541   2.333  15.666  1.1538  2.2734  2.4753
 3624SOL     OW22507   4.453   0.221   2.006  0.1528  0.5699 -0.5817
 3624SOL    HW122508   4.383   0.223   2.071  0.5027  0.0150 -0.1915
 3624SOL    HW222509   4.425   0.142   1.961  1.0614  1.2543 -2.3770
 3625SOL     OW22510   0.698   2.486   5.897  0.1436 -0.1438 -0.2592
 3625SOL    HW122511   0.661   2.403   5.929 -0.3167 -0.3745 -1.4035
 3625SOL    HW222512   0.723   2.529   5.979 -0.3736 -0.9663  0.3286
 3626SOL     OW22513   2.934   1.564   2.557  0.2731  0.4636  0.0491
 3626SOL    HW122514   2.902   1.590   2.471  1.2472  2.3859  0.2700
 3626SOL    HW222515   2.929   1.652   2.594  0.4799  0.4636  0.0763
 3627SOL     OW22516   3.729   1.736   5.595  0.0470  0.2088 -0.3240
 3627SOL    HW122517   3.664   1.704   5.658  0.1357 -1.2639 -0.9800
 3627SOL    HW222518   3.813   1.738   5.641 -1.1019 -1.1460  1.8421
 3628SOL     OW22519   1.304   2.871  16.686 -0.0672  0.0077  0.4967
 3628SOL    HW122520   1.362   2.938  16.722  1.3492 -0.0023 -1.7456
 3628SOL    HW222521   1.354   2.837  16.612 -1.9048  1.1673 -1.2655
 3629SOL     OW22522   4.070   0.121   5.639 -0.0371 -0.2806  0.4506
 3629SOL    HW122523   4.090   0.132   5.546  0.1914 -0.2288  0.5068
 3629SOL    HW222524   4.133   0.165   5.695 -0.8794 -2.2683  2.9713
 3630SOL     OW22525   1.940   0.208   6.049  0.4896 -0.3103 -0.4316
 3630SOL    HW122526   1.924   0.278   5.985 -0.3620  1.3306  1.5520
 3630SOL    HW222527   1.944   0.252   6.134 -0.1427 -2.8586  0.9271
 3631SOL     OW22528   1.811   0.167   3.629 -0.6349 -0.1719 -0.0236
 3631SOL    HW122529   1.778   0.110   3.699  0.9795 -1.9296 -0.7014
 3631SOL    HW222530   1.800   0.257   3.661  0.7282  0.3232 -0.9585
 3632SOL     OW22531   1.638   0.432   5.588 -0.1564 -0.8730 -0.1292
 3632SOL    HW122532   1.640   0.414   5.682  1.3423  2.5357  0.4953
 3632SOL    HW222533   1.709   0.383   5.547  0.4549 -0.8227  0.8887
 3633SOL     OW22534   1.637   0.385   6.580  0.6772  0.7503  0.1138
 3633SOL    HW122535   1.594   0.429   6.507  2.3002 -1.3098 -2.0749
 3633SOL    HW222536   1.612   0.294   6.561  1.1692  0.3878  1.2118
 3634SOL     OW22537   4.274   1.416   1.105 -0.1587  0.3682 -0.4754
 3634SOL    HW122538   4.225   1.349   1.057  0.7496 -1.3429  0.9821
 3634SOL    HW222539   4.245   1.404   1.195 -0.1019  1.9685 -0.2383
 3635SOL     OW22540   3.991   0.352   7.948 -0.0556 -0.4230 -0.0944
 3635SOL    HW122541   3.960   0.323   8.034 -0.8406 -2.5075 -1.0895
 3635SOL    HW222542   3.940   0.297   7.889  1.0385 -3.4639  1.8117
 3636SOL     OW22543   0.876   2.257   8.793  0.3523 -0.0812 -0.5056
 3636SOL    HW122544   0.910   2.183   8.844 -0.1680 -0.1389 -0.2376
 3636SOL    HW222545   0.834   2.211   8.720  1.0217 -0.6791 -0.5194
 3637SOL     OW22546   2.458   2.953   3.588  0.0191 -0.0836  0.3613
 3637SOL    HW122547   2.523   2.972   3.521 -0.0989 -1.4115 -0.1421
 3637SOL    HW222548   2.493   2.996   3.666 -2.3849  2.1866  0.1672
 3638SOL     OW22549   4.111   4.614  13.721  0.2965 -0.0922 -0.4164
 3638SOL    HW122550   4.145   4.702  13.732  1.1295 -0.6354  1.3349
 3638SOL    HW222551   4.177   4.566  13.671 -0.5622  0.4012 -2.0211
 3639SOL     OW22552   0.765   1.822   3.698  0.2786  0.2620  0.6449
 3639SOL    HW122553   0.685   1.804   3.649  1.0140  1.0674 -0.8553
 3639SOL    HW222554   0.836   1.801   3.637 -0.7692  1.9907 -1.1733
 3640SOL     OW22555   3.584   3.921   7.605  0.2140 -0.0698  0.0375
 3640SOL    HW122556   3.645   3.862   7.651 -0.2134  1.5945  2.7445
 3640SOL    HW222557   3.505   3.883   7.644  0.3962 -0.7864 -0.2806
 3641SOL     OW22558   3.558   2.084   4.960  0.3771 -0.4207  0.1436
 3641SOL    HW122559   3.610   2.010   4.929  0.3963 -0.1941 -0.3579
 3641SOL    HW222560   3.625   2.152   4.951 -0.9579  0.9024  0.1509
 3642SOL     OW22561   2.456   4.286  16.121  0.2410 -0.0756 -0.1744
 3642SOL    HW122562   2.377   4.339  16.110  1.3000  1.1728 -1.7447
 3642SOL    HW222563   2.428   4.194  16.131  0.9309  0.0783  3.1653
 3643SOL     OW22564   4.207   1.427   1.402 -0.2622 -0.2842  0.4532
 3643SOL    HW122565   4.301   1.443   1.404  0.1197 -2.5922  0.7266
 3643SOL    HW222566   4.177   1.509   1.440  1.5478 -1.2968  4.0330
 3644SOL     OW22567   4.052   4.449   2.640 -0.5237  0.3785 -0.3911
 3644SOL    HW122568   3.991   4.464   2.567 -0.8411 -0.4975 -0.3026
 3644SOL    HW222569   4.047   4.532   2.687  1.5120  0.2466  0.0623
 3645SOL     OW22570   2.148   2.150   4.604 -0.1583 -0.0874 -0.3476
 3645SOL    HW122571   2.054   2.136   4.598 -0.2109  0.6500 -1.1567
 3645SOL    HW222572   2.155   2.238   4.568 -0.5051 -0.4659 -1.3376
 3646SOL     OW22573   4.461   3.832  16.379  0.3075  0.0688  0.3472
 3646SOL    HW122574   4.495   3.773  16.446  1.8104  0.1127 -0.3873
 3646SOL    HW222575   4.525   3.819  16.309 -0.4871 -0.8486 -0.2064
 3647SOL     OW22576   4.429   3.714   6.814  0.6318 -0.2365  0.1846
 3647SOL    HW122577   4.513   3.668   6.806 -0.0703 -1.6657  0.9612
 3647SOL    HW222578   4.382   3.646   6.862 -1.6404  0.1512 -1.5147
 3648SOL     OW22579   3.370   0.598   4.856  0.9012  0.5630  0.2056
 3648SOL    HW122580   3.364   0.588   4.761 -0.8385  1.0716  0.2527
 3648SOL    HW222581   3.455   0.567   4.887  0.3814 -3.0905 -2.0650
 3649SOL     OW22582   0.872   2.969   1.509  0.2969 -0.2775  0.0410
 3649SOL    HW122583   0.892   3.043   1.451 -2.2618  2.0253  2.1232
 3649SOL    HW222584   0.958   2.947   1.544  1.4624 -0.5375 -2.9284
 3650SOL     OW22585   1.503   3.783  14.102 -0.3143 -0.3522 -0.3284
 3650SOL    HW122586   1.527   3.870  14.134 -0.2320 -0.2622 -0.6355
 3650SOL    HW222587   1.562   3.777  14.027 -1.9005  0.0531 -1.6071
 3651SOL     OW22588   3.224   1.150   6.126  0.1870  0.5694  0.5385
 3651SOL    HW122589   3.189   1.197   6.050 -0.4106 -2.2121 -0.9185
 3651SOL    HW222590   3.172   1.184   6.198 -0.0172  1.0568  0.1618
 3652SOL     OW22591   4.535   3.438  14.004 -0.0771  0.1041 -0.0719
 3652SOL    HW122592   4.500   3.493  14.074 -2.1166 -0.6849 -0.4704
 3652SOL    HW222593   4.514   3.495  13.929  1.9153 -1.5345 -1.8708
 3653SOL     OW22594   1.567   1.243   4.504  0.7380 -0.5594 -0.6457
 3653SOL    HW122595   1.607   1.318   4.458 -1.4001  1.2837  0.4800
 3653SOL    HW222596   1.591   1.260   4.595 -1.1456 -2.1996  0.1609
 3654SOL     OW22597   3.491   2.329   6.540  0.5481  0.3215 -0.0131
 3654SOL    HW122598   3.548   2.364   6.471  0.7268 -0.6054 -0.3364
 3654SOL    HW222599   3.420   2.393   6.527 -0.9482 -2.0589 -3.6603
 3655SOL     OW22600   3.320   2.814   2.855 -0.1430 -0.4056  0.1268
 3655SOL    HW122601   3.301   2.741   2.795  0.2339 -1.5605  1.4127
 3655SOL    HW222602   3.239   2.825   2.904 -0.0089  0.3095  0.1941
 3656SOL     OW22603   1.450   3.742  11.842 -0.1336  0.6195 -0.0524
 3656SOL    HW122604   1.391   3.704  11.906  0.2638  1.0324  0.5625
 3656SOL    HW222605   1.413   3.724  11.755  1.0857  1.9002 -0.8431
 3657SOL     OW22606   2.425   3.731   7.094  0.1579  0.5363 -0.4269
 3657SOL    HW122607   2.388   3.768   7.174  0.0187  0.7392 -0.5860
 3657SOL    HW222608   2.407   3.639   7.115 -0.4926  1.2474  2.0676
 3658SOL     OW22609   2.287   3.844  15.894 -0.0565 -0.0208 -0.0159
 3658SOL    HW122610   2.257   3.912  15.835  3.6958 -2.3482 -4.5741
 3658SOL    HW222611   2.336   3.790  15.832 -2.2930  0.8691 -2.5078
 3659SOL     OW22612   1.821   0.872   7.537 -0.2047 -0.2299 -0.7584
 3659SOL    HW122613   1.782   0.937   7.480 -0.1006  2.9762  2.7907
 3659SOL    HW222614   1.899   0.841   7.490  0.4095  1.0030 -0.5583
 3660SOL     OW22615   2.423   1.196   4.371 -0.0571 -0.1416 -0.1754
 3660SOL    HW122616   2.402   1.289   4.368 -1.3622 -0.4354 -0.4912
 3660SOL    HW222617   2.461   1.193   4.458  0.5408  3.6646 -0.3301
 3661SOL     OW22618   1.507   0.979   2.880  0.3793  0.2431 -0.1797
 3661SOL    HW122619   1.496   1.008   2.790 -0.0852  2.5154  0.6223
 3661SOL    HW222620   1.481   1.053   2.934  0.0488  0.1313 -0.1892
 3662SOL     OW22621   0.380   3.727   3.530 -0.1704  0.1608  0.1501
 3662SOL    HW122622   0.286   3.740   3.541  0.3292  2.1736  2.0037
 3662SOL    HW222623   0.373   3.651   3.472 -0.1022 -0.2654  0.7016
 3663SOL     OW22624   4.599   0.101   7.434 -0.4106 -0.3501  0.4954
 3663SOL    HW122625   4.598   0.095   7.530 -0.8932  3.4015  0.7254
 3663SOL    HW222626   4.574   0.015   7.400  1.6301 -0.2845 -1.2191
 3664SOL     OW22627   4.342   1.825   7.788 -0.0101 -0.1855 -0.3613
 3664SOL    HW122628   4.418   1.868   7.826  0.1677  0.0593 -0.9902
 3664SOL    HW222629   4.305   1.901   7.743 -2.0968 -1.1885 -0.3189
 3665SOL     OW22630   4.387   1.040   4.722 -0.3210 -0.3516 -0.2360
 3665SOL    HW122631   4.428   1.070   4.803 -0.5296  2.1660 -1.0681
 3665SOL    HW222632   4.339   1.113   4.682 -0.9398 -0.3713  0.4597
 3666SOL     OW22633   3.531   1.167   2.910 -0.1642  0.0616 -0.4718
 3666SOL    HW122634   3.459   1.158   2.847  2.2853 -0.9324 -3.1399
 3666SOL    HW222635   3.535   1.263   2.910 -1.1012  0.0856  1.4912
 3667SOL     OW22636   3.232   0.445   1.400  0.5105 -0.7421  0.2090
 3667SOL    HW122637   3.164   0.402   1.348 -0.5612  2.9063 -1.3802
 3667SOL    HW222638   3.218   0.393   1.479  0.1355  0.0866  0.6868
 3668SOL     OW22639   2.891   4.402   3.878 -0.1139  0.2570  0.7014
 3668SOL    HW122640   2.869   4.465   3.810  0.4372 -0.7481 -0.4282
 3668SOL    HW222641   2.832   4.332   3.850  0.6424 -0.1470  0.1107
 3669SOL     OW22642   3.679   1.207   4.397 -0.3063  0.7122  0.0346
 3669SOL    HW122643   3.752   1.145   4.404  0.7898  2.1869  1.7932
 3669SOL    HW222644   3.666   1.231   4.489 -3.4732 -2.2430  0.3669
 3670SOL     OW22645   2.178   3.341   3.914 -0.2857 -0.3785 -0.2557
 3670SOL    HW122646   2.205   3.283   3.842  0.1133  0.8254 -1.0791
 3670SOL    HW222647   2.204   3.288   3.990 -0.0535 -2.2296 -1.6342
 3671SOL     OW22648   0.718   0.941   9.214  0.0879  0.2257 -0.0091
 3671SOL    HW122649   0.732   1.004   9.143  0.4942  0.6812  0.4815
 3671SOL    HW222650   0.632   0.971   9.243  0.7850  0.8777  1.3765
 3672SOL     OW22651   2.256   2.872   2.613  0.0937  0.1341 -0.4283
 3672SOL    HW122652   2.273   2.950   2.665 -1.3352 -0.6609  1.2591
 3672SOL    HW222653   2.162   2.879   2.598  0.3020  1.7387 -0.9578
 3673SOL     OW22654   3.234   3.416   7.671 -0.0620  0.0883  0.3155
 3673SOL    HW122655   3.298   3.457   7.613  0.7819 -3.9689 -1.6749
 3673SOL    HW222656   3.189   3.491   7.708  0.6640  0.2612  0.8537
 3674SOL     OW22657   0.584   3.786   6.873  0.2023 -0.2416  0.2702
 3674SOL    HW122658   0.668   3.832   6.869  0.3300 -0.7081 -2.3416
 3674SOL    HW222659   0.570   3.779   6.779 -0.0126 -0.9768  0.3612
 3675SOL     OW22660   4.613   0.001   5.008 -0.2780  0.0589  0.3864
 3675SOL    HW122661   4.519   4.726   5.013 -0.4514  0.2719 -2.3115
 3675SOL    HW222662   4.656   4.658   5.009  2.1661  1.2618 -0.9477
 3676SOL     OW22663   0.228   3.373   4.624 -0.0161  0.1933  0.2057
 3676SOL    HW122664   0.301   3.435   4.624 -1.3866  1.7769  0.8285
 3676SOL    HW222665   0.212   3.351   4.532 -2.4584 -2.4430  1.2595
 3677SOL     OW22666   4.540   2.195   4.897 -0.0134  0.5286 -0.0671
 3677SOL    HW122667   4.458   2.217   4.941 -1.4927  1.6445 -3.4138
 3677SOL    HW222668   4.504   2.170   4.812 -2.7784  1.7230  0.7312
 3678SOL     OW22669   3.651   2.516  11.419  0.2864  0.1752 -0.0818
 3678SOL    HW122670   3.741   2.546  11.426 -0.4987  2.0554  1.8877
 3678SOL    HW222671   3.646   2.469  11.336  1.8739 -0.1393  0.0064
 3679SOL     OW22672   1.711   1.333  10.188  0.1197 -0.2766  0.0508
 3679SOL    HW122673   1.798   1.319  10.151  0.4268  2.6220 -0.3062
 3679SOL    HW222674   1.664   1.385  10.122  0.3591 -0.4922 -0.2860
 3680SOL     OW22675   0.340   2.975   1.547 -0.6098  0.0384 -0.1769
 3680SOL    HW122676   0.432   2.948   1.546 -1.1832 -1.9119  0.3040
 3680SOL    HW222677   0.333   3.027   1.467  1.4505 -2.2870 -1.8726
 3681SOL     OW22678   4.407   1.565   6.369  0.4441 -0.2726  0.6655
 3681SOL    HW122679   4.463   1.538   6.297 -2.0667 -2.4185 -0.4742
 3681SOL    HW222680   4.331   1.512   6.345  1.2367  0.1294 -2.6339
 3682SOL     OW22681   0.504   0.510   7.966  0.3650 -0.3166 -0.4018
 3682SOL    HW122682   0.533   0.599   7.948 -0.7515 -0.8930 -5.0818
 3682SOL    HW222683   0.505   0.506   8.061  0.9342 -3.1737 -0.5120
 3683SOL     OW22684   3.837   3.575  16.944  0.1867  0.1519  0.2239
 3683SOL    HW122685   3.811   3.666  16.931 -0.6669 -0.5189 -2.8173
 3683SOL    HW222686   3.770   3.540  17.003  1.0114 -0.1024  1.0065
 3684SOL     OW22687   0.810   4.186  17.234  0.0995  0.5001 -0.5728
 3684SOL    HW122688   0.858   4.253  17.283  1.1483 -0.3540 -0.4375
 3684SOL    HW222689   0.836   4.106  17.279 -1.7875  0.6562  0.7577
 3685SOL     OW22690   2.398   0.802   7.390 -0.0513 -0.2421 -0.0894
 3685SOL    HW122691   2.397   0.729   7.327 -0.6210 -1.4120  1.2626
 3685SOL    HW222692   2.427   0.758   7.470 -0.9919 -0.8762 -0.0967
 3686SOL     OW22693   2.664   1.556   2.944 -0.6274 -0.0617  0.4752
 3686SOL    HW122694   2.706   1.637   2.917 -1.8176 -0.0392 -1.3668
 3686SOL    HW222695   2.670   1.493   2.871 -0.9065  2.3066 -1.5818
 3687SOL     OW22696   1.814   2.206   4.313 -0.2865 -0.8120  0.4688
 3687SOL    HW122697   1.784   2.130   4.262 -1.2773  1.1250 -1.8733
 3687SOL    HW222698   1.900   2.219   4.272  0.6202 -1.3982  2.2016
 3688SOL     OW22699   0.997   0.727  12.174  0.2160  0.1606  0.4676
 3688SOL    HW122700   1.068   0.717  12.237 -0.8988 -2.2136  1.3427
 3688SOL    HW222701   0.965   0.812  12.202 -1.8082 -0.4210 -0.0662
 3689SOL     OW22702   4.347   3.151   5.345  0.0967  1.2548 -0.1419
 3689SOL    HW122703   4.389   3.072   5.312 -0.2792  1.5736 -1.3743
 3689SOL    HW222704   4.347   3.125   5.437  2.9540  0.3687 -0.3862
 3690SOL     OW22705   0.211   1.240   5.199  0.0818 -0.2237 -0.3929
 3690SOL    HW122706   0.274   1.168   5.203 -0.4631 -0.6901 -0.2518
 3690SOL    HW222707   0.147   1.201   5.140 -0.4708  1.0985 -0.6793
 3691SOL     OW22708   1.759   2.229  16.863  0.4972 -0.0779  0.7649
 3691SOL    HW122709   1.852   2.243  16.877 -0.2292  3.4242  2.1066
 3691SOL    HW222710   1.731   2.312  16.825  1.9864  0.0188 -0.0966
 3692SOL     OW22711   2.931   4.537   6.010  0.6599  0.0806  0.1128
 3692SOL    HW122712   2.907   4.445   6.017  1.6919 -0.3728 -2.1839
 3692SOL    HW222713   2.961   4.537   5.919 -0.7913  1.4969 -0.3644
 3693SOL     OW22714   4.241   1.519   0.369  0.1639 -0.4023  0.0386
 3693SOL    HW122715   4.220   1.510   0.276 -0.1566 -0.5895  0.1284
 3693SOL    HW222716   4.336   1.525   0.360  0.1746  0.8901  1.0618
 3694SOL     OW22717   2.607   1.822   8.256  0.8102 -0.3414 -0.3122
 3694SOL    HW122718   2.606   1.726   8.258  0.7025 -0.3537 -1.3415
 3694SOL    HW222719   2.595   1.834   8.350 -0.2191 -1.9929 -0.2187
 3695SOL     OW22720   0.964   2.279   2.939 -0.0005  0.6711  0.6510
 3695SOL    HW122721   1.015   2.353   2.907 -0.1311 -1.2300 -3.9492
 3695SOL    HW222722   0.881   2.305   2.900 -0.7609 -1.6530  0.7006
 3696SOL     OW22723   0.626   2.030  17.610 -0.1319 -0.2824  0.2256
 3696SOL    HW122724   0.675   2.062  17.534  0.2286 -0.1947  0.4985
 3696SOL    HW222725   0.673   2.074  17.681  1.1403 -1.4273  0.0710
 3697SOL     OW22726   2.054   1.165  14.806 -0.0985 -0.0952  0.1877
 3697SOL    HW122727   2.100   1.246  14.781 -0.6548 -0.1913 -1.1531
 3697SOL    HW222728   2.003   1.149  14.727  1.6888  0.2265 -1.0152
 3698SOL     OW22729   3.404   2.884   0.306  1.1398 -0.6967  0.1766
 3698SOL    HW122730   3.473   2.911   0.367 -1.3115 -0.7697  2.9908
 3698SOL    HW222731   3.412   2.960   0.249  0.7166 -0.5923  0.2533
 3699SOL     OW22732   4.249   3.628   0.654 -0.0767 -0.7092 -0.3790
 3699SOL    HW122733   4.240   3.642   0.748  1.0642  2.7065 -0.7737
 3699SOL    HW222734   4.274   3.712   0.616 -2.3996 -0.4052 -1.2135
 3700SOL     OW22735   4.427   3.700   9.719  0.0772 -0.7201  0.3405
 3700SOL    HW122736   4.344   3.712   9.674 -0.9000  2.6646  3.1558
 3700SOL    HW222737   4.488   3.676   9.648 -2.4214 -0.0283 -2.0446
 3701SOL     OW22738   2.058   2.470   6.158 -0.0058  0.3444 -0.2597
 3701SOL    HW122739   2.100   2.405   6.102  1.9279 -1.5808  3.4750
 3701SOL    HW222740   1.969   2.459   6.124  0.3228 -1.5525 -0.4723
 3702SOL     OW22741   3.612   2.364   4.932  0.2013 -0.1998 -0.6544
 3702SOL    HW122742   3.525   2.368   4.893 -0.5787 -2.6903  0.8059
 3702SOL    HW222743   3.620   2.449   4.974  2.1771 -0.9425  0.4737
 3703SOL     OW22744   1.864   0.343  11.879 -0.3895 -0.5647  0.3487
 3703SOL    HW122745   1.946   0.370  11.836 -0.0873 -2.3591 -0.2076
 3703SOL    HW222746   1.821   0.425  11.902 -1.8828 -2.1790  3.1917
 3704SOL     OW22747   1.358   2.037   5.787 -0.0926  0.2373 -0.6738
 3704SOL    HW122748   1.443   2.005   5.756 -0.0615 -0.2378 -0.1031
 3704SOL    HW222749   1.379   2.122   5.826 -1.8666  0.9736 -1.3503
 3705SOL     OW22750   2.921   2.276   7.475  0.2116  0.0421 -0.1288
 3705SOL    HW122751   2.914   2.331   7.553  1.4774  2.0732 -1.4614
 3705SOL    HW222752   2.829   2.268   7.450  0.7175 -3.5414 -0.9667
 3706SOL     OW22753   3.994   2.430  14.924 -0.1215  0.0319  0.3367
 3706SOL    HW122754   3.938   2.367  14.968 -0.1545  0.1442  0.4566
 3706SOL    HW222755   4.083   2.398  14.940 -0.4825  0.0677  2.3609
 3707SOL     OW22756   3.852   4.687   2.698  0.2756  0.0634 -0.1492
 3707SOL    HW122757   3.774   4.652   2.656  0.2287 -1.2573  1.0606
 3707SOL    HW222758   3.875   0.013   2.635 -0.7103  0.5031 -0.0499
 3708SOL     OW22759   1.834   2.505   3.840  0.2827  0.2809  0.0476
 3708SOL    HW122760   1.783   2.452   3.779  1.1806 -0.9924  0.4124
 3708SOL    HW222761   1.785   2.585   3.820 -1.7089 -1.2612 -1.1824
 3709SOL     OW22762   3.475   1.022  16.382  0.1296  0.0217  0.1757
 3709SOL    HW122763   3.530   0.951  16.350  1.5511 -0.0644  2.8725
 3709SOL    HW222764   3.412   1.021  16.309 -1.6261  0.8838  1.6762
 3710SOL     OW22765   3.821   3.404   3.660 -0.4471  0.4032  0.0715
 3710SOL    HW122766   3.861   3.317   3.652 -0.3230  0.4478  0.1982
 3710SOL    HW222767   3.809   3.408   3.755 -0.3743 -0.0111  0.0972
 3711SOL     OW22768   0.194   0.228   1.679  0.0611 -0.0768 -0.8225
 3711SOL    HW122769   0.288   0.237   1.664  0.2428  0.8177  0.9091
 3711SOL    HW222770   0.188   0.134   1.658 -0.3969 -0.3872  0.7304
 3712SOL     OW22771   2.048   3.355   2.369  0.4091  0.1628 -0.6455
 3712SOL    HW122772   2.056   3.305   2.450 -2.7340 -0.6570 -0.8215
 3712SOL    HW222773   2.106   3.310   2.309 -1.5253 -1.7982 -1.0508
 3713SOL     OW22774   1.600   4.064   4.962 -0.0349 -0.3763  0.5786
 3713SOL    HW122775   1.616   4.149   5.002  1.5372  0.5477 -2.0312
 3713SOL    HW222776   1.515   4.074   4.918  0.7204 -0.7151 -0.9553
 3714SOL     OW22777   2.208   3.332   2.702  0.0554 -0.1483  0.2020
 3714SOL    HW122778   2.125   3.369   2.731  0.3849  0.4998  0.3233
 3714SOL    HW222779   2.205   3.239   2.725  0.9776 -1.0865 -3.4363
 3715SOL     OW22780   0.989   2.579   6.239 -0.0308 -0.4591  0.5097
 3715SOL    HW122781   1.083   2.589   6.223 -0.4552  0.5734 -1.3138
 3715SOL    HW222782   0.973   2.505   6.181 -1.6506  1.0794 -1.0120
 3716SOL     OW22783   4.283   2.495  17.428  1.0590 -0.0901  0.7383
 3716SOL    HW122784   4.344   2.568  17.420  1.5671 -0.5169  0.6593
 3716SOL    HW222785   4.206   2.534  17.470 -0.4483  2.1676 -4.2017
 3717SOL     OW22786   1.840   0.329   3.096  0.0669 -0.0334  0.1822
 3717SOL    HW122787   1.887   0.257   3.138  1.4391  0.7667  0.0190
 3717SOL    HW222788   1.817   0.285   3.015 -0.9015  0.1708  0.3431
 3718SOL     OW22789   2.301   0.301   4.249  0.3056  0.0806 -0.4171
 3718SOL    HW122790   2.388   0.261   4.243 -0.1594 -0.4702 -3.3030
 3718SOL    HW222791   2.259   0.233   4.302 -0.6085 -0.3683 -1.7230
 3719SOL     OW22792   2.121   4.739  13.218 -0.4625 -0.2227 -0.1315
 3719SOL    HW122793   2.206   0.041  13.219 -0.2224 -0.6825 -0.4116
 3719SOL    HW222794   2.063   0.045  13.159  2.2072  0.7382 -1.9398
 3720SOL     OW22795   0.323   0.619   7.472 -0.3356  0.1647  0.5581
 3720SOL    HW122796   0.243   0.666   7.449  0.3599  1.7063  1.3277
 3720SOL    HW222797   0.292   0.567   7.546  0.5554 -1.2257 -0.0305
 3721SOL     OW22798   4.450   0.418   5.625  0.1969 -0.3162  1.0203
 3721SOL    HW122799   4.406   0.480   5.684 -1.2353 -0.5377  0.1780
 3721SOL    HW222800   4.536   0.457   5.611 -0.7303  1.7398  0.9441
 3722SOL     OW22801   0.025   1.359   2.919 -0.4259  0.0739 -0.2984
 3722SOL    HW122802   4.705   1.415   2.872  0.6807  1.0391 -0.6303
 3722SOL    HW222803   0.107   1.409   2.919 -2.2463  3.0405  0.3911
 3723SOL     OW22804   0.797   1.379   3.501 -0.6684  0.0001  0.0732
 3723SOL    HW122805   0.739   1.455   3.509  0.1649  0.5811  0.5703
 3723SOL    HW222806   0.866   1.396   3.565  0.5794 -1.1383 -0.9517
 3724SOL     OW22807   1.575   2.838   2.271 -0.1400 -0.2076  0.3730
 3724SOL    HW122808   1.584   2.813   2.179  1.0246 -0.1641  0.4753
 3724SOL    HW222809   1.555   2.930   2.255 -0.8002 -0.3565  0.3601
 3725SOL     OW22810   0.025   0.254   6.959 -0.0180 -0.2204  0.7281
 3725SOL    HW122811   0.052   0.265   7.050 -0.2495 -0.8683  0.8785
 3725SOL    HW222812   0.112   0.259   6.922  0.0173 -0.9662  0.7214
 3726SOL     OW22813   3.720   0.984   3.240 -0.5591 -0.0517  0.3760
 3726SOL    HW122814   3.795   1.043   3.234  0.5320 -1.4869 -0.2908
 3726SOL    HW222815   3.740   0.936   3.320 -2.8002  1.0190  1.5688
 3727SOL     OW22816   4.361   0.331   6.555 -0.0826  0.2712 -0.2338
 3727SOL    HW122817   4.299   0.271   6.513  1.2595  0.6564 -2.7590
 3727SOL    HW222818   4.315   0.414   6.560 -2.7671 -1.2826  1.3549
 3728SOL     OW22819   3.666   3.005  12.485 -0.2247  0.4719  0.5513
 3728SOL    HW122820   3.756   3.037  12.480  0.3633 -1.6239 -2.1840
 3728SOL    HW222821   3.629   3.083  12.526  1.0825  0.8103  1.0787
 3729SOL     OW22822   4.493   3.769   1.388 -0.9979  0.5428  0.4133
 3729SOL    HW122823   4.511   3.753   1.295 -1.1537  0.0119  0.4729
 3729SOL    HW222824   4.576   3.808   1.416  0.0247  0.0474 -1.9273
 3730SOL     OW22825   2.627   1.257   5.515 -0.1800 -0.2288 -0.3012
 3730SOL    HW122826   2.652   1.206   5.593 -1.2372 -0.7064 -0.2757
 3730SOL    HW222827   2.586   1.335   5.552 -0.3656  0.6891 -2.4594
 3731SOL     OW22828   1.043   4.247  10.923  0.3172  0.1413  0.3854
 3731SOL    HW122829   1.102   4.219  10.853 -0.0011 -0.7629  0.4840
 3731SOL    HW222830   0.981   4.174  10.923 -0.1805  0.5594 -0.5242
 3732SOL     OW22831   1.374   4.329   6.856 -0.9120  0.0952  0.3924
 3732SOL    HW122832   1.384   4.345   6.762 -0.1751  0.5153  0.5359
 3732SOL    HW222833   1.332   4.410   6.883  0.3630  0.6430  0.7739
 3733SOL     OW22834   2.520   2.499  17.009 -0.4893  0.2936 -0.1040
 3733SOL    HW122835   2.546   2.590  16.996  0.7272 -0.0543 -0.1671
 3733SOL    HW222836   2.566   2.489  17.092  1.8858  0.5215 -1.3761
 3734SOL     OW22837   1.668   3.118  16.485  0.4097 -0.0695 -0.1126
 3734SOL    HW122838   1.573   3.128  16.492  0.5379  1.5831 -0.8603
 3734SOL    HW222839   1.668   3.093  16.393  0.3257 -2.8673  0.6602
 3735SOL     OW22840   2.976   0.579   9.105 -0.3496 -0.4663  0.4859
 3735SOL    HW122841   2.963   0.495   9.149  1.0288 -1.4894 -1.0710
 3735SOL    HW222842   3.010   0.630   9.179 -2.4466 -0.7299  1.6308
 3736SOL     OW22843   0.298   3.191   2.580 -0.0858  1.2680  0.2507
 3736SOL    HW122844   0.387   3.175   2.610 -0.6507 -1.4814  0.4695
 3736SOL    HW222845   0.317   3.263   2.521 -0.2028  1.2155  0.1494
 3737SOL     OW22846   4.228   3.895   1.474 -0.5257  0.6706 -0.0708
 3737SOL    HW122847   4.199   3.804   1.488  0.1588  0.4133 -0.3092
 3737SOL    HW222848   4.312   3.873   1.433 -0.9634 -1.4054  0.1509
 3738SOL     OW22849   4.061   1.872   8.517 -0.4463 -0.1310  0.1046
 3738SOL    HW122850   4.082   1.892   8.609 -0.1021  1.9051 -0.4187
 3738SOL    HW222851   3.978   1.826   8.515 -0.0564 -0.9190  2.0014
 3739SOL     OW22852   0.729   4.194   8.202 -0.0148  0.3793  0.0192
 3739SOL    HW122853   0.813   4.230   8.232  0.3164  0.7355 -1.3437
 3739SOL    HW222854   0.683   4.159   8.278  0.5536 -0.2700  0.0666
 3740SOL     OW22855   3.763   4.720   6.575  0.3582  0.8877 -0.6246
 3740SOL    HW122856   3.747   4.626   6.577 -1.6903  1.2804  1.5961
 3740SOL    HW222857   3.677   0.004   6.544  1.0496  2.7634 -0.9786
 3741SOL     OW22858   1.456   1.888   6.634  0.4642  0.3898  0.2142
 3741SOL    HW122859   1.374   1.937   6.640  0.5322  0.1152  3.7276
 3741SOL    HW222860   1.488   1.923   6.718 -1.0462 -1.3032  1.4848
 3742SOL     OW22861   2.909   3.401   0.569  0.0645 -0.2533 -0.0909
 3742SOL    HW122862   2.934   3.476   0.623 -0.7138  0.1587 -0.2988
 3742SOL    HW222863   2.979   3.402   0.504  0.9761 -0.8198  0.8742
 3743SOL     OW22864   0.828   0.080   6.191  0.6003 -0.2210  0.2575
 3743SOL    HW122865   0.754   0.052   6.137  2.0603 -1.7291 -0.9321
 3743SOL    HW222866   0.895   0.095   6.125 -0.5303  1.6556 -0.4624
 3744SOL     OW22867   4.555   2.404   2.953 -0.4404  0.4283 -0.1189
 3744SOL    HW122868   4.586   2.490   2.982  1.0740 -0.2397  0.2537
 3744SOL    HW222869   4.544   2.431   2.861  0.3339 -0.9974 -0.6186
 3745SOL     OW22870   2.956   0.201   3.060  0.2750 -0.1574 -0.5562
 3745SOL    HW122871   2.942   0.196   2.966 -1.1068  1.6550 -0.4505
 3745SOL    HW222872   2.894   0.269   3.088  1.1542  0.2359  0.4381
 3746SOL     OW22873   3.447   1.642  15.531  0.0256 -0.5427  0.2369
 3746SOL    HW122874   3.456   1.561  15.580  1.0864 -0.8567 -0.4822
 3746SOL    HW222875   3.453   1.709  15.599  0.4899  0.8336 -1.1399
 3747SOL     OW22876   0.419   2.239   4.378  0.5308  0.3686  0.3794
 3747SOL    HW122877   0.389   2.267   4.465  0.4817 -0.5753  0.6685
 3747SOL    HW222878   0.458   2.319   4.343  0.1237  0.6802  0.6324
 3748SOL     OW22879   3.277   3.770   7.651  0.2351  0.2673  0.5425
 3748SOL    HW122880   3.184   3.753   7.634  0.4977  2.3865 -2.9526
 3748SOL    HW222881   3.284   3.794   7.744 -4.1885 -0.5153  1.0738
 3749SOL     OW22882   0.349   4.374   8.712 -0.1497  0.6898 -0.5047
 3749SOL    HW122883   0.350   4.280   8.729  0.8650  0.9761  1.0869
 3749SOL    HW222884   0.435   4.367   8.671 -0.0274  0.0505 -0.1449
 3750SOL     OW22885   1.280   3.408   3.730  0.2680 -0.3811  0.0940
 3750SOL    HW122886   1.275   3.487   3.783 -0.2161  1.2226 -2.3462
 3750SOL    HW222887   1.374   3.390   3.723  0.7150  0.8653  3.2109
 3751SOL     OW22888   1.472   4.590  12.270  0.1641 -0.1184 -0.2431
 3751SOL    HW122889   1.536   4.639  12.321  1.0296  0.6630 -2.0932
 3751SOL    HW222890   1.456   4.648  12.197  1.7696 -0.7277 -1.0918
 3752SOL     OW22891   1.945   3.783  11.243 -0.3348  0.0165  0.0410
 3752SOL    HW122892   1.884   3.717  11.274 -0.8682 -0.1604 -1.4015
 3752SOL    HW222893   1.890   3.852  11.207  0.2923  0.3508 -0.2913
 3753SOL     OW22894   4.621   3.841   6.418 -0.2309 -0.3462  0.0714
 3753SOL    HW122895   4.689   3.905   6.397  0.1670 -0.2822  1.5686
 3753SOL    HW222896   4.588   3.867   6.503 -1.2954 -1.3758 -0.0274
 3754SOL     OW22897   0.730   2.468   8.891 -0.5056 -0.0455 -0.6256
 3754SOL    HW122898   0.791   2.409   8.846 -1.0357 -0.7080 -0.4782
 3754SOL    HW222899   0.678   2.406   8.942 -0.7841 -0.9828 -2.0271
 3755SOL     OW22900   3.253   3.177  14.163 -0.1364 -0.2546 -0.3062
 3755SOL    HW122901   3.324   3.241  14.171  0.7434 -1.1686 -0.8075
 3755SOL    HW222902   3.291   3.107  14.110 -1.7221  1.0516 -3.1508
 3756SOL     OW22903   1.043   0.350   4.205  0.0247  0.7771  0.1350
 3756SOL    HW122904   1.009   0.366   4.117  0.2985 -1.4043 -0.3579
 3756SOL    HW222905   0.966   0.331   4.258  0.3922 -0.2827  0.2918
 3757SOL     OW22906   3.679   3.972   2.693 -0.7126 -0.4192  0.3575
 3757SOL    HW122907   3.728   3.950   2.614 -2.6769 -0.6154 -0.7839
 3757SOL    HW222908   3.699   4.065   2.704 -3.2856  0.4243 -2.2568
 3758SOL     OW22909   3.817   2.841   8.099 -0.2578 -0.0588  0.1147
 3758SOL    HW122910   3.841   2.810   8.186 -1.3444 -3.6948 -0.9043
 3758SOL    HW222911   3.878   2.914   8.089 -0.6320  0.2286 -0.0542
 3759SOL     OW22912   1.767   0.326  15.559 -0.0088 -0.1057 -0.1421
 3759SOL    HW122913   1.699   0.393  15.545  0.8051  1.0735  1.5470
 3759SOL    HW222914   1.801   0.343  15.647  0.1282 -1.8540  0.1542
 3760SOL     OW22915   4.101   1.324   3.046 -0.0523  0.5337  0.4647
 3760SOL    HW122916   4.115   1.389   3.115 -2.2470  1.9045 -0.3867
 3760SOL    HW222917   4.166   1.257   3.070 -0.3828 -0.3298 -1.0382
 3761SOL     OW22918   0.529   1.390   3.199  0.0747  0.1822 -0.0970
 3761SOL    HW122919   0.591   1.320   3.216  2.4828  2.1169 -0.9282
 3761SOL    HW222920   0.444   1.346   3.206  1.1485 -1.7257  0.9029
 3762SOL     OW22921   2.461   4.308   2.952  0.2222  0.3776 -0.3482
 3762SOL    HW122922   2.482   4.399   2.974  3.3065  0.0478 -1.8975
 3762SOL    HW222923   2.405   4.320   2.876  1.7308 -3.1097 -1.9691
 3763SOL     OW22924   4.407   4.727   5.562 -0.1760 -0.8734 -0.2338
 3763SOL    HW122925   4.455   0.029   5.632  0.5818  0.8711 -1.8678
 3763SOL    HW222926   4.368   4.648   5.600  2.6318 -1.9048  0.5540
 3764SOL     OW22927   4.247   0.955   8.538 -0.0230  0.2721  0.7541
 3764SOL    HW122928   4.174   0.929   8.481 -0.5980  1.2209  1.0577
 3764SOL    HW222929   4.242   1.050   8.535  3.5302  0.4300 -0.2256
 3765SOL     OW22930   4.358   2.713   6.546  0.2514  0.5585  0.0740
 3765SOL    HW122931   4.287   2.775   6.528 -0.9626 -0.3750  1.6811
 3765SOL    HW222932   4.378   2.700   6.453 -1.0291 -0.7875 -0.0241
 3766SOL     OW22933   3.119   0.539  12.251  0.0414 -0.3605 -0.4103
 3766SOL    HW122934   3.160   0.452  12.258  0.4833 -0.0122  1.4779
 3766SOL    HW222935   3.138   0.578  12.337 -1.7302 -1.0708  0.2935
 3767SOL     OW22936   0.060   4.592   8.823 -0.0966  0.5836  0.3916
 3767SOL    HW122937   0.102   4.530   8.763 -0.5085  0.6434  0.0415
 3767SOL    HW222938   0.085   4.557   8.908 -0.0425 -0.8748 -0.2273
 3768SOL     OW22939   4.555   0.757  12.216  0.2331  0.0089  0.2439
 3768SOL    HW122940   4.600   0.675  12.239  1.4114  0.1246 -1.6954
 3768SOL    HW222941   4.573   0.802  12.299 -0.1264 -1.9359  1.3830
 3769SOL     OW22942   0.643   3.126   9.986  0.4987  0.6440 -0.4688
 3769SOL    HW122943   0.735   3.149   9.978  0.6157  0.0015 -0.9696
 3769SOL    HW222944   0.636   3.032  10.002  1.9744  0.3912 -1.3209
 3770SOL     OW22945   0.993   1.250   2.981 -0.7256 -0.6226 -0.0992
 3770SOL    HW122946   0.928   1.313   2.951 -0.0429 -0.3135 -0.9482
 3770SOL    HW222947   1.001   1.196   2.903  1.9815  0.0924 -0.3275
 3771SOL     OW22948   3.014   2.380  14.653 -0.3656  0.1176 -0.2099
 3771SOL    HW122949   2.923   2.380  14.624 -0.9274  0.2364  1.5225
 3771SOL    HW222950   3.049   2.454  14.604 -0.2052 -0.1271 -0.4678
 3772SOL     OW22951   0.467   3.389   4.357 -0.4403 -0.0903  0.2308
 3772SOL    HW122952   0.530   3.371   4.427 -0.0086 -0.1669 -0.1825
 3772SOL    HW222953   0.516   3.367   4.278  1.5507 -0.2742  1.5148
 3773SOL     OW22954   0.686   1.054  12.331 -0.0579  0.7789  0.3122
 3773SOL    HW122955   0.668   1.145  12.355  1.1762  0.8792  0.8396
 3773SOL    HW222956   0.598   1.018  12.345 -0.2779  0.8581 -0.8635
 3774SOL     OW22957   0.353   1.844   8.431  0.5099  0.8177  0.1868
 3774SOL    HW122958   0.413   1.840   8.505 -0.0152  2.6456  0.7081
 3774SOL    HW222959   0.419   1.819   8.366 -1.0060  0.4514 -1.2326
 3775SOL     OW22960   1.825   1.031   2.622 -0.1452 -0.0481  0.2930
 3775SOL    HW122961   1.802   1.117   2.657 -0.1335 -0.0707  0.3556
 3775SOL    HW222962   1.784   1.035   2.536 -2.6145  0.6724  1.5058
 3776SOL     OW22963   4.332   2.775   8.406 -0.0502  0.2477  0.1630
 3776SOL    HW122964   4.237   2.759   8.413 -0.3811  1.1435 -2.4235
 3776SOL    HW222965   4.365   2.719   8.337 -0.1367 -1.2244  1.3266
 3777SOL     OW22966   4.489   0.046   2.878  0.4560  0.1986 -0.5006
 3777SOL    HW122967   4.422   0.113   2.865 -0.0819 -0.6842 -2.3591
 3777SOL    HW222968   4.495   0.040   2.973 -1.5304  0.9057 -0.3342
 3778SOL     OW22969   3.242   4.176   2.130  0.7136 -0.7006  1.2004
 3778SOL    HW122970   3.307   4.117   2.091  1.1093  1.4956 -1.4804
 3778SOL    HW222971   3.174   4.172   2.062  1.2350 -1.8117  0.7451
 3779SOL     OW22972   1.168   4.225   5.927  0.1617 -0.0341 -0.2977
 3779SOL    HW122973   1.073   4.219   5.913  0.0980 -1.0284  0.5699
 3779SOL    HW222974   1.200   4.230   5.837 -2.6017 -0.0396 -1.2937
 3780SOL     OW22975   2.224   4.023   5.269  0.1360 -0.1721 -0.3736
 3780SOL    HW122976   2.243   4.002   5.360  0.3819 -0.2703 -0.4479
 3780SOL    HW222977   2.297   3.974   5.232 -0.3953 -2.4301  1.5377
 3781SOL     OW22978   4.435   3.603   2.222 -0.3804 -0.2072 -0.0711
 3781SOL    HW122979   4.487   3.525   2.239 -0.1182 -0.4548 -1.9869
 3781SOL    HW222980   4.500   3.668   2.193 -0.9695 -0.4414 -1.9505
 3782SOL     OW22981   3.677   3.081   2.973  0.7268 -0.0345 -0.3861
 3782SOL    HW122982   3.702   3.154   2.916  0.4336 -0.6004 -1.2364
 3782SOL    HW222983   3.658   3.011   2.911  0.4445 -1.9308  1.8474
 3783SOL     OW22984   2.570   1.135   9.997 -0.2046 -0.1344 -0.2435
 3783SOL    HW122985   2.626   1.080  10.053  2.6929  0.7412 -2.2766
 3783SOL    HW222986   2.621   1.140   9.916 -1.5712  1.1248 -1.0153
 3784SOL     OW22987   3.550   2.986   4.641  0.7851 -0.6201 -0.0827
 3784SOL    HW122988   3.553   3.058   4.578 -1.5329 -1.1093 -0.7637
 3784SOL    HW222989   3.590   3.019   4.721 -0.3348  1.1612 -0.2621
 3785SOL     OW22990   4.525   2.220  12.272  0.5038  0.0559  0.1374
 3785SOL    HW122991   4.517   2.155  12.341  1.2177  1.2842  1.3818
 3785SOL    HW222992   4.533   2.158  12.200 -0.8603 -0.2687  0.2687
 3786SOL     OW22993   0.975   1.712  10.345 -0.1033 -0.2961 -0.3695
 3786SOL    HW122994   0.892   1.747  10.375  0.2933  0.8741 -0.6546
 3786SOL    HW222995   1.005   1.768  10.274  1.3006 -0.0371  0.4109
 3787SOL     OW22996   3.803   4.420   1.131  0.1188 -0.0693 -0.3936
 3787SOL    HW122997   3.893   4.392   1.149 -0.0734  0.4980  1.4626
 3787SOL    HW222998   3.819   4.460   1.046 -2.0106  0.8298 -0.3818
 3788SOL     OW22999   4.334   1.008   4.231 -0.1335 -0.2761  0.2464
 3788SOL    HW123000   4.351   0.958   4.311  0.4863  3.1752  2.2730
 3788SOL    HW223001   4.345   0.938   4.167 -1.4019  1.3674 -1.7495
 3789SOL     OW23002   0.672   4.652  14.738 -0.1455  0.4751  0.1979
 3789SOL    HW123003   0.719   4.725  14.698  0.3446 -0.4997 -0.9990
 3789SOL    HW223004   0.586   4.689  14.720 -0.0636  0.6159  0.0916
 3790SOL     OW23005   2.244   2.035   1.824  0.4601  0.4349 -0.0831
 3790SOL    HW123006   2.252   1.954   1.874  0.6696 -0.9075 -2.2935
 3790SOL    HW223007   2.266   2.110   1.879  1.7268 -0.5977  0.8129
 3791SOL     OW23008   4.624   4.389  13.742 -0.4887 -0.1049 -0.2537
 3791SOL    HW123009   4.640   4.305  13.699 -0.6222 -0.5547  0.5751
 3791SOL    HW223010   4.639   4.353  13.830 -2.0808 -3.0440 -1.1693
 3792SOL     OW23011   2.787   3.582  15.486  0.1574 -0.4418  0.0268
 3792SOL    HW123012   2.877   3.549  15.481 -0.0542 -1.2390  1.7282
 3792SOL    HW223013   2.755   3.592  15.396 -1.4833  1.5368  0.8199
 3793SOL     OW23014   4.586   1.259   7.627 -0.0940 -0.1799 -0.0871
 3793SOL    HW123015   4.644   1.182   7.625 -2.4308 -1.9319  0.0470
 3793SOL    HW223016   4.505   1.218   7.598 -1.2097  1.6314  0.5137
 3794SOL     OW23017   0.460   0.270   1.592 -0.2057  0.2284  0.4703
 3794SOL    HW123018   0.487   0.357   1.563 -1.0600 -0.0113 -1.0364
 3794SOL    HW223019   0.514   0.206   1.545 -0.0861  2.0418 -1.8695
 3795SOL     OW23020   2.594   1.815   9.145 -0.5936  0.4088  0.5072
 3795SOL    HW123021   2.668   1.784   9.093 -0.9506  0.9898 -0.3383
 3795SOL    HW223022   2.617   1.904   9.172 -3.0579  1.9234 -2.4502
 3796SOL     OW23023   1.041   3.261   0.777  0.1018  0.0197  0.0151
 3796SOL    HW123024   1.047   3.305   0.692 -1.2747  1.8188  0.8674
 3796SOL    HW223025   0.988   3.187   0.746  0.9284 -1.0124  1.0644
 3797SOL     OW23026   0.314   0.278   9.541 -0.3069 -0.8495 -0.2567
 3797SOL    HW123027   0.360   0.362   9.534  1.6933 -1.9118 -0.0187
 3797SOL    HW223028   0.379   0.220   9.499  0.2050 -0.1881 -0.3764
 3798SOL     OW23029   4.176   0.166   8.933  0.1034 -0.2527 -0.3297
 3798SOL    HW123030   4.170   0.159   8.838  0.9015 -0.1420 -0.3906
 3798SOL    HW223031   4.243   0.235   8.938 -2.3827  2.0455  1.5883
 3799SOL     OW23032   3.340   1.822   8.871 -0.1302 -0.4407 -0.7831
 3799SOL    HW123033   3.273   1.789   8.812 -1.1592 -2.3579  1.4448
 3799SOL    HW223034   3.296   1.903   8.898  0.5786 -0.6278  0.9974
 3800SOL     OW23035   2.776   0.705   5.264 -0.2442 -0.5030  0.0965
 3800SOL    HW123036   2.800   0.704   5.356 -0.1719  1.8268  0.0933
 3800SOL    HW223037   2.686   0.736   5.278  0.2067 -0.2823  2.4684
 3801SOL     OW23038   1.892   4.018  17.521  0.6105  0.2046  0.2019
 3801SOL    HW123039   1.872   3.932  17.482 -2.3127  0.1826  1.6948
 3801SOL    HW223040   1.918   4.065  17.442  0.7746 -0.1965  0.0178
 3802SOL     OW23041   3.544   0.946  10.972  0.5725 -0.3248  0.6675
 3802SOL    HW123042   3.476   0.997  11.017 -0.5090 -0.1118 -1.2265
 3802SOL    HW223043   3.574   1.001  10.901 -2.0561  0.2594  0.0018
 3803SOL     OW23044   3.469   0.202   2.906  0.3330 -0.4745  0.2183
 3803SOL    HW123045   3.385   0.228   2.943  0.4755  1.1905 -0.6401
 3803SOL    HW223046   3.516   0.285   2.908 -1.4223  0.5156  0.1910
 3804SOL     OW23047   4.643   0.024  12.379  0.0296 -0.4116 -0.2914
 3804SOL    HW123048   4.708   4.700  12.403 -0.2592 -0.3490  0.7044
 3804SOL    HW223049   4.569   4.728  12.427 -0.7801 -1.1526 -2.1211
 3805SOL     OW23050   2.530   3.420   7.435 -0.4988 -0.0796  0.1109
 3805SOL    HW123051   2.528   3.424   7.340  0.3889  3.6343  0.2406
 3805SOL    HW223052   2.553   3.509   7.462  2.7577 -1.0816  0.6284
 3806SOL     OW23053   0.719   1.927   6.458 -0.6420 -0.3421  0.0958
 3806SOL    HW123054   0.808   1.956   6.441 -0.1911 -2.9383 -1.8559
 3806SOL    HW223055   0.692   1.992   6.523 -2.5309 -0.8076 -0.2067
 3807SOL     OW23056   2.687   0.170  10.232 -0.4415  0.7772 -0.2839
 3807SOL    HW123057   2.644   0.117  10.299 -1.7208  1.1843 -0.7846
 3807SOL    HW223058   2.771   0.191  10.273 -0.9087  0.5902  0.7523
 3808SOL     OW23059   1.798   3.953  10.369  0.1913  0.1447 -0.5063
 3808SOL    HW123060   1.829   4.002  10.293 -0.6961  0.8786 -0.3960
 3808SOL    HW223061   1.860   3.880  10.374  0.4447  0.4681  1.1564
 3809SOL     OW23062   2.748   2.737   2.065  0.1604  0.1365  0.0774
 3809SOL    HW123063   2.765   2.658   2.013  1.0536 -0.2886  1.0212
 3809SOL    HW223064   2.768   2.712   2.155 -1.0561  1.6865  0.7632
 3810SOL     OW23065   2.623   3.569   5.292  0.1026 -0.1265  0.0463
 3810SOL    HW123066   2.647   3.617   5.371 -2.3035  0.6221  0.3112
 3810SOL    HW223067   2.531   3.547   5.305  0.2588 -0.7712  0.0385
 3811SOL     OW23068   4.615   1.572   9.774 -0.3503 -0.3478 -0.0413
 3811SOL    HW123069   4.665   1.654   9.765  1.4420 -1.3558  0.8145
 3811SOL    HW223070   4.681   1.507   9.754  1.6741  1.7179 -0.1023
 3812SOL     OW23071   0.154   3.071   7.882  0.4404  0.2512  0.2651
 3812SOL    HW123072   0.243   3.104   7.894 -0.1061  2.3032 -1.2334
 3812SOL    HW223073   0.155   3.039   7.792  1.8611  1.8826 -0.2984
 3813SOL     OW23074   2.317   3.409   7.633 -0.2834 -0.5171 -0.7535
 3813SOL    HW123075   2.341   3.488   7.681 -0.4409 -0.0495 -1.4452
 3813SOL    HW223076   2.382   3.415   7.562  0.9275  1.1577  0.4860
 3814SOL     OW23077   2.774   2.369   8.551 -0.1451 -1.0792 -0.0373
 3814SOL    HW123078   2.848   2.375   8.490  0.5532  1.3484  1.0449
 3814SOL    HW223079   2.783   2.286   8.597 -2.1973 -1.9746 -1.2801
 3815SOL     OW23080   4.686   3.771   2.162  0.3772 -0.1063 -0.3028
 3815SOL    HW123081   4.711   3.861   2.142  1.0691  0.3273  2.5878
 3815SOL    HW223082   4.706   3.766   2.255 -2.7204  0.3981  0.4022
 3816SOL     OW23083   1.433   0.355   5.844  0.5506 -0.1498  0.3053
 3816SOL    HW123084   1.378   0.326   5.916 -0.1967  1.4247  0.3685
 3816SOL    HW223085   1.409   0.294   5.774  1.7089  0.8745 -0.9910
 3817SOL     OW23086   4.638   1.920   6.080  0.4672 -0.6322 -0.2282
 3817SOL    HW123087   4.695   1.854   6.040  1.4875 -0.1080  0.3340
 3817SOL    HW223088   4.702   1.938   6.150  0.3387  0.1540 -0.3107
 3818SOL     OW23089   1.103   3.893   2.423  0.2058 -0.3276  0.5430
 3818SOL    HW123090   1.036   3.849   2.371  1.1430 -1.1597  0.0309
 3818SOL    HW223091   1.144   3.957   2.365 -1.0998 -0.2181 -0.2479
 3819SOL     OW23092   2.314   0.096   0.425 -0.9326 -0.4391  0.7151
 3819SOL    HW123093   2.326   0.032   0.355  2.3826 -3.0863  3.7105
 3819SOL    HW223094   2.257   0.163   0.386 -0.0100  0.7968  1.4858
 3820SOL     OW23095   3.814   3.337   8.419  0.0615  0.0436 -0.2541
 3820SOL    HW123096   3.793   3.245   8.401  1.9838 -0.3825 -0.2541
 3820SOL    HW223097   3.862   3.335   8.502 -0.4946  0.9357  0.1019
 3821SOL     OW23098   3.882   3.901  13.393 -0.3194  0.4774  0.0398
 3821SOL    HW123099   3.937   3.876  13.467 -1.0913  1.4270  0.9368
 3821SOL    HW223100   3.934   3.858  13.326  1.7699  2.8365  0.1177
 3822SOL     OW23101   0.908   1.407   4.873 -0.1334  0.0274  0.4972
 3822SOL    HW123102   0.855   1.483   4.896 -0.1688 -0.4815  2.0747
 3822SOL    HW223103   0.997   1.427   4.903 -0.2653 -0.9962  1.5977
 3823SOL     OW23104   0.050   1.756  11.933  0.0486 -0.4603 -0.1956
 3823SOL    HW123105   0.092   1.780  11.851 -0.9652  0.3263 -0.4829
 3823SOL    HW223106   0.018   1.835  11.976 -2.3946 -1.1423 -0.7580
 3824SOL     OW23107   4.257   2.540   2.082  0.0774 -0.5827  0.1769
 3824SOL    HW123108   4.240   2.631   2.105 -1.4954 -0.4177 -1.6021
 3824SOL    HW223109   4.286   2.560   1.993 -0.7978  0.7780  0.2087
 3825SOL     OW23110   4.651   1.327  17.129 -0.5253  0.5877  0.1545
 3825SOL    HW123111   4.730   1.277  17.112  0.2370  1.8584 -0.0345
 3825SOL    HW223112   4.585   1.274  17.174  0.0416  0.9819  1.4599
 3826SOL     OW23113   0.793   4.319   5.108 -0.1661  0.0015  0.5184
 3826SOL    HW123114   0.765   4.323   5.199 -1.1198  0.9161  0.1813
 3826SOL    HW223115   0.792   4.225   5.092  1.6564  0.3187 -1.4623
 3827SOL     OW23116   4.716   3.494   7.504 -0.6503  0.0305  0.0320
 3827SOL    HW123117   4.716   3.554   7.429  1.4789  0.9424  0.7610
 3827SOL    HW223118   4.625   3.469   7.519 -1.0849 -0.4772 -3.3315
 3828SOL     OW23119   1.952   1.093   3.646 -0.1599 -0.0176 -0.6302
 3828SOL    HW123120   2.037   1.060   3.675  0.9253  2.0725 -1.4725
 3828SOL    HW223121   1.933   1.041   3.568  0.2459  0.5992 -1.1329
 3829SOL     OW23122   0.995   3.118   4.408 -0.7875 -0.1720 -0.0781
 3829SOL    HW123123   0.949   3.194   4.445  0.9838  1.1921 -0.6713
 3829SOL    HW223124   0.957   3.050   4.464 -0.0435 -1.7745 -1.5432
 3830SOL     OW23125   0.629   2.678   2.882 -0.1398  0.3000 -0.1332
 3830SOL    HW123126   0.667   2.765   2.889  2.6964 -0.9266 -0.4534
 3830SOL    HW223127   0.596   2.670   2.972  0.3386  1.9730  0.1843
 3831SOL     OW23128   0.749   1.727   5.532 -0.4445 -1.1791  0.3464
 3831SOL    HW123129   0.702   1.808   5.510 -3.5079 -2.7928  0.9944
 3831SOL    HW223130   0.686   1.675   5.581 -0.5376 -0.9348  0.4889
 3832SOL     OW23131   3.023   4.353   4.798 -0.4790  0.0018  0.0129
 3832SOL    HW123132   2.933   4.384   4.800  0.5281  2.9060 -0.1772
 3832SOL    HW223133   3.066   4.435   4.775  0.0354 -0.2684  0.0204
 3833SOL     OW23134   1.892   1.712   8.412  0.0241 -0.6938 -0.1380
 3833SOL    HW123135   1.866   1.757   8.332 -0.1582  1.8057  1.3539
 3833SOL    HW223136   1.988   1.716   8.405 -0.1061  2.1908 -0.2808
 3834SOL     OW23137   3.051   0.590   3.117  0.3410  0.8939  0.4500
 3834SOL    HW123138   2.966   0.603   3.158  0.0047 -0.7687  0.2798
 3834SOL    HW223139   3.028   0.533   3.043  1.7709  0.1748  0.5643
 3835SOL     OW23140   3.974   2.745   1.549 -0.2250  0.4518 -0.0381
 3835SOL    HW123141   3.986   2.719   1.457 -3.3911 -1.7313  0.1368
 3835SOL    HW223142   4.035   2.817   1.539  3.0425 -2.3560 -0.2411
 3836SOL     OW23143   0.737   1.949  14.972  0.3916  0.2176  0.5973
 3836SOL    HW123144   0.811   1.902  14.933  0.6455 -0.6727  2.1833
 3836SOL    HW223145   0.777   2.035  14.960 -0.3497  0.1869 -2.1466
 3837SOL     OW23146   2.431   3.570  10.980  0.3312 -1.0152  0.6913
 3837SOL    HW123147   2.430   3.603  11.070  0.7167 -0.0925  0.3574
 3837SOL    HW223148   2.451   3.653  10.936 -1.0750 -1.1074 -0.0990
 3838SOL     OW23149   0.643   3.901  10.890 -0.0233 -0.1640 -0.2983
 3838SOL    HW123150   0.572   3.940  10.941 -1.1316 -3.1229  0.4134
 3838SOL    HW223151   0.599   3.889  10.806  1.0051  0.1339 -0.8827
 3839SOL     OW23152   1.115   4.279   8.470 -0.6159  0.1724 -0.4561
 3839SOL    HW123153   1.083   4.313   8.387 -2.7592  0.3225  0.4266
 3839SOL    HW223154   1.076   4.346   8.526  1.5374 -0.5413  1.8966
 3840SOL     OW23155   1.117   4.346   6.317 -0.4169 -0.0119 -0.0821
 3840SOL    HW123156   1.172   4.305   6.250 -1.2786  1.8511 -1.9429
 3840SOL    HW223157   1.091   4.269   6.367 -0.0614  0.1660  0.3758
 3841SOL     OW23158   3.166   0.123   8.619 -0.1574 -0.2249 -0.2909
 3841SOL    HW123159   3.182   0.217   8.621 -1.4551 -0.0235  0.5923
 3841SOL    HW223160   3.071   0.115   8.609 -0.4762  1.3678  1.3792
 3842SOL     OW23161   0.262   3.638   7.828  0.0194 -0.4472  0.0564
 3842SOL    HW123162   0.266   3.612   7.736  0.6514  2.9353 -0.8629
 3842SOL    HW223163   0.171   3.659   7.846 -0.2135 -3.0283  1.8493
 3843SOL     OW23164   0.515   4.164   3.988 -0.4611 -0.8143 -0.8053
 3843SOL    HW123165   0.421   4.163   3.972 -0.2590 -0.3091 -2.0350
 3843SOL    HW223166   0.546   4.254   3.973 -0.2250 -0.6655  0.6305
 3844SOL     OW23167   4.483   1.967   9.732 -0.8071  0.4631 -0.2017
 3844SOL    HW123168   4.553   1.955   9.668 -0.0098 -0.4119  0.8367
 3844SOL    HW223169   4.445   1.882   9.754  1.1251 -0.4356 -0.2663
 3845SOL     OW23170   4.315   2.160   7.652  0.4481 -0.0707 -0.7454
 3845SOL    HW123171   4.262   2.238   7.667  2.2077  0.7116  1.4829
 3845SOL    HW223172   4.373   2.167   7.728 -1.7363  0.8327  0.8156
 3846SOL     OW23173   1.866   3.984  12.839 -0.1999 -0.2292 -0.2493
 3846SOL    HW123174   1.796   3.992  12.774 -0.2130 -1.7754 -0.4256
 3846SOL    HW223175   1.944   3.958  12.790  1.7842  2.9734  1.2061
 3847SOL     OW23176   2.391   0.299  10.645 -0.1720 -0.3817  0.1271
 3847SOL    HW123177   2.482   0.285  10.671  0.3005 -0.2777 -1.5018
 3847SOL    HW223178   2.400   0.287  10.551  0.5742  2.0170 -0.1242
 3848SOL     OW23179   2.336   2.367   4.853 -0.0134  0.1180  0.5242
 3848SOL    HW123180   2.282   2.309   4.908  0.6095 -0.6882  0.2864
 3848SOL    HW223181   2.271   2.417   4.804 -0.8779  0.3566  1.8872
 3849SOL     OW23182   0.736   1.546   8.126  0.3834 -0.0722 -0.2512
 3849SOL    HW123183   0.654   1.555   8.077  0.3588  1.0777  0.0151
 3849SOL    HW223184   0.709   1.540   8.218  0.0074 -1.2310 -0.4361
 3850SOL     OW23185   0.539   2.684  16.109  0.4358 -0.4227  0.3490
 3850SOL    HW123186   0.623   2.639  16.114 -0.4689 -2.1068  0.3351
 3850SOL    HW223187   0.516   2.645  16.025  0.3087 -0.0881  0.2311
 3851SOL     OW23188   3.211   0.829   2.676  0.6036 -0.8606  0.2164
 3851SOL    HW123189   3.125   0.812   2.638  0.9382 -2.1458  0.0469
 3851SOL    HW223190   3.246   0.896   2.617 -0.5494  0.0628  0.5839
 3852SOL     OW23191   1.915   2.939   9.363  0.1623  0.1531  0.5501
 3852SOL    HW123192   1.888   2.937   9.271  1.2575  1.4880  0.2109
 3852SOL    HW223193   1.834   2.929   9.414  0.0232 -1.2369  0.0676
 3853SOL     OW23194   1.146   2.135   4.751  0.0736 -0.0806 -0.1640
 3853SOL    HW123195   1.212   2.163   4.814  1.8447 -0.5955 -1.7871
 3853SOL    HW223196   1.190   2.158   4.669  0.0278 -0.7960 -0.3865
 3854SOL     OW23197   2.825   0.155   5.138 -0.5348  0.0674 -0.3670
 3854SOL    HW123198   2.844   0.179   5.048 -0.1190  1.4148  0.0845
 3854SOL    HW223199   2.910   0.163   5.181 -0.6273 -0.9580  0.0109
 3855SOL     OW23200   2.935   1.279   2.921 -0.1182 -0.1028  0.3940
 3855SOL    HW123201   2.895   1.265   2.835  0.8183 -0.4901  0.0194
 3855SOL    HW223202   2.888   1.214   2.973 -0.4368 -1.0141 -1.0304
 3856SOL     OW23203   0.228   0.282   9.128 -0.0328  0.2862  1.3952
 3856SOL    HW123204   0.138   0.293   9.098  0.6202  0.0020 -0.7127
 3856SOL    HW223205   0.240   0.189   9.109 -0.2040  0.9223 -1.8325
 3857SOL     OW23206   2.041   3.827   1.541  0.3717  0.3035 -0.1716
 3857SOL    HW123207   1.988   3.774   1.482  0.0656  0.7861 -0.3290
 3857SOL    HW223208   2.083   3.874   1.469  0.3617 -1.1346 -1.1034
 3858SOL     OW23209   0.557   1.434   6.552 -0.1279 -0.3640  0.6157
 3858SOL    HW123210   0.581   1.415   6.643 -1.5638  0.3670  1.1622
 3858SOL    HW223211   0.570   1.525   6.526  2.1011 -0.1548  2.4540
 3859SOL     OW23212   4.526   3.978   1.964  0.4622  0.4073 -0.0113
 3859SOL    HW123213   4.534   3.973   2.059  1.4954 -0.2341 -0.1196
 3859SOL    HW223214   4.463   4.048   1.950  0.2741 -0.7785 -5.0837
 3860SOL     OW23215   2.239   4.091   0.768 -0.0725  0.2962  0.7188
 3860SOL    HW123216   2.235   4.187   0.768 -1.2616  0.2400  0.1380
 3860SOL    HW223217   2.258   4.077   0.675  1.9743 -0.4403  1.2361
 3861SOL     OW23218   0.596   1.493   5.117  0.2465 -0.1159 -0.3581
 3861SOL    HW123219   0.649   1.414   5.119  0.3945 -0.0302 -0.8340
 3861SOL    HW223220   0.540   1.467   5.044 -0.2962 -1.8407  0.6904
 3862SOL     OW23221   3.089   2.070  14.577 -0.5678  0.3395  0.4487
 3862SOL    HW123222   3.097   2.023  14.659 -3.0701  1.9738  1.6338
 3862SOL    HW223223   3.106   2.160  14.605 -2.1341  0.9435 -0.5274
 3863SOL     OW23224   0.630   0.324   5.091  0.0464 -0.4492 -0.1558
 3863SOL    HW123225   0.691   0.254   5.067  1.2750  0.2693  0.8593
 3863SOL    HW223226   0.553   0.275   5.118  0.5856 -0.6171  1.0958
 3864SOL     OW23227   2.128   3.713   7.986  0.1359  0.1694 -0.0598
 3864SOL    HW123228   2.043   3.695   7.946  0.5360 -0.0473 -0.8199
 3864SOL    HW223229   2.141   3.806   7.967  1.0533 -0.6858 -3.5758
 3865SOL     OW23230   4.602   1.315   1.476 -0.1660 -0.2386 -0.5251
 3865SOL    HW123231   4.653   1.341   1.553 -0.0371  1.1164 -1.0716
 3865SOL    HW223232   4.569   1.400   1.446  0.2861 -0.5411 -1.8701
 3866SOL     OW23233   3.727   3.353   3.963 -0.2222 -0.3513  0.2581
 3866SOL    HW123234   3.699   3.428   4.016  0.9244  0.3444 -0.1440
 3866SOL    HW223235   3.654   3.297   3.992 -0.8319  0.3806  0.1580
 3867SOL     OW23236   3.969   4.312  15.478 -0.3408 -0.2302 -0.0747
 3867SOL    HW123237   3.941   4.289  15.567 -3.0015 -0.6430 -1.0241
 3867SOL    HW223238   4.063   4.292  15.475 -0.5447 -1.0917 -0.8760
 3868SOL     OW23239   0.904   4.608   7.786  0.0013  0.2805  0.9004
 3868SOL    HW123240   0.865   4.695   7.775 -0.8289 -0.2932 -0.6481
 3868SOL    HW223241   0.995   4.638   7.779 -0.5536  2.0645  1.1742
 3869SOL     OW23242   0.726   4.490   6.323  0.4741 -0.2394  0.0735
 3869SOL    HW123243   0.634   4.509   6.303 -0.3538 -1.8910  2.3213
 3869SOL    HW223244   0.768   4.497   6.237  0.5625 -0.8826  0.0640
 3870SOL     OW23245   3.876   3.768   1.650 -0.5397  0.6356 -0.3310
 3870SOL    HW123246   3.952   3.825   1.638  1.0530 -1.8937 -2.2223
 3870SOL    HW223247   3.908   3.712   1.722 -1.0991 -0.0953 -0.6553
 3871SOL     OW23248   0.234   3.267   9.105 -0.8350  0.3288  0.4136
 3871SOL    HW123249   0.208   3.185   9.064  0.8932  0.0494 -0.1534
 3871SOL    HW223250   0.317   3.279   9.058 -1.4103 -1.5616 -1.0854
 3872SOL     OW23251   1.222   1.994   6.668  0.1451  0.1366  0.3733
 3872SOL    HW123252   1.229   2.085   6.696 -0.4834  0.6158 -1.0371
 3872SOL    HW223253   1.159   1.956   6.730  0.3775 -0.2548  0.3708
 3873SOL     OW23254   1.438   2.517  16.118 -0.1145  0.2628 -0.0806
 3873SOL    HW123255   1.374   2.530  16.048 -0.3158 -2.4416 -0.4312
 3873SOL    HW223256   1.450   2.422  16.110 -0.7156  0.2071 -0.3416
 3874SOL     OW23257   3.521   0.147  14.021 -0.0017  0.0686  0.3936
 3874SOL    HW123258   3.562   0.078  13.970 -0.7293  0.2070 -0.3778
 3874SOL    HW223259   3.436   0.137  13.979 -0.1504 -2.4831  1.3285
 3875SOL     OW23260   3.557   2.451   9.495 -0.3153 -0.2310 -0.4198
 3875SOL    HW123261   3.645   2.467   9.527 -0.4721 -0.4494  0.1099
 3875SOL    HW223262   3.538   2.515   9.426  0.5424  1.0345  0.5233
 3876SOL     OW23263   4.231   2.149   7.115  0.0281 -0.5206  0.1131
 3876SOL    HW123264   4.217   2.128   7.207  1.6471 -1.5611  0.1244
 3876SOL    HW223265   4.296   2.083   7.089  1.0542  0.6775 -0.3834
 3877SOL     OW23266   2.580   2.777  17.470 -0.4379  0.4417  0.4036
 3877SOL    HW123267   2.551   2.732  17.391 -0.7541  1.1024  0.1373
 3877SOL    HW223268   2.495   2.806  17.505 -1.0902  0.3529 -1.1118
 3878SOL     OW23269   4.120   0.622   2.339  0.3509 -0.4238  0.3963
 3878SOL    HW123270   4.206   0.596   2.371  0.1737 -0.8057  0.5612
 3878SOL    HW223271   4.071   0.640   2.420  0.4803  2.7055 -0.1988
 3879SOL     OW23272   0.297   1.053   8.081 -0.0108 -0.2852  0.3228
 3879SOL    HW123273   0.364   1.122   8.079 -0.3219  0.0206  0.6318
 3879SOL    HW223274   0.315   1.002   8.001 -3.7994  0.1990 -0.8375
 3880SOL     OW23275   3.645   1.997   2.007 -0.2784 -0.1666  0.1921
 3880SOL    HW123276   3.655   2.087   1.978  0.7320 -0.9224 -1.7918
 3880SOL    HW223277   3.599   2.013   2.090  1.0361  0.8498  0.7145
 3881SOL     OW23278   0.443   2.111   7.673  0.2167 -0.4114 -0.5868
 3881SOL    HW123279   0.405   2.067   7.596 -0.3395 -1.1866  0.1367
 3881SOL    HW223280   0.442   2.040   7.737 -1.7382 -1.8164 -2.1720
 3882SOL     OW23281   1.662   1.343   6.024  0.0485  0.1875 -0.6956
 3882SOL    HW123282   1.726   1.404   6.061  1.6753 -2.2645  0.5731
 3882SOL    HW223283   1.583   1.397   6.032  1.4693  1.9129  1.7107
 3883SOL     OW23284   4.614   2.446   3.473  0.4965  0.3179  0.1280
 3883SOL    HW123285   4.689   2.441   3.415 -0.2040 -1.1028 -0.6477
 3883SOL    HW223286   4.617   2.538   3.501 -2.1101  0.6158 -0.5350
 3884SOL     OW23287   0.635   3.521   5.970  0.2165  0.6049  0.6386
 3884SOL    HW123288   0.589   3.598   5.935  0.2139  0.6365  0.7121
 3884SOL    HW223289   0.727   3.544   5.956  0.5151 -1.0324  0.0061
 3885SOL     OW23290   2.572   1.301   2.407 -0.4961 -0.3632  0.6007
 3885SOL    HW123291   2.487   1.336   2.381  0.3040  0.5589 -0.7517
 3885SOL    HW223292   2.570   1.354   2.487  1.6362  1.2768 -0.4345
 3886SOL     OW23293   4.289   3.054   0.186  0.1853 -0.0745  0.5166
 3886SOL    HW123294   4.289   3.129   0.126  0.0134  2.4690  3.7255
 3886SOL    HW223295   4.370   3.068   0.234 -0.8518 -2.1544  2.8782
 3887SOL     OW23296   0.469   3.027   0.457  0.0375 -0.3560 -0.3192
 3887SOL    HW123297   0.497   3.085   0.386 -1.3090  0.1275 -0.4480
 3887SOL    HW223298   0.514   3.061   0.534 -0.1894 -1.4846  0.3041
 3888SOL     OW23299   0.950   1.449   7.376  0.3934  0.6585  0.5615
 3888SOL    HW123300   0.978   1.370   7.330 -1.9774 -0.9894  1.9730
 3888SOL    HW223301   0.854   1.444   7.381  0.3360 -1.6337 -2.2005
 3889SOL     OW23302   0.015   3.950   1.338 -0.1911  0.5205 -0.0804
 3889SOL    HW123303   4.707   4.001   1.402 -1.7811  0.0982 -0.9989
 3889SOL    HW223304   0.051   3.885   1.399 -0.5432  1.2694  0.9305
 3890SOL     OW23305   2.793   4.340  17.606  0.3973  0.5331  0.0443
 3890SOL    HW123306   2.735   4.369  17.535 -0.6823 -0.8853  0.3477
 3890SOL    HW223307   2.762   4.392  17.679  1.9219  1.2678  0.1769
 3891SOL     OW23308   1.473   2.440  11.592 -0.0514 -0.2585 -0.7189
 3891SOL    HW123309   1.564   2.452  11.621 -0.1469  1.9057 -1.2976
 3891SOL    HW223310   1.419   2.481  11.659 -0.0615 -1.0888 -0.2148
 3892SOL     OW23311   1.309   1.020  13.489  0.6488  0.4205 -0.3463
 3892SOL    HW123312   1.312   1.111  13.518  1.9075  0.1684  0.2871
 3892SOL    HW223313   1.380   1.013  13.426  1.7074 -1.9360  1.1320
 3893SOL     OW23314   4.468   0.482   3.505 -0.2707 -0.4749 -0.1760
 3893SOL    HW123315   4.481   0.515   3.417 -0.1940  1.7398  0.6647
 3893SOL    HW223316   4.530   0.410   3.496  0.8150  0.7403 -2.3084
 3894SOL     OW23317   0.011   3.134   6.157 -0.1194  0.4162  0.0497
 3894SOL    HW123318   0.097   3.100   6.179 -0.3185  0.8469  1.4815
 3894SOL    HW223319   4.734   3.100   6.069 -0.5551 -0.4870  0.4916
 3895SOL     OW23320   4.243   2.072   7.969 -0.2625 -0.2201 -0.1052
 3895SOL    HW123321   4.248   2.029   8.055  1.5554  0.0742 -0.0685
 3895SOL    HW223322   4.314   2.137   7.973 -0.1114 -0.1526 -4.6811
 3896SOL     OW23323   3.863   2.925   5.061 -0.2479  0.5737 -0.1514
 3896SOL    HW123324   3.907   2.842   5.078 -0.8194  0.4782  0.8329
 3896SOL    HW223325   3.776   2.887   5.060  0.7720 -1.7756 -0.3879
 3897SOL     OW23326   3.480   1.728   4.887 -0.4909  0.1521 -0.4835
 3897SOL    HW123327   3.406   1.713   4.945  0.7958 -0.1275  1.0964
 3897SOL    HW223328   3.464   1.657   4.825  0.7118 -0.6644  0.1263
 3898SOL     OW23329   2.741   1.115   9.800  0.2493  0.1381  0.3527
 3898SOL    HW123330   2.783   1.028   9.800 -0.0332 -0.0000  1.6283
 3898SOL    HW223331   2.818   1.168   9.819  0.6620 -0.9836  1.8483
 3899SOL     OW23332   1.903   2.662  11.666 -0.0579  0.3509 -0.1525
 3899SOL    HW123333   1.913   2.679  11.572 -0.4812  0.6522 -0.1413
 3899SOL    HW223334   1.994   2.658  11.696  0.3233 -1.2686 -1.5116
 3900SOL     OW23335   0.231   3.246  11.157 -0.0708  0.3026 -0.2094
 3900SOL    HW123336   0.295   3.304  11.116 -0.9529 -0.2158 -2.3638
 3900SOL    HW223337   0.263   3.163  11.123  1.4254  0.7299  0.1594
 3901SOL     OW23338   0.038   1.642  17.748 -0.0200 -0.6648 -0.3628
 3901SOL    HW123339   0.035   1.723  17.697 -0.1937  0.0695  0.7998
 3901SOL    HW223340   0.018   1.685   0.065 -1.9511 -0.4071 -0.9581
 3902SOL     OW23341   1.322   0.747   3.247  0.3317 -0.3611 -0.1133
 3902SOL    HW123342   1.319   0.822   3.306  0.9203 -0.4075 -0.0255
 3902SOL    HW223343   1.291   0.778   3.162 -1.3373  1.6185  1.2264
 3903SOL     OW23344   2.682   0.699   1.220  0.5675 -0.2473 -0.2762
 3903SOL    HW123345   2.649   0.639   1.153  0.1406 -0.0063 -0.2807
 3903SOL    HW223346   2.606   0.755   1.229  1.8220  1.6704 -1.8041
 3904SOL     OW23347   1.421   1.799  16.413  0.6982 -0.2580  0.1492
 3904SOL    HW123348   1.473   1.721  16.432 -1.2194 -1.9088 -1.3483
 3904SOL    HW223349   1.357   1.761  16.352 -0.0782  0.7664  0.3460
 3905SOL     OW23350   3.644   2.795  11.600 -0.1693  0.4396 -0.2758
 3905SOL    HW123351   3.697   2.721  11.569 -0.8387 -0.0116 -0.3585
 3905SOL    HW223352   3.708   2.866  11.599 -2.2889  2.2883 -2.1208
 3906SOL     OW23353   1.674   1.288   0.610  0.0316  0.5559  0.4694
 3906SOL    HW123354   1.664   1.267   0.518  0.6975  2.3825 -0.0257
 3906SOL    HW223355   1.744   1.227   0.629 -0.1837  0.2630  0.3152
 3907SOL     OW23356   0.896   2.190   3.787  0.0933  0.5006 -0.6955
 3907SOL    HW123357   0.985   2.170   3.816 -0.0247 -1.1096 -1.3953
 3907SOL    HW223358   0.896   2.181   3.691 -0.5164 -0.4530 -0.6133
 3908SOL     OW23359   1.653   4.099   2.949 -0.0782 -0.2066 -0.1797
 3908SOL    HW123360   1.570   4.114   2.995 -0.2675 -0.4373 -0.4501
 3908SOL    HW223361   1.671   4.180   2.902  0.1766  1.3186  2.5287
 3909SOL     OW23362   0.638   2.021  13.392  0.2398  0.6916  0.1188
 3909SOL    HW123363   0.584   2.006  13.314 -0.9109 -0.7578  1.2063
 3909SOL    HW223364   0.570   2.019  13.459 -0.5524  0.1474 -0.6858
 3910SOL     OW23365   0.034   0.661   6.666 -0.3785  0.3171 -0.2546
 3910SOL    HW123366   0.084   0.690   6.742  1.1929  0.8404 -1.4750
 3910SOL    HW223367   0.081   0.583   6.637 -1.3303 -0.7740  1.1679
 3911SOL     OW23368   3.892   0.561  10.900 -0.3221 -0.0138  0.0507
 3911SOL    HW123369   3.967   0.620  10.903 -1.3627  1.3442 -0.3406
 3911SOL    HW223370   3.883   0.554  10.805 -0.2435  0.8017 -0.0241
 3912SOL     OW23371   1.074   2.444   8.841 -0.2711 -0.8376  0.4725
 3912SOL    HW123372   1.164   2.413   8.856  0.6653  0.6056 -2.2523
 3912SOL    HW223373   1.023   2.363   8.837 -3.0606  0.9028  0.8827
 3913SOL     OW23374   1.233   1.399  14.864  0.3893 -0.3584 -0.3517
 3913SOL    HW123375   1.184   1.331  14.818 -1.0393 -0.0449  0.6819
 3913SOL    HW223376   1.322   1.387  14.832  0.3384  0.8588 -0.9466
 3914SOL     OW23377   2.109   2.898   3.208  0.2719 -0.1272 -0.6583
 3914SOL    HW123378   2.092   2.850   3.288 -0.7083  0.9945 -0.1908
 3914SOL    HW223379   2.191   2.943   3.229 -0.9844  0.5885  2.5875
 3915SOL     OW23380   0.499   1.650   7.555 -0.4404 -0.2557  0.2839
 3915SOL    HW123381   0.536   1.718   7.610 -1.2012  1.3497 -1.1972
 3915SOL    HW223382   0.452   1.600   7.622 -0.5962  0.5328  0.7676
 3916SOL     OW23383   3.330   3.018  15.261  0.2095  0.0355  0.0420
 3916SOL    HW123384   3.412   3.026  15.211  0.8783 -2.4598  0.7008
 3916SOL    HW223385   3.258   3.023  15.198  0.6714 -0.2937 -0.5192
 3917SOL     OW23386   3.977   2.598   6.468 -0.1056 -0.3209 -0.4265
 3917SOL    HW123387   4.027   2.644   6.400 -0.3889 -0.5000 -0.7590
 3917SOL    HW223388   3.935   2.678   6.500  0.6807 -0.7497  1.6883
 3918SOL     OW23389   4.737   1.481   7.728 -0.4207  0.1359 -0.2729
 3918SOL    HW123390   0.023   1.440   7.810 -1.0204 -0.5972 -0.4324
 3918SOL    HW223391   4.662   1.427   7.705 -0.8947  0.9545 -0.6309
 3919SOL     OW23392   0.945   2.826   0.713 -0.2120 -0.5828 -0.3312
 3919SOL    HW123393   0.954   2.907   0.664 -1.3953  0.4171  1.0618
 3919SOL    HW223394   0.849   2.818   0.711 -0.2292 -1.0995  1.6861
 3920SOL     OW23395   1.027   3.508   8.718 -0.0790  0.0535  0.5375
 3920SOL    HW123396   1.038   3.525   8.624 -1.9643 -1.4120  0.0534
 3920SOL    HW223397   0.933   3.490   8.721  0.0973 -0.6238  1.7374
 3921SOL     OW23398   0.534   0.274   3.644  0.5717 -0.0904 -0.2740
 3921SOL    HW123399   0.483   0.193   3.642 -0.0130  0.2400  0.8101
 3921SOL    HW223400   0.571   0.272   3.556  0.5993  2.8332 -0.3270
 3922SOL     OW23401   3.900   3.213   4.586  0.5822  0.3647  0.4135
 3922SOL    HW123402   3.996   3.210   4.583  0.5077 -1.1984 -0.3270
 3922SOL    HW223403   3.876   3.185   4.498  0.6507  0.7625  0.2653
 3923SOL     OW23404   2.762   1.310   5.281  0.0262  0.3732  0.0401
 3923SOL    HW123405   2.781   1.218   5.264  0.4934  0.4276  0.2750
 3923SOL    HW223406   2.730   1.300   5.371 -0.0678  1.6760  0.1449
 3924SOL     OW23407   2.813   1.739   6.261 -0.2908  0.6081 -0.0601
 3924SOL    HW123408   2.888   1.694   6.222  0.6089  1.2413  0.9505
 3924SOL    HW223409   2.773   1.677   6.321  0.8736 -1.4917 -1.4352
 3925SOL     OW23410   4.442   4.056   7.666  0.7810  0.3167 -0.5672
 3925SOL    HW123411   4.522   4.055   7.718 -0.2957 -0.2108  1.1057
 3925SOL    HW223412   4.405   4.143   7.677  0.8013  0.2815 -0.2290
 3926SOL     OW23413   0.593   2.078   7.054 -0.3009 -0.4337  0.0542
 3926SOL    HW123414   0.499   2.069   7.066 -0.5615  1.7633 -0.2405
 3926SOL    HW223415   0.592   2.031   6.971  3.4846 -1.0204  0.2981
 3927SOL     OW23416   3.849   0.835  10.717  0.2581 -0.3579 -0.2115
 3927SOL    HW123417   3.838   0.747  10.682  0.7040 -0.5876  0.2163
 3927SOL    HW223418   3.756   0.844  10.738 -0.2510 -3.1266 -1.2805
 3928SOL     OW23419   3.363   3.792   6.884 -0.1348  0.2998  0.4094
 3928SOL    HW123420   3.384   3.886   6.880 -0.2298  0.3800  1.8095
 3928SOL    HW223421   3.452   3.756   6.880 -1.2331 -2.2964 -0.3790
 3929SOL     OW23422   0.505   4.272   7.547 -0.0939 -0.3985  0.1407
 3929SOL    HW123423   0.527   4.365   7.554  1.5593 -0.7888  0.1770
 3929SOL    HW223424   0.585   4.242   7.504  0.2979 -0.2263  0.7454
 3930SOL     OW23425   0.175   1.930  13.121 -0.3053 -0.4176 -0.1043
 3930SOL    HW123426   0.247   1.991  13.112 -0.8210  0.3765  1.1580
 3930SOL    HW223427   0.110   1.989  13.083  0.5982  1.2248  0.9328
 3931SOL     OW23428   2.316   0.093   7.933 -0.6199 -0.2375  0.3821
 3931SOL    HW123429   2.271   0.172   7.903  0.3410  0.9740  2.1479
 3931SOL    HW223430   2.334   0.055   7.846  0.6994 -1.0707  1.0233
 3932SOL     OW23431   0.000   4.692  16.105  0.1642 -0.3679  0.0057
 3932SOL    HW123432   0.074   4.671  16.048 -1.1659  0.3024 -1.9359
 3932SOL    HW223433   0.035   0.002  16.177 -0.8461 -0.7605  0.7890
 3933SOL     OW23434   0.030   4.165   3.074  0.4742  0.0546 -0.4637
 3933SOL    HW123435   4.692   4.201   3.113 -0.0515 -0.7933 -0.7543
 3933SOL    HW223436   0.006   4.132   2.988 -2.6773 -0.1113  0.4623
 3934SOL     OW23437   0.676   0.947  13.971 -0.2116 -0.2396 -0.3451
 3934SOL    HW123438   0.689   1.014  13.905 -0.6874 -0.2175 -0.4102
 3934SOL    HW223439   0.754   0.957  14.027 -0.1808  1.4235 -0.7044
 3935SOL     OW23440   4.030   0.560  15.950  0.3204 -0.0727  0.3039
 3935SOL    HW123441   4.100   0.495  15.949  2.0958  1.8216  1.5035
 3935SOL    HW223442   4.079   0.636  15.921  0.5956 -1.0777 -1.8778
 3936SOL     OW23443   3.041   4.131   1.941 -0.2629  0.0968 -0.0180
 3936SOL    HW123444   3.061   4.044   1.904  0.0631  0.1533  0.0257
 3936SOL    HW223445   2.957   4.125   1.986  0.0054 -0.6881  0.3785
 3937SOL     OW23446   1.042   1.663   8.933 -0.3497 -0.4155  0.5785
 3937SOL    HW123447   1.024   1.746   8.978  0.7391  0.2771 -0.2715
 3937SOL    HW223448   1.117   1.694   8.882  0.0518 -1.0638  0.7708
 3938SOL     OW23449   2.482   4.268   0.940  0.4851  0.6761  0.3244
 3938SOL    HW123450   2.557   4.286   0.883  0.9829 -0.9495  0.4550
 3938SOL    HW223451   2.400   4.287   0.895 -0.0305 -0.9403  0.5857
 3939SOL     OW23452   0.337   3.055   8.754 -0.2049 -0.0773 -0.9078
 3939SOL    HW123453   0.417   3.016   8.717  1.6060  0.1951  2.7564
 3939SOL    HW223454   0.358   3.148   8.762 -2.3156  0.1429  1.7562
 3940SOL     OW23455   4.118   0.874   5.923 -0.1294  0.0358 -0.1674
 3940SOL    HW123456   4.053   0.936   5.957  0.6726  0.8796 -0.1616
 3940SOL    HW223457   4.171   0.872   6.003 -0.8943 -0.5373  0.3279
 3941SOL     OW23458   1.852   1.653   9.032 -0.2828  0.6284 -0.7044
 3941SOL    HW123459   1.831   1.643   9.124  1.1916  1.1674 -0.3031
 3941SOL    HW223460   1.942   1.620   9.027 -0.2886  0.2657  2.0805
 3942SOL     OW23461   0.128   2.436   5.381  0.6541 -0.3956 -0.3364
 3942SOL    HW123462   0.068   2.363   5.368 -0.5347  0.2779  1.3358
 3942SOL    HW223463   0.198   2.398   5.434  1.2273 -0.3600 -1.0781
 3943SOL     OW23464   3.059   4.227   1.518  0.0516  0.3534  0.1259
 3943SOL    HW123465   3.129   4.219   1.583 -0.2940 -0.5570  0.3816
 3943SOL    HW223466   2.999   4.287   1.561 -1.0397 -1.1597  0.6974
 3944SOL     OW23467   1.884   4.683   2.267  0.2608 -0.7700 -0.0904
 3944SOL    HW123468   1.913   4.690   2.359 -3.2066 -0.1803  0.9375
 3944SOL    HW223469   1.813   4.619   2.268  0.1936 -0.6814  0.7921
 3945SOL     OW23470   1.149   0.108   9.898  0.5911  0.0142  0.3349
 3945SOL    HW123471   1.102   0.188   9.922 -2.2942 -1.6293  0.2701
 3945SOL    HW223472   1.176   0.072   9.983  0.8019 -0.7717 -0.0628
 3946SOL     OW23473   3.353   0.544   3.357  0.4444 -0.1762  0.6136
 3946SOL    HW123474   3.379   0.507   3.442  0.6025  0.3249  0.7807
 3946SOL    HW223475   3.419   0.497   3.305  0.5413  0.5848  0.0523
 3947SOL     OW23476   1.757   2.273   8.847  0.3909 -0.1560  0.1965
 3947SOL    HW123477   1.683   2.220   8.876  1.2699 -0.9421  1.0049
 3947SOL    HW223478   1.726   2.360   8.871  1.8226  0.0607  1.2603
 3948SOL     OW23479   4.064   1.507   8.386 -0.0502  0.1736 -0.1948
 3948SOL    HW123480   4.148   1.519   8.431 -0.4515  1.0442  0.3042
 3948SOL    HW223481   4.004   1.495   8.460 -2.2476 -0.7113 -2.1432
 3949SOL     OW23482   1.906   3.423  12.791  0.5938 -0.6625  0.2068
 3949SOL    HW123483   1.878   3.406  12.701 -0.5833  1.5325  0.1540
 3949SOL    HW223484   1.901   3.518  12.785 -0.8022 -0.9493 -3.5258
 3950SOL     OW23485   4.719   2.644   6.161 -0.8093 -0.3324 -0.6864
 3950SOL    HW123486   0.045   2.578   6.147 -1.1795 -0.8648  0.0318
 3950SOL    HW223487   4.637   2.605   6.132  0.3686 -1.5098 -2.5118
 3951SOL     OW23488   2.827   1.872   5.416  0.2058  0.2145 -0.0404
 3951SOL    HW123489   2.909   1.845   5.375 -3.1339 -1.0965 -6.0000
 3951SOL    HW223490   2.802   1.792   5.462  0.5105  0.5121  0.6457
 3952SOL     OW23491   0.871   0.688  15.339  0.4096 -0.5412 -0.2236
 3952SOL    HW123492   0.936   0.730  15.396  0.2278  1.7279 -1.6947
 3952SOL    HW223493   0.866   0.597  15.369 -1.3475 -0.3395  0.0483
 3953SOL     OW23494   1.504   2.671   7.717  0.1180 -0.0743 -0.0463
 3953SOL    HW123495   1.565   2.625   7.776  0.0834 -0.9102 -0.6620
 3953SOL    HW223496   1.425   2.653   7.767  1.4541  1.0173  2.5068
 3954SOL     OW23497   2.361   2.599  13.889 -0.7613 -0.5916  0.0027
 3954SOL    HW123498   2.313   2.634  13.964 -1.9142  1.8565 -1.8935
 3954SOL    HW223499   2.354   2.681  13.841  0.0758 -1.1604 -1.0825
 3955SOL     OW23500   3.857   3.344   1.191 -0.0590 -0.4305  0.2667
 3955SOL    HW123501   3.921   3.340   1.121  0.0150 -1.1341  0.3741
 3955SOL    HW223502   3.852   3.253   1.219 -1.2435 -0.5942 -0.4851
 3956SOL     OW23503   3.551   4.679   2.393  0.1228  0.4752  0.0091
 3956SOL    HW123504   3.639   4.710   2.418  0.4073 -1.0301  0.8257
 3956SOL    HW223505   3.545   4.709   2.302  0.9327 -1.9896 -0.8540
 3957SOL     OW23506   0.914   3.115   4.884 -0.9659 -0.3036 -0.0141
 3957SOL    HW123507   0.942   3.027   4.860 -0.2710  0.4759 -2.0764
 3957SOL    HW223508   1.000   3.153   4.866 -1.4849 -0.7924 -3.6033
 3958SOL     OW23509   3.907   2.709  11.538  0.3149 -1.0890 -0.5787
 3958SOL    HW123510   3.954   2.686  11.618  1.1652 -1.0386 -1.0629
 3958SOL    HW223511   3.975   2.713  11.470  1.3498 -1.5048  0.4185
 3959SOL     OW23512   0.491   2.732   3.180 -0.3624 -0.5917  0.2660
 3959SOL    HW123513   0.508   2.826   3.168  0.4412 -0.7018  0.5222
 3959SOL    HW223514   0.551   2.720   3.254  0.2455  1.1303  0.0434
 3960SOL     OW23515   1.390   3.007   7.681 -0.2549  0.0143 -0.1488
 3960SOL    HW123516   1.477   2.975   7.658  0.0202  0.7535 -0.1429
 3960SOL    HW223517   1.375   3.073   7.612  0.3993  0.7991  0.4559
 3961SOL     OW23518   0.418   4.039   3.020 -0.1982  0.1345  0.5095
 3961SOL    HW123519   0.360   4.040   2.944  2.2178 -0.0594 -1.3577
 3961SOL    HW223520   0.480   4.105   2.989  0.7091 -0.8107  0.2928
 3962SOL     OW23521   3.215   0.355  14.859 -0.0478  0.3794  0.4397
 3962SOL    HW123522   3.123   0.369  14.840  0.3285  1.1841 -0.7986
 3962SOL    HW223523   3.215   0.410  14.937  1.0984  1.4752 -0.3457
 3963SOL     OW23524   0.621   2.555   5.272  0.4809 -0.0070 -0.1771
 3963SOL    HW123525   0.531   2.587   5.265  0.7490  0.6149 -0.7706
 3963SOL    HW223526   0.609   2.478   5.216 -0.0942 -0.8902  1.1723
 3964SOL     OW23527   3.697   4.649  11.116 -0.3075 -0.7715  0.2323
 3964SOL    HW123528   3.762   4.686  11.175  0.7071 -1.5941 -0.3708
 3964SOL    HW223529   3.622   4.639  11.175 -0.9457  0.8535 -0.3022
 3965SOL     OW23530   1.447   1.541   4.343 -0.2780  0.6843 -1.0168
 3965SOL    HW123531   1.472   1.628   4.310  0.8560 -0.1745 -2.3993
 3965SOL    HW223532   1.505   1.533   4.419 -0.0160  2.7240 -0.9783
 3966SOL     OW23533   4.200   3.212  13.210  0.2451  0.3174 -0.0650
 3966SOL    HW123534   4.223   3.139  13.267  0.0105 -0.7188 -1.2869
 3966SOL    HW223535   4.129   3.257  13.255  0.8706  1.8112 -0.5748
 3967SOL     OW23536   2.174   3.280   4.847 -0.2408 -0.7820  0.2111
 3967SOL    HW123537   2.129   3.362   4.866  0.7111 -0.8615  2.8706
 3967SOL    HW223538   2.267   3.294   4.867 -0.1235 -2.0637  0.5379
 3968SOL     OW23539   4.146   4.290   7.018 -0.1456  0.1232 -0.1897
 3968SOL    HW123540   4.077   4.350   6.991 -1.3849 -0.4691  1.7130
 3968SOL    HW223541   4.168   4.243   6.937  0.9191  1.7757 -0.8693
 3969SOL     OW23542   1.739   2.975   0.442 -0.3932 -0.1348  0.0102
 3969SOL    HW123543   1.796   3.037   0.396 -0.2502  0.5680  1.1309
 3969SOL    HW223544   1.785   2.924   0.508 -0.7504  2.4845  2.2826
 3970SOL     OW23545   4.612   4.507   3.608 -0.2034 -0.0262  0.0653
 3970SOL    HW123546   4.569   4.553   3.536 -0.4110  2.0924  1.5410
 3970SOL    HW223547   4.554   4.527   3.682 -1.0652 -1.0063 -0.3483
 3971SOL     OW23548   0.747   4.129   2.076 -0.0781 -0.2457 -0.3852
 3971SOL    HW123549   0.766   4.204   2.131  0.7755 -1.2005  0.6367
 3971SOL    HW223550   0.827   4.135   2.024 -0.0016 -1.3684 -0.4096
 3972SOL     OW23551   1.593   3.066   1.039 -0.0977  0.3966 -0.3542
 3972SOL    HW123552   1.634   3.132   0.982  0.7478  0.9877  0.9388
 3972SOL    HW223553   1.525   3.022   0.988 -1.1877 -0.8796  2.2508
 3973SOL     OW23554   2.463   1.255   4.860  0.6173 -0.3403 -0.3097
 3973SOL    HW123555   2.453   1.211   4.945  0.5052 -0.3059 -0.3052
 3973SOL    HW223556   2.487   1.342   4.892  0.4409 -0.4689  0.1835
 3974SOL     OW23557   2.225   3.122   4.055 -0.4570 -0.5299  0.1725
 3974SOL    HW123558   2.315   3.113   4.087 -0.3127  1.0187  0.2311
 3974SOL    HW223559   2.212   3.037   4.013 -0.7938  0.4894 -1.7521
 3975SOL     OW23560   4.172   2.336   8.671 -0.0356  0.1325 -0.2200
 3975SOL    HW123561   4.221   2.254   8.681 -1.4412 -0.6421  0.2118
 3975SOL    HW223562   4.082   2.306   8.678  0.4561 -1.1026  0.9443
 3976SOL     OW23563   1.437   3.899  14.762 -0.3990  0.2483  0.1828
 3976SOL    HW123564   1.401   3.924  14.677  1.5947 -1.1658 -1.0803
 3976SOL    HW223565   1.436   3.804  14.755 -1.2493  0.2209  0.7721
 3977SOL     OW23566   2.431   4.146   7.415  0.0732  0.3380  0.4981
 3977SOL    HW123567   2.361   4.188   7.365  2.6299  1.9054 -1.7220
 3977SOL    HW223568   2.501   4.119   7.356  0.4120 -0.0953  1.1032
 3978SOL     OW23569   2.727   3.478   3.050  0.2389  0.3391  0.3083
 3978SOL    HW123570   2.784   3.410   3.015 -0.2814 -0.9944  2.0728
 3978SOL    HW223571   2.768   3.551   3.003  1.1878 -1.3765 -1.4988
 3979SOL     OW23572   2.096   1.592   6.264 -0.5833 -0.1178  0.3643
 3979SOL    HW123573   2.176   1.630   6.300 -1.7505  1.0054  1.7631
 3979SOL    HW223574   2.036   1.666   6.274  0.0764  0.3275  1.0380
 3980SOL     OW23575   2.385   0.161   2.706 -0.6205 -0.2964  0.5661
 3980SOL    HW123576   2.325   0.223   2.665 -2.0359 -0.4949  2.3496
 3980SOL    HW223577   2.434   0.125   2.632 -0.4613  0.7911  0.1463
 3981SOL     OW23578   3.519   2.154   7.880 -0.1523  0.7366  0.6671
 3981SOL    HW123579   3.528   2.163   7.975  1.4931  0.8957  0.5016
 3981SOL    HW223580   3.507   2.059   7.880 -1.1871  0.8838 -0.8478
 3982SOL     OW23581   4.630   3.211   0.607  0.2497 -0.0603  0.7012
 3982SOL    HW123582   4.687   3.233   0.533 -0.6110 -0.2513 -0.0234
 3982SOL    HW223583   4.551   3.177   0.565  0.5230 -0.1066  0.2205
 3983SOL     OW23584   1.830   2.890   4.822  0.0796  0.2899 -0.1393
 3983SOL    HW123585   1.789   2.954   4.764 -0.4070 -0.1296 -0.2587
 3983SOL    HW223586   1.908   2.935   4.853  0.9260 -1.3054  0.0571
 3984SOL     OW23587   1.186   0.288  12.541 -0.0465 -0.4598 -0.0315
 3984SOL    HW123588   1.226   0.220  12.597  0.0945  0.3544  0.8684
 3984SOL    HW223589   1.255   0.321  12.483 -0.3035  0.4569  0.1879
 3985SOL     OW23590   2.397   4.452  11.238  0.4425 -0.1559  0.8742
 3985SOL    HW123591   2.339   4.440  11.314 -0.1767  1.5184  0.6729
 3985SOL    HW223592   2.436   4.534  11.270  0.9844 -0.3669  0.7489
 3986SOL     OW23593   0.782   3.630   2.045 -0.0335 -0.3116  0.0257
 3986SOL    HW123594   0.729   3.710   2.049 -2.3950 -1.8966  0.8080
 3986SOL    HW223595   0.777   3.613   1.950  1.0459 -2.5222  0.3678
 3987SOL     OW23596   1.749   1.406   3.556  0.1946 -0.2619 -0.8634
 3987SOL    HW123597   1.726   1.478   3.497 -0.5128 -0.5121 -0.9002
 3987SOL    HW223598   1.817   1.369   3.500 -0.8808 -2.2829 -0.8467
 3988SOL     OW23599   3.643   2.816   4.087 -0.0280  0.4523  0.1683
 3988SOL    HW123600   3.640   2.729   4.128 -0.7512  0.4175  0.0485
 3988SOL    HW223601   3.559   2.826   4.041 -1.0036  0.9167  2.0365
 3989SOL     OW23602   3.273   3.271   9.941 -0.0487 -0.4176  0.4681
 3989SOL    HW123603   3.229   3.187   9.936  0.4455 -0.6556 -0.0049
 3989SOL    HW223604   3.255   3.285  10.033  1.9955 -2.7928  1.2270
 3990SOL     OW23605   3.340   3.637   0.397 -0.2648 -0.1359  0.5788
 3990SOL    HW123606   3.373   3.670   0.481  1.1177 -1.3362  0.5038
 3990SOL    HW223607   3.340   3.716   0.342 -0.7005 -1.8235 -1.8190
 3991SOL     OW23608   4.339   2.871   6.956  0.1526  0.5123 -0.2462
 3991SOL    HW123609   4.389   2.858   7.037  0.9568 -1.8020 -1.1107
 3991SOL    HW223610   4.250   2.847   6.983  1.0159  0.4377  2.6038
 3992SOL     OW23611   1.007   2.353   2.139  0.5289  0.3966 -0.3989
 3992SOL    HW123612   0.968   2.440   2.139 -0.9067 -0.2564 -0.1982
 3992SOL    HW223613   1.046   2.346   2.226 -1.1823  1.2226  0.4274
 3993SOL     OW23614   3.531   0.535   8.227 -0.3656 -0.4600  0.0292
 3993SOL    HW123615   3.492   0.506   8.310 -0.8370 -1.9499 -0.7119
 3993SOL    HW223616   3.490   0.477   8.163  1.4899 -2.6438  0.8164
 3994SOL     OW23617   3.284   1.801  12.315  0.2464 -0.1711  0.3358
 3994SOL    HW123618   3.344   1.768  12.247 -0.0246  0.9388 -0.4476
 3994SOL    HW223619   3.339   1.819  12.390  0.6466  0.4992 -0.1218
 3995SOL     OW23620   4.090   2.547   7.422 -0.4690 -1.2788  0.3813
 3995SOL    HW123621   4.067   2.473   7.366  3.6337  0.4821 -3.6736
 3995SOL    HW223622   4.018   2.552   7.484  0.2793 -2.5528  1.3623
 3996SOL     OW23623   2.354   2.228   8.735 -0.2900  0.4323 -0.3290
 3996SOL    HW123624   2.429   2.227   8.794  1.4375 -0.4410 -2.5505
 3996SOL    HW223625   2.321   2.316   8.747 -0.2555  0.9393 -4.1552
 3997SOL     OW23626   2.863   0.181   8.642 -0.1718 -0.6630 -0.1006
 3997SOL    HW123627   2.770   0.165   8.627 -0.4919 -0.0263  1.2016
 3997SOL    HW223628   2.853   0.249   8.709 -0.6238 -0.6793 -0.1515
 3998SOL     OW23629   1.055   0.146   9.180  0.4670  0.3679  0.3662
 3998SOL    HW123630   1.065   0.107   9.267 -0.6887  1.3712  0.9392
 3998SOL    HW223631   0.959   0.156   9.181  0.5806  1.3267  1.5193
 3999SOL     OW23632   2.750   2.400   4.043 -0.0707 -0.0075  0.0428
 3999SOL    HW123633   2.765   2.463   4.113  2.4874 -1.0361  0.4320
 3999SOL    HW223634   2.836   2.360   4.026  0.0830  0.2649  0.1832
 4000SOL     OW23635   3.054   3.476  10.096 -0.0714 -0.0302 -0.0726
 4000SOL    HW123636   3.057   3.434  10.182  0.2445  0.1100 -0.0159
 4000SOL    HW223637   2.975   3.528  10.113 -0.7240 -0.7521 -0.8380
 4001SOL     OW23638   4.194   0.695   2.843 -0.0390 -0.0490 -0.2040
 4001SOL    HW123639   4.208   0.768   2.782 -1.4183 -0.8352 -1.4660
 4001SOL    HW223640   4.102   0.669   2.846  0.4202 -1.8443 -1.4125
 4002SOL     OW23641   0.116   3.935   0.857 -0.6969  0.1179 -0.4654
 4002SOL    HW123642   0.107   3.844   0.887  0.9354 -0.8701 -3.0036
 4002SOL    HW223643   0.106   3.980   0.941  0.5816 -0.7603  0.1589
 4003SOL     OW23644   3.723   4.083   3.483 -0.3222 -0.1403 -0.3192
 4003SOL    HW123645   3.742   3.990   3.478  0.1550 -0.0654  0.2031
 4003SOL    HW223646   3.751   4.100   3.393  0.3651  0.8437  0.0736
 4004SOL     OW23647   1.801   0.636   2.769 -0.2954 -0.3746 -0.4814
 4004SOL    HW123648   1.853   0.582   2.828 -0.3479  1.8588  1.6001
 4004SOL    HW223649   1.852   0.619   2.690 -0.9454  0.3620 -1.0659
 4005SOL     OW23650   3.495   3.212   2.227 -0.0501 -0.3432  0.0003
 4005SOL    HW123651   3.414   3.253   2.194 -0.7625 -0.6005  1.4212
 4005SOL    HW223652   3.494   3.247   2.316 -1.2792  1.9485 -0.8801
 4006SOL     OW23653   0.242   2.475   6.578 -0.3331  0.3089  0.0998
 4006SOL    HW123654   0.152   2.504   6.564 -0.9031 -1.4709  0.0895
 4006SOL    HW223655   0.285   2.553   6.613  1.5962 -0.8997  0.4241
 4007SOL     OW23656   2.505   2.207   4.262  0.4309  0.4496 -0.2677
 4007SOL    HW123657   2.466   2.172   4.342  1.0106 -0.3789 -0.3570
 4007SOL    HW223658   2.599   2.202   4.277  0.2809 -0.3930  0.3595
 4008SOL     OW23659   0.179   2.550   4.736 -0.4799  0.1003  0.0652
 4008SOL    HW123660   0.124   2.478   4.768 -0.2928  0.1723  0.5599
 4008SOL    HW223661   0.119   2.624   4.749 -1.6270 -0.9337  0.5885
 4009SOL     OW23662   2.613   0.705   6.654  0.0843 -0.3331  0.1079
 4009SOL    HW123663   2.635   0.637   6.717 -1.0563 -0.3331  0.5042
 4009SOL    HW223664   2.533   0.664   6.621 -0.9384  3.0861 -1.6911
 4010SOL     OW23665   4.730   3.244   3.765 -0.2113  0.2332  0.1365
 4010SOL    HW123666   0.023   3.330   3.788  3.1731 -1.3672  0.9441
 4010SOL    HW223667   4.651   3.233   3.818 -1.1003 -0.3794 -1.3188
 4011SOL     OW23668   1.046   2.296  11.960  0.5798 -0.0356 -0.0848
 4011SOL    HW123669   1.057   2.216  12.011  1.2932  0.1617  0.0742
 4011SOL    HW223670   1.087   2.357  12.022  0.8267  1.0463 -1.3018
 4012SOL     OW23671   3.460   3.281  17.713 -0.0669 -0.1349 -0.2201
 4012SOL    HW123672   3.417   3.216   0.002  1.2236 -0.6607  0.1862
 4012SOL    HW223673   3.518   3.321   0.012  0.4106 -4.9029  2.2300
 4013SOL     OW23674   3.200   3.614   1.907 -0.7647  0.3559  0.4870
 4013SOL    HW123675   3.151   3.696   1.897  0.6835  0.6133 -4.5293
 4013SOL    HW223676   3.134   3.546   1.898  0.1898 -0.4301 -0.5943
 4014SOL     OW23677   1.723   2.690   4.200 -0.4858 -0.2227 -0.2036
 4014SOL    HW123678   1.777   2.613   4.185  0.3001  0.1516  0.6602
 4014SOL    HW223679   1.785   2.762   4.188 -0.7770 -0.1138 -1.0299
 4015SOL     OW23680   1.572   2.576  12.754  0.3054 -0.2329  0.4166
 4015SOL    HW123681   1.532   2.654  12.716 -1.0542 -1.0634  0.1428
 4015SOL    HW223682   1.659   2.603  12.785  0.5004 -1.3119  0.8103
 4016SOL     OW23683   2.277   3.441  11.407  1.3899 -0.3713  0.1861
 4016SOL    HW123684   2.227   3.485  11.476 -0.8002 -0.7211 -1.1752
 4016SOL    HW223685   2.207   3.441  11.342  0.1399 -0.1769  1.5410
 4017SOL     OW23686   3.292   0.663   8.033 -0.2174 -0.0355  0.2532
 4017SOL    HW123687   3.335   0.691   8.114 -3.7216 -0.2448  2.1485
 4017SOL    HW223688   3.227   0.596   8.053 -1.1940  0.5191 -1.0675
 4018SOL     OW23689   3.386   1.786   2.745 -0.6697  0.1346  0.3756
 4018SOL    HW123690   3.300   1.827   2.739 -1.7085 -2.0120  0.7337
 4018SOL    HW223691   3.361   1.697   2.766  0.0765  0.0161  0.7564
 4019SOL     OW23692   4.029   2.358   7.137 -0.6296  0.6702  0.0404
 4019SOL    HW123693   4.077   2.300   7.077 -0.5579  0.5444  0.2209
 4019SOL    HW223694   4.048   2.313   7.219 -1.2476  2.9675  1.4418
 4020SOL     OW23695   0.828   3.255   5.600 -0.2764  0.3365  0.1895
 4020SOL    HW123696   0.837   3.201   5.521  0.2296  1.4839 -0.5514
 4020SOL    HW223697   0.740   3.291   5.590  0.2352  0.6054 -3.5968
 4021SOL     OW23698   4.608   1.640  10.839 -0.8201 -0.1125 -0.4360
 4021SOL    HW123699   4.563   1.684  10.767  0.3403  0.8964 -0.5518
 4021SOL    HW223700   4.677   1.590  10.797 -0.0960 -0.5282  1.2352
 4022SOL     OW23701   3.133   0.951   0.789 -0.1887  0.1411 -0.1046
 4022SOL    HW123702   3.055   0.942   0.733  0.9928  0.0835 -1.7490
 4022SOL    HW223703   3.121   1.042   0.817  0.0266  0.6105 -1.5386
 4023SOL     OW23704   2.339   2.954   4.343  0.5856  0.6318  0.9789
 4023SOL    HW123705   2.264   2.896   4.356  0.4925  0.2968 -1.1107
 4023SOL    HW223706   2.407   2.904   4.388  0.4251  0.4974  1.0765
 4024SOL     OW23707   4.403   2.699   8.070 -0.2401 -0.5366  0.2528
 4024SOL    HW123708   4.319   2.701   8.025 -0.7677 -2.7251  1.1248
 4024SOL    HW223709   4.406   2.611   8.108 -0.7176 -0.2326  0.9989
 4025SOL     OW23710   2.848   1.666   8.334 -0.0134 -0.5422  0.2057
 4025SOL    HW123711   2.894   1.730   8.389  0.2879  1.2454 -2.1093
 4025SOL    HW223712   2.881   1.584   8.370  0.2723 -0.3604  0.3662
 4026SOL     OW23713   0.123   2.367  11.144 -0.0069  0.1311 -0.3622
 4026SOL    HW123714   0.186   2.296  11.131  1.4358  1.1136  1.2647
 4026SOL    HW223715   0.059   2.316  11.192  2.5850 -2.4770  0.3044
 4027SOL     OW23716   4.083   1.763   4.653 -0.1821 -0.0695  0.1235
 4027SOL    HW123717   4.173   1.747   4.624 -0.9099  0.4697 -2.5122
 4027SOL    HW223718   4.078   1.733   4.743  0.7818  0.5846  0.3927
 4028SOL     OW23719   1.696   4.710   4.004 -0.6546  0.3734  0.3220
 4028SOL    HW123720   1.741   0.051   4.019 -1.1600  1.2246 -2.8684
 4028SOL    HW223721   1.725   4.684   3.917  1.2968  2.4899  0.3389
 4029SOL     OW23722   1.480   1.274  13.582  0.4184 -0.0331  0.5293
 4029SOL    HW123723   1.423   1.319  13.519 -0.0868  1.3484  1.9757
 4029SOL    HW223724   1.532   1.345  13.621  2.1641 -0.9806 -0.0777
 4030SOL     OW23725   0.899   2.018   5.721  0.0937 -0.2582 -0.1541
 4030SOL    HW123726   0.972   2.016   5.661 -1.6800 -0.0229 -2.3279
 4030SOL    HW223727   0.877   2.111   5.726  0.6022 -0.1629  0.2196
 4031SOL     OW23728   0.072   4.532   7.619 -0.1702 -0.2065  0.0998
 4031SOL    HW123729   0.119   4.474   7.679  0.8683  0.7025  0.1703
 4031SOL    HW223730   0.137   4.550   7.552  1.3672  0.7746  1.8610
 4032SOL     OW23731   0.239   4.710  14.310  0.1395 -0.1384  0.3702
 4032SOL    HW123732   0.153   4.673  14.290  0.4183 -0.3491 -0.4498
 4032SOL    HW223733   0.229   0.060  14.284  1.6459 -0.3144 -0.8594
 4033SOL     OW23734   3.681   1.082  12.605  0.4653  0.0338 -0.1834
 4033SOL    HW123735   3.755   1.023  12.616  0.5569 -0.2647 -2.5752
 4033SOL    HW223736   3.620   1.031  12.552 -0.8671 -0.0592  1.4203
 4034SOL     OW23737   3.260   1.348  10.952  0.2528 -0.0875 -0.0250
 4034SOL    HW123738   3.219   1.404  10.886 -1.4458 -0.5668  0.6352
 4034SOL    HW223739   3.181   1.309  10.989 -0.5048 -0.3936 -1.9866
 4035SOL     OW23740   3.821   4.719   6.243  0.0514 -0.0658 -0.9017
 4035SOL    HW123741   3.787   0.050   6.295  1.6330  0.8218 -1.1315
 4035SOL    HW223742   3.916   4.729   6.244 -0.0946  1.2313 -1.0890
 4036SOL     OW23743   2.839   3.816   1.385  0.2485 -0.1685  0.2527
 4036SOL    HW123744   2.768   3.807   1.449 -0.1839 -1.7819 -0.4527
 4036SOL    HW223745   2.884   3.889   1.428 -0.0736  0.8577 -1.1285
 4037SOL     OW23746   1.384   0.492  17.351 -0.2233  0.4522 -0.3306
 4037SOL    HW123747   1.415   0.476  17.440 -0.2587  0.5888 -0.2930
 4037SOL    HW223748   1.460   0.458  17.303  0.7290  1.1143  0.7077
 4038SOL     OW23749   0.751   0.796  10.946 -0.3727 -0.2698 -0.2176
 4038SOL    HW123750   0.769   0.865  10.882 -0.9723  0.0409 -0.0606
 4038SOL    HW223751   0.830   0.744  10.937  0.0718  0.4036 -0.2223
 4039SOL     OW23752   4.253   4.145   5.579  0.3003  0.5045 -0.5570
 4039SOL    HW123753   4.208   4.113   5.501 -0.0999 -2.9654  1.1074
 4039SOL    HW223754   4.317   4.204   5.539  0.7647  0.4474  0.0845
 4040SOL     OW23755   3.501   4.133   9.070 -0.1806 -0.2192  0.0885
 4040SOL    HW123756   3.441   4.087   9.129 -0.8957  0.2928 -0.2462
 4040SOL    HW223757   3.566   4.171   9.129  1.0608  0.2209 -1.5605
 4041SOL     OW23758   4.339   2.991  17.274 -0.3033  0.5787  0.1818
 4041SOL    HW123759   4.263   2.952  17.231  0.8825 -0.9457 -0.5156
 4041SOL    HW223760   4.344   3.064  17.212  2.0549 -1.6600 -2.2237
 4042SOL     OW23761   0.959   0.865   7.916  0.2028  0.0471  0.1399
 4042SOL    HW123762   1.007   0.806   7.975 -1.4297 -0.7770  0.6289
 4042SOL    HW223763   0.930   0.795   7.858  1.5139 -0.8153  0.5212
 4043SOL     OW23764   3.259   4.600   6.678 -0.4756  0.4154 -0.0680
 4043SOL    HW123765   3.229   4.642   6.597 -1.0971  1.0993  0.5211
 4043SOL    HW223766   3.342   4.557   6.655 -0.4306  0.6926 -0.4117
 4044SOL     OW23767   3.619   3.790   6.124  0.9190 -0.4768 -0.0793
 4044SOL    HW123768   3.562   3.845   6.070  0.6920  0.8181  1.4664
 4044SOL    HW223769   3.615   3.825   6.213  2.3079 -0.0372 -0.1904
 4045SOL     OW23770   4.212   4.241  16.340  0.1480 -0.5721  0.5190
 4045SOL    HW123771   4.211   4.153  16.377 -0.9474 -0.6876  0.1987
 4045SOL    HW223772   4.292   4.280  16.376  0.5666 -0.6001 -0.3875
 4046SOL     OW23773   3.180   4.555   3.994  0.0939  0.2885 -0.1410
 4046SOL    HW123774   3.160   4.466   3.964 -3.4313  0.5264  1.4720
 4046SOL    HW223775   3.205   4.604   3.916 -0.7502 -1.7316 -1.6963
 4047SOL     OW23776   2.954   3.273   1.298 -0.3958 -0.3439  0.3469
 4047SOL    HW123777   2.927   3.191   1.338 -0.1275 -0.2045  0.8149
 4047SOL    HW223778   2.891   3.336   1.333 -2.4932 -2.6154  0.6032
 4048SOL     OW23779   1.546   1.898   4.903 -0.2929 -0.2938 -0.5451
 4048SOL    HW123780   1.465   1.926   4.862  0.4867  0.8506 -1.2879
 4048SOL    HW223781   1.591   1.857   4.828  1.6245  0.6443  0.1014
 4049SOL     OW23782   2.492   0.985   4.221 -0.6093 -0.1107 -0.3113
 4049SOL    HW123783   2.566   0.959   4.276 -1.1498  3.2428  2.0161
 4049SOL    HW223784   2.469   1.069   4.261 -0.3040 -0.2655  0.1822
 4050SOL     OW23785   3.047   3.373  14.240  0.4713  0.5130  0.6415
 4050SOL    HW123786   3.025   3.430  14.165 -0.7072 -1.1395 -0.2675
 4050SOL    HW223787   3.081   3.297  14.193  1.9281  1.1263  0.7217
 4051SOL     OW23788   4.306   4.680   2.591  0.0555 -0.1598 -0.7912
 4051SOL    HW123789   4.344   4.703   2.676 -1.0408  1.1852 -0.6612
 4051SOL    HW223790   4.380   4.711   2.538 -0.3851 -0.6986 -1.7212
 4052SOL     OW23791   4.519   2.290   7.457  0.4533 -0.2647  0.5700
 4052SOL    HW123792   4.487   2.355   7.520 -0.3807 -1.9296  1.8742
 4052SOL    HW223793   4.451   2.224   7.465 -0.5089  0.5137 -1.2273
 4053SOL     OW23794   3.724   2.874   1.645  0.1781 -0.2866  0.1935
 4053SOL    HW123795   3.769   2.789   1.644  0.3324 -0.2016 -0.5809
 4053SOL    HW223796   3.792   2.939   1.662 -2.1461  1.9532  0.8373
 4054SOL     OW23797   3.105   0.972   7.430  0.3302 -0.6915  0.0396
 4054SOL    HW123798   3.109   0.876   7.422  0.8834 -0.7783  1.4355
 4054SOL    HW223799   3.082   0.989   7.521 -0.4568 -0.3903 -0.2079
 4055SOL     OW23800   1.694   4.330  16.960 -0.0193  0.0833 -0.3762
 4055SOL    HW123801   1.611   4.303  16.919  0.9102 -2.6739 -0.4388
 4055SOL    HW223802   1.764   4.295  16.905  1.3073  1.3099  0.5248
 4056SOL     OW23803   3.761   1.747   7.431  0.7284  0.0929  0.1693
 4056SOL    HW123804   3.764   1.718   7.340 -1.8988  0.9445 -0.1656
 4056SOL    HW223805   3.842   1.707   7.463 -0.1294  0.0331  2.2615
 4057SOL     OW23806   2.011   2.769   1.962  0.1472 -0.1064 -0.2328
 4057SOL    HW123807   1.970   2.745   2.044  1.2176  0.4024  0.4503
 4057SOL    HW223808   1.954   2.840   1.933  1.8441  1.4855  0.3298
 4058SOL     OW23809   3.395   3.310  14.814 -0.2838  0.1698  0.5204
 4058SOL    HW123810   3.313   3.357  14.801  0.5462  0.8501 -2.1251
 4058SOL    HW223811   3.405   3.309  14.910 -0.8803 -1.6346  0.5754
 4059SOL     OW23812   2.560   4.701  11.383  0.0798  0.3401  0.1472
 4059SOL    HW123813   2.610   4.652  11.448  0.3335  1.8721  1.1087
 4059SOL    HW223814   2.514   0.022  11.437 -0.6026  1.7448 -2.1062
 4060SOL     OW23815   0.465   4.619  14.410  0.7087  0.5786  0.5878
 4060SOL    HW123816   0.378   4.641  14.375  1.6858  1.3228 -1.3606
 4060SOL    HW223817   0.450   4.633  14.503 -2.9303  2.3634 -0.2539
 4061SOL     OW23818   0.784   2.973  11.770 -0.4730 -0.5564  0.2820
 4061SOL    HW123819   0.692   2.997  11.760 -0.3031 -0.9012 -2.1833
 4061SOL    HW223820   0.825   3.014  11.693 -1.6271 -1.0808 -0.6074
 4062SOL     OW23821   3.232   3.575  13.857  0.2104  0.0630 -0.3119
 4062SOL    HW123822   3.222   3.487  13.821 -0.7269 -0.9607  2.4993
 4062SOL    HW223823   3.328   3.572  13.860  0.1555 -0.3142  0.8300
 4063SOL     OW23824   1.578   0.519   6.811 -0.6215  0.3549  0.0608
 4063SOL    HW123825   1.609   0.435   6.776  2.5194  1.1946  0.8227
 4063SOL    HW223826   1.534   0.546   6.730  0.9277 -0.1024 -0.9430
 4064SOL     OW23827   3.908   4.517   5.246 -0.0599 -0.0497 -0.4239
 4064SOL    HW123828   3.852   4.509   5.323  1.6493  1.3517  0.9615
 4064SOL    HW223829   3.975   4.579   5.276 -0.1961 -0.3602  0.5085
 4065SOL     OW23830   3.261   2.444   5.776  1.1887 -0.0837 -0.2755
 4065SOL    HW123831   3.209   2.511   5.821  0.0882 -2.1864  1.5597
 4065SOL    HW223832   3.254   2.466   5.682 -0.0975 -1.7832 -0.5724
 4066SOL     OW23833   2.346   1.843  10.791 -0.2004  0.3678  0.1199
 4066SOL    HW123834   2.254   1.824  10.775 -0.2118  1.1511 -0.7429
 4066SOL    HW223835   2.342   1.828  10.885 -0.7878 -0.7988 -0.0979
 4067SOL     OW23836   2.194   1.302  13.566  0.1920 -0.3646 -0.1981
 4067SOL    HW123837   2.283   1.281  13.596  0.3724  0.0987 -0.4037
 4067SOL    HW223838   2.195   1.271  13.476  2.5238 -0.0574 -0.2793
 4068SOL     OW23839   1.530   3.299   8.656  0.3696  0.3411  0.1813
 4068SOL    HW123840   1.470   3.368   8.681  0.5028 -0.1336  1.7925
 4068SOL    HW223841   1.621   3.329   8.656 -0.3492  2.4682  1.2618
 4069SOL     OW23842   4.104   4.499   5.720  0.4090  0.5759 -0.1336
 4069SOL    HW123843   4.181   4.499   5.662 -2.4330 -4.1135 -3.8895
 4069SOL    HW223844   4.046   4.562   5.677  0.5238  0.8452  0.1022
 4070SOL     OW23845   1.128   2.684   7.154  0.1737  0.7704 -0.1168
 4070SOL    HW123846   1.174   2.766   7.137 -0.0802  1.2554  1.4957
 4070SOL    HW223847   1.201   2.629   7.181 -1.1055 -0.7372  0.2642
 4071SOL     OW23848   4.433   3.120  10.231 -0.0856  0.2901  0.1482
 4071SOL    HW123849   4.460   3.140  10.320 -2.6015  2.2776  0.4551
 4071SOL    HW223850   4.471   3.199  10.192  1.3770 -0.2624  0.4463
 4072SOL     OW23851   2.503   1.508   2.597  0.0720 -0.1135  0.0035
 4072SOL    HW123852   2.449   1.583   2.621 -0.9600 -0.8631  0.0216
 4072SOL    HW223853   2.582   1.529   2.647 -1.2431  0.2909  1.9300
 4073SOL     OW23854   1.433   4.256  16.828 -0.4798  0.3502  0.2458
 4073SOL    HW123855   1.427   4.203  16.907  0.6368 -0.1951 -0.0363
 4073SOL    HW223856   1.346   4.294  16.836  0.0423  1.9320 -1.4043
 4074SOL     OW23857   1.721   0.675  10.838 -0.3578  0.2376 -0.3536
 4074SOL    HW123858   1.723   0.579  10.839 -0.9984  0.2419  1.2458
 4074SOL    HW223859   1.772   0.684  10.757 -0.3002  3.0167 -0.0040
 4075SOL     OW23860   1.321   3.622   5.623  0.3881  0.1421  0.6353
 4075SOL    HW123861   1.307   3.617   5.717 -2.5722 -0.7438  0.1344
 4075SOL    HW223862   1.390   3.558   5.606 -0.2312 -0.3777  0.0850
 4076SOL     OW23863   0.413   3.962   5.386 -0.3771  0.5163  0.3065
 4076SOL    HW123864   0.459   3.944   5.468 -1.3768 -1.0589  0.5137
 4076SOL    HW223865   0.477   4.016   5.339 -1.6336  1.1760 -0.6700
 4077SOL     OW23866   2.847   2.969   4.393  0.1576 -0.1383 -0.3770
 4077SOL    HW123867   2.846   2.922   4.310  2.4192  0.0359 -0.5124
 4077SOL    HW223868   2.769   3.023   4.392  1.3228  1.6062  1.7587
 4078SOL     OW23869   3.115   4.718  15.273  0.1136  0.0170  0.2164
 4078SOL    HW123870   3.040   4.673  15.235  0.7790  1.1307 -2.4317
 4078SOL    HW223871   3.195   4.669  15.252 -0.2425  0.3493 -1.9163
 4079SOL     OW23872   1.771   0.035  15.506  0.3793 -0.6582  0.1904
 4079SOL    HW123873   1.759   0.128  15.524  0.1114 -1.3035  3.3106
 4079SOL    HW223874   1.695   0.018  15.562 -0.9038  0.7364 -1.1159
 4080SOL     OW23875   4.549   4.021   0.973 -0.2038 -0.7970 -0.1517
 4080SOL    HW123876   4.600   4.072   1.036 -0.3988 -0.7613 -0.0213
 4080SOL    HW223877   4.595   4.052   0.895  1.3656  0.9397  1.4694
 4081SOL     OW23878   3.333   0.378  17.700  0.2170  0.2120  0.4277
 4081SOL    HW123879   3.339   0.433   0.012  0.1802 -0.0854  0.6401
 4081SOL    HW223880   3.326   0.440  17.628  1.0666 -1.5347 -1.1503
 4082SOL     OW23881   4.524   1.366   7.157  0.9911  0.4493  0.2772
 4082SOL    HW123882   4.457   1.386   7.222 -0.2894 -0.5146 -0.7309
 4082SOL    HW223883   4.490   1.281   7.130  0.6761 -0.0536  2.3046
 4083SOL     OW23884   2.636   2.076   9.233  0.5059  0.0529 -0.5238
 4083SOL    HW123885   2.680   2.155   9.265 -0.4005  0.7696 -1.0570
 4083SOL    HW223886   2.571   2.117   9.175 -1.3159 -0.2589  1.2825
 4084SOL     OW23887   3.892   4.321   7.981  0.4659  0.5798  0.0657
 4084SOL    HW123888   3.896   4.413   7.954  0.0623  0.7624  0.6447
 4084SOL    HW223889   3.921   4.318   8.072  3.1475  1.3252 -0.7485
 4085SOL     OW23890   3.559   3.212   7.959 -0.2327  0.7606 -0.9439
 4085SOL    HW123891   3.556   3.255   7.874  0.4360 -0.1197 -1.4119
 4085SOL    HW223892   3.496   3.267   8.006  0.9683  0.3643  1.1440
 4086SOL     OW23893   0.352   2.954  12.019 -0.2098  0.3301  0.0090
 4086SOL    HW123894   0.309   3.028  11.976 -0.5271  0.7086  0.9638
 4086SOL    HW223895   0.273   2.921  12.060  0.4683 -0.5965  0.5690
 4087SOL     OW23896   4.092   2.566   2.692 -0.1417 -0.2735 -0.1636
 4087SOL    HW123897   4.171   2.612   2.722 -0.5193  0.7598 -0.7509
 4087SOL    HW223898   4.059   2.523   2.770  1.2733 -0.4064  0.3633
 4088SOL     OW23899   3.007   0.136   7.457 -0.3479  0.4926  0.1427
 4088SOL    HW123900   2.996   0.231   7.448 -2.6318  0.1634 -0.4697
 4088SOL    HW223901   3.069   0.127   7.384  1.0841  0.6343  1.3510
 4089SOL     OW23902   3.765   4.644   4.406  0.4368  0.2187  0.4817
 4089SOL    HW123903   3.854   4.609   4.406  0.4010  0.1533 -0.7242
 4089SOL    HW223904   3.786   4.734   4.381 -0.2117  0.0250 -0.7450
 4090SOL     OW23905   2.404   1.858  10.183 -0.1518 -0.2951 -0.2872
 4090SOL    HW123906   2.354   1.805  10.244 -0.7470 -0.4563 -0.9275
 4090SOL    HW223907   2.350   1.937  10.177 -0.6004 -0.3858  2.2637
 4091SOL     OW23908   3.254   3.823   7.976 -0.4204 -0.0417  0.4452
 4091SOL    HW123909   3.181   3.873   8.013 -1.3604 -0.7765 -0.4070
 4091SOL    HW223910   3.216   3.738   7.996 -1.9983  0.7103  0.6473
 4092SOL     OW23911   1.420   4.666   6.512 -1.0061 -0.2416  0.3326
 4092SOL    HW123912   1.349   4.708   6.463  0.0229 -0.3400 -1.2552
 4092SOL    HW223913   1.455   4.729   6.575 -0.0368 -0.3301 -0.1243
 4093SOL     OW23914   1.404   2.253   5.622 -0.7698 -0.9049  0.3159
 4093SOL    HW123915   1.497   2.253   5.646 -0.8965  0.5575  0.8135
 4093SOL    HW223916   1.392   2.163   5.592 -1.3382 -0.8553  0.4016
 4094SOL     OW23917   0.824   1.623   4.358  0.7356 -0.1482 -0.1835
 4094SOL    HW123918   0.887   1.604   4.289 -0.3272 -1.5818 -0.7632
 4094SOL    HW223919   0.752   1.653   4.301  1.4121 -1.2302 -1.6195
 4095SOL     OW23920   2.599   0.434   5.614 -0.2377  0.1727  0.2334
 4095SOL    HW123921   2.523   0.390   5.576  0.0256 -0.3651  0.3378
 4095SOL    HW223922   2.594   0.529   5.602 -1.5550 -0.0866 -1.1987
 4096SOL     OW23923   1.776   0.130   1.424 -0.2754 -0.4275  0.0948
 4096SOL    HW123924   1.785   0.144   1.518  1.4849 -2.6423  0.2557
 4096SOL    HW223925   1.779   0.218   1.386  1.3012 -0.5110  0.0234
 4097SOL     OW23926   1.722   0.988   6.814  0.1219 -0.6918  0.1517
 4097SOL    HW123927   1.662   0.959   6.746 -1.7392 -0.1650  1.5857
 4097SOL    HW223928   1.660   0.995   6.887  1.0024  2.3296  0.5824
 4098SOL     OW23929   2.700   4.215   3.797 -0.1209  0.2934  0.0108
 4098SOL    HW123930   2.713   4.120   3.801  1.6368  0.5872  1.1817
 4098SOL    HW223931   2.676   4.219   3.704  0.4787 -1.0423 -0.2054
 4099SOL     OW23932   2.097   2.918  13.795  0.2897  0.0169  0.2457
 4099SOL    HW123933   2.061   2.953  13.714 -3.9571 -1.0828  1.6322
 4099SOL    HW223934   2.192   2.923  13.783  0.7308 -2.0287  2.6774
 4100SOL     OW23935   4.650   4.393   3.945 -0.1394  0.0243  0.0308
 4100SOL    HW123936   4.568   4.425   3.908 -0.7790  0.4473  1.8282
 4100SOL    HW223937   4.692   4.478   3.960 -0.3498 -0.1767  1.7073
 4101SOL     OW23938   2.537   0.599  10.480  0.4534 -0.0323 -0.1035
 4101SOL    HW123939   2.483   0.645  10.416  0.7984  0.3330 -0.1313
 4101SOL    HW223940   2.508   0.508  10.475 -0.6326  0.2431  1.2423
 4102SOL     OW23941   3.101   1.621  11.994 -0.3411 -0.6535  0.6767
 4102SOL    HW123942   3.045   1.679  12.045  0.1563  3.7773 -3.9427
 4102SOL    HW223943   3.071   1.644  11.907  1.0234 -1.6018 -0.0573
 4103SOL     OW23944   2.129   2.580  16.278  0.2453 -0.5393  0.4810
 4103SOL    HW123945   2.209   2.623  16.306  0.0258 -0.9367  1.7275
 4103SOL    HW223946   2.130   2.497  16.326 -1.6228  0.8037  2.8503
 4104SOL     OW23947   0.256   1.650   0.439 -0.2243 -0.3288 -0.4662
 4104SOL    HW123948   0.229   1.639   0.530  0.3223  0.4892 -0.2062
 4104SOL    HW223949   0.350   1.663   0.456 -0.1261  1.3699 -2.3437
 4105SOL     OW23950   2.041   2.476   8.069  0.2920  0.6554  0.0030
 4105SOL    HW123951   2.092   2.450   8.145  1.2283 -1.2553 -1.2797
 4105SOL    HW223952   2.065   2.568   8.056  0.7488  0.3404 -1.3679
 4106SOL     OW23953   0.400   3.110   4.406  0.6181  0.1411 -0.0665
 4106SOL    HW123954   0.457   3.133   4.479 -0.9029 -0.5662  1.3358
 4106SOL    HW223955   0.325   3.168   4.417  1.1774  0.5538  1.5870
 4107SOL     OW23956   0.439   0.394   4.015 -0.6540 -1.0036  0.2740
 4107SOL    HW123957   0.425   0.476   4.064 -0.1460 -1.6641  1.5203
 4107SOL    HW223958   0.422   0.336   4.089 -0.3750 -1.6839 -0.1925
 4108SOL     OW23959   1.372   4.222  16.545  0.0719  0.1345 -0.2347
 4108SOL    HW123960   1.449   4.184  16.503  1.1598 -1.2247  2.9770
 4108SOL    HW223961   1.389   4.210  16.638 -1.1658 -0.1313 -0.0398
 4109SOL     OW23962   2.449   1.376   1.303 -0.3609 -0.4221 -0.0202
 4109SOL    HW123963   2.447   1.452   1.245 -1.0849 -0.9430 -0.6714
 4109SOL    HW223964   2.544   1.361   1.305 -0.3804 -0.4948  0.6183
 4110SOL     OW23965   0.201   2.936   2.597  0.0981 -0.3914  0.2505
 4110SOL    HW123966   0.247   2.932   2.681  2.1898 -0.2076 -0.8655
 4110SOL    HW223967   0.226   3.027   2.581 -1.9694 -0.0969 -1.1908
 4111SOL     OW23968   2.235   0.951  14.275 -0.7721 -0.3353 -0.0205
 4111SOL    HW123969   2.227   0.879  14.212  1.0465  1.5693 -2.4020
 4111SOL    HW223970   2.276   1.026  14.232 -0.9199 -0.4294 -0.3213
 4112SOL     OW23971   3.653   0.478   6.982  0.3882 -0.2405  0.5865
 4112SOL    HW123972   3.695   0.513   7.061  2.2858 -2.3952  0.5544
 4112SOL    HW223973   3.719   0.502   6.917 -0.1332  0.4423  0.3196
 4113SOL     OW23974   1.038   3.029   7.634 -0.3106  0.7685  0.5505
 4113SOL    HW123975   1.081   3.110   7.661 -1.9024  1.0424  2.2338
 4113SOL    HW223976   1.014   2.993   7.719 -1.4198  2.2953  0.8949
 4114SOL     OW23977   0.432   1.771   6.106 -0.2785 -0.1522  0.2598
 4114SOL    HW123978   0.457   1.777   6.198 -3.0071  1.2292  0.8877
 4114SOL    HW223979   0.349   1.817   6.105  1.2933  2.7184  2.2047
 4115SOL     OW23980   3.729   0.608   8.595 -0.0351  0.0195 -0.2322
 4115SOL    HW123981   3.779   0.659   8.531  0.5819  0.8198  0.8934
 4115SOL    HW223982   3.680   0.545   8.542 -0.6087  2.2830 -2.3684
 4116SOL     OW23983   1.557   1.742   3.161 -0.7980 -0.3287  0.5913
 4116SOL    HW123984   1.581   1.801   3.232  0.5836  0.1976 -0.2943
 4116SOL    HW223985   1.611   1.772   3.088 -0.9154 -0.1139  0.5941
 4117SOL     OW23986   2.189   2.475   2.896  0.3460  0.0946 -0.4063
 4117SOL    HW123987   2.118   2.459   2.958  1.8607 -0.0374  1.2921
 4117SOL    HW223988   2.136   2.505   2.822  0.0720  0.4060 -0.0817
 4118SOL     OW23989   1.712   0.275   4.284 -0.0871  0.1219  0.1211
 4118SOL    HW123990   1.786   0.230   4.325 -2.1776 -1.2969  2.3595
 4118SOL    HW223991   1.742   0.362   4.309 -1.2565  0.5431  0.0235
 4119SOL     OW23992   1.687   0.765  17.671 -0.0697  0.1405  0.7669
 4119SOL    HW123993   1.767   0.774  17.619 -0.1740  1.3528  0.8322
 4119SOL    HW223994   1.611   0.784  17.617  0.2908  0.2320  0.2946
 4120SOL     OW23995   3.549   1.578   3.751 -0.2200 -0.0755  0.0591
 4120SOL    HW123996   3.541   1.572   3.656 -0.5397  1.1611  0.0059
 4120SOL    HW223997   3.534   1.485   3.770 -1.4060 -0.0329 -0.6678
 4121SOL     OW23998   0.377   2.901   1.183  0.5868 -0.0284  0.0439
 4121SOL    HW123999   0.458   2.927   1.138  0.1499 -0.3806 -0.9309
 4121SOL    HW224000   0.388   2.967   1.252 -0.9757 -1.2494  1.4584
 4122SOL     OW24001   3.806   4.553  11.742 -0.2091  0.1970 -0.1726
 4122SOL    HW124002   3.871   4.542  11.673 -0.3404  0.7838 -0.3821
 4122SOL    HW224003   3.829   4.639  11.778 -0.9325  0.4450 -0.3053
 4123SOL     OW24004   4.126   1.770   8.769 -0.3722  0.4943  0.4726
 4123SOL    HW124005   4.193   1.727   8.824  0.2883 -0.1503 -0.8358
 4123SOL    HW224006   4.048   1.725   8.802  0.5960 -1.6741 -0.2025
 4124SOL     OW24007   4.477   2.672   4.099  0.1530  0.0561  0.1195
 4124SOL    HW124008   4.434   2.756   4.081  1.7666  0.6802 -0.8818
 4124SOL    HW224009   4.515   2.667   4.011 -0.4525  0.2424 -0.1566
 4125SOL     OW24010   2.272   0.343   7.458  0.6189  0.7503 -0.1286
 4125SOL    HW124011   2.241   0.336   7.548 -3.3764 -0.2458 -1.5546
 4125SOL    HW224012   2.235   0.430   7.442  1.4957  0.6087 -2.8595
 4126SOL     OW24013   1.937   2.222   3.691  0.4702 -0.0399 -1.0969
 4126SOL    HW124014   1.975   2.268   3.766 -0.0956 -2.0027  0.3776
 4126SOL    HW224015   1.973   2.270   3.616  1.1594 -1.2250 -1.5212
 4127SOL     OW24016   4.169   3.679  11.445 -0.1374  0.1290 -0.3540
 4127SOL    HW124017   4.226   3.667  11.521 -0.0701  1.4215 -0.1955
 4127SOL    HW224018   4.131   3.764  11.469 -1.7469 -0.2570 -1.5357
 4128SOL     OW24019   2.963   3.304  16.246 -0.1978 -0.8499 -0.1423
 4128SOL    HW124020   2.869   3.313  16.231  0.1876  1.4068 -1.2440
 4128SOL    HW224021   2.979   3.214  16.216 -0.2767 -1.2703  1.0769
 4129SOL     OW24022   0.730   4.216   7.362 -0.1373  0.3048  0.6746
 4129SOL    HW124023   0.813   4.257   7.337  0.4839  0.5148  3.1466
 4129SOL    HW224024   0.725   4.138   7.306 -2.9700  1.0442 -0.1160
 4130SOL     OW24025   4.726   4.623  16.519 -0.0780  0.1439 -0.5858
 4130SOL    HW124026   0.041   4.547  16.509 -1.4482 -0.9850  0.1492
 4130SOL    HW224027   4.654   4.577  16.560  1.0664  0.0992  1.4171
 4131SOL     OW24028   1.697   1.512   8.855  0.2480  0.0460 -0.1783
 4131SOL    HW124029   1.772   1.529   8.797  1.0396  0.2603  0.9170
 4131SOL    HW224030   1.715   1.575   8.924  1.2990  1.2215 -1.5363
 4132SOL     OW24031   3.901   2.789   8.375  0.0256  0.0304  0.2200
 4132SOL    HW124032   3.947   2.852   8.431 -1.3576  3.4157 -2.4101
 4132SOL    HW224033   3.886   2.710   8.427 -1.1949 -1.0582 -1.7883
 4133SOL     OW24034   3.831   2.987   9.369 -0.4413 -0.1004  0.4029
 4133SOL    HW124035   3.858   3.008   9.279 -0.2965 -0.3052  0.3980
 4133SOL    HW224036   3.897   2.922   9.393  0.3173 -0.1144 -1.6854
 4134SOL     OW24037   2.021   2.972   7.558  0.2607 -0.4179  0.1646
 4134SOL    HW124038   2.109   2.939   7.545  0.0962 -0.7257 -0.1676
 4134SOL    HW224039   2.005   3.024   7.479  0.9689  2.5624  1.9509
 4135SOL     OW24040   1.754   2.611  10.840  0.2366  0.1169 -0.5660
 4135SOL    HW124041   1.693   2.683  10.855 -0.4293 -0.9549  1.8311
 4135SOL    HW224042   1.835   2.635  10.886  0.0129  0.0079 -0.1163
 4136SOL     OW24043   4.392   4.295   0.076 -0.3072  0.1012  0.4424
 4136SOL    HW124044   4.450   4.265   0.006 -1.0091 -1.2633  0.4319
 4136SOL    HW224045   4.446   4.296   0.155  0.0135  2.8940  0.1998
 4137SOL     OW24046   4.222   0.334   8.272  0.0923  0.2453  0.1805
 4137SOL    HW124047   4.202   0.373   8.187  2.9142  0.7991 -0.2598
 4137SOL    HW224048   4.233   0.409   8.330 -1.1390  0.0921  0.6111
 4138SOL     OW24049   3.650   2.383   1.505  0.1943 -0.0659  0.0953
 4138SOL    HW124050   3.589   2.439   1.458  1.5578  1.6899  0.4106
 4138SOL    HW224051   3.691   2.330   1.437 -1.6793 -1.9616  0.4458
 4139SOL     OW24052   4.471   2.973   4.879 -0.0287 -0.1268  0.5402
 4139SOL    HW124053   4.424   2.897   4.845  0.4157 -0.8562  1.5736
 4139SOL    HW224054   4.401   3.022   4.924  2.8531  3.4382  1.1429
 4140SOL     OW24055   2.521   0.627   7.570  0.1870 -0.8809 -0.2349
 4140SOL    HW124056   2.527   0.531   7.576 -3.9354 -1.0957  0.1476
 4140SOL    HW224057   2.603   0.654   7.610  0.7322 -0.7100 -1.4566
 4141SOL     OW24058   3.363   0.404   9.961  0.0073 -0.5843  0.4668
 4141SOL    HW124059   3.374   0.493   9.926 -2.7690  0.0398  1.1564
 4141SOL    HW224060   3.273   0.397   9.992  0.0567  1.7505  1.1254
 4142SOL     OW24061   1.483   0.031   0.052 -0.0450  0.1326 -0.0604
 4142SOL    HW124062   1.448   4.718  17.748 -0.1500  1.9480 -1.4274
 4142SOL    HW224063   1.416   0.097   0.066  0.7965  0.9486  0.1662
 4143SOL     OW24064   0.377   1.250  12.877  0.2013 -0.6753 -0.3740
 4143SOL    HW124065   0.427   1.274  12.799  1.8066 -1.1518  0.5235
 4143SOL    HW224066   0.358   1.338  12.910  0.7154 -1.7278  2.7488
 4144SOL     OW24067   3.562   1.721  15.800  0.3216 -0.3216 -0.2130
 4144SOL    HW124068   3.577   1.677  15.884 -2.7081 -0.1566  0.4383
 4144SOL    HW224069   3.646   1.760  15.777  0.5265 -0.6325 -0.0028
 4145SOL     OW24070   2.555   0.797   4.736 -0.0354  0.2108 -0.2636
 4145SOL    HW124071   2.643   0.834   4.748  0.2041 -0.1991 -0.7074
 4145SOL    HW224072   2.516   0.838   4.813  0.4087 -0.7969  0.5048
 4146SOL     OW24073   2.115   2.891   8.992 -0.1497  0.2092 -0.3793
 4146SOL    HW124074   2.143   2.982   9.000 -2.3316  0.8440  0.1137
 4146SOL    HW224075   2.037   2.886   9.047 -0.8842  1.1637 -1.3321
 4147SOL     OW24076   4.565   2.872  13.764  0.5464  0.1138 -0.2394
 4147SOL    HW124077   4.599   2.907  13.846  1.3890  0.5147 -0.7576
 4147SOL    HW224078   4.527   2.800  13.814 -0.6038  0.1038 -1.1298
 4148SOL     OW24079   1.502   3.065   7.060 -0.0727 -0.1360  0.8196
 4148SOL    HW124080   1.584   3.016   7.068 -1.0131 -2.2740 -2.6117
 4148SOL    HW224081   1.495   3.061   6.964  1.4309 -0.4760  0.7310
 4149SOL     OW24082   2.333   2.899   9.229 -0.4580 -0.1768  0.0885
 4149SOL    HW124083   2.412   2.949   9.210 -0.8600  0.1635 -0.6624
 4149SOL    HW224084   2.266   2.967   9.235 -0.7000 -0.4283  0.2319
 4150SOL     OW24085   3.926   0.728   8.451  1.0231 -0.2064 -0.0205
 4150SOL    HW124086   3.969   0.660   8.504  1.0309 -0.5078 -0.4147
 4150SOL    HW224087   3.983   0.719   8.375  1.5093 -1.1048  0.4504
 4151SOL     OW24088   4.596   3.600  12.480 -0.3618  0.4368 -0.3945
 4151SOL    HW124089   4.561   3.605  12.569 -0.4714 -0.2334 -0.4021
 4151SOL    HW224090   4.598   3.506  12.467 -2.0110  0.6410 -2.1891
 4152SOL     OW24091   1.811   3.765  13.693  0.3942 -0.1976  0.1279
 4152SOL    HW124092   1.829   3.784  13.785 -0.1370 -2.1502  0.6339
 4152SOL    HW224093   1.835   3.673  13.683 -1.5982 -0.9280  1.9748
 4153SOL     OW24094   2.290   1.786   3.942  0.4095 -0.1064  0.4861
 4153SOL    HW124095   2.324   1.745   4.022  0.9233  1.1311  0.9027
 4153SOL    HW224096   2.229   1.718   3.913  0.1629  0.0416  0.6580
 4154SOL     OW24097   1.793   0.149   8.724 -0.5461 -0.2022  0.0629
 4154SOL    HW124098   1.851   0.090   8.677  1.6454  0.3943  2.0506
 4154SOL    HW224099   1.764   0.092   8.795 -0.1263  0.1104  0.4840
 4155SOL     OW24100   4.171   4.693   1.214 -0.2622  0.2836  0.2162
 4155SOL    HW124101   4.096   4.730   1.167 -0.1578 -1.6148 -1.4522
 4155SOL    HW224102   4.239   0.006   1.175  0.0876 -0.0827  0.3071
 4156SOL     OW24103   1.416   3.383   2.590 -0.1581 -0.4382  0.2457
 4156SOL    HW124104   1.449   3.342   2.670  0.9788  1.1014  0.5566
 4156SOL    HW224105   1.491   3.435   2.560 -0.9840 -0.4762 -1.8959
 4157SOL     OW24106   4.665   4.516   0.531  0.7803  0.2289 -0.0847
 4157SOL    HW124107   4.730   4.490   0.597 -0.2332  0.0870  0.8642
 4157SOL    HW224108   4.591   4.465   0.565 -0.4317  1.5239 -0.8092
 4158SOL     OW24109   2.121   3.331   5.832  0.4063 -0.6106  0.4294
 4158SOL    HW124110   2.204   3.285   5.827 -0.2423 -1.6228 -1.2017
 4158SOL    HW224111   2.145   3.414   5.790 -0.9076  0.2785  1.4022
 4159SOL     OW24112   4.052   4.454   3.291 -0.7477  0.3848 -0.4622
 4159SOL    HW124113   4.122   4.510   3.325 -1.8219  1.4684 -0.0590
 4159SOL    HW224114   4.089   4.368   3.310  0.5955  1.1095  0.2184
 4160SOL     OW24115   0.318   1.138   2.545 -0.7708  0.0098  0.0978
 4160SOL    HW124116   0.245   1.199   2.548 -0.0918  0.7148  2.2399
 4160SOL    HW224117   0.292   1.087   2.622  1.4114 -0.8809  0.2582
 4161SOL     OW24118   4.466   4.026  12.922 -0.4638 -0.5607 -0.3142
 4161SOL    HW124119   4.370   4.021  12.925 -0.5004 -0.5021 -1.4952
 4161SOL    HW224120   4.495   4.010  12.832  0.5158  1.1156 -0.2859
 4162SOL     OW24121   2.220   1.519   4.110  0.3201 -0.3467  0.3331
 4162SOL    HW124122   2.264   1.478   4.185  1.6788  1.4265  0.5125
 4162SOL    HW224123   2.260   1.466   4.042  0.5002 -0.7823  0.7762
 4163SOL     OW24124   4.443   4.367  13.301 -0.2147  0.4312 -0.1247
 4163SOL    HW124125   4.406   4.280  13.314 -0.7750  1.3197  4.2356
 4163SOL    HW224126   4.415   4.395  13.214  0.2424  0.6458 -0.2030
 4164SOL     OW24127   1.512   3.236   5.142  0.0259  0.2172 -0.0469
 4164SOL    HW124128   1.492   3.197   5.227  1.0059  0.5012  0.3173
 4164SOL    HW224129   1.519   3.158   5.087  2.9483 -0.0470  0.6977
 4165SOL     OW24130   1.530   1.310   7.395  0.0104 -0.2816  0.0416
 4165SOL    HW124131   1.598   1.353   7.343 -1.0489  0.6967 -0.5266
 4165SOL    HW224132   1.459   1.363   7.360  0.8639  0.3193 -0.7765
 4166SOL     OW24133   3.009   2.758   4.902  0.2092 -0.3245  0.0866
 4166SOL    HW124134   2.992   2.780   4.994 -0.6200 -2.1813  0.3791
 4166SOL    HW224135   2.931   2.703   4.887  0.7887 -1.0000 -0.4564
 4167SOL     OW24136   3.873   1.615   5.016  0.3243  0.1117 -0.0423
 4167SOL    HW124137   3.941   1.683   5.013  0.6466 -0.1791  0.5503
 4167SOL    HW224138   3.856   1.605   4.922 -1.2036 -2.3292  0.5106
 4168SOL     OW24139   3.542   2.687  14.215  0.3600  0.0811  0.1184
 4168SOL    HW124140   3.501   2.767  14.182  1.1370 -0.1107 -1.2984
 4168SOL    HW224141   3.631   2.720  14.227  0.1000  0.3595  1.3719
 4169SOL     OW24142   0.339   2.357   1.799 -0.2982 -0.2610 -0.2900
 4169SOL    HW124143   0.400   2.427   1.772  1.6635 -0.6019  3.1954
 4169SOL    HW224144   0.394   2.323   1.870 -1.7799 -4.0818 -1.0036
 4170SOL     OW24145   4.359   2.992  15.710 -0.6230 -0.1464 -0.5896
 4170SOL    HW124146   4.453   2.983  15.695  0.1219  0.0357  4.0207
 4170SOL    HW224147   4.355   2.925  15.778  0.0329 -1.3932 -1.7623
 4171SOL     OW24148   1.901   0.722   2.261 -0.0190  0.4315 -0.8937
 4171SOL    HW124149   1.968   0.776   2.220  0.2939  0.8509  0.1590
 4171SOL    HW224150   1.916   0.637   2.221  1.5385  0.6805 -0.8488
 4172SOL     OW24151   3.517   3.478   0.849 -0.0285 -0.8823 -0.0697
 4172SOL    HW124152   3.512   3.549   0.785 -0.8163  0.8711  1.9025
 4172SOL    HW224153   3.458   3.504   0.920 -0.6526 -1.3758 -0.4102
 4173SOL     OW24154   4.236   1.444   6.124 -0.3999 -0.2129 -0.1632
 4173SOL    HW124155   4.217   1.434   6.217  3.1049  1.0485  0.6993
 4173SOL    HW224156   4.276   1.361   6.098 -2.1197 -0.6368 -1.4440
 4174SOL     OW24157   2.048   1.816   8.688  0.1988 -0.3094 -0.1892
 4174SOL    HW124158   2.112   1.809   8.759 -0.2687 -0.9506  0.1714
 4174SOL    HW224159   2.058   1.910   8.673  1.9824 -0.6029 -0.9406
 4175SOL     OW24160   0.192   1.158   3.954  0.0722 -0.0746 -0.2947
 4175SOL    HW124161   0.221   1.245   3.982 -0.7342 -0.0618  0.4855
 4175SOL    HW224162   0.254   1.134   3.885  0.4843 -1.6660  0.6390
 4176SOL     OW24163   3.726   1.923  17.423 -0.1042 -0.3562  0.4773
 4176SOL    HW124164   3.688   2.011  17.417  2.8378  0.8976  0.2585
 4176SOL    HW224165   3.699   1.891  17.337 -1.1086 -0.7477  0.9311
 4177SOL     OW24166   1.865   3.671  12.676  0.0985  0.0501  0.0334
 4177SOL    HW124167   1.772   3.692  12.689  0.3297  0.0942  1.6951
 4177SOL    HW224168   1.883   3.720  12.596 -0.5159 -1.0687 -0.7908
 4178SOL     OW24169   1.215   1.147   0.755  0.1985 -0.1016 -0.4034
 4178SOL    HW124170   1.174   1.149   0.668 -1.8397  1.6720  0.5957
 4178SOL    HW224171   1.137   1.122   0.803  0.6091 -0.7556 -0.0839
 4179SOL     OW24172   4.284   0.981   9.399  0.2969 -0.3952  0.4387
 4179SOL    HW124173   4.286   0.885   9.393  2.2947 -0.4215  1.6298
 4179SOL    HW224174   4.219   1.002   9.466 -1.4464  1.9731 -2.0094
 4180SOL     OW24175   4.709   1.606   4.463  0.5285 -0.2870 -0.1355
 4180SOL    HW124176   0.029   1.534   4.471 -0.8446 -1.7336 -2.5236
 4180SOL    HW224177   4.721   1.661   4.541  1.9841  0.4908 -0.9000
 4181SOL     OW24178   0.810   4.098   6.636 -0.0184 -0.4091  0.7407
 4181SOL    HW124179   0.791   4.191   6.638  0.2110 -0.3125 -1.1986
 4181SOL    HW224180   0.794   4.071   6.726  0.4947  0.2575  1.0287
 4182SOL     OW24181   0.757   3.344   3.455  0.5355 -0.2696  0.6176
 4182SOL    HW124182   0.812   3.271   3.483  0.5953 -0.2843  0.4593
 4182SOL    HW224183   0.682   3.318   3.510 -0.9078 -1.4323 -1.9126
 4183SOL     OW24184   1.865   2.054   3.472 -0.7886 -0.0224 -0.4199
 4183SOL    HW124185   1.924   1.992   3.428  0.9046  1.6286 -0.4535
 4183SOL    HW224186   1.933   2.105   3.517  1.2209 -1.0563 -2.2468
 4184SOL     OW24187   2.690   1.232   8.406 -0.3662  0.0632  0.4377
 4184SOL    HW124188   2.758   1.283   8.450 -0.1684 -0.4555  0.7245
 4184SOL    HW224189   2.731   1.147   8.419  0.1046 -0.1977 -2.5882
 4185SOL     OW24190   2.503   3.668  12.420 -0.0265 -0.2999  0.3407
 4185SOL    HW124191   2.534   3.585  12.383 -0.2142 -0.3620  0.3207
 4185SOL    HW224192   2.409   3.656  12.432 -0.3282 -0.1769 -1.8724
 4186SOL     OW24193   2.227   4.389   5.992 -0.5165 -0.8669 -0.2578
 4186SOL    HW124194   2.263   4.394   5.903  0.3147 -0.6219  0.1032
 4186SOL    HW224195   2.132   4.403   5.986 -0.8091 -2.3095  1.0322
 4187SOL     OW24196   0.269   3.804  11.196 -0.0876  0.3000  0.5425
 4187SOL    HW124197   0.263   3.838  11.285  0.1767  1.3592  0.1603
 4187SOL    HW224198   0.301   3.886  11.157 -1.1350  0.8889  0.9047
 4188SOL     OW24199   0.096   1.812   2.979  0.0441  0.0992 -0.2899
 4188SOL    HW124200   0.023   1.808   3.042  0.7230  2.3888  0.6675
 4188SOL    HW224201   0.041   1.809   2.901 -0.2396 -0.9004 -0.0460
 4189SOL     OW24202   2.455   0.347   2.095  0.1616 -0.1678 -0.6419
 4189SOL    HW124203   2.371   0.369   2.054 -0.1634 -2.4303 -1.1729
 4189SOL    HW224204   2.442   0.399   2.175  1.7121 -1.0847  0.1929
 4190SOL     OW24205   4.545   1.431   5.875  0.1609  0.0260 -0.0294
 4190SOL    HW124206   4.531   1.356   5.817  0.7321  0.6943 -1.0360
 4190SOL    HW224207   4.639   1.445   5.863 -0.0103  0.0826 -1.3018
 4191SOL     OW24208   4.700   0.584   3.719  0.0377  0.1884  0.0923
 4191SOL    HW124209   4.630   0.614   3.660  0.5247  0.5975 -0.2754
 4191SOL    HW224210   0.009   0.662   3.737 -1.0544  0.6432  1.2227
 4192SOL     OW24211   1.562   4.456   4.032  0.4221  0.2287  0.3706
 4192SOL    HW124212   1.635   4.394   4.026 -0.2371 -0.3229 -2.0890
 4192SOL    HW224213   1.603   4.538   4.003  1.6052 -0.7896 -0.8341
 4193SOL     OW24214   3.610   1.141   5.551  0.1018  0.9031  0.2622
 4193SOL    HW124215   3.599   1.159   5.644 -2.0778 -2.6845  0.7132
 4193SOL    HW224216   3.646   1.220   5.512 -0.0774  0.1077 -1.5028
 4194SOL     OW24217   1.222   4.346   2.430  0.1568  0.2123  0.7867
 4194SOL    HW124218   1.228   4.425   2.376 -0.3773 -0.1940  0.1450
 4194SOL    HW224219   1.163   4.368   2.503  0.1059 -1.6109  1.2794
 4195SOL     OW24220   0.760   0.850   5.089  0.3220 -0.2707  0.0195
 4195SOL    HW124221   0.761   0.764   5.048 -0.1165  0.3331 -1.2576
 4195SOL    HW224222   0.734   0.901   5.012  1.5578 -2.3276 -1.7552
 4196SOL     OW24223   3.794   3.274   6.310  0.2604 -0.2223 -0.2913
 4196SOL    HW124224   3.814   3.181   6.301  2.9275  0.2125  1.1555
 4196SOL    HW224225   3.701   3.263   6.291 -0.3755  0.1641  2.6329
 4197SOL     OW24226   3.882   1.333   2.765  0.1312  0.6308 -0.6885
 4197SOL    HW124227   3.849   1.315   2.677 -1.0401  2.2043 -0.5805
 4197SOL    HW224228   3.868   1.247   2.804 -0.8983  1.1981  0.1922
 4198SOL     OW24229   2.235   4.154   8.170  0.0935  0.2437  0.0106
 4198SOL    HW124230   2.247   4.096   8.095 -0.6355 -0.9016  0.7891
 4198SOL    HW224231   2.155   4.114   8.204  0.7699 -0.8121  0.3501
 4199SOL     OW24232   2.558   4.193   3.563 -0.6245  0.0656  0.4108
 4199SOL    HW124233   2.464   4.197   3.545 -0.9486  2.0193  2.5433
 4199SOL    HW224234   2.578   4.113   3.515 -0.2253  0.6445 -0.3791
 4200SOL     OW24235   3.865   3.284  17.735  0.1887 -0.1847  0.2928
 4200SOL    HW124236   3.823   3.331   0.040 -0.7632 -2.0874  0.9913
 4200SOL    HW224237   3.958   3.307  17.744  0.3564 -0.7494  0.0425
 4201SOL     OW24238   1.006   4.387   6.781  0.2274  0.3601 -0.5591
 4201SOL    HW124239   1.063   4.423   6.713  0.1007  1.1939 -0.2145
 4201SOL    HW224240   0.923   4.420   6.747 -1.1568 -1.3301  1.1615
 4202SOL     OW24241   4.696   0.065  15.550  0.0259  0.5036 -0.5223
 4202SOL    HW124242   4.643   0.132  15.593  1.6799  1.8616 -0.5889
 4202SOL    HW224243   4.697   0.101  15.461 -1.6466 -0.6824 -1.0114
 4203SOL     OW24244   2.823   3.079   3.857  0.6635  0.4073 -0.2714
 4203SOL    HW124245   2.767   3.004   3.881  0.1950  0.3751 -1.4895
 4203SOL    HW224246   2.911   3.049   3.878  0.8011  0.9582 -0.0754
 4204SOL     OW24247   3.679   3.373   6.565 -0.4985  0.2038 -0.0036
 4204SOL    HW124248   3.730   3.384   6.484 -0.1250  0.2365  0.2368
 4204SOL    HW224249   3.710   3.284   6.584  1.0520  0.7711  0.1558
 4205SOL     OW24250   0.921   4.670  15.169  0.0250  0.4045  0.1378
 4205SOL    HW124251   0.852   4.709  15.116  0.1870  1.3979  0.6581
 4205SOL    HW224252   0.923   4.584  15.128 -1.0571  0.4280  0.0393
 4206SOL     OW24253   4.321   1.005  17.139 -0.3456  0.0088  0.2311
 4206SOL    HW124254   4.358   1.082  17.181  0.0301  0.1664 -0.3954
 4206SOL    HW224255   4.231   1.035  17.123 -1.1510 -1.6549  1.6352
 4207SOL     OW24256   1.527   0.929  11.862  0.8293 -0.0223 -0.3036
 4207SOL    HW124257   1.499   0.849  11.906 -0.2778  0.0295 -0.9005
 4207SOL    HW224258   1.599   0.888  11.815 -0.3549 -1.4797 -0.8423
 4208SOL     OW24259   1.182   0.695  16.094 -0.5770 -0.1647  0.1917
 4208SOL    HW124260   1.223   0.770  16.138  0.1385  1.3284 -2.9663
 4208SOL    HW224261   1.231   0.632  16.147  1.0105  0.3918 -0.6076
 4209SOL     OW24262   0.570   3.151   5.774  0.0115 -0.2247 -0.3510
 4209SOL    HW124263   0.547   3.228   5.722  1.0331  1.1363  1.1970
 4209SOL    HW224264   0.543   3.073   5.725 -1.5930 -0.9941  1.7249
 4210SOL     OW24265   0.785   4.397  16.761 -0.2343  0.9088 -0.7645
 4210SOL    HW124266   0.788   4.314  16.809 -1.2933  1.1805 -0.2384
 4210SOL    HW224267   0.860   4.387  16.702 -1.1098  2.2721 -2.1051
 4211SOL     OW24268   3.408   2.617  11.567  0.5123 -0.1150  0.4488
 4211SOL    HW124269   3.492   2.650  11.598  0.0393  0.4091  1.1924
 4211SOL    HW224270   3.443   2.559  11.499  3.2821  1.0291  0.9013
 4212SOL     OW24271   4.673   0.181   8.489  0.6762  0.2111  0.3690
 4212SOL    HW124272   4.703   0.190   8.398  1.0673  0.5488  0.5321
 4212SOL    HW224273   4.617   0.104   8.479  1.3348 -0.3923  1.3540
 4213SOL     OW24274   2.913   4.411   1.630  0.1348  0.3147  0.3245
 4213SOL    HW124275   2.907   4.506   1.623 -1.2466  0.2135  0.1709
 4213SOL    HW224276   2.959   4.404   1.713 -1.8841  2.3207  1.6063
 4214SOL     OW24277   1.421   0.110   3.934  0.4341  0.2585  0.0780
 4214SOL    HW124278   1.380   0.044   3.990  0.9096  1.1286  1.4432
 4214SOL    HW224279   1.512   0.085   3.950  0.6394  1.8061  1.3760
 4215SOL     OW24280   2.810   2.280   5.850 -0.0328 -0.3670  0.4534
 4215SOL    HW124281   2.812   2.199   5.900 -2.3093 -0.1226  0.8957
 4215SOL    HW224282   2.812   2.344   5.921 -0.0997  0.2869 -0.1267
 4216SOL     OW24283   0.312   1.632   2.292  0.2238 -0.2438 -0.1722
 4216SOL    HW124284   0.353   1.561   2.342 -0.1790 -0.0399  0.4544
 4216SOL    HW224285   0.242   1.580   2.253 -2.0657  0.1555  3.3976
 4217SOL     OW24286   0.358   0.942   4.273  0.1831  0.3653  0.0235
 4217SOL    HW124287   0.304   0.970   4.199 -0.2680 -0.5555  0.0091
 4217SOL    HW224288   0.433   0.903   4.227  0.2415 -0.9781  1.2675
 4218SOL     OW24289   2.559   2.317   6.250  0.1184 -0.3660  0.8138
 4218SOL    HW124290   2.468   2.322   6.222  0.4455  1.4751  0.0579
 4218SOL    HW224291   2.576   2.240   6.305  1.7445 -0.7424 -0.2104
 4219SOL     OW24292   3.077   4.297  10.578 -0.3319  0.3827 -0.5058
 4219SOL    HW124293   3.084   4.273  10.485 -0.1581  2.0489 -0.9232
 4219SOL    HW224294   2.984   4.275  10.589 -0.1429 -0.4852 -0.6588
 4220SOL     OW24295   1.554   2.987   4.994  0.1033  0.0069  0.0521
 4220SOL    HW124296   1.510   2.907   5.022 -0.9287 -0.2285 -2.3046
 4220SOL    HW224297   1.530   2.987   4.902  0.6739 -1.7523 -0.1018
 4221SOL     OW24298   2.616   0.325  11.768 -0.3613  0.2626 -0.0969
 4221SOL    HW124299   2.597   0.234  11.791 -2.1542  0.2810 -1.4787
 4221SOL    HW224300   2.686   0.334  11.833 -0.5704  0.9618  0.0271
 4222SOL     OW24301   3.515   0.847   5.098 -0.3062  0.4768  0.0281
 4222SOL    HW124302   3.573   0.855   5.174  0.2080  0.9585 -0.4157
 4222SOL    HW224303   3.498   0.938   5.078 -2.7774 -0.0019 -0.0172
 4223SOL     OW24304   3.379   4.029   6.596  0.2982  0.2219  0.6697
 4223SOL    HW124305   3.363   4.074   6.513  0.5842 -0.5080  0.2172
 4223SOL    HW224306   3.347   3.940   6.581  0.9957 -0.0715  0.9051
 4224SOL     OW24307   3.470   2.257   2.938 -0.7447 -0.2231  0.3092
 4224SOL    HW124308   3.551   2.233   2.893 -0.7182 -0.9896  0.7642
 4224SOL    HW224309   3.430   2.171   2.952  0.6026 -0.9657 -0.3865
 4225SOL     OW24310   1.994   4.076   8.320  0.1491  0.1083 -0.2306
 4225SOL    HW124311   2.031   4.063   8.407 -1.2290  1.3887  0.5464
 4225SOL    HW224312   1.918   4.132   8.336  0.4174  0.7321 -1.1027
 4226SOL     OW24313   0.287   3.898  12.997  0.1458  0.1525 -0.4809
 4226SOL    HW124314   0.332   3.922  13.078 -0.2257  3.6124 -1.3097
 4226SOL    HW224315   0.319   3.970  12.943  1.2434  1.4137  1.8428
 4227SOL     OW24316   4.407   3.486   2.609 -0.0944  0.1266 -0.2448
 4227SOL    HW124317   4.361   3.403   2.616  2.1868 -1.3566 -2.7235
 4227SOL    HW224318   4.343   3.541   2.565 -0.6845  1.7176  2.6576
 4228SOL     OW24319   2.654   4.132   8.488 -0.5906  0.0261  0.1268
 4228SOL    HW124320   2.615   4.183   8.559  1.0905 -0.4326  1.3615
 4228SOL    HW224321   2.740   4.120   8.527  0.3396  0.7738 -1.7184
 4229SOL     OW24322   1.542   3.870   6.417 -0.0994  0.5582  0.0343
 4229SOL    HW124323   1.466   3.917   6.382  1.2975  4.2371  1.9116
 4229SOL    HW224324   1.609   3.935   6.396  0.4962 -0.0009  0.2021
 4230SOL     OW24325   1.630   2.651   3.023 -0.2192  0.5093 -0.2209
 4230SOL    HW124326   1.577   2.575   3.045 -1.0284  0.9733 -0.5414
 4230SOL    HW224327   1.623   2.704   3.102  0.9944 -0.2873  0.4084
 4231SOL     OW24328   1.443   1.730   1.399  0.2134  0.2449  0.2101
 4231SOL    HW124329   1.464   1.808   1.347  1.0160 -0.6379 -0.7708
 4231SOL    HW224330   1.415   1.669   1.331 -1.5298  2.5364 -1.1400
 4232SOL     OW24331   0.352   0.981   6.191 -0.0308  0.4791  0.3095
 4232SOL    HW124332   0.434   0.942   6.221  0.0341 -0.8787 -1.6490
 4232SOL    HW224333   0.392   1.064   6.163 -0.4320  0.3281 -0.7307
 4233SOL     OW24334   0.260   1.436   9.058 -0.4748 -0.0522  0.4574
 4233SOL    HW124335   0.167   1.434   9.083 -0.2091 -0.2794  1.4102
 4233SOL    HW224336   0.270   1.358   9.003 -0.0717  1.1379 -1.1424
 4234SOL     OW24337   0.747   0.976   8.081  0.1265  0.1389  0.3644
 4234SOL    HW124338   0.679   0.947   8.020 -0.3849  1.3622  0.3487
 4234SOL    HW224339   0.818   0.972   8.017 -0.8749  0.9417 -0.8194
 4235SOL     OW24340   1.206   0.182  13.052  0.5544 -0.3450  0.1730
 4235SOL    HW124341   1.207   0.268  13.011 -1.4002  0.1950  1.2212
 4235SOL    HW224342   1.149   0.136  12.990 -0.6979  2.1082 -0.4893
 4236SOL     OW24343   4.677   2.682   9.513 -0.0144  0.0648 -0.0195
 4236SOL    HW124344   4.670   2.758   9.570 -0.3137 -0.4644  0.6547
 4236SOL    HW224345   4.606   2.626   9.545  0.2527 -0.7648 -0.8839
 4237SOL     OW24346   1.008   0.642   3.088  0.7101  0.6168 -0.0724
 4237SOL    HW124347   0.938   0.696   3.125  1.1231  2.3200 -1.7854
 4237SOL    HW224348   1.027   0.679   3.002  0.1219 -2.4523 -1.5091
 4238SOL     OW24349   2.636   1.000  14.139 -0.5802 -0.2218 -0.3170
 4238SOL    HW124350   2.659   0.928  14.197 -2.3252  0.7560  1.5882
 4238SOL    HW224351   2.614   0.957  14.055  2.1318 -0.5422 -0.8772
 4239SOL     OW24352   0.211   4.319  14.005 -0.3001  0.2902  0.1782
 4239SOL    HW124353   0.124   4.279  14.007 -0.0721 -0.2794 -0.9739
 4239SOL    HW224354   0.266   4.262  13.951  0.6126  0.3346  1.0674
 4240SOL     OW24355   1.987   1.612   4.032  0.8440  0.5715  0.2444
 4240SOL    HW124356   2.020   1.591   3.945 -1.7084 -0.1630 -0.5780
 4240SOL    HW224357   2.067   1.583   4.076  0.1620 -1.2164  0.3156
 4241SOL     OW24358   3.370   4.134   1.378 -0.0920 -0.5383 -0.5685
 4241SOL    HW124359   3.450   4.128   1.430 -2.1164 -2.0019  2.3932
 4241SOL    HW224360   3.400   4.195   1.311 -0.7987  1.0091  0.5234
 4242SOL     OW24361   0.405   4.013   6.486 -0.5314  0.0571  0.3210
 4242SOL    HW124362   0.335   4.059   6.532 -2.4526 -1.8816 -0.6562
 4242SOL    HW224363   0.417   4.070   6.410 -1.8270  0.0780  0.1249
 4243SOL     OW24364   2.690   2.046   2.880  0.2266  0.3668 -0.2672
 4243SOL    HW124365   2.690   2.141   2.876  0.2706  0.3406 -0.8235
 4243SOL    HW224366   2.599   2.021   2.864  0.2578  0.1401 -0.0964
 4244SOL     OW24367   2.968   0.900  15.881  0.0831 -0.2407 -0.2053
 4244SOL    HW124368   2.885   0.853  15.890  0.1062 -0.1286  0.5746
 4244SOL    HW224369   2.983   0.893  15.787  2.1242  2.2551 -0.0667
 4245SOL     OW24370   3.763   0.124   1.637 -0.3124  0.1528  0.2563
 4245SOL    HW124371   3.834   0.183   1.612 -1.7527  0.4236 -3.1133
 4245SOL    HW224372   3.749   0.076   1.556  0.2597  1.1153 -0.4176
 4246SOL     OW24373   4.574   0.541   3.254 -0.2270  0.2414 -1.1336
 4246SOL    HW124374   4.611   0.619   3.213 -3.8651  1.6600 -1.6728
 4246SOL    HW224375   4.636   0.473   3.229  2.5652  1.3281  2.7155
 4247SOL     OW24376   2.652   4.214  14.824 -0.2957 -0.5802  0.3922
 4247SOL    HW124377   2.562   4.239  14.846 -0.6354 -0.6871 -0.8325
 4247SOL    HW224378   2.683   4.295  14.785  0.7449  0.3359  3.1490
 4248SOL     OW24379   1.897   4.458  12.971 -0.2942 -0.2864 -0.0846
 4248SOL    HW124380   1.858   4.508  13.043 -0.2881 -0.8713  0.3302
 4248SOL    HW224381   1.867   4.370  12.996 -1.3636  0.2728  0.5603
 4249SOL     OW24382   2.934   2.857   7.732  0.0633  0.5938  0.1979
 4249SOL    HW124383   2.972   2.853   7.643  1.0252 -0.9951  0.6713
 4249SOL    HW224384   2.972   2.943   7.748 -0.5815  1.2243 -1.5938
 4250SOL     OW24385   0.476   2.440   0.439 -0.8636  0.1650 -0.1598
 4250SOL    HW124386   0.560   2.485   0.431  0.3934 -2.1188  0.3063
 4250SOL    HW224387   0.458   2.402   0.353 -0.7804  3.6075 -1.6664
 4251SOL     OW24388   2.085   2.088   8.657 -0.1012  0.2247 -0.4866
 4251SOL    HW124389   2.018   2.155   8.643 -1.7732 -1.2448  0.6206
 4251SOL    HW224390   2.152   2.142   8.699  0.4196 -1.5517  0.9243
 4252SOL     OW24391   1.645   1.982  10.290 -0.7336  0.2654  0.5731
 4252SOL    HW124392   1.560   1.976  10.332 -1.0412 -0.9753 -0.2417
 4252SOL    HW224393   1.665   1.891  10.312 -0.9877  0.0737 -0.0001
 4253SOL     OW24394   3.616   4.446   2.903  0.2828  0.0827 -0.4269
 4253SOL    HW124395   3.623   4.435   2.809  0.1578  0.3665 -0.4698
 4253SOL    HW224396   3.563   4.525   2.911  1.3753  0.7937 -0.1956
 4254SOL     OW24397   2.273   1.049   5.330 -0.0888  0.0047  0.1733
 4254SOL    HW124398   2.262   1.114   5.260 -0.7169 -1.8323 -1.4457
 4254SOL    HW224399   2.368   1.058   5.341 -0.4555  0.0221  3.1598
 4255SOL     OW24400   0.400   3.914   4.399  0.0893  0.1168  0.0804
 4255SOL    HW124401   0.348   3.835   4.387  0.8434 -0.5656  1.3004
 4255SOL    HW224402   0.397   3.940   4.307  0.7738  0.8044  0.2557
 4256SOL     OW24403   1.174   2.295   7.707  0.5909 -0.1833 -0.2934
 4256SOL    HW124404   1.178   2.390   7.714 -0.0498 -0.1510 -0.3819
 4256SOL    HW224405   1.089   2.287   7.663  0.4911  0.4343 -0.2068
 4257SOL     OW24406   3.809   0.497   8.173 -0.0201 -0.8741 -0.9197
 4257SOL    HW124407   3.725   0.534   8.201  1.4791  1.3068  0.6767
 4257SOL    HW224408   3.801   0.408   8.207  0.8866 -2.1630 -4.1216
 4258SOL     OW24409   2.513   3.883   4.179  0.0168 -0.9752  0.0752
 4258SOL    HW124410   2.557   3.832   4.248  1.3430 -2.3994 -1.8144
 4258SOL    HW224411   2.478   3.964   4.216  0.8795  0.9990 -3.3434
 4259SOL     OW24412   4.174   0.490   7.479 -0.5340  0.1998  0.1968
 4259SOL    HW124413   4.264   0.520   7.495 -0.4077  0.8970 -1.7767
 4259SOL    HW224414   4.173   0.437   7.558 -0.5862 -1.4042 -0.8865
 4260SOL     OW24415   4.344   3.993   7.441 -0.2836 -0.1588  0.6197
 4260SOL    HW124416   4.391   3.972   7.521 -0.9703  0.4019  1.1726
 4260SOL    HW224417   4.252   3.967   7.449 -0.8950  0.9174 -2.9309
 4261SOL     OW24418   2.209   2.132  15.937  0.0097 -0.5086 -0.2396
 4261SOL    HW124419   2.117   2.155  15.953  0.4526  3.0136 -2.7290
 4261SOL    HW224420   2.244   2.213  15.899 -2.5528 -0.4941 -2.5691
 4262SOL     OW24421   2.115   1.044   1.073 -0.0616 -0.2344 -0.0817
 4262SOL    HW124422   2.066   0.998   1.005  3.1448 -2.0477 -1.1426
 4262SOL    HW224423   2.046   1.070   1.135 -0.3755  1.3443 -1.1125
 4263SOL     OW24424   2.176   3.099   2.854  0.4828 -0.3024 -0.0164
 4263SOL    HW124425   2.225   3.130   2.930  4.1150  1.4229 -3.0382
 4263SOL    HW224426   2.089   3.119   2.888 -0.0607  0.9294 -2.0893
 4264SOL     OW24427   3.108   4.044  10.083  0.2844 -0.6096 -0.0972
 4264SOL    HW124428   3.097   4.000  10.167 -0.6556 -1.8523 -0.8632
 4264SOL    HW224429   3.190   4.091  10.093  0.1414 -0.2772 -0.4858
 4265SOL     OW24430   1.738   0.455  11.486  0.5925 -0.3980  0.0949
 4265SOL    HW124431   1.652   0.434  11.450  0.9925 -0.4891 -0.8001
 4265SOL    HW224432   1.797   0.412  11.424 -1.6653 -3.1988 -0.1176
 4266SOL     OW24433   3.209   4.085   0.091 -0.3393  0.0355 -0.0569
 4266SOL    HW124434   3.182   4.146   0.023  0.4987  1.4952  0.9272
 4266SOL    HW224435   3.162   4.002   0.081 -0.1316 -0.0484 -0.3514
 4267SOL     OW24436   0.973   1.892  16.568 -0.3523 -0.2136 -0.1021
 4267SOL    HW124437   0.967   1.817  16.627 -1.4159  0.3472  0.5144
 4267SOL    HW224438   0.935   1.964  16.619  2.5867  1.3138 -0.0816
 4268SOL     OW24439   0.162   0.483   4.771 -0.2991 -0.2817 -0.3321
 4268SOL    HW124440   0.231   0.545   4.794 -2.1617  1.4046  0.7274
 4268SOL    HW224441   0.188   0.474   4.679  1.2183  0.1697  0.0668
 4269SOL     OW24442   0.381   1.959   6.539  0.7050 -0.1812 -0.9367
 4269SOL    HW124443   0.407   2.022   6.472 -0.1948  1.6699  0.4566
 4269SOL    HW224444   0.346   2.006   6.615  1.0266 -0.3036 -0.7111
 4270SOL     OW24445   4.499   1.407  11.010  0.4000 -0.0133  0.0088
 4270SOL    HW124446   4.490   1.441  11.100  1.1748  0.1738  0.0200
 4270SOL    HW224447   4.536   1.480  10.959 -1.5842 -0.3117 -1.8292
 4271SOL     OW24448   4.069   0.842   1.641  0.3728  0.4635 -0.6352
 4271SOL    HW124449   4.004   0.776   1.669  1.1306 -1.2959 -3.0466
 4271SOL    HW224450   4.140   0.785   1.612 -0.2343 -0.7811  0.2765
 4272SOL     OW24451   0.919   1.751   8.029 -0.0755  0.4392 -0.0834
 4272SOL    HW124452   0.878   1.668   8.051 -1.7067  1.1389 -0.4965
 4272SOL    HW224453   0.959   1.735   7.943 -0.5230  0.7577 -0.3445
 4273SOL     OW24454   3.468   1.354  13.531  0.0056  0.2342 -0.0429
 4273SOL    HW124455   3.446   1.266  13.500  2.1447 -1.0036  1.9957
 4273SOL    HW224456   3.516   1.331  13.610 -1.7861 -1.3390  0.5945
 4274SOL     OW24457   4.281   3.144   5.014 -0.6037 -0.2374 -0.3458
 4274SOL    HW124458   4.268   3.136   5.108  0.6008 -0.4031 -0.2045
 4274SOL    HW224459   4.277   3.239   5.002  0.2172 -0.2048 -0.3428
 4275SOL     OW24460   1.936   4.200   1.385  0.2900  0.2623  0.6127
 4275SOL    HW124461   1.892   4.115   1.385  0.9856 -0.1047 -0.7329
 4275SOL    HW224462   1.998   4.192   1.312  0.0129 -1.0308  0.5160
 4276SOL     OW24463   4.652   2.115  11.798  0.1493 -0.0587 -0.1283
 4276SOL    HW124464   4.632   2.091  11.889  0.7227 -2.3457 -0.6040
 4276SOL    HW224465   4.704   2.039  11.770  0.8202 -0.5219  2.3877
 4277SOL     OW24466   0.293   1.968  17.529  0.3757 -0.2585 -0.0769
 4277SOL    HW124467   0.361   2.034  17.544  1.0614 -0.3302 -2.8650
 4277SOL    HW224468   0.346   1.888  17.528 -0.0880 -0.5638 -1.2563
 4278SOL     OW24469   4.221   1.138   7.238 -0.7519  0.0410  0.3924
 4278SOL    HW124470   4.288   1.133   7.170 -1.9373 -0.1303 -0.7643
 4278SOL    HW224471   4.243   1.215   7.290 -1.9663  1.2811 -0.9067
 4279SOL     OW24472   4.146   3.359   6.240 -0.3326  0.1023  0.0850
 4279SOL    HW124473   4.057   3.386   6.216 -1.0342 -0.6185  1.9411
 4279SOL    HW224474   4.203   3.431   6.212  2.4272 -2.4027 -0.7365
 4280SOL     OW24475   1.702   1.112  16.641 -0.0848  0.3100  0.2468
 4280SOL    HW124476   1.795   1.119  16.666 -0.0552  3.4812 -0.8475
 4280SOL    HW224477   1.672   1.053  16.710 -0.8095 -0.2512 -0.5514
 4281SOL     OW24478   0.479   4.601   8.102 -0.1350 -0.3640 -0.2205
 4281SOL    HW124479   0.446   4.672   8.158 -1.2791 -1.2283  0.2028
 4281SOL    HW224480   0.455   4.529   8.160 -1.1160 -0.1566 -0.3644
 4282SOL     OW24481   1.091   1.737   4.485  0.1526  0.1399  0.5660
 4282SOL    HW124482   1.063   1.673   4.419  0.9682  1.2764 -0.8833
 4282SOL    HW224483   1.086   1.683   4.564 -3.0746  0.3940  0.5585
 4283SOL     OW24484   4.562   4.066   0.414 -0.0649  0.3492  0.1226
 4283SOL    HW124485   4.543   4.000   0.348  2.8498  1.4142 -1.7457
 4283SOL    HW224486   4.628   4.025   0.470 -0.2429  0.3927  0.3645
 4284SOL     OW24487   4.392   0.103   3.285 -0.1662  0.1278  0.5997
 4284SOL    HW124488   4.321   0.162   3.311 -0.9184 -0.6047  0.1840
 4284SOL    HW224489   4.436   0.165   3.227  0.1725 -1.6734 -1.0764
 4285SOL     OW24490   2.795   2.860   6.948 -0.4569  0.3301  0.0137
 4285SOL    HW124491   2.835   2.857   6.861 -0.1678  0.7689  0.1317
 4285SOL    HW224492   2.706   2.829   6.932 -0.4497  0.3326 -0.0324
 4286SOL     OW24493   2.983   4.668   0.057  0.0793 -0.8160 -0.5627
 4286SOL    HW124494   3.025   4.717   0.127  2.1991 -1.7755 -1.1596
 4286SOL    HW224495   2.985   4.728  17.748  2.9343 -0.6635 -0.3641
 4287SOL     OW24496   2.604   0.371   6.551  0.5491 -0.1837  0.0753
 4287SOL    HW124497   2.647   0.376   6.637 -0.9644 -0.3003  0.8488
 4287SOL    HW224498   2.658   0.308   6.504 -0.9703 -2.1878  1.0157
 4288SOL     OW24499   2.651   3.458  12.069 -0.0044  0.6817  0.1733
 4288SOL    HW124500   2.735   3.435  12.030 -0.1721  1.2263 -0.5202
 4288SOL    HW224501   2.671   3.444  12.162 -1.0912 -2.0600 -0.0140
 4289SOL     OW24502   2.218   4.581  12.485 -0.0297 -0.0639  0.0594
 4289SOL    HW124503   2.270   4.618  12.557 -0.1956  1.7367 -0.7312
 4289SOL    HW224504   2.160   4.526  12.538  0.4856 -1.7481 -1.1442
 4290SOL     OW24505   4.474   2.672   6.786 -0.1669  0.0033 -0.8910
 4290SOL    HW124506   4.422   2.688   6.708 -2.9709 -0.1067  0.9494
 4290SOL    HW224507   4.425   2.699   6.864 -2.0386 -1.1676 -1.6633
 4291SOL     OW24508   2.756   3.677   0.663 -0.0907  0.2951 -0.3668
 4291SOL    HW124509   2.753   3.734   0.741 -2.3742  1.1471 -1.0787
 4291SOL    HW224510   2.845   3.643   0.674  0.3805  1.3372 -0.9515
 4292SOL     OW24511   3.503   2.545   3.939 -0.4128 -0.1509  0.6313
 4292SOL    HW124512   3.451   2.585   3.869 -0.0793  2.3468  1.7810
 4292SOL    HW224513   3.576   2.500   3.897 -1.3360 -0.4046 -0.6912
 4293SOL     OW24514   1.950   3.824   5.577  0.0533  0.4033  0.9964
 4293SOL    HW124515   1.907   3.841   5.492 -0.0947 -0.1312  0.9659
 4293SOL    HW224516   1.880   3.832   5.641  2.0502 -1.5172  3.4070
 4294SOL     OW24517   1.234   2.011  16.473 -0.3234 -0.3008  0.5196
 4294SOL    HW124518   1.299   1.946  16.447 -0.8572 -0.9758  0.8505
 4294SOL    HW224519   1.189   1.967  16.545  1.1645  0.5392  1.9635
 4295SOL     OW24520   1.924   4.577   6.356  0.0724  0.3917  0.1469
 4295SOL    HW124521   2.003   4.631   6.356 -0.4571  1.1707  0.8132
 4295SOL    HW224522   1.874   4.627   6.291  1.4052  0.5914 -0.7378
 4296SOL     OW24523   2.380   3.838   8.939  0.3429 -0.2817 -0.1939
 4296SOL    HW124524   2.338   3.753   8.953 -1.4985  0.9250  1.6978
 4296SOL    HW224525   2.437   3.813   8.867 -0.8178  1.4352 -1.7251
 4297SOL     OW24526   4.077   1.347   6.611 -0.3091 -0.3224  0.0198
 4297SOL    HW124527   4.030   1.264   6.609  0.4520 -0.7153 -1.6973
 4297SOL    HW224528   4.037   1.376   6.693 -1.8893  2.2431 -1.6771
 4298SOL     OW24529   4.069   0.535   8.563 -0.3243  0.2344  0.4280
 4298SOL    HW124530   4.111   0.563   8.645 -0.6319 -1.9184  1.3269
 4298SOL    HW224531   4.061   0.446   8.597 -0.0913  0.8778  2.1680
 4299SOL     OW24532   2.775   0.357  11.982 -0.6016  0.4334 -0.5763
 4299SOL    HW124533   2.781   0.273  12.029 -0.1364  0.4969 -0.5156
 4299SOL    HW224534   2.860   0.353  11.939 -1.2066  1.6120 -1.8591
 4300SOL     OW24535   3.459   4.106   4.359  0.1585  0.0563 -0.4739
 4300SOL    HW124536   3.463   4.060   4.275 -0.0610 -1.0228  0.1094
 4300SOL    HW224537   3.541   4.156   4.358 -0.3153  0.9019  2.8331
 4301SOL     OW24538   1.659   0.682   8.928 -0.0537  0.6671 -0.1329
 4301SOL    HW124539   1.690   0.762   8.971  0.2249  1.0960 -1.1430
 4301SOL    HW224540   1.738   0.675   8.875 -0.0943 -1.0834  0.0336
 4302SOL     OW24541   0.861   2.395  14.835  0.0658  0.1558 -0.2283
 4302SOL    HW124542   0.779   2.348  14.818 -0.6035  0.9881  0.7287
 4302SOL    HW224543   0.881   2.428  14.747  0.0775  0.0861 -0.2522
 4303SOL     OW24544   0.923   0.184   8.583  0.4090 -0.0338 -0.7071
 4303SOL    HW124545   0.900   0.209   8.672 -0.8873  0.5091 -1.2017
 4303SOL    HW224546   0.997   0.244   8.575  0.6764 -0.2656  0.0832
 4304SOL     OW24547   4.491   2.225   8.755  0.3955 -0.0346 -0.3158
 4304SOL    HW124548   4.581   2.255   8.770  0.3404  0.1068 -0.2704
 4304SOL    HW224549   4.455   2.310   8.731  0.7296  0.6369  1.5993
 4305SOL     OW24550   0.689   1.894   4.737  0.9683 -0.6464  0.9877
 4305SOL    HW124551   0.726   1.843   4.665 -0.4638 -0.7431  0.3240
 4305SOL    HW224552   0.751   1.967   4.736 -0.2550  0.3755  0.3006
 4306SOL     OW24553   4.259   2.227   4.813  0.1641 -0.1428 -0.4411
 4306SOL    HW124554   4.185   2.168   4.804 -0.1253 -0.1343  1.8810
 4306SOL    HW224555   4.267   2.279   4.733  0.8535 -0.0146 -0.2900
 4307SOL     OW24556   4.437   1.136   7.066 -0.3315  0.2538  0.0205
 4307SOL    HW124557   4.490   1.109   6.991 -3.0364  0.2312 -1.8715
 4307SOL    HW224558   4.469   1.073   7.131  1.9032  1.1851 -0.1684
 4308SOL     OW24559   3.327   3.558   1.068 -0.3136  0.5327 -0.0789
 4308SOL    HW124560   3.398   3.595   1.120 -1.4472  1.0851  1.0743
 4308SOL    HW224561   3.271   3.539   1.143  0.2241  1.4512  0.5497
 4309SOL     OW24562   0.512   0.817   8.771 -0.2352 -0.1810 -0.2736
 4309SOL    HW124563   0.596   0.820   8.726  0.4073  0.2445  0.9469
 4309SOL    HW224564   0.447   0.858   8.713 -0.0403  1.7162  0.8386
 4310SOL     OW24565   1.253   4.108   5.117  0.3884 -0.4504 -0.0803
 4310SOL    HW124566   1.324   4.142   5.171  0.2338 -0.8535  0.3743
 4310SOL    HW224567   1.188   4.176   5.135  1.4263  0.1544  1.3114
 4311SOL     OW24568   0.701   0.386   9.414 -0.4926 -0.1351  0.0994
 4311SOL    HW124569   0.628   0.392   9.476 -1.1549 -1.9324 -0.4890
 4311SOL    HW224570   0.675   0.463   9.364 -1.1171 -1.2611 -1.3225
 4312SOL     OW24571   3.202   1.906   2.488  0.4368  0.1642  0.4697
 4312SOL    HW124572   3.284   1.878   2.449 -0.3109 -0.4667 -0.6290
 4312SOL    HW224573   3.153   1.934   2.411  0.4532  1.5769  0.9682
 4313SOL     OW24574   3.559   1.785   4.536 -0.3257  0.7370 -0.2549
 4313SOL    HW124575   3.651   1.813   4.538 -0.4754  1.2736 -1.0586
 4313SOL    HW224576   3.571   1.715   4.472  0.3409 -0.4106  1.1184
 4314SOL     OW24577   2.537   1.736   3.162 -0.2118  0.4454 -0.2703
 4314SOL    HW124578   2.575   1.687   3.089  0.0083  0.9290 -0.4794
 4314SOL    HW224579   2.488   1.670   3.211 -0.9746  0.2136 -1.3466
 4315SOL     OW24580   3.674   0.648   1.401  0.1866 -0.8104  0.8768
 4315SOL    HW124581   3.585   0.615   1.392 -0.4028  0.9302  0.4095
 4315SOL    HW224582   3.649   0.725   1.451  1.4446 -1.1022  1.9669
 4316SOL     OW24583   0.445   3.034   0.062  0.0655  0.2170 -0.3544
 4316SOL    HW124584   0.373   3.047   0.001 -1.8559 -2.9238  1.2767
 4316SOL    HW224585   0.482   2.954   0.025 -0.0018  0.6574 -1.3734
 4317SOL     OW24586   1.959   0.711   8.914  0.3358 -0.6725  0.4669
 4317SOL    HW124587   1.994   0.796   8.942 -1.3358  0.2405 -0.2052
 4317SOL    HW224588   1.985   0.711   8.821 -0.9402 -1.5222  0.1235
 4318SOL     OW24589   3.087   2.122   8.628 -0.2669  0.3792  0.8605
 4318SOL    HW124590   2.995   2.111   8.649 -0.1278 -3.7738 -0.5671
 4318SOL    HW224591   3.125   2.038   8.656 -0.4203 -0.0077 -0.1046
 4319SOL     OW24592   3.907   3.849  10.884  0.0070  0.5798  0.0763
 4319SOL    HW124593   3.922   3.849  10.979 -0.5306  1.0688  0.1623
 4319SOL    HW224594   3.983   3.800  10.853 -0.6313 -1.5962  1.9731
 4320SOL     OW24595   0.759   1.517   9.411 -0.4793  0.2104  0.0603
 4320SOL    HW124596   0.785   1.598   9.454  0.0310 -1.2266  2.4956
 4320SOL    HW224597   0.666   1.526   9.433  0.1276  3.6132  1.2476
 4321SOL     OW24598   1.222   3.830   8.753 -0.0584 -0.4190  0.3001
 4321SOL    HW124599   1.245   3.908   8.803 -2.1609  1.4322 -1.6765
 4321SOL    HW224600   1.305   3.781   8.758  0.5849  0.4804 -1.5334
 4322SOL     OW24601   4.640   1.440  12.296  0.5242 -0.5248 -0.6589
 4322SOL    HW124602   4.636   1.345  12.287 -1.0730 -0.5523  0.2542
 4322SOL    HW224603   4.551   1.460  12.268  1.3906  1.4660 -1.9343
 4323SOL     OW24604   2.497   0.836   9.294  0.0713  0.1273 -0.2094
 4323SOL    HW124605   2.498   0.818   9.200  0.9327 -1.0167  0.0235
 4323SOL    HW224606   2.561   0.907   9.291  1.3409 -1.0752 -1.4852
 4324SOL     OW24607   3.932   3.000   9.130 -0.8192  0.7321 -0.4028
 4324SOL    HW124608   3.938   2.928   9.068 -1.6728 -1.6042  2.2465
 4324SOL    HW224609   4.026   3.010   9.145 -1.1255  1.4895  1.1148
 4325SOL     OW24610   4.569   0.028   8.979 -0.1339  0.3185 -0.0087
 4325SOL    HW124611   4.541   4.709   8.910 -2.0169  0.1965  0.8855
 4325SOL    HW224612   4.574   4.716   9.058 -1.3273 -0.8596 -0.7281
 4326SOL     OW24613   2.678   0.676   2.294  0.1137  0.0847 -0.2447
 4326SOL    HW124614   2.706   0.675   2.385  0.7076 -1.1125 -0.4383
 4326SOL    HW224615   2.583   0.671   2.296  0.0473  1.0250 -0.9086
 4327SOL     OW24616   0.206   2.940  17.126 -0.6814 -0.0747  0.0736
 4327SOL    HW124617   0.212   2.857  17.173 -0.5064  2.6499  4.8850
 4327SOL    HW224618   0.123   2.977  17.155 -0.1781  0.7936  0.4145
 4328SOL     OW24619   2.523   2.480   5.937 -0.8127 -0.3013  0.1866
 4328SOL    HW124620   2.479   2.422   5.876 -1.0293  1.3498 -1.2200
 4328SOL    HW224621   2.574   2.412   5.982 -0.9134 -1.0942 -0.9122
 4329SOL     OW24622   0.854   4.176  10.229 -0.0623  0.3663 -0.4076
 4329SOL    HW124623   0.786   4.117  10.196 -1.2391 -1.0722  4.6526
 4329SOL    HW224624   0.828   4.168  10.320 -0.1002  0.9779 -0.3644
 4330SOL     OW24625   3.307   0.823   6.123  0.0410  0.1464 -0.1531
 4330SOL    HW124626   3.351   0.738   6.124  1.2489  0.7660  0.4370
 4330SOL    HW224627   3.380   0.883   6.108  1.6943 -1.8477 -0.0606
 4331SOL     OW24628   0.871   3.376  11.766  0.0646 -0.1371 -0.4947
 4331SOL    HW124629   0.863   3.340  11.854 -0.9528  0.0570 -0.5183
 4331SOL    HW224630   0.796   3.332  11.727  1.7955 -1.4095 -2.3914
 4332SOL     OW24631   2.217   2.226   2.231 -0.3615  0.0325  0.0498
 4332SOL    HW124632   2.122   2.231   2.223 -0.5624  0.9399  2.9399
 4332SOL    HW224633   2.220   2.210   2.325 -0.6235  2.4257  0.4608
 4333SOL     OW24634   0.574   3.160  12.010  0.1296 -0.7278  0.3886
 4333SOL    HW124635   0.510   3.112  12.062  1.6338 -1.7003  1.3450
 4333SOL    HW224636   0.659   3.132  12.045  0.8637  0.8933 -0.0711
 4334SOL     OW24637   1.835   0.536   6.880 -0.5243 -0.6819 -0.0342
 4334SOL    HW124638   1.742   0.543   6.903  0.0790  0.7742  1.8591
 4334SOL    HW224639   1.834   0.570   6.790 -1.0757 -0.2015  0.1569
 4335SOL     OW24640   3.753   4.411   9.035 -1.0014  0.6032  0.5121
 4335SOL    HW124641   3.727   4.320   9.019 -0.0160  0.7247 -1.7247
 4335SOL    HW224642   3.847   4.401   9.049 -1.2299  0.3270  1.9201
 4336SOL     OW24643   1.797   4.559  17.039  0.8295 -0.2027  0.0051
 4336SOL    HW124644   1.770   4.483  16.989  0.0553 -0.9101  1.4926
 4336SOL    HW224645   1.889   4.562  17.013  0.1086  0.1596 -2.5484
 4337SOL     OW24646   0.945   3.496   4.164  0.4905 -0.3595 -0.9055
 4337SOL    HW124647   0.966   3.588   4.177 -1.7897 -0.0361  0.4174
 4337SOL    HW224648   0.894   3.504   4.083  0.3373  1.1780 -0.6439
 4338SOL     OW24649   0.796   3.120   7.524  0.8258  0.5211 -0.8891
 4338SOL    HW124650   0.882   3.082   7.542 -1.1731 -4.2049 -1.4637
 4338SOL    HW224651   0.738   3.064   7.576  0.1742  1.6488 -0.4150
 4339SOL     OW24652   1.871   0.656  17.261  0.2462 -0.0754 -0.5711
 4339SOL    HW124653   1.946   0.598  17.269 -0.4561 -0.8243  0.5544
 4339SOL    HW224654   1.891   0.714  17.335  1.4407 -1.8820  0.5106
 4340SOL     OW24655   0.987   2.786   5.993  0.7151  0.1964  0.0643
 4340SOL    HW124656   1.000   2.719   5.926  0.8841  1.5196 -1.2346
 4340SOL    HW224657   0.913   2.750   6.042  1.7450 -0.6870  0.9772
 4341SOL     OW24658   1.109   3.347   3.433 -0.0149 -0.2593  0.7422
 4341SOL    HW124659   1.076   3.400   3.361  2.3073 -0.5390 -0.5141
 4341SOL    HW224660   1.185   3.402   3.448 -0.8141  1.0780 -0.1412
 4342SOL     OW24661   1.501   2.429  10.636  0.4815 -0.2299 -0.1224
 4342SOL    HW124662   1.596   2.417  10.632  0.2379 -1.4308 -2.5594
 4342SOL    HW224663   1.489   2.478  10.554 -0.2147 -0.1481  0.0270
 4343SOL     OW24664   0.389   1.251  13.559 -0.1612  0.1822 -0.0020
 4343SOL    HW124665   0.311   1.260  13.614 -0.3252 -1.1381 -0.0325
 4343SOL    HW224666   0.377   1.329  13.505  0.9520 -0.4324 -1.1403
 4344SOL     OW24667   2.465   3.877  10.913  0.1919 -0.3882  0.1932
 4344SOL    HW124668   2.474   3.963  10.873 -1.2643  0.2522  1.2606
 4344SOL    HW224669   2.402   3.899  10.982 -0.5092  0.3738 -0.7036
 4345SOL     OW24670   2.113   4.654   3.105  0.2343  0.0335  0.2174
 4345SOL    HW124671   2.124   4.654   3.010 -0.9402  1.6845  0.0718
 4345SOL    HW224672   2.124   4.563   3.132  1.0749 -0.1519 -0.7517
 4346SOL     OW24673   4.138   2.926  13.032 -0.3840  0.4390  0.1569
 4346SOL    HW124674   4.165   2.897  12.945  2.4860  0.6539  0.9823
 4346SOL    HW224675   4.198   2.874  13.085  0.3965 -1.0946 -2.2112
 4347SOL     OW24676   2.137   4.368  12.644  0.4806  0.2960 -0.1214
 4347SOL    HW124677   2.150   4.405  12.732 -0.3127 -2.5108  1.1817
 4347SOL    HW224678   2.215   4.313  12.638 -0.1020 -0.8345  2.2144
 4348SOL     OW24679   0.490   4.545   1.140 -0.1111  0.4981  0.4318
 4348SOL    HW124680   0.550   4.471   1.135 -0.0268  0.4726  1.8931
 4348SOL    HW224681   0.520   4.586   1.059 -0.4182  0.1541  0.1437
 4349SOL     OW24682   4.084   3.482  10.697 -0.0433  0.1427  0.1861
 4349SOL    HW124683   4.125   3.569  10.700 -0.4173  0.4277 -2.4270
 4349SOL    HW224684   4.089   3.458  10.789 -1.0611  1.7793  0.6712
 4350SOL     OW24685   4.019   0.854   7.353 -0.3232  0.0609  0.5680
 4350SOL    HW124686   4.074   0.918   7.399 -0.6261  1.0117 -0.3969
 4350SOL    HW224687   4.036   0.778   7.409  2.6885  1.9327  2.2284
 4351SOL     OW24688   2.283   4.477  17.625 -0.1137  0.1264 -0.5008
 4351SOL    HW124689   2.320   4.395  17.659  0.1071 -0.0933 -1.2840
 4351SOL    HW224690   2.358   4.525  17.590  0.8127 -0.9796 -0.0372
 4352SOL     OW24691   3.872   4.155   5.798 -0.3552  0.0332 -0.0573
 4352SOL    HW124692   3.807   4.221   5.824  0.9042  0.7112  1.3908
 4352SOL    HW224693   3.953   4.190   5.835 -0.4450 -0.8530  0.9862
 4353SOL     OW24694   2.257   3.986  14.892  0.6336  0.1339  0.1176
 4353SOL    HW124695   2.171   4.006  14.856  1.2412  0.9783 -0.8609
 4353SOL    HW224696   2.321   3.995  14.821  0.3670 -0.2259 -0.1697
 4354SOL     OW24697   0.561   1.217  11.155  0.0466 -0.2787  0.0686
 4354SOL    HW124698   0.592   1.204  11.244  0.1516  2.1642  0.3666
 4354SOL    HW224699   0.595   1.133  11.123  2.1413  0.1882  1.0564
 4355SOL     OW24700   2.464   2.497   2.784  0.3147  0.0757  0.5371
 4355SOL    HW124701   2.471   2.414   2.735  1.4794  1.1355 -1.1146
 4355SOL    HW224702   2.393   2.472   2.843  0.3065  0.3142  0.6244
 4356SOL     OW24703   0.469   2.406  15.668  0.2050  0.2597  0.1137
 4356SOL    HW124704   0.509   2.425  15.584 -1.0392  0.7298 -0.3695
 4356SOL    HW224705   0.445   2.315  15.649  2.1429 -0.7853  2.5840
 4357SOL     OW24706   3.425   1.565   8.913  0.3694 -0.0598 -0.0540
 4357SOL    HW124707   3.400   1.657   8.905  0.4957 -0.1207 -1.1285
 4357SOL    HW224708   3.440   1.537   8.823 -0.0008 -0.3550 -0.0293
 4358SOL     OW24709   0.492   4.364   5.325  0.2988 -0.1298 -0.6766
 4358SOL    HW124710   0.434   4.362   5.402  0.6070  2.3789 -0.4053
 4358SOL    HW224711   0.577   4.370   5.370 -0.0492 -0.5799  0.0515
 4359SOL     OW24712   2.280   3.574   8.957  0.3482  0.6270 -0.1343
 4359SOL    HW124713   2.202   3.559   8.904  0.2729  1.6471 -0.3198
 4359SOL    HW224714   2.247   3.564   9.046  0.7321 -2.8570 -0.3724
 4360SOL     OW24715   0.052   0.705   1.898 -0.0665  0.4618  0.2313
 4360SOL    HW124716   0.090   0.624   1.864 -1.5868  0.5653 -1.7615
 4360SOL    HW224717   4.702   0.690   1.877  0.0406 -0.5246  0.4900
 4361SOL     OW24718   3.029   2.588   2.756 -0.3726 -0.0078 -0.6858
 4361SOL    HW124719   3.111   2.602   2.709 -0.4462  0.4471 -0.6817
 4361SOL    HW224720   3.055   2.506   2.798 -2.5498 -0.0236  0.6651
 4362SOL     OW24721   4.317   2.814   5.149 -0.1364  0.1428  0.8019
 4362SOL    HW124722   4.379   2.791   5.080  1.0929  2.2858  1.1755
 4362SOL    HW224723   4.248   2.751   5.130  1.4217 -1.0454 -0.8714
 4363SOL     OW24724   1.297   1.653   7.724 -0.0769 -0.1682 -0.5574
 4363SOL    HW124725   1.295   1.690   7.635  1.6602  0.8732 -0.1628
 4363SOL    HW224726   1.374   1.597   7.715 -1.4889 -2.0967 -0.4467
 4364SOL     OW24727   2.919   3.172   7.346 -0.1437 -0.3648  0.2525
 4364SOL    HW124728   2.972   3.206   7.418 -0.5115 -0.5679  0.6204
 4364SOL    HW224729   2.941   3.079   7.343 -0.1526 -0.3422 -0.5240
 4365SOL     OW24730   1.728   0.662   6.292  0.1120 -0.1931  0.5494
 4365SOL    HW124731   1.636   0.685   6.302 -0.7693 -3.7043  0.3959
 4365SOL    HW224732   1.716   0.574   6.258  0.5628 -1.2373  3.0485
 4366SOL     OW24733   0.011   3.761  13.680  0.0965  0.8892 -0.0456
 4366SOL    HW124734   4.716   3.722  13.600 -2.3152  0.9253  1.0670
 4366SOL    HW224735   4.677   3.806  13.716 -2.0158 -2.6475 -0.0704
 4367SOL     OW24736   0.015   4.518  11.331  0.3828 -0.1215 -0.1116
 4367SOL    HW124737   0.059   4.531  11.415  2.8460 -1.6750 -1.1492
 4367SOL    HW224738   4.714   4.434  11.350 -1.4211  0.5906 -1.1081
 4368SOL     OW24739   1.960   2.759   4.619  0.1773  0.7175 -0.7966
 4368SOL    HW124740   2.036   2.792   4.667  1.5372 -3.2915 -0.2385
 4368SOL    HW224741   1.898   2.788   4.685  0.9431  0.1700  0.1637
 4369SOL     OW24742   1.003   2.556   4.564  0.7212  0.2550  0.0349
 4369SOL    HW124743   1.029   2.470   4.532 -1.3008 -1.1133  2.0806
 4369SOL    HW224744   1.085   2.606   4.564  0.4928  0.6249 -0.5272
 4370SOL     OW24745   4.248   1.254   5.005  0.1594  0.7766  0.4799
 4370SOL    HW124746   4.187   1.272   4.934  0.0381  0.3703  0.4802
 4370SOL    HW224747   4.208   1.277   5.089 -0.0942  1.3554  0.1997
 4371SOL     OW24748   1.031   0.775  14.226  0.0641 -0.1852 -0.8066
 4371SOL    HW124749   1.032   0.788  14.321 -1.6994  1.3864 -1.0174
 4371SOL    HW224750   0.974   0.844  14.191  0.9666  0.2193 -1.4939
 4372SOL     OW24751   2.960   4.526   6.309  0.3503 -0.5121  0.0348
 4372SOL    HW124752   2.973   4.521   6.215 -0.6417  1.2287 -0.2007
 4372SOL    HW224753   3.049   4.529   6.345  0.3771  2.0069 -0.2589
 4373SOL     OW24754   0.886   0.361   8.106  0.6413  0.0145 -0.0467
 4373SOL    HW124755   0.828   0.365   8.030  0.2447  0.3956  0.2756
 4373SOL    HW224756   0.824   0.329   8.171 -0.1464  0.7721 -0.4201
 4374SOL     OW24757   2.927   1.423   8.408 -0.4527 -0.0584  0.4004
 4374SOL    HW124758   2.981   1.405   8.485  0.9462  1.0224 -0.3279
 4374SOL    HW224759   2.972   1.370   8.341 -1.1791 -1.2827  0.8790
 4375SOL     OW24760   1.313   1.817   5.953 -0.4922 -0.5538 -0.0744
 4375SOL    HW124761   1.295   1.890   5.893  0.5865 -1.4421 -1.4974
 4375SOL    HW224762   1.240   1.763   5.924 -1.2518  0.3988  0.0636
 4376SOL     OW24763   1.126   2.947   4.798 -0.0010  0.0283  0.3770
 4376SOL    HW124764   1.151   2.857   4.817 -0.9632 -0.2233  0.4835
 4376SOL    HW224765   1.154   3.001   4.872  3.2071 -0.1362 -0.7497
 4377SOL     OW24766   0.898   0.449   3.693  0.5441  0.3821 -0.1440
 4377SOL    HW124767   0.991   0.463   3.712  0.5874  0.0625 -0.1210
 4377SOL    HW224768   0.898   0.430   3.599 -1.1104 -1.9370  0.3354
 4378SOL     OW24769   3.969   3.491   4.958  0.3076  0.7268  0.0639
 4378SOL    HW124770   3.919   3.519   5.035 -0.0805  0.8991 -0.2505
 4378SOL    HW224771   4.057   3.477   4.992  0.1617  0.8813  0.5138
 4379SOL     OW24772   1.586   3.600   2.595 -0.1910  0.0037 -0.6656
 4379SOL    HW124773   1.527   3.650   2.651 -1.6316 -1.7769 -0.5840
 4379SOL    HW224774   1.630   3.671   2.550 -1.1901  2.1299  1.7052
 4380SOL     OW24775   0.230   3.546   7.588  0.2666  0.1749  0.3649
 4380SOL    HW124776   0.147   3.535   7.541  0.7446  0.9468 -0.6841
 4380SOL    HW224777   0.272   3.603   7.523  0.1767 -1.6170 -1.2643
 4381SOL     OW24778   0.056   1.680   4.193 -0.3702 -0.2151 -0.0274
 4381SOL    HW124779   0.149   1.663   4.212 -0.5729  0.1752  1.2833
 4381SOL    HW224780   0.018   1.657   4.278  1.3558  1.7324  1.2665
 4382SOL     OW24781   1.264   0.445   6.870  0.6139  0.1363  0.8683
 4382SOL    HW124782   1.280   0.436   6.776 -0.9845  1.2441  0.4879
 4382SOL    HW224783   1.295   0.535   6.878  2.9273 -0.7061  1.4557
 4383SOL     OW24784   1.945   2.438   4.682 -0.4232  0.2154 -0.8058
 4383SOL    HW124785   2.040   2.438   4.678 -0.2784  0.0839  2.3159
 4383SOL    HW224786   1.928   2.517   4.632 -0.9194  1.9359  2.0864
 4384SOL     OW24787   3.994   2.487   3.144 -0.0620  0.3763  0.3479
 4384SOL    HW124788   4.016   2.576   3.172 -1.0029  0.2394  1.5774
 4384SOL    HW224789   3.977   2.448   3.230  0.8863 -0.3420  0.2064
 4385SOL     OW24790   2.440   2.439   9.704 -0.2246 -0.5809  0.0097
 4385SOL    HW124791   2.450   2.477   9.791  0.1516  1.7655 -1.0436
 4385SOL    HW224792   2.344   2.444   9.702 -0.1399  0.4606 -1.4231
 4386SOL     OW24793   0.440   1.226   2.305 -0.7991 -0.2682 -0.6337
 4386SOL    HW124794   0.402   1.196   2.388 -0.6562 -1.7020 -1.0790
 4386SOL    HW224795   0.372   1.229   2.238 -0.0742 -1.9442 -1.4463
 4387SOL     OW24796   1.905   2.808   5.923 -0.7387 -0.1473  0.0718
 4387SOL    HW124797   1.943   2.720   5.915  1.6740  0.8388  0.7412
 4387SOL    HW224798   1.880   2.822   5.832 -2.2123 -3.0238  0.0445
 4388SOL     OW24799   3.581   1.885  11.228 -0.0492  0.2644  0.2584
 4388SOL    HW124800   3.563   1.808  11.283  1.3921 -0.2617  0.0100
 4388SOL    HW224801   3.494   1.924  11.225 -0.3437 -0.2629  2.1395
 4389SOL     OW24802   4.363   4.380   7.150  0.4309 -0.1358 -0.0618
 4389SOL    HW124803   4.370   4.331   7.232  0.4577  2.3710  1.4177
 4389SOL    HW224804   4.307   4.327   7.093  0.1255 -0.7765  0.8468
 4390SOL     OW24805   3.605   0.474   5.721  0.1916 -0.0048  0.2643
 4390SOL    HW124806   3.677   0.411   5.726 -0.5358 -0.9733 -1.3484
 4390SOL    HW224807   3.544   0.428   5.778 -0.1051  1.8235  1.4398
 4391SOL     OW24808   0.366   4.614   1.373  0.0599  0.4574  0.2815
 4391SOL    HW124809   0.416   4.690   1.342  1.1266 -0.5353 -0.4373
 4391SOL    HW224810   0.349   4.581   1.284  0.5817  0.7287  0.0834
 4392SOL     OW24811   2.319   4.565  14.064 -0.2100 -0.0018  0.3016
 4392SOL    HW124812   2.380   4.530  14.129  0.5809 -2.7880 -1.9288
 4392SOL    HW224813   2.243   4.508  14.074 -1.1572  1.1341 -0.3550
 4393SOL     OW24814   3.260   1.634   6.799  0.7208  0.7045  0.1857
 4393SOL    HW124815   3.299   1.707   6.846  0.1578  1.5722 -0.6972
 4393SOL    HW224816   3.245   1.668   6.710  0.4885 -1.1606 -0.5008
 4394SOL     OW24817   4.449   0.597   4.629 -0.0110  0.4425  0.6781
 4394SOL    HW124818   4.508   0.575   4.701  0.3378 -2.7205 -0.5486
 4394SOL    HW224819   4.395   0.654   4.683 -1.5714 -1.0580  0.7009
 4395SOL     OW24820   0.461   1.745   4.810  0.6828  0.2584 -0.5372
 4395SOL    HW124821   0.403   1.759   4.735 -0.2852  0.2756  0.2298
 4395SOL    HW224822   0.529   1.810   4.795  2.0116 -0.8251  0.7337
 4396SOL     OW24823   3.891   1.649   8.221 -0.1942  0.0444  0.1213
 4396SOL    HW124824   3.965   1.631   8.279 -1.1742 -1.8700  0.7717
 4396SOL    HW224825   3.865   1.558   8.208  0.9175 -0.0520 -1.3889
 4397SOL     OW24826   4.739   0.222   8.230  0.0829 -0.7572 -0.2879
 4397SOL    HW124827   4.690   0.280   8.173  0.0852 -1.2068 -0.7476
 4397SOL    HW224828   0.082   0.263   8.246  0.5785 -2.2743  0.9489
 4398SOL     OW24829   4.178   4.071   2.368 -0.4961  0.2636  0.4026
 4398SOL    HW124830   4.208   4.141   2.311  0.2041  0.0426  0.5017
 4398SOL    HW224831   4.201   4.099   2.456 -0.9251  0.2886  0.5069
 4399SOL     OW24832   1.182   2.107   8.856  0.5648 -0.5586 -0.0157
 4399SOL    HW124833   1.115   2.058   8.904  0.6895 -1.9351 -1.2588
 4399SOL    HW224834   1.222   2.156   8.928 -1.6621 -1.9587  2.1867
 4400SOL     OW24835   3.146   4.061  16.785 -0.5896 -0.2947 -0.0722
 4400SOL    HW124836   3.172   4.078  16.876  0.5711 -0.2174 -0.4205
 4400SOL    HW224837   3.233   4.061  16.746 -0.1364  1.7376  0.8875
 4401SOL     OW24838   1.745   1.467  10.661  0.1810  0.2161 -0.1606
 4401SOL    HW124839   1.785   1.403  10.602  0.1178 -0.4684  0.5374
 4401SOL    HW224840   1.710   1.414  10.733  1.2902 -0.6925 -0.2947
 4402SOL     OW24841   1.848   3.639  10.640  0.7162  0.2836  0.0186
 4402SOL    HW124842   1.925   3.607  10.687 -0.5129 -1.0086  1.1900
 4402SOL    HW224843   1.792   3.641  10.718 -1.2653  0.4695 -1.4067
 4403SOL     OW24844   3.066   3.519   7.399  0.0478 -0.1861  0.4575
 4403SOL    HW124845   3.152   3.561   7.405  0.4677 -0.9656 -0.0881
 4403SOL    HW224846   3.033   3.586   7.340  0.2608 -1.2434 -0.8450
 4404SOL     OW24847   2.545   3.708   8.732 -0.3312 -0.1117 -0.5369
 4404SOL    HW124848   2.571   3.779   8.673  0.4334 -1.6144 -1.9944
 4404SOL    HW224849   2.460   3.683   8.697 -0.4445 -1.0206  0.4120
 4405SOL     OW24850   1.175   2.726   2.619  0.4014  0.0499  0.0622
 4405SOL    HW124851   1.214   2.776   2.547 -1.1066  0.6733 -0.3069
 4405SOL    HW224852   1.246   2.666   2.644  0.7634 -0.3307 -1.8599
 4406SOL     OW24853   2.321   2.407   5.755 -0.1335 -0.4907  0.4448
 4406SOL    HW124854   2.284   2.358   5.681 -0.2868  1.0937 -0.5336
 4406SOL    HW224855   2.348   2.487   5.710 -1.2950 -0.5792 -0.3994
 4407SOL     OW24856   1.435   2.273   9.344  0.2555  0.2405 -0.2335
 4407SOL    HW124857   1.392   2.247   9.426 -0.3650  1.4383 -0.1706
 4407SOL    HW224858   1.416   2.367   9.347 -2.0151 -0.1611 -3.6084
 4408SOL     OW24859   3.178   3.858  13.851  0.1846  0.1923 -0.2892
 4408SOL    HW124860   3.083   3.852  13.843  0.3568 -1.9854 -0.7592
 4408SOL    HW224861   3.216   3.770  13.856 -1.0249 -0.2981  0.1967
 4409SOL     OW24862   1.048   1.644   6.608 -0.0527 -0.1961  0.2071
 4409SOL    HW124863   1.124   1.654   6.665 -1.3098  2.3848  1.4467
 4409SOL    HW224864   1.093   1.646   6.524 -0.5742  2.1195 -0.0282
 4410SOL     OW24865   2.408   4.711   2.202 -0.0888 -0.3425 -0.4623
 4410SOL    HW124866   2.424   4.670   2.118 -2.3087 -0.2344 -0.9346
 4410SOL    HW224867   2.446   0.055   2.185  0.3648 -0.0469  2.0560
 4411SOL     OW24868   0.982   3.395  13.914  0.0208 -0.1961 -0.4797
 4411SOL    HW124869   0.912   3.456  13.938  0.4574  0.1519 -0.0941
 4411SOL    HW224870   1.038   3.418  13.988 -1.1213 -0.1140  0.3384
 4412SOL     OW24871   2.814   2.327   7.946 -0.5751  0.0773  0.2913
 4412SOL    HW124872   2.849   2.335   7.857 -1.8534 -0.1562 -0.2305
 4412SOL    HW224873   2.884   2.351   8.007  0.6956  1.9114 -1.8698
 4413SOL     OW24874   2.812   2.199   6.981  0.0996 -0.0861 -0.0723
 4413SOL    HW124875   2.893   2.213   7.029  0.2993  1.9277 -0.9908
 4413SOL    HW224876   2.789   2.117   7.025 -1.0634 -0.1090 -0.7249
 4414SOL     OW24877   3.634   3.240   0.903 -0.0168 -0.2167 -0.3217
 4414SOL    HW124878   3.590   3.201   0.979 -0.2585  0.1316 -0.2803
 4414SOL    HW224879   3.597   3.328   0.901  0.1369 -0.1104  1.2148
 4415SOL     OW24880   2.138   0.577   3.792 -0.5005  0.1630 -0.1369
 4415SOL    HW124881   2.080   0.633   3.843 -0.9645 -1.4768  1.1404
 4415SOL    HW224882   2.176   0.518   3.857 -0.1045  0.4381 -0.1206
 4416SOL     OW24883   4.250   3.750  13.540  0.2560 -0.2351 -0.2553
 4416SOL    HW124884   4.160   3.729  13.565  0.0045  0.3696 -0.6553
 4416SOL    HW224885   4.270   3.816  13.606  0.9684  0.1150 -0.8099
 4417SOL     OW24886   4.605   1.030   5.237 -0.0907  0.3828  0.3077
 4417SOL    HW124887   4.584   1.076   5.319  1.9127 -1.4888  1.8904
 4417SOL    HW224888   4.543   1.074   5.179  1.4212  0.9737 -0.8719
 4418SOL     OW24889   3.487   1.045  16.691  0.2375  0.0710 -0.5575
 4418SOL    HW124890   3.561   1.041  16.631  0.1384  0.0461 -0.6792
 4418SOL    HW224891   3.419   1.063  16.626 -0.7412 -2.6165 -0.2663
 4419SOL     OW24892   3.721   4.620  16.781  0.1941 -0.0838  0.1557
 4419SOL    HW124893   3.655   4.683  16.751  0.5236  0.5221  0.6953
 4419SOL    HW224894   3.767   4.589  16.703  0.4671 -0.3537  0.4245
 4420SOL     OW24895   2.599   4.073   5.874 -0.3168  0.2320 -0.0066
 4420SOL    HW124896   2.538   4.117   5.815  0.3206 -1.9514 -2.3101
 4420SOL    HW224897   2.538   4.076   5.947 -0.9960 -0.4935 -0.5424
 4421SOL     OW24898   0.679   2.841   8.386  0.2313  0.5708  0.2897
 4421SOL    HW124899   0.748   2.777   8.404  1.0741  1.4017  0.0032
 4421SOL    HW224900   0.650   2.813   8.300  2.0793  1.1000 -0.4988
 4422SOL     OW24901   0.348   0.277  15.508 -0.0831  0.0346  0.7205
 4422SOL    HW124902   0.314   0.196  15.546 -0.6654  0.7888  1.8216
 4422SOL    HW224903   0.308   0.343  15.566  1.1530  2.1024 -0.7596
 4423SOL     OW24904   1.229   1.393   9.089 -0.0925 -0.3238  0.3126
 4423SOL    HW124905   1.206   1.308   9.125 -0.0284  0.0894  1.3309
 4423SOL    HW224906   1.189   1.391   9.002 -1.3103  0.2185  0.8521
 4424SOL     OW24907   2.076   0.636   8.665 -0.1687  0.3769  0.3232
 4424SOL    HW124908   2.015   0.565   8.645 -2.2681  2.1436  0.3628
 4424SOL    HW224909   2.158   0.590   8.647  0.0025  0.9036 -0.2079
 4425SOL     OW24910   1.130   2.210   7.383 -0.1761 -0.0354 -0.0367
 4425SOL    HW124911   1.103   2.123   7.354 -0.8246  0.8297 -2.0615
 4425SOL    HW224912   1.060   2.239   7.443  1.0819  0.5919  1.1305
 4426SOL     OW24913   1.876   2.731   7.806 -0.4706  0.6761  0.5525
 4426SOL    HW124914   1.830   2.767   7.730  0.0491  0.3687  0.0866
 4426SOL    HW224915   1.900   2.644   7.775  0.1094  1.4133 -1.0725
 4427SOL     OW24916   2.170   4.212   9.992  0.7021  0.4881  0.1026
 4427SOL    HW124917   2.221   4.165   9.926 -0.6712  0.2023 -0.7608
 4427SOL    HW224918   2.236   4.277  10.017 -0.5443  2.1282 -0.8183
 4428SOL     OW24919   4.444   3.772   0.960  0.4596  0.4655  0.6682
 4428SOL    HW124920   4.458   3.865   0.977  1.4647  0.5888 -0.8563
 4428SOL    HW224921   4.513   3.728   1.009 -0.6840 -0.9642  1.0119
 4429SOL     OW24922   0.508   1.253   4.381 -0.4428  0.0946  0.0690
 4429SOL    HW124923   0.565   1.181   4.405 -2.1934 -1.6620 -1.0263
 4429SOL    HW224924   0.460   1.209   4.310  0.5866 -1.9780  0.6870
 4430SOL     OW24925   0.505   2.349   8.688 -0.0685 -0.2728  0.2161
 4430SOL    HW124926   0.560   2.400   8.629 -0.5869 -0.2383 -0.2407
 4430SOL    HW224927   0.552   2.267   8.698 -3.1598 -2.1093 -0.4582
 4431SOL     OW24928   0.630   0.065   1.178 -0.3764  0.1799  1.3624
 4431SOL    HW124929   0.717   0.030   1.197  0.7052  0.9360 -2.2182
 4431SOL    HW224930   0.607   0.022   1.096 -0.2487 -0.9500  1.9250
 4432SOL     OW24931   3.084   2.593   7.358  0.5375  0.0264 -0.5687
 4432SOL    HW124932   3.104   2.507   7.395  1.7697  0.1842 -0.8720
 4432SOL    HW224933   3.056   2.564   7.271 -0.1804  0.7079 -0.5728
 4433SOL     OW24934   4.074   3.888   3.983 -0.6657  0.2504 -0.0671
 4433SOL    HW124935   4.035   3.873   3.897 -0.9690 -1.3694  0.3598
 4433SOL    HW224936   4.152   3.943   3.972 -0.7408  0.3177 -0.2646
 4434SOL     OW24937   2.272   2.016   3.336 -0.3912  0.0293  0.0247
 4434SOL    HW124938   2.226   2.097   3.315  1.5330  1.4100  1.1558
 4434SOL    HW224939   2.336   2.002   3.266 -0.4645  1.0450 -0.2401
 4435SOL     OW24940   2.050   0.213   3.942  0.1427  0.5914 -0.4456
 4435SOL    HW124941   2.066   0.305   3.962  0.3840 -0.2870  3.3500
 4435SOL    HW224942   1.958   0.200   3.966  0.1909  0.6435 -0.2335
 4436SOL     OW24943   4.328   4.635   5.880 -0.0918 -0.0502  0.6385
 4436SOL    HW124944   4.373   4.552   5.894 -2.1523 -1.1895  0.3490
 4436SOL    HW224945   4.245   4.599   5.849  0.8136 -1.7597  0.1940
 4437SOL     OW24946   3.400   3.957  13.688 -0.3262  0.5240  0.4313
 4437SOL    HW124947   3.401   4.031  13.748  1.3657 -0.2217  1.3279
 4437SOL    HW224948   3.311   3.924  13.694  0.4096 -1.3517  0.9139
 4438SOL     OW24949   0.819   4.044   4.650 -0.2224  0.1873 -0.3813
 4438SOL    HW124950   0.763   4.030   4.573 -1.4546 -2.6490  1.0328
 4438SOL    HW224951   0.903   4.030   4.605 -0.5423 -1.9438 -0.3174
 4439SOL     OW24952   0.402   0.759   5.376 -0.2502  0.2663  0.4703
 4439SOL    HW124953   0.370   0.701   5.306  0.8008 -1.4246  1.3783
 4439SOL    HW224954   0.356   0.718   5.450 -0.7576 -1.7682 -0.9675
 4440SOL     OW24955   3.055   0.156   2.794  0.2133 -0.0097 -0.2006
 4440SOL    HW124956   3.039   0.073   2.749  2.1794  0.4490 -1.7389
 4440SOL    HW224957   3.110   0.197   2.727 -2.2647 -1.3558 -3.0594
 4441SOL     OW24958   3.068   0.406   2.498  0.1931  0.2767 -0.2349
 4441SOL    HW124959   3.056   0.441   2.410 -0.3754  0.2081 -0.1851
 4441SOL    HW224960   3.131   0.465   2.540 -0.3380  0.7165 -0.0560
 4442SOL     OW24961   3.895   4.073   5.012  0.0232 -0.1767 -1.2335
 4442SOL    HW124962   3.848   4.134   5.068 -0.9167 -2.0929  0.0902
 4442SOL    HW224963   3.894   3.989   5.058 -0.6789 -0.6433 -2.1002
 4443SOL     OW24964   1.026   1.635   4.153  0.2416 -0.2463 -0.4209
 4443SOL    HW124965   0.967   1.575   4.106  0.0196  1.1381 -1.8971
 4443SOL    HW224966   1.064   1.684   4.080 -0.6046 -1.4159 -1.6560
 4444SOL     OW24967   2.136   0.240   4.904 -0.2430  0.4089 -0.2106
 4444SOL    HW124968   2.123   0.270   4.814  2.9798 -0.1940 -0.8817
 4444SOL    HW224969   2.227   0.269   4.909 -0.5195  1.0880  0.8292
 4445SOL     OW24970   4.094   0.433   6.238  0.2091  0.1710 -0.6156
 4445SOL    HW124971   4.014   0.465   6.198  0.3527  1.0476 -0.1909
 4445SOL    HW224972   4.105   0.347   6.196  1.7326 -0.3064  0.7508
 4446SOL     OW24973   2.426   4.043   7.677 -0.3049  0.2649  0.0802
 4446SOL    HW124974   2.386   3.956   7.683  1.8599 -0.7141  0.3941
 4446SOL    HW224975   2.432   4.066   7.584 -0.1970 -0.7812 -0.1755
 4447SOL     OW24976   3.693   2.747   1.368 -0.7159 -0.2797 -0.3822
 4447SOL    HW124977   3.716   2.656   1.346 -3.1484 -1.1561  0.6136
 4447SOL    HW224978   3.783   2.774   1.385 -1.0072  0.1713  0.4176
 4448SOL     OW24979   0.389   3.403  14.241  0.2904  0.0074 -0.4236
 4448SOL    HW124980   0.444   3.326  14.227 -0.8567 -0.8667 -0.0329
 4448SOL    HW224981   0.462   3.464  14.224  0.2453  0.0149 -0.5948
 4449SOL     OW24982   3.527   2.818   2.544  0.0724 -0.3721 -0.1797
 4449SOL    HW124983   3.570   2.896   2.508 -1.6082  0.4646 -0.4070
 4449SOL    HW224984   3.475   2.784   2.471  0.3079 -0.5442 -0.2684
 4450SOL     OW24985   0.314   1.947  10.877 -0.1619  0.4766  0.2176
 4450SOL    HW124986   0.286   1.870  10.828  0.0710  0.0516  0.7511
 4450SOL    HW224987   0.281   1.930  10.965  0.6880 -1.5683  0.1459
 4451SOL     OW24988   3.410   0.417   7.561  0.1228  0.2804  0.4233
 4451SOL    HW124989   3.378   0.340   7.608  1.1420  0.0691  0.7780
 4451SOL    HW224990   3.405   0.487   7.626 -2.5679  2.1890 -1.8186
 4452SOL     OW24991   2.209   1.176   4.761 -0.2265  0.3255 -0.4145
 4452SOL    HW124992   2.152   1.232   4.708 -0.7251  0.7198  0.5399
 4452SOL    HW224993   2.284   1.229   4.784  1.5447 -0.9519 -3.2890
 4453SOL     OW24994   2.783   2.766   3.072 -0.4190  0.0622 -0.2120
 4453SOL    HW124995   2.687   2.762   3.071 -0.4166  0.3110 -1.1603
 4453SOL    HW224996   2.804   2.713   2.995  1.5238  1.4504 -0.6370
 4454SOL     OW24997   1.153   4.704   7.707 -0.3140 -0.3915  0.3116
 4454SOL    HW124998   1.169   4.695   7.801 -0.3270  0.4982  0.3906
 4454SOL    HW224999   1.167   0.053   7.683 -4.1347  1.0190  3.5033
 4455SOL     OW25000   2.098   4.592  11.024  0.1500  0.4762  0.2017
 4455SOL    HW125001   2.169   4.648  11.057 -2.1234  1.9602  2.6072
 4455SOL    HW225002   2.106   4.583  10.929  2.6482 -2.9724  0.7103
 4456SOL     OW25003   4.271   0.367   1.270 -0.9128 -0.5466  0.2182
 4456SOL    HW125004   4.328   0.314   1.325 -0.0874 -0.8224 -0.9309
 4456SOL    HW225005   4.328   0.413   1.209 -0.0721 -0.4465  1.0783
 4457SOL     OW25006   2.326   3.979   6.713 -0.4541 -0.4961 -0.1371
 4457SOL    HW125007   2.274   4.035   6.656  0.7483 -0.8297 -1.5631
 4457SOL    HW225008   2.331   3.893   6.672  0.1002 -0.0270 -1.0605
 4458SOL     OW25009   0.041   2.779   0.510  0.0547 -0.6858  0.3091
 4458SOL    HW125010   4.728   2.721   0.562 -0.7268  2.0572  2.4842
 4458SOL    HW225011   0.010   2.764   0.420  1.6629 -0.6152 -0.2494
 4459SOL     OW25012   1.863   2.488   0.367  0.1131  0.5086  0.2110
 4459SOL    HW125013   1.772   2.509   0.347  0.2358  0.0617 -0.8213
 4459SOL    HW225014   1.879   2.405   0.321 -0.2512  0.9851 -0.7835
 4460SOL     OW25015   1.012   0.462   5.720  0.0906 -0.0251 -0.7249
 4460SOL    HW125016   0.925   0.486   5.689  0.5458  0.0901 -1.8849
 4460SOL    HW225017   1.062   0.426   5.647  2.9697  1.2626  0.5959
 4461SOL     OW25018   2.433   4.538   2.679 -0.1727 -0.1978  0.1840
 4461SOL    HW125019   2.473   4.526   2.765 -0.3132  0.3002  0.3233
 4461SOL    HW225020   2.507   4.519   2.621  1.2603  1.2322  1.5482
 4462SOL     OW25021   1.183   1.644   2.817 -0.4819  0.3860 -0.0450
 4462SOL    HW125022   1.206   1.737   2.814 -1.0548  0.5613  0.7232
 4462SOL    HW225023   1.123   1.636   2.892 -1.8837 -0.8015 -1.2828
 4463SOL     OW25024   4.007   0.362   9.473 -0.3686 -0.2572  0.8078
 4463SOL    HW125025   3.938   0.372   9.539 -1.7636 -0.9826 -0.5343
 4463SOL    HW225026   4.077   0.325   9.526  0.7507 -0.7322 -0.9743
 4464SOL     OW25027   4.509   4.315   8.795  0.4698  0.1914  0.1520
 4464SOL    HW125028   4.575   4.251   8.824  1.0444 -0.1932 -2.0570
 4464SOL    HW225029   4.429   4.262   8.799 -0.6540  1.8960  0.2280
 4465SOL     OW25030   2.420   2.494   3.889 -0.2959 -0.0136 -0.1986
 4465SOL    HW125031   2.332   2.460   3.873 -1.1497  1.9894  0.2298
 4465SOL    HW225032   2.464   2.433   3.830 -2.1643  1.6528 -3.3601
 4466SOL     OW25033   0.563   3.795   6.589 -0.0707  0.6624  0.1408
 4466SOL    HW125034   0.651   3.790   6.551  0.4529 -1.9527  1.6909
 4466SOL    HW225035   0.525   3.855   6.525  0.9581  2.0510  0.8237
 4467SOL     OW25036   2.816   4.585   3.689  0.4562  0.0957 -0.3596
 4467SOL    HW125037   2.727   4.617   3.675  0.1852 -0.4691  0.0510
 4467SOL    HW225038   2.862   4.664   3.717  1.0045 -1.2352  2.4884
 4468SOL     OW25039   3.194   0.903  13.639 -0.1323  0.0994  0.2131
 4468SOL    HW125040   3.193   0.849  13.560  2.2086  0.3202  0.0286
 4468SOL    HW225041   3.105   0.936  13.647 -0.1192  0.4874 -1.3154
 4469SOL     OW25042   0.588   0.230   2.373 -0.0187 -0.0385  0.2433
 4469SOL    HW125043   0.531   0.296   2.333 -0.7459 -0.4355  0.6143
 4469SOL    HW225044   0.525   0.160   2.393  1.2573 -0.7780  1.7001
 4470SOL     OW25045   0.940   1.742   2.618 -0.4244 -0.2723 -0.2638
 4470SOL    HW125046   1.007   1.700   2.673  0.6220  3.2156  1.1126
 4470SOL    HW225047   1.001   1.796   2.568  1.3347 -1.4288  0.6095
 4471SOL     OW25048   3.813   4.424   2.414  0.0417 -0.1411  0.0776
 4471SOL    HW125049   3.749   4.354   2.399 -0.7066  0.6181 -0.2284
 4471SOL    HW225050   3.834   4.433   2.321  1.4672  1.3176  0.5564
 4472SOL     OW25051   0.023   1.375   7.325 -0.0374  0.4399  0.3317
 4472SOL    HW125052   4.683   1.399   7.282 -0.3141 -0.1940  0.5165
 4472SOL    HW225053   0.073   1.453   7.299  1.3760 -0.0086  1.7214
 4473SOL     OW25054   2.455   3.095   5.486 -0.4452  0.0428 -0.2421
 4473SOL    HW125055   2.373   3.139   5.509 -1.0355 -0.6730 -0.9815
 4473SOL    HW225056   2.523   3.142   5.534  0.5119  0.6975 -2.2188
 4474SOL     OW25057   4.363   4.221   4.156  0.5003 -0.2261  0.2493
 4474SOL    HW125058   4.272   4.220   4.185  0.4331  2.6204  0.1095
 4474SOL    HW225059   4.354   4.152   4.090 -0.7168 -0.7222  0.9261
 4475SOL     OW25060   2.484   4.286   5.464 -0.1003 -0.7662 -0.6104
 4475SOL    HW125061   2.554   4.323   5.410  0.6394 -2.1715 -0.6100
 4475SOL    HW225062   2.416   4.354   5.464 -0.5680 -1.2270  0.4042
 4476SOL     OW25063   4.544   0.476   4.171  0.0819  0.2386  0.3150
 4476SOL    HW125064   4.542   0.499   4.078  2.4370 -0.5048  0.0871
 4476SOL    HW225065   4.521   0.383   4.166  2.2516 -0.3217  0.6811
 4477SOL     OW25066   4.016   3.228   5.641  0.0815 -0.1360  0.0766
 4477SOL    HW125067   3.983   3.257   5.726 -0.4904 -2.1241  0.5585
 4477SOL    HW225068   4.092   3.178   5.671 -1.1099 -2.6925 -1.1258
 4478SOL     OW25069   1.087   0.056   9.432  0.1343 -0.1485 -0.1073
 4478SOL    HW125070   1.122   0.001   9.502  1.5278  1.2093  0.2611
 4478SOL    HW225071   1.141   0.132   9.457  0.1815 -0.5295  0.9594
 4479SOL     OW25072   0.142   0.530   7.711 -0.5383 -0.3937  0.0475
 4479SOL    HW125073   0.113   0.449   7.670 -0.4618  0.1361 -1.0677
 4479SOL    HW225074   0.225   0.489   7.733 -0.2448 -0.0388 -0.3906
 4480SOL     OW25075   0.493   0.912   3.190 -0.0383 -0.8640  0.1402
 4480SOL    HW125076   0.530   0.948   3.271 -1.3004  0.0295  0.3211
 4480SOL    HW225077   0.403   0.940   3.208  0.2408 -0.8789  1.5985
 4481SOL     OW25078   1.577   4.061  14.937  0.0326 -0.0225 -0.2704
 4481SOL    HW125079   1.532   3.998  14.881 -0.9847  0.1777  0.3224
 4481SOL    HW225080   1.551   4.144  14.897 -0.3008  0.1666  0.3506
 4482SOL     OW25081   3.243   4.149   8.503  0.3311  0.2766 -0.3748
 4482SOL    HW125082   3.248   4.239   8.536 -0.4761  0.1150  0.1876
 4482SOL    HW225083   3.317   4.101   8.541  0.8001  2.2977  1.2919
 4483SOL     OW25084   3.339   1.873   3.324  0.0335  0.1826  0.4775
 4483SOL    HW125085   3.381   1.827   3.252  0.3641  2.8229 -1.0211
 4483SOL    HW225086   3.414   1.919   3.361 -0.8190  0.7632  1.4934
 4484SOL     OW25087   1.897   4.374   2.533  0.6313  0.2246  0.0190
 4484SOL    HW125088   1.830   4.311   2.504  2.3610 -1.3328 -0.5481
 4484SOL    HW225089   1.916   4.344   2.622 -1.3737 -2.9425 -0.6185
 4485SOL     OW25090   4.356   1.093   7.629 -0.6752  0.0726 -0.0619
 4485SOL    HW125091   4.337   1.138   7.711  4.2645  0.4867  0.8000
 4485SOL    HW225092   4.269   1.056   7.611 -0.9362  0.7063 -0.0890
 4486SOL     OW25093   0.394   2.079   8.089 -0.3958  0.1796 -0.6466
 4486SOL    HW125094   0.460   2.054   8.154  0.1378  0.8606 -0.9197
 4486SOL    HW225095   0.309   2.062   8.128  0.2425 -0.7979  0.3280
 4487SOL     OW25096   2.024   0.132   7.040  0.2865  0.0641  0.2475
 4487SOL    HW125097   2.082   0.087   7.102 -1.5074 -3.6590 -0.7936
 4487SOL    HW225098   2.068   0.121   6.956 -0.9649  0.6489 -0.4799
 4488SOL     OW25099   4.308   3.881   5.654  0.2457  0.0527 -0.0565
 4488SOL    HW125100   4.258   3.865   5.734  0.6107 -3.3838 -0.5179
 4488SOL    HW225101   4.302   3.974   5.633 -1.4934  0.0887  0.5696
 4489SOL     OW25102   0.865   1.143   4.937  0.1991 -0.2649 -0.0762
 4489SOL    HW125103   0.791   1.098   4.895 -0.0769 -0.7664  0.9600
 4489SOL    HW225104   0.852   1.232   4.902 -1.9360 -0.2535  0.7096
 4490SOL     OW25105   3.168   4.486   6.942 -0.4576 -0.3894 -0.1980
 4490SOL    HW125106   3.108   4.423   6.901  0.2952 -0.8974 -0.5208
 4490SOL    HW225107   3.203   4.529   6.864  2.1567 -1.5073  0.3473
 4491SOL     OW25108   3.158   3.201   2.692 -0.2306 -0.4217  0.2308
 4491SOL    HW125109   3.155   3.137   2.621  1.7257  1.3134 -1.4263
 4491SOL    HW225110   3.128   3.157   2.772 -1.1720  1.3524  0.8576
 4492SOL     OW25111   2.405   0.736   9.053 -0.1579 -0.5650 -0.8197
 4492SOL    HW125112   2.346   0.809   9.032  0.2272 -0.8589 -2.9519
 4492SOL    HW225113   2.353   0.675   9.105 -0.3589  2.0326  2.0362
 4493SOL     OW25114   1.001   0.450  13.122  0.0264  0.6677 -0.3164
 4493SOL    HW125115   0.936   0.432  13.054 -0.0202 -1.3616  0.2764
 4493SOL    HW225116   0.957   0.388  13.180 -2.8833  3.2889  0.2575
 4494SOL     OW25117   0.521   1.510   2.421  0.0053 -0.5507  0.2900
 4494SOL    HW125118   0.516   1.436   2.482 -0.0092 -0.6747  0.1392
 4494SOL    HW225119   0.594   1.553   2.466  0.3547 -0.9280  0.0859
 4495SOL     OW25120   1.259   0.874   6.462 -0.3375 -0.2561 -0.4634
 4495SOL    HW125121   1.329   0.855   6.400  0.1583  1.5135 -0.4403
 4495SOL    HW225122   1.187   0.835   6.413  0.7594 -1.9278 -0.7708
 4496SOL     OW25123   2.156   4.525  15.178  0.6514 -0.1681 -0.2532
 4496SOL    HW125124   2.119   4.539  15.090  0.2125  1.2130  0.1529
 4496SOL    HW225125   2.114   4.595  15.228  0.9278 -1.5283  1.8714
 4497SOL     OW25126   3.137   3.205   8.529 -0.6777  0.3614 -0.2025
 4497SOL    HW125127   3.098   3.125   8.563  2.2954 -0.0478  2.2097
 4497SOL    HW225128   3.107   3.270   8.593 -1.4331 -0.2387  0.0522
 4498SOL     OW25129   4.240   0.132   5.391  0.2141  0.1408  0.1708
 4498SOL    HW125130   4.303   0.102   5.457  1.0459  3.7985  1.0272
 4498SOL    HW225131   4.236   0.057   5.332  1.3029  0.1198  0.1080
 4499SOL     OW25132   0.796   3.060  16.901 -0.3097  0.3950  0.7677
 4499SOL    HW125133   0.758   3.056  16.813 -0.3860  0.6872  0.7876
 4499SOL    HW225134   0.841   3.142  16.924  0.1816  0.4935 -0.5362
 4500SOL     OW25135   1.280   1.817   8.776  0.5592 -0.6395  0.3034
 4500SOL    HW125136   1.350   1.753   8.765 -0.0382 -1.5476  1.8176
 4500SOL    HW225137   1.299   1.864   8.857 -1.1731  2.4113 -1.0596
 4501SOL     OW25138   1.314   0.963  14.798 -0.2511  0.3331 -0.0270
 4501SOL    HW125139   1.236   0.918  14.832  0.7290 -0.9524  0.5298
 4501SOL    HW225140   1.382   0.895  14.793 -0.3670  0.0790  1.9520
 4502SOL     OW25141   1.304   0.032  11.386 -0.5850  0.2202  0.2982
 4502SOL    HW125142   1.300   0.003  11.477  1.1512  0.3476  0.4231
 4502SOL    HW225143   1.211   0.042  11.365 -0.3300 -0.3975 -1.1107
 4503SOL     OW25144   4.706   2.034   8.839  0.4027  0.1317 -0.7133
 4503SOL    HW125145   0.032   2.006   8.778 -1.3867  0.6717 -2.9570
 4503SOL    HW225146   4.722   2.129   8.839  1.6098 -0.0580  2.1387
 4504SOL     OW25147   1.141   3.989   8.493  0.0969  0.2043 -0.3297
 4504SOL    HW125148   1.210   3.965   8.555  0.6729 -2.2384 -1.9290
 4504SOL    HW225149   1.123   4.083   8.504 -0.5650 -0.1869  1.9197
 4505SOL     OW25150   3.903   2.550   7.636  0.7180 -0.3242 -0.0580
 4505SOL    HW125151   3.911   2.616   7.705  0.8730  0.1333 -0.5105
 4505SOL    HW225152   3.812   2.525   7.655  0.8773 -1.4980 -0.8759
 4506SOL     OW25153   1.319   3.718   4.349 -0.0225  0.3691  0.3306
 4506SOL    HW125154   1.297   3.641   4.295  0.0680  0.5367  0.0551
 4506SOL    HW225155   1.246   3.759   4.302 -1.5500 -1.8222  0.7613
 4507SOL     OW25156   0.407   1.769   7.322 -0.1471 -0.0398 -0.3197
 4507SOL    HW125157   0.441   1.708   7.389 -1.4854 -0.6874 -0.2388
 4507SOL    HW225158   0.475   1.836   7.316  0.5234 -0.5495  1.3197
 4508SOL     OW25159   3.512   0.588   8.875  0.3097 -0.2844  0.1971
 4508SOL    HW125160   3.520   0.516   8.937 -0.5420  1.0416  1.8502
 4508SOL    HW225161   3.601   0.588   8.841 -0.1959 -0.7029 -1.1363
 4509SOL     OW25162   1.063   4.001   3.501 -0.1788  0.0487  0.3005
 4509SOL    HW125163   1.071   3.992   3.596  1.0058 -0.4039  0.1642
 4509SOL    HW225164   1.112   4.078   3.473 -1.6927  2.4130  4.1884
 4510SOL     OW25165   3.553   2.630  11.096 -0.1899  0.0943  0.3819
 4510SOL    HW125166   3.635   2.655  11.139 -0.1833  0.8374 -0.0638
 4510SOL    HW225167   3.576   2.552  11.045 -1.8403  1.3091 -2.1987
 4511SOL     OW25168   1.437   2.120   6.376  0.5330 -0.7447 -0.7328
 4511SOL    HW125169   1.483   2.178   6.436 -2.1290 -1.2876  1.8184
 4511SOL    HW225170   1.496   2.047   6.355  2.1677  0.3695 -0.0216
 4512SOL     OW25171   2.862   2.397   4.457  0.4038 -0.1766 -0.2837
 4512SOL    HW125172   2.837   2.339   4.386 -1.5955 -1.0818  1.1772
 4512SOL    HW225173   2.948   2.368   4.487  0.7295  0.0840 -0.9594
 4513SOL     OW25174   2.643   4.012   3.383  0.9951  0.0020 -0.6369
 4513SOL    HW125175   2.622   4.033   3.291 -0.7441 -0.5876 -0.3783
 4513SOL    HW225176   2.627   3.918   3.381  1.9515 -0.1553 -0.5654
 4514SOL     OW25177   2.987   0.906   3.488 -0.0973 -0.6622  0.4291
 4514SOL    HW125178   3.076   0.875   3.469  0.2479 -0.4977  1.7854
 4514SOL    HW225179   2.927   0.841   3.452  0.9317 -1.1924 -0.3592
 4515SOL     OW25180   2.190   2.233   5.070 -0.2603 -0.2814  0.0703
 4515SOL    HW125181   2.202   2.137   5.071  1.0272 -0.1174  0.6600
 4515SOL    HW225182   2.249   2.266   5.138 -0.9116 -0.3000  0.6380
 4516SOL     OW25183   3.256   0.227   3.301 -0.0395  0.6826 -0.1940
 4516SOL    HW125184   3.195   0.235   3.375 -1.2797 -1.8970 -0.9382
 4516SOL    HW225185   3.239   0.133   3.292 -1.6421  0.8183  1.2044
 4517SOL     OW25186   1.371   4.086  12.881  0.6258  0.4628  0.0739
 4517SOL    HW125187   1.297   4.101  12.940  0.7192  1.8614 -0.1733
 4517SOL    HW225188   1.348   3.997  12.855  1.3713  0.8194 -1.7618
 4518SOL     OW25189   2.446   1.099   5.078 -0.0802  0.1446 -0.4832
 4518SOL    HW125190   2.416   1.030   5.019 -0.2289  0.3892 -0.6939
 4518SOL    HW225191   2.538   1.090   5.052  1.0914  0.8926  3.3597
 4519SOL     OW25192   3.906   0.243   0.324  0.0281  0.9114  0.0189
 4519SOL    HW125193   3.979   0.244   0.262  0.7505 -3.2117  0.7523
 4519SOL    HW225194   3.902   0.335   0.351  2.3101  0.8911  0.4977
 4520SOL     OW25195   3.930   4.143   5.343  0.6980 -0.1592 -0.0661
 4520SOL    HW125196   3.878   4.203   5.289  0.3618  0.0748  0.5183
 4520SOL    HW225197   3.872   4.137   5.418  2.0075  1.9381  1.1330
 4521SOL     OW25198   1.505   1.854   5.565 -0.5537 -0.0680  0.2134
 4521SOL    HW125199   1.585   1.883   5.520  0.0328 -0.5140  0.9756
 4521SOL    HW225200   1.503   1.767   5.525 -1.5068  0.0162  0.0898
 4522SOL     OW25201   1.969   1.876   7.983 -0.4917 -0.1527 -0.2557
 4522SOL    HW125202   1.901   1.888   8.049 -0.2571  1.6211 -0.3263
 4522SOL    HW225203   1.947   1.949   7.925 -1.6045 -0.6911 -0.5189
 4523SOL     OW25204   1.467   0.707  14.795  0.6915  0.4259  0.1521
 4523SOL    HW125205   1.492   0.654  14.871  1.6973 -2.8893 -2.4952
 4523SOL    HW225206   1.556   0.733  14.774  1.1068 -0.8707  0.2914
 4524SOL     OW25207   0.298   3.981   2.393  0.4617  0.0953 -0.4466
 4524SOL    HW125208   0.320   4.020   2.478  0.8295  2.3220 -1.5699
 4524SOL    HW225209   0.222   3.928   2.418 -0.7348  1.8701 -0.3739
 4525SOL     OW25210   2.764   0.663   9.471  0.4434 -0.1968  0.0073
 4525SOL    HW125211   2.790   0.729   9.407  1.5193  1.2546  1.9289
 4525SOL    HW225212   2.746   0.724   9.543 -2.4265  1.3558 -2.0275
 4526SOL     OW25213   1.215   4.046   2.225 -0.1816  0.1820 -0.1780
 4526SOL    HW125214   1.252   4.005   2.147  1.9370  0.6330  0.5871
 4526SOL    HW225215   1.217   4.134   2.188  1.2641 -0.5589 -1.8374
 4527SOL     OW25216   2.351   2.604   8.460  0.1146 -0.8346  0.1450
 4527SOL    HW125217   2.315   2.689   8.433 -0.4756 -0.3598  2.3962
 4527SOL    HW225218   2.444   2.617   8.477 -0.0447  1.4130 -0.7678
 4528SOL     OW25219   3.117   1.549   4.067  0.3776 -0.1825 -0.5348
 4528SOL    HW125220   3.060   1.599   4.009 -0.8196 -0.9522 -0.0252
 4528SOL    HW225221   3.094   1.596   4.147  0.5287 -0.5939 -0.2519
 4529SOL     OW25222   4.402   3.459   3.657  0.1887  0.5568 -0.6924
 4529SOL    HW125223   4.347   3.383   3.642  0.4560  0.3564 -0.6631
 4529SOL    HW225224   4.379   3.471   3.749  0.2785 -1.9204 -0.3641
 4530SOL     OW25225   1.899   2.543   9.533  1.1303 -0.3524  0.1193
 4530SOL    HW125226   1.879   2.636   9.528 -1.1398 -0.7377  1.9496
 4530SOL    HW225227   1.882   2.501   9.448  1.1475  0.3414 -0.2272
 4531SOL     OW25228   2.878   2.864  16.036  0.3313  0.1114 -0.0660
 4531SOL    HW125229   2.866   2.770  16.026 -0.1009  0.0050  1.4362
 4531SOL    HW225230   2.836   2.892  15.955 -0.6090 -1.3144 -0.0820
 4532SOL     OW25231   0.072   0.661   4.078  0.1560 -0.3791  0.9779
 4532SOL    HW125232   0.083   0.756   4.069  0.7487 -0.2548  3.0587
 4532SOL    HW225233   0.007   0.661   4.148 -1.0034  0.3909 -0.1148
 4533SOL     OW25234   0.936   1.400  10.578 -0.1545  0.1910  0.1635
 4533SOL    HW125235   1.009   1.453  10.611 -0.8363  0.5754  1.0459
 4533SOL    HW225236   0.862   1.453  10.608  1.5759  0.3469  4.0956
 4534SOL     OW25237   0.198   3.338   4.364  0.1421  0.3038  0.0262
 4534SOL    HW125238   0.164   3.409   4.309 -0.9416  0.0995  0.4280
 4534SOL    HW225239   0.291   3.358   4.356  0.4754 -2.4059 -2.7821
 4535SOL     OW25240   0.490   4.528   5.863  0.8586 -0.2635  0.1182
 4535SOL    HW125241   0.500   4.475   5.942 -0.0747 -0.0869  0.3581
 4535SOL    HW225242   0.419   4.481   5.819  1.1729 -1.7274  1.1648
 4536SOL     OW25243   0.582   1.959   5.171  0.0600 -0.2980 -0.5140
 4536SOL    HW125244   0.634   1.879   5.157 -0.1352 -0.2194 -1.7160
 4536SOL    HW225245   0.612   1.991   5.256  0.5855 -2.1958  0.0257
 4537SOL     OW25246   2.799   3.910  13.605 -0.2022  0.0500 -0.5247
 4537SOL    HW125247   2.854   3.982  13.574  1.2229 -1.3471 -1.2173
 4537SOL    HW225248   2.737   3.889  13.536 -0.3535  3.1451 -1.3285
 4538SOL     OW25249   0.144   4.167   8.588 -0.1649  0.1326 -0.2756
 4538SOL    HW125250   0.093   4.247   8.586  2.1857  1.6336 -0.1571
 4538SOL    HW225251   0.109   4.124   8.666 -0.3061  0.6318 -0.0636
 4539SOL     OW25252   2.324   1.886   9.129  0.3391 -0.0537 -0.1568
 4539SOL    HW125253   2.416   1.863   9.138  0.1847 -0.8411 -0.5526
 4539SOL    HW225254   2.286   1.844   9.206 -0.8517  1.0218 -0.1475
 4540SOL     OW25255   0.850   0.180  13.908  0.3012 -0.2159  0.0156
 4540SOL    HW125256   0.904   0.239  13.856  0.4246 -0.6313 -0.3198
 4540SOL    HW225257   0.763   0.200  13.872 -0.0085  0.3239  1.0427
 4541SOL     OW25258   2.888   1.501   5.996  0.0544  0.0788  0.2607
 4541SOL    HW125259   2.928   1.415   5.981  0.7325  0.6366 -1.1202
 4541SOL    HW225260   2.963   1.541   6.041 -1.1979  1.5474  1.0286
 4542SOL     OW25261   3.122   3.314   8.005 -0.8881 -0.0560  0.5442
 4542SOL    HW125262   3.078   3.310   8.089  0.5535 -1.4956  1.2306
 4542SOL    HW225263   3.156   3.404   8.010  0.3519 -0.5013  0.2337
 4543SOL     OW25264   2.249   3.602  12.420 -0.1149 -0.0780 -0.5683
 4543SOL    HW125265   2.248   3.514  12.459  0.4736  1.2710  2.4747
 4543SOL    HW225266   2.187   3.597  12.348 -0.2291 -0.2863 -0.4570
 4544SOL     OW25267   3.832   0.330   5.844  0.2329 -0.1783 -0.2292
 4544SOL    HW125268   3.917   0.358   5.809  0.4476  0.8105  1.0918
 4544SOL    HW225269   3.821   0.375   5.927  2.8262  2.2903 -1.2109
 4545SOL     OW25270   4.262   3.530   3.196 -0.5185 -0.4016 -0.6950
 4545SOL    HW125271   4.318   3.468   3.149 -2.6445 -1.4116 -1.9414
 4545SOL    HW225272   4.251   3.477   3.274 -1.5183  1.4817  0.4469
 4546SOL     OW25273   4.053   0.581  16.471  0.1261 -0.1410 -0.0525
 4546SOL    HW125274   4.095   0.658  16.431 -2.8800  1.4305 -0.1793
 4546SOL    HW225275   4.017   0.535  16.395 -2.3610  1.8177 -0.0659
 4547SOL     OW25276   2.713   2.571   5.545 -0.3911 -0.8325  0.5554
 4547SOL    HW125277   2.750   2.606   5.464 -0.0730  1.5684  1.7383
 4547SOL    HW225278   2.771   2.497   5.562 -2.3167 -2.2461  0.9884
 4548SOL     OW25279   4.452   1.195   2.735 -0.4447  0.5536 -0.3848
 4548SOL    HW125280   4.415   1.281   2.755  1.4305  1.9081 -2.7725
 4548SOL    HW225281   4.398   1.167   2.661  0.4613  1.1082 -1.2538
 4549SOL     OW25282   0.161   3.192   2.274 -0.3808 -0.3010  0.2256
 4549SOL    HW125283   0.150   3.286   2.284  2.3408 -0.0425  0.7721
 4549SOL    HW225284   0.133   3.161   2.360 -2.5962 -1.1116 -0.7954
 4550SOL     OW25285   3.359   4.468   1.222  0.0142 -0.7420  0.6891
 4550SOL    HW125286   3.382   4.553   1.260 -1.2803  0.2190 -0.6805
 4550SOL    HW225287   3.264   4.461   1.218 -0.1528  0.7239  1.7588
 4551SOL     OW25288   0.056   4.426   6.001  0.4519 -0.4715  0.2537
 4551SOL    HW125289   0.012   4.413   5.916  0.3268  0.0838  0.2334
 4551SOL    HW225290   4.732   4.406   6.067 -1.9820  2.0329 -1.4009
 4552SOL     OW25291   4.742   1.680   9.414  0.3762  0.4448 -0.6217
 4552SOL    HW125292   4.688   1.670   9.336  1.6371  0.1345 -1.4634
 4552SOL    HW225293   4.730   1.775   9.424 -3.2218 -0.2246  1.6157
 4553SOL     OW25294   1.298   3.335   5.954 -0.5523  0.1714 -0.2166
 4553SOL    HW125295   1.289   3.424   5.920 -0.7594  0.3742  0.3640
 4553SOL    HW225296   1.222   3.334   6.012  0.1468  1.9431  0.7231
 4554SOL     OW25297   3.700   1.458   3.131  0.1646  0.0069  0.0072
 4554SOL    HW125298   3.646   1.437   3.055 -0.3986 -0.5438  0.5571
 4554SOL    HW225299   3.739   1.371   3.144 -0.5292 -0.1599  1.0029
 4555SOL     OW25300   3.106   0.173   2.246  0.0933 -0.8039  0.0772
 4555SOL    HW125301   3.095   0.268   2.236  0.3632 -0.7156  0.6705
 4555SOL    HW225302   3.047   0.153   2.173 -2.1272 -0.2219  1.7156
 4556SOL     OW25303   0.209   0.846   4.902 -0.4968 -0.0664  0.2447
 4556SOL    HW125304   0.168   0.762   4.921  0.2314 -0.5743 -0.4109
 4556SOL    HW225305   0.211   0.876   4.993  0.6011 -2.1852  0.9248
 4557SOL     OW25306   1.593   4.467  15.820  0.1492 -0.2349  0.2288
 4557SOL    HW125307   1.632   4.458  15.732 -0.9080  1.0904 -0.3703
 4557SOL    HW225308   1.501   4.491  15.809  0.7264  0.1363 -3.9081
 4558SOL     OW25309   3.354   1.471  11.720 -0.5071  0.0566  0.6662
 4558SOL    HW125310   3.401   1.401  11.675 -1.4048  0.6943 -1.2718
 4558SOL    HW225311   3.265   1.442  11.701  0.1071 -0.3770 -1.4921
 4559SOL     OW25312   3.718   4.657   1.981 -0.7956  0.4628 -0.6801
 4559SOL    HW125313   3.683   4.627   1.897 -0.4204  2.1922 -1.4696
 4559SOL    HW225314   3.768   4.729   1.942  0.7895  0.8893  2.1518
 4560SOL     OW25315   3.158   0.609   5.406 -0.3024 -0.2892  0.4443
 4560SOL    HW125316   3.135   0.552   5.334  0.4007 -1.7610  1.3805
 4560SOL    HW225317   3.228   0.559   5.449 -0.0371  1.8001  2.4705
 4561SOL     OW25318   0.044   0.940   4.037 -0.0758  0.4181 -0.0972
 4561SOL    HW125319   0.011   0.976   4.120  2.1748  1.4686  0.3566
 4561SOL    HW225320   0.075   1.020   3.993 -1.1655  0.4266 -0.8387
 4562SOL     OW25321   4.609   0.399   6.519 -0.1869  0.2839  0.0130
 4562SOL    HW125322   4.517   0.374   6.518 -0.2237  0.3971  0.6937
 4562SOL    HW225323   4.642   0.328   6.464  2.5954  0.6687  1.1861
 4563SOL     OW25324   1.003   2.994  15.129  0.0776 -0.3380  0.1851
 4563SOL    HW125325   0.940   3.003  15.200  2.0485  0.4861  1.8229
 4563SOL    HW225326   0.967   3.053  15.062  1.7594  1.3223  0.7424
 4564SOL     OW25327   0.892   3.476   6.265 -0.5214  0.5546 -0.4626
 4564SOL    HW125328   0.917   3.513   6.180 -1.6649 -1.8461 -1.8372
 4564SOL    HW225329   0.963   3.512   6.319  0.4746 -0.5934 -0.9958
 4565SOL     OW25330   1.006   1.457   3.277  0.0547  0.4389 -0.3380
 4565SOL    HW125331   0.959   1.437   3.359 -0.4056  0.0809 -0.6889
 4565SOL    HW225332   1.091   1.419   3.296  0.0299  0.2897 -0.5347
 4566SOL     OW25333   1.272   2.083   2.144 -0.3696 -0.0479 -0.0497
 4566SOL    HW125334   1.208   2.148   2.173 -1.4260  0.0846 -2.6630
 4566SOL    HW225335   1.237   2.049   2.062 -1.2519  1.5325 -0.3323
 4567SOL     OW25336   4.070   3.070   3.379  0.5411  0.3961 -0.2319
 4567SOL    HW125337   4.006   2.999   3.377 -0.1267  0.9715  0.7397
 4567SOL    HW225338   4.020   3.151   3.369  0.1558  0.4906  2.3394
 4568SOL     OW25339   2.993   3.562  13.982 -0.9279  0.2520  0.1390
 4568SOL    HW125340   3.083   3.564  13.950 -0.5091  0.1089  1.3081
 4568SOL    HW225341   2.952   3.633  13.933 -1.5456  0.0046  0.3015
 4569SOL     OW25342   2.919   2.640   4.613  0.0730 -0.6788  0.2297
 4569SOL    HW125343   2.878   2.584   4.548 -0.1378  0.6666 -0.7872
 4569SOL    HW225344   2.842   2.675   4.656  0.9813  0.4693  0.9168
 4570SOL     OW25345   3.321   4.679   7.070  0.4087 -0.5061  0.1376
 4570SOL    HW125346   3.268   4.612   7.026 -2.9101  3.7525 -2.3895
 4570SOL    HW225347   3.412   4.663   7.045  0.3405 -0.0260 -0.4270
 4571SOL     OW25348   2.919   2.247   6.682 -0.8600 -0.2705  0.6992
 4571SOL    HW125349   2.995   2.196   6.653  0.1458  1.6599 -0.0746
 4571SOL    HW225350   2.885   2.202   6.760 -1.1385  2.1494  1.9833
 4572SOL     OW25351   0.843   3.526   3.706 -0.2142  0.1248  0.2301
 4572SOL    HW125352   0.751   3.543   3.723 -0.5041 -0.6211 -0.6400
 4572SOL    HW225353   0.851   3.446   3.758  1.1191 -0.1482 -0.3730
 4573SOL     OW25354   3.799   0.443   6.123  0.4047 -0.6640 -0.3402
 4573SOL    HW125355   3.747   0.364   6.137 -0.4184  0.1178  1.0110
 4573SOL    HW225356   3.754   0.511   6.174  1.0837 -1.4398  1.2747
 4574SOL     OW25357   2.329   3.657   4.049  1.0941  0.0600 -0.5002
 4574SOL    HW125358   2.385   3.715   4.101  1.1138  1.2930 -1.9198
 4574SOL    HW225359   2.387   3.591   4.011  0.8393 -1.2635  1.4106
 4575SOL     OW25360   3.155   3.458   5.084 -0.1720 -0.1006 -0.2299
 4575SOL    HW125361   3.241   3.501   5.076  1.0116 -2.6193 -1.0975
 4575SOL    HW225362   3.098   3.526   5.051 -1.0394 -1.5880 -1.7552
 4576SOL     OW25363   3.342   1.232   7.603 -0.3231 -0.6057 -0.4654
 4576SOL    HW125364   3.337   1.279   7.519  0.4402  0.8125  0.2782
 4576SOL    HW225365   3.406   1.293   7.640 -2.6993  1.9191 -0.4675
 4577SOL     OW25366   0.502   1.572   7.134  0.1899 -0.3222  0.1724
 4577SOL    HW125367   0.506   1.625   7.054  1.4811  0.0934  0.5100
 4577SOL    HW225368   0.456   1.634   7.190 -0.0667  0.2293 -0.6462
 4578SOL     OW25369   1.558   2.629   2.452  0.4062  0.1784  0.2033
 4578SOL    HW125370   1.538   2.704   2.395  1.2736  0.0821 -0.2300
 4578SOL    HW225371   1.611   2.684   2.509 -1.1567  1.8488  0.0640
 4579SOL     OW25372   3.970   3.629   4.032 -0.0214 -0.1718  0.3396
 4579SOL    HW125373   3.875   3.638   4.022  0.1090  0.7694 -0.0682
 4579SOL    HW225374   3.997   3.713   3.994 -1.8511 -0.7462 -2.1633
 4580SOL     OW25375   3.113   2.854   7.094  0.5930 -0.2775  0.5245
 4580SOL    HW125376   3.052   2.872   7.166 -1.1191 -0.3273 -0.9170
 4580SOL    HW225377   3.070   2.780   7.050 -0.7134  0.1815  1.0214
 4581SOL     OW25378   1.629   1.524   8.276 -0.3414  0.9169  0.4295
 4581SOL    HW125379   1.710   1.478   8.297 -0.5130  0.0368 -0.8548
 4581SOL    HW225380   1.608   1.579   8.351 -1.9620  1.8174 -0.6646
 4582SOL     OW25381   2.831   4.129  12.797 -0.7694  0.9903 -0.0285
 4582SOL    HW125382   2.746   4.136  12.840 -0.0469  1.2696  1.3703
 4582SOL    HW225383   2.830   4.209  12.745  1.0896  1.4496  0.6508
 4583SOL     OW25384   2.450   0.687   2.599 -0.5143  0.4613 -0.4040
 4583SOL    HW125385   2.411   0.644   2.676  2.3161  1.9875  1.8745
 4583SOL    HW225386   2.400   0.653   2.525  1.3404  0.6603 -1.7281
 4584SOL     OW25387   0.368   4.057   7.243  0.1394  0.0248 -0.4763
 4584SOL    HW125388   0.285   4.026   7.279  0.3035 -0.2113 -0.2941
 4584SOL    HW225389   0.395   3.989   7.181  1.4739 -1.3469  1.5842
 4585SOL     OW25390   0.842   4.096   5.459  0.6605  0.0024  0.1109
 4585SOL    HW125391   0.860   4.004   5.439 -0.1295 -0.5143  1.7585
 4585SOL    HW225392   0.808   4.091   5.548 -0.7933 -0.3705 -0.4664
 4586SOL     OW25393   1.331   3.837  12.776 -0.4992 -0.4775 -0.4296
 4586SOL    HW125394   1.341   3.799  12.863  1.2488 -0.1131 -0.4682
 4586SOL    HW225395   1.404   3.804  12.724 -0.5560  0.1435 -0.9085
 4587SOL     OW25396   1.932   0.600   2.538 -0.0604  0.2402 -0.0928
 4587SOL    HW125397   1.896   0.601   2.450 -2.8685  1.6178  1.0375
 4587SOL    HW225398   2.020   0.635   2.523  0.1799 -0.1301  0.4422
 4588SOL     OW25399   2.796   3.610   7.712 -0.0084  0.2456 -0.0655
 4588SOL    HW125400   2.870   3.655   7.670 -0.4526 -0.2484 -1.3718
 4588SOL    HW225401   2.827   3.519   7.708 -0.4477 -0.0652  3.6883
 4589SOL     OW25402   3.010   0.404   7.402  0.6869  0.2653  0.0642
 4589SOL    HW125403   2.926   0.414   7.359  0.7280 -1.5890 -0.4239
 4589SOL    HW225404   3.027   0.480   7.458 -2.0355  0.2465  0.8841
 4590SOL     OW25405   3.395   0.011   4.873  0.0066 -0.5600 -0.3052
 4590SOL    HW125406   3.335   4.679   4.870  0.6318 -1.0699 -0.1158
 4590SOL    HW225407   3.455   4.732   4.802  0.7218 -2.9854  1.0263
 4591SOL     OW25408   4.699   2.340   8.498 -0.5534  0.0170 -0.2473
 4591SOL    HW125409   4.730   2.410   8.555 -0.6891  0.7485 -1.0805
 4591SOL    HW225410   0.040   2.323   8.454 -0.0247  1.3275  0.2672
 4592SOL     OW25411   2.674   3.730   3.346  0.6585 -0.1071 -0.2740
 4592SOL    HW125412   2.585   3.714   3.314  0.3885 -0.5285  0.6964
 4592SOL    HW225413   2.718   3.645   3.347 -1.3344 -1.1665 -1.6481
 4593SOL     OW25414   0.956   1.011   4.511 -0.6672  0.3356  0.8236
 4593SOL    HW125415   0.973   1.092   4.463  0.0357 -1.4505 -1.9251
 4593SOL    HW225416   1.036   0.960   4.503 -1.0478 -0.4528  2.0115
 4594SOL     OW25417   2.322   3.470   2.923  0.3957 -0.3791 -0.1829
 4594SOL    HW125418   2.342   3.426   2.841 -1.5797  1.7805 -1.8006
 4594SOL    HW225419   2.288   3.552   2.888  0.2327  0.2390  1.4382
 4595SOL     OW25420   1.036   0.812   6.288  0.1212 -0.2944 -0.6165
 4595SOL    HW125421   0.998   0.812   6.200 -0.6057  1.8704 -0.3090
 4595SOL    HW225422   0.998   0.895   6.319 -1.5724 -0.6535 -1.6941
 4596SOL     OW25423   3.930   3.646  11.795  0.4962 -0.0627 -0.0661
 4596SOL    HW125424   3.928   3.627  11.702  2.2376 -0.0002 -0.1051
 4596SOL    HW225425   3.968   3.733  11.803 -0.1123  0.1420  0.6087
 4597SOL     OW25426   0.403   4.197   7.940 -0.1418  0.2443 -0.2805
 4597SOL    HW125427   0.468   4.267   7.946  0.7208 -0.8194  2.4661
 4597SOL    HW225428   0.460   4.133   7.898  1.3781  0.9891  0.6476
 4598SOL     OW25429   1.723   0.417  17.657 -0.6876 -0.2120 -0.0023
 4598SOL    HW125430   1.730   0.322  17.645 -0.0527 -0.3143  1.2243
 4598SOL    HW225431   1.786   0.449  17.593  0.9984  0.4053  1.9748
 4599SOL     OW25432   0.716   0.582  13.209 -0.4280 -0.5324  0.2388
 4599SOL    HW125433   0.664   0.503  13.189  1.6072 -2.0476  0.9011
 4599SOL    HW225434   0.705   0.587  13.304 -0.3485  2.2402  0.0945
 4600SOL     OW25435   0.880   0.332  13.352  0.0579 -0.2851 -0.1169
 4600SOL    HW125436   0.841   0.248  13.329  0.0876  0.0592 -1.4084
 4600SOL    HW225437   0.799   0.383  13.360 -0.6106 -1.1338 -1.4595
 4601SOL     OW25438   3.960   3.842   9.106  0.5296  1.0286  0.1573
 4601SOL    HW125439   4.044   3.804   9.078 -1.9978 -1.5496 -3.9169
 4601SOL    HW225440   3.998   3.928   9.088  1.3236  0.4444 -0.9946
 4602SOL     OW25441   0.079   2.135   7.770 -0.4163 -0.2060 -0.0085
 4602SOL    HW125442   0.116   2.145   7.683  0.0844 -0.0513  0.2251
 4602SOL    HW225443   0.120   2.211   7.812 -2.1958  0.8214 -0.1225
 4603SOL     OW25444   4.263   4.194   8.788 -0.0056 -0.3534 -0.3776
 4603SOL    HW125445   4.220   4.158   8.711 -1.8956 -0.9072  0.9319
 4603SOL    HW225446   4.195   4.257   8.812 -1.0875 -1.1142 -1.4235
 4604SOL     OW25447   2.697   0.241  10.698  0.2874  0.1378  1.3319
 4604SOL    HW125448   2.725   0.186  10.625 -0.4704  0.5722  0.7107
 4604SOL    HW225449   2.659   0.181  10.762  0.1709  0.0529  1.1837
 4605SOL     OW25450   0.978   2.093  16.370  0.7864 -0.5731 -0.0575
 4605SOL    HW125451   1.039   2.091  16.296  0.6560  0.9364 -0.2023
 4605SOL    HW225452   1.028   2.051  16.440  2.3035  0.8867 -0.2736
 4606SOL     OW25453   1.090   1.040   7.056  0.1758 -0.2150  0.2044
 4606SOL    HW125454   1.143   1.097   7.000 -0.3872  1.0240  0.9488
 4606SOL    HW225455   1.153   0.968   7.061 -3.0833 -3.1054 -0.5058
 4607SOL     OW25456   4.170   0.266   4.662 -0.4585  0.1682 -0.3754
 4607SOL    HW125457   4.139   0.202   4.598  0.5352  1.1812 -1.8755
 4607SOL    HW225458   4.226   0.211   4.718 -0.7530  0.1745 -0.0801
 4608SOL     OW25459   3.792   0.632  12.793  0.1406  0.6009 -0.3004
 4608SOL    HW125460   3.868   0.642  12.736  2.4607 -1.2751  2.4215
 4608SOL    HW225461   3.816   0.581  12.871 -2.3170  0.8532  0.6154
 4609SOL     OW25462   0.562   2.744   8.143  0.4193 -0.0189  0.2214
 4609SOL    HW125463   0.601   2.771   8.060 -0.4961 -1.0263 -0.5197
 4609SOL    HW225464   0.583   2.652   8.125  0.4262 -0.0741  0.5123
 4610SOL     OW25465   3.307   1.070  11.022 -0.0535 -0.1676 -0.1070
 4610SOL    HW125466   3.290   1.161  11.043  1.1354  0.3603 -1.4216
 4610SOL    HW225467   3.252   1.022  11.083 -3.1052  2.2396 -0.9794
 4611SOL     OW25468   2.505   4.159   7.145 -0.1759 -0.2833  0.0789
 4611SOL    HW125469   2.484   4.094   7.078  1.8464 -0.9663  0.0968
 4611SOL    HW225470   2.485   4.237   7.095  1.7387 -1.0548 -1.9035
 4612SOL     OW25471   0.762   3.435   8.726  0.0519 -0.2229 -0.3662
 4612SOL    HW125472   0.715   3.517   8.717  0.5786  0.4328  2.9892
 4612SOL    HW225473   0.711   3.371   8.676  1.3179 -0.1341 -1.7602
 4613SOL     OW25474   2.537   0.637   4.031  0.1663  0.0337  0.5112
 4613SOL    HW125475   2.562   0.549   4.004  0.1427  0.0230  0.5239
 4613SOL    HW225476   2.613   0.664   4.082  1.9820 -1.1496 -1.5794
 4614SOL     OW25477   0.361   2.522   7.263  0.1019  0.1652 -0.3689
 4614SOL    HW125478   0.344   2.601   7.212  1.7891  1.0144  0.3663
 4614SOL    HW225479   0.299   2.536   7.335 -0.2491 -1.3797 -0.3823
 4615SOL     OW25480   2.210   1.952   5.069  0.3451 -0.3793  0.2481
 4615SOL    HW125481   2.155   1.878   5.042 -1.1632  0.5569  0.7446
 4615SOL    HW225482   2.239   1.971   4.980  1.1064 -2.2844  0.1016
 4616SOL     OW25483   1.068   0.489   2.070 -0.5951 -0.7314 -0.1760
 4616SOL    HW125484   1.041   0.536   2.150  1.5990 -0.5455  0.4421
 4616SOL    HW225485   0.984   0.445   2.058 -0.1169 -1.5870 -0.3720
 4617SOL     OW25486   1.437   2.741   7.473  0.2423 -0.0972  0.2118
 4617SOL    HW125487   1.346   2.768   7.488  0.4004  1.4487 -1.5532
 4617SOL    HW225488   1.462   2.691   7.551  1.0665  1.1401  0.7533
 4618SOL     OW25489   4.402   0.656   6.869 -0.4041 -0.2838  0.1070
 4618SOL    HW125490   4.478   0.692   6.916 -0.5365  0.4852 -0.2704
 4618SOL    HW225491   4.452   0.584   6.830  1.9435  0.5929  1.4572
 4619SOL     OW25492   4.139   0.704   7.807  0.3762 -0.4673 -0.4371
 4619SOL    HW125493   4.104   0.714   7.896  2.0315 -2.6936  0.4582
 4619SOL    HW225494   4.163   0.612   7.800 -0.7981 -0.8790  0.9926
 4620SOL     OW25495   0.417   3.136   7.448 -0.0904  0.2508  0.0568
 4620SOL    HW125496   0.454   3.180   7.525 -1.6455  0.4371  0.7008
 4620SOL    HW225497   0.478   3.165   7.380 -0.5967 -0.3158 -0.6336
 4621SOL     OW25498   3.809   4.069  14.724 -0.0669  0.7875 -0.2345
 4621SOL    HW125499   3.787   4.020  14.804 -1.6753 -0.8252 -1.6649
 4621SOL    HW225500   3.827   3.995  14.666 -0.3220 -0.7433  1.6239
 4622SOL     OW25501   1.233   3.146   4.656 -0.6331 -0.4310  0.2992
 4622SOL    HW125502   1.165   3.080   4.668  0.1008 -1.2774 -0.2452
 4622SOL    HW225503   1.204   3.213   4.718  1.0151  0.5544  0.0047
 4623SOL     OW25504   1.472   0.411   5.361 -0.1265  0.1627  0.1370
 4623SOL    HW125505   1.528   0.344   5.321  1.4126  0.1621  2.2963
 4623SOL    HW225506   1.516   0.424   5.445  2.0402  2.3559 -1.3519
 4624SOL     OW25507   0.582   0.390   4.751 -0.4184 -0.0894  0.0729
 4624SOL    HW125508   0.651   0.402   4.686 -0.6099  3.0107  0.4317
 4624SOL    HW225509   0.565   0.298   4.732 -0.2359 -0.6795  2.7366
 4625SOL     OW25510   1.309   3.623   5.919 -0.3804 -0.1670 -0.3647
 4625SOL    HW125511   1.382   3.679   5.947  0.5683 -0.6081 -1.9372
 4625SOL    HW225512   1.238   3.669   5.964  0.1879 -1.1766  1.5538
 4626SOL     OW25513   0.440   4.544   1.619 -0.2169  0.2569  0.1502
 4626SOL    HW125514   0.426   4.562   1.526 -3.1798  2.0074  0.9196
 4626SOL    HW225515   0.535   4.560   1.623 -0.0885  0.1328 -2.4553
 4627SOL     OW25516   4.333   2.705   3.049  0.7188  0.2154  0.3618
 4627SOL    HW125517   4.405   2.768   3.044  0.8724 -0.0428 -0.7781
 4627SOL    HW225518   4.312   2.695   2.956 -0.0972  1.7904  0.3702
 4628SOL     OW25519   0.596   4.207   8.878 -0.5639  0.1190 -0.0141
 4628SOL    HW125520   0.634   4.279   8.928  1.8316 -1.5430  0.5690
 4628SOL    HW225521   0.642   4.128   8.906  1.6859  1.6577  0.6529
 4629SOL     OW25522   3.752   0.184   1.265  0.1678  0.2993  0.5980
 4629SOL    HW125523   3.814   0.249   1.232 -0.4240  1.9535  2.7321
 4629SOL    HW225524   3.721   0.244   1.333 -0.4595  0.6521 -0.0046
 4630SOL     OW25525   1.164   2.560   7.691 -0.0808 -0.2004  0.7142
 4630SOL    HW125526   1.186   2.643   7.733 -2.1185  0.3278  0.6883
 4630SOL    HW225527   1.118   2.587   7.612  0.1534  3.4090  1.8491
 4631SOL     OW25528   1.486   2.618  17.081  0.1535  0.5751 -0.7911
 4631SOL    HW125529   1.560   2.572  17.122 -0.2773 -0.8047 -1.5656
 4631SOL    HW225530   1.530   2.625  16.996  2.4925  1.7085  0.4951
 4632SOL     OW25531   2.965   4.648  15.488  0.4014 -0.4047  0.0302
 4632SOL    HW125532   3.032   4.646  15.556  0.2216  2.9551  0.3149
 4632SOL    HW225533   3.014   4.674  15.410 -0.8358 -0.4306 -0.7665
 4633SOL     OW25534   4.166   4.498   1.421 -0.2818  0.3703  0.2196
 4633SOL    HW125535   4.168   4.554   1.344 -0.7571 -1.1646 -0.9111
 4633SOL    HW225536   4.234   4.438   1.392  1.4419  2.4149  0.0673
 4634SOL     OW25537   4.248   2.852   4.582 -0.1973  0.0973  0.1085
 4634SOL    HW125538   4.225   2.933   4.628 -2.5949  0.0853 -1.1042
 4634SOL    HW225539   4.271   2.811   4.666  2.6431 -0.1963 -0.8215
 4635SOL     OW25540   4.110   3.721   8.405  0.1332 -0.6191 -0.0126
 4635SOL    HW125541   4.138   3.688   8.491  0.1159  2.4782  1.1772
 4635SOL    HW225542   4.171   3.789   8.378 -0.2172 -0.3040 -0.0040
 4636SOL     OW25543   0.261   0.245   6.473 -0.2331 -0.2496  0.3143
 4636SOL    HW125544   0.289   0.177   6.412  0.2374 -1.0494  1.4200
 4636SOL    HW225545   0.197   0.191   6.519 -0.4140 -1.9154 -1.8704
 4637SOL     OW25546   2.922   0.076   8.915  0.0622  0.4307  0.0306
 4637SOL    HW125547   2.922   0.066   8.820  1.0331  0.9512 -0.0200
 4637SOL    HW225548   2.827   0.086   8.913  0.1473  1.5588  2.0873
 4638SOL     OW25549   2.131   1.561   3.813 -0.0627  0.0541  0.1619
 4638SOL    HW125550   2.158   1.471   3.793 -1.9646 -0.9150  2.0156
 4638SOL    HW225551   2.093   1.593   3.731  1.4324 -1.8724 -1.2840
 4639SOL     OW25552   4.264   0.470   8.020 -0.4718  0.0161 -0.1453
 4639SOL    HW125553   4.174   0.501   8.006 -0.7046 -0.4220  0.3750
 4639SOL    HW225554   4.293   0.439   7.934 -0.2845 -0.6756  0.1662
 4640SOL     OW25555   1.922   1.103  14.576 -0.9066 -0.3040 -0.0973
 4640SOL    HW125556   1.904   1.070  14.488  2.6364  0.6221 -1.1534
 4640SOL    HW225557   1.862   1.177  14.568 -0.0138  0.6394  1.9802
 4641SOL     OW25558   4.090   0.746   1.149 -0.5656  0.3187 -0.0232
 4641SOL    HW125559   4.113   0.825   1.198 -0.8962  0.3546  0.0678
 4641SOL    HW225560   4.024   0.712   1.209  2.2362 -1.9250  1.8143
 4642SOL     OW25561   0.214   4.340   7.739  0.4197  0.0676  0.3479
 4642SOL    HW125562   0.270   4.327   7.815  0.3920 -0.4278  0.2871
 4642SOL    HW225563   0.223   4.254   7.697  0.9108  0.6650 -0.7814
 4643SOL     OW25564   1.603   3.482   4.609  0.6210 -0.9169  0.2986
 4643SOL    HW125565   1.617   3.464   4.516  3.2065  0.1064  0.4903
 4643SOL    HW225566   1.677   3.541   4.626 -0.0212 -0.2538  0.7782
 4644SOL     OW25567   1.968   4.219   7.843  0.2582  0.0870 -0.0274
 4644SOL    HW125568   1.958   4.183   7.931  0.8283 -0.0053  0.0033
 4644SOL    HW225569   2.019   4.300   7.851  1.1793 -0.5601  0.6305
 4645SOL     OW25570   4.423   3.173  11.643 -0.1123 -0.8363  0.1219
 4645SOL    HW125571   4.419   3.141  11.553  0.7239 -1.7072  0.3966
 4645SOL    HW225572   4.510   3.211  11.632 -0.2933 -0.4482  0.0571
 4646SOL     OW25573   4.122   3.006   6.759 -0.6392 -0.2685 -0.3917
 4646SOL    HW125574   4.202   2.954   6.763  0.5705  1.6239  0.1219
 4646SOL    HW225575   4.078   2.983   6.841  0.0413 -0.0602  0.0268
 4647SOL     OW25576   3.842   3.954  10.504 -0.1890 -0.9233  0.1310
 4647SOL    HW125577   3.800   3.954  10.590 -1.2111 -3.6718 -0.3589
 4647SOL    HW225578   3.910   4.018  10.525 -0.0915 -1.0543  0.2195
 4648SOL     OW25579   4.081   2.258   3.687 -0.6750 -0.0300  0.2177
 4648SOL    HW125580   3.989   2.237   3.667  0.1557  0.0799 -3.6236
 4648SOL    HW225581   4.084   2.257   3.783  0.2563 -1.6251  0.1675
 4649SOL     OW25582   3.869   3.392   5.206  0.3290  0.0028  0.0532
 4649SOL    HW125583   3.928   3.337   5.257 -0.8143 -0.1432  1.1807
 4649SOL    HW225584   3.803   3.327   5.184 -2.4400  3.6031 -2.2725
 4650SOL     OW25585   1.672   4.736   5.896  0.1586 -0.0937 -0.1789
 4650SOL    HW125586   1.682   0.066   5.834 -0.5617 -0.5059 -0.7740
 4650SOL    HW225587   1.743   4.675   5.878  0.6202  0.5075 -0.4177
 4651SOL     OW25588   0.602   1.916   6.812 -0.1926 -0.2118  0.6812
 4651SOL    HW125589   0.626   1.995   6.763 -1.3254 -0.3812 -0.1555
 4651SOL    HW225590   0.681   1.869   6.783 -0.3764 -0.3211  0.3594
 4652SOL     OW25591   2.169   3.597  10.266  0.4149 -0.4052 -0.6734
 4652SOL    HW125592   2.114   3.541  10.212  0.6487  0.4517 -1.8017
 4652SOL    HW225593   2.213   3.539  10.328  0.0714  0.4700  0.3949
 4653SOL     OW25594   4.700   4.093   7.770  0.6600 -0.2260 -0.5316
 4653SOL    HW125595   0.016   4.142   7.713 -0.8229  1.0456 -0.9541
 4653SOL    HW225596   0.010   4.043   7.833  0.4493  0.8969  0.5452
 4654SOL     OW25597   4.395   3.816   4.612  0.0886 -0.1019 -0.3374
 4654SOL    HW125598   4.383   3.845   4.703  0.2439  2.5929 -1.1848
 4654SOL    HW225599   4.358   3.891   4.566  1.1957  0.9529  0.5024
 4655SOL     OW25600   1.369   0.210   7.574  0.2617 -0.8254 -0.0174
 4655SOL    HW125601   1.397   0.134   7.523  1.4623 -0.0854 -0.4476
 4655SOL    HW225602   1.334   0.273   7.511 -0.1376 -1.2978 -0.2738
 4656SOL     OW25603   3.070   1.198   1.971 -0.3010  0.6042 -0.1031
 4656SOL    HW125604   3.117   1.212   1.889  2.5866  0.1765  1.4972
 4656SOL    HW225605   3.008   1.128   1.951  0.8211  0.0055 -1.5226
 4657SOL     OW25606   0.781   3.049  15.285 -0.0057  0.4610  0.1516
 4657SOL    HW125607   0.720   3.022  15.353 -1.5304  2.2874 -0.5115
 4657SOL    HW225608   0.788   3.142  15.305  1.2677  0.5943 -0.9159
 4658SOL     OW25609   3.793   4.179   8.618 -0.0500 -0.1459 -0.3574
 4658SOL    HW125610   3.776   4.111   8.553 -0.2074  0.0163 -0.4841
 4658SOL    HW225611   3.853   4.125   8.670 -0.2705 -0.8662 -0.8438
 4659SOL     OW25612   2.976   0.302   9.035 -0.2839  0.0260 -0.3213
 4659SOL    HW125613   2.976   0.217   8.990  1.3521 -0.1242 -0.0198
 4659SOL    HW225614   3.068   0.306   9.060 -0.9018  0.1173  1.9293
 4660SOL     OW25615   2.746   2.448  14.640 -0.6598  0.6205 -0.1663
 4660SOL    HW125616   2.706   2.534  14.628 -1.0337  0.6924  1.5883
 4660SOL    HW225617   2.695   2.413  14.714  1.9778 -1.2136  0.7679
 4661SOL     OW25618   4.460   2.631  11.023 -0.7345  0.1761  0.0659
 4661SOL    HW125619   4.506   2.622  11.106 -0.2704 -1.3506 -0.3592
 4661SOL    HW225620   4.410   2.707  11.051 -0.5985  0.7864 -1.3602
 4662SOL     OW25621   1.209   4.674  11.624 -0.3192  0.1423 -0.3856
 4662SOL    HW125622   1.196   4.581  11.644  3.9370  0.2817  2.9370
 4662SOL    HW225623   1.173   4.710  11.706  0.6327  1.0731 -0.3811
 4663SOL     OW25624   4.605   4.545   7.382  0.4166  0.1754 -0.0691
 4663SOL    HW125625   4.682   4.522   7.331  2.8008  0.5802  3.3425
 4663SOL    HW225626   4.633   4.527   7.472 -0.5527  1.9513  0.5888
 4664SOL     OW25627   2.517   1.066   2.141  0.2326  0.2934  0.3173
 4664SOL    HW125628   2.575   1.091   2.213  3.1664  2.4664 -2.7662
 4664SOL    HW225629   2.430   1.062   2.181 -0.7547  2.1360 -1.6525
 4665SOL     OW25630   3.458   0.914   5.465  0.1847  0.9389  0.2532
 4665SOL    HW125631   3.537   0.875   5.428 -0.4753 -0.1299 -0.0267
 4665SOL    HW225632   3.478   1.005   5.485  0.3105  1.0168 -0.2418
 4666SOL     OW25633   2.665   0.924   8.901 -0.0072 -0.3744 -0.1565
 4666SOL    HW125634   2.613   0.844   8.899 -1.9587  0.8619  1.9454
 4666SOL    HW225635   2.722   0.913   8.978  0.2226  0.7613 -0.1519
 4667SOL     OW25636   0.100   2.883   9.282 -0.3965  0.6780 -1.0157
 4667SOL    HW125637   0.063   2.950   9.339 -0.6460 -0.6248  0.3547
 4667SOL    HW225638   0.032   2.816   9.279  1.3375 -1.1606  0.6608
 4668SOL     OW25639   3.270   2.941   8.247 -0.1620  0.0501  0.3593
 4668SOL    HW125640   3.177   2.965   8.242 -0.7991 -2.0618  1.8731
 4668SOL    HW225641   3.268   2.850   8.277  0.2313 -0.3318 -0.7780
 4669SOL     OW25642   0.168   4.598   6.638 -0.8072  0.6596  0.7342
 4669SOL    HW125643   0.118   4.679   6.626  0.3921  1.2579 -0.2691
 4669SOL    HW225644   0.119   4.568   6.714  0.7076 -0.4380  1.2787
 4670SOL     OW25645   0.028   2.242   7.143  0.7125 -0.5218 -0.2437
 4670SOL    HW125646   0.122   2.226   7.145  0.9396  0.4677 -2.2015
 4670SOL    HW225647   4.738   2.152   7.142 -1.2489  0.1701 -0.2007
 4671SOL     OW25648   2.086   2.432  16.054 -0.0949  0.1161  0.0975
 4671SOL    HW125649   2.077   2.511  16.108  2.1328 -0.2546  1.0030
 4671SOL    HW225650   2.149   2.385  16.108 -0.3332  0.1820  0.4334
 4672SOL     OW25651   2.603   2.206   5.164 -0.4983 -0.3775  0.5588
 4672SOL    HW125652   2.585   2.112   5.157  0.2731 -0.2461 -3.1344
 4672SOL    HW225653   2.674   2.202   5.228 -0.2578 -3.3011  0.1407
 4673SOL     OW25654   2.447   3.004   5.884 -0.1615  0.4113 -0.0601
 4673SOL    HW125655   2.470   2.920   5.924  0.7787  0.7693  0.1382
 4673SOL    HW225656   2.360   2.984   5.849  0.2551 -2.3524  0.4639
 4674SOL     OW25657   2.275   0.481   0.863  0.8386 -0.3362  0.1197
 4674SOL    HW125658   2.334   0.492   0.788  0.8004 -1.8383 -0.1275
 4674SOL    HW225659   2.211   0.551   0.850 -0.4059 -1.0991  2.0746
 4675SOL     OW25660   1.161   2.581   0.513  0.0359 -0.5078 -0.5045
 4675SOL    HW125661   1.252   2.606   0.528 -0.0624 -0.1339 -0.5289
 4675SOL    HW225662   1.126   2.670   0.508 -0.6125 -0.6658  1.2773
 4676SOL     OW25663   3.016   3.890   9.219 -0.0344  0.4303  0.6398
 4676SOL    HW125664   2.994   3.916   9.130 -0.0199  1.0082  0.8049
 4676SOL    HW225665   3.078   3.961   9.235 -0.0750  0.6873 -0.3296
 4677SOL     OW25666   0.336   2.181  11.044 -0.0369 -0.5298  0.8305
 4677SOL    HW125667   0.308   2.145  10.960  1.8787 -0.5943  0.2273
 4677SOL    HW225668   0.422   2.141  11.056 -1.1173 -2.2128  3.0627
 4678SOL     OW25669   1.549   3.822   7.391  0.7170  0.0506 -0.4344
 4678SOL    HW125670   1.543   3.901   7.445  1.5959  0.6188 -1.1711
 4678SOL    HW225671   1.592   3.852   7.311  0.6272 -0.2796 -0.6095
 4679SOL     OW25672   0.480   0.540  15.507 -0.7202 -0.3743 -0.1062
 4679SOL    HW125673   0.477   0.449  15.476  0.7611 -0.0061 -1.3822
 4679SOL    HW225674   0.440   0.539  15.593 -1.4007 -1.5138 -0.4379
 4680SOL     OW25675   2.081   2.847   4.378 -0.3176 -0.5007 -0.7192
 4680SOL    HW125676   2.103   2.760   4.344 -1.3367 -0.3407 -1.7933
 4680SOL    HW225677   2.056   2.824   4.468 -0.0928  2.6944  0.1477
 4681SOL     OW25678   4.616   3.126   7.888  0.0646  0.1190 -0.0539
 4681SOL    HW125679   4.712   3.120   7.887  0.1280  1.2819 -0.6555
 4681SOL    HW225680   4.597   3.066   7.960  0.4193  1.1086  0.8631
 4682SOL     OW25681   3.876   1.274   7.312  0.0067  0.4036  0.2123
 4682SOL    HW125682   3.849   1.244   7.226 -0.4886 -0.1176  0.5561
 4682SOL    HW225683   3.969   1.290   7.295  0.1550 -0.0141  0.6403
 4683SOL     OW25684   0.315   2.748   0.495 -0.5989  0.0103 -0.7037
 4683SOL    HW125685   0.350   2.684   0.557 -1.6349  0.5263  0.4283
 4683SOL    HW225686   0.221   2.729   0.501 -0.3301 -0.9438  0.5806
 4684SOL     OW25687   4.644   2.096   6.319  0.4221  0.3265  0.0955
 4684SOL    HW125688   4.652   2.187   6.347 -0.4227  0.5193 -0.2907
 4684SOL    HW225689   4.638   2.102   6.223  1.3557 -1.1304 -0.0435
 4685SOL     OW25690   0.502   1.819   6.351  0.0412 -0.3451 -0.3746
 4685SOL    HW125691   0.593   1.835   6.376 -0.6419  3.9255 -0.6758
 4685SOL    HW225692   0.457   1.850   6.430  1.3570  0.9437 -0.1243
 4686SOL     OW25693   2.736   3.813   5.777  0.0478  0.1755 -0.0437
 4686SOL    HW125694   2.669   3.881   5.788  1.4651  1.9469 -2.3961
 4686SOL    HW225695   2.800   3.810   5.848  1.0656  0.4404 -0.9528
 4687SOL     OW25696   2.237   2.276   0.978 -0.1597 -0.2469 -0.3079
 4687SOL    HW125697   2.232   2.371   0.969 -3.2149 -0.1623  2.4268
 4687SOL    HW225698   2.218   2.250   0.888 -0.2925  2.0626 -0.9423
 4688SOL     OW25699   4.428   1.749  16.773  0.0864 -0.0673 -0.8253
 4688SOL    HW125700   4.407   1.769  16.682 -0.3772 -0.1517 -0.7358
 4688SOL    HW225701   4.496   1.685  16.749 -1.2488 -1.0697 -1.9048
 4689SOL     OW25702   1.651   2.247   3.400  0.6413  0.0253 -0.4160
 4689SOL    HW125703   1.659   2.290   3.315 -3.7676  0.6989 -0.4591
 4689SOL    HW225704   1.733   2.196   3.405 -1.0898 -2.4303  2.8626
 4690SOL     OW25705   3.006   2.992   8.172 -0.1119  0.2820 -0.3372
 4690SOL    HW125706   2.924   3.027   8.137 -1.4501 -1.8893  0.6146
 4690SOL    HW225707   3.027   2.931   8.101 -2.3733 -2.2876  1.1859
 4691SOL     OW25708   3.328   3.460   5.529 -0.0991  0.4573 -0.0968
 4691SOL    HW125709   3.330   3.416   5.445 -0.1179 -2.0228  1.2016
 4691SOL    HW225710   3.322   3.554   5.514 -0.1093 -0.0225 -3.0725
 4692SOL     OW25711   2.081   2.654   7.546  0.9261 -0.1608  0.3681
 4692SOL    HW125712   2.147   2.616   7.489  1.1508  2.4962 -1.1680
 4692SOL    HW225713   2.114   2.645   7.636 -1.8923  0.9138  1.5165
 4693SOL     OW25714   4.605   4.322  17.192  0.2131 -0.2529 -0.9015
 4693SOL    HW125715   4.527   4.299  17.243  2.0424 -0.8687  1.6776
 4693SOL    HW225716   4.572   4.308  17.104 -0.3009  1.1943 -0.9308
 4694SOL     OW25717   0.796   2.999  12.069  0.0711  0.2374 -0.5037
 4694SOL    HW125718   0.803   2.966  11.979  2.3021 -0.9205  0.0896
 4694SOL    HW225719   0.724   2.945  12.102  0.8814 -1.7702 -1.9606
 4695SOL     OW25720   4.571   1.902   5.081 -0.6239  0.3050 -0.4643
 4695SOL    HW125721   4.633   1.937   5.017 -0.7126  0.6099 -0.3872
 4695SOL    HW225722   4.624   1.830   5.114 -1.1976 -0.1680 -0.5853
 4696SOL     OW25723   2.003   3.213  17.256  0.3627 -0.5780 -0.9314
 4696SOL    HW125724   2.015   3.202  17.351  2.7480 -0.0314 -1.1677
 4696SOL    HW225725   2.083   3.259  17.231  1.9639 -2.3445  0.9136
 4697SOL     OW25726   4.288   0.596   8.391 -0.2094 -0.0237 -0.1318
 4697SOL    HW125727   4.218   0.575   8.453  0.7757 -4.7597 -0.6262
 4697SOL    HW225728   4.243   0.649   8.324 -0.1944  2.6929  1.9929
 4698SOL     OW25729   2.296   1.508   7.709  0.0589  0.6897 -0.2435
 4698SOL    HW125730   2.280   1.591   7.754 -2.1235  0.5814 -0.8605
 4698SOL    HW225731   2.314   1.451   7.784 -0.7827 -0.7158 -1.1101
 4699SOL     OW25732   2.630   1.429   5.075  0.0508 -0.1385 -0.3769
 4699SOL    HW125733   2.697   1.416   5.007  0.6423 -0.9116  0.3487
 4699SOL    HW225734   2.670   1.382   5.148 -2.0300 -3.3767 -1.3420
 4700SOL     OW25735   3.917   2.395  15.295  0.0191  0.0210 -0.3228
 4700SOL    HW125736   3.872   2.374  15.213  1.4749  3.2320 -1.9900
 4700SOL    HW225737   3.987   2.330  15.292 -0.8866 -0.8825 -1.9484
 4701SOL     OW25738   2.828   2.842   4.144  0.4419 -0.1518 -0.3739
 4701SOL    HW125739   2.823   2.835   4.049  1.0079  1.1409 -0.4969
 4701SOL    HW225740   2.791   2.756   4.166  0.3999 -0.3259 -1.1287
 4702SOL     OW25741   1.940   0.880  10.177  0.4098  0.1479 -0.0093
 4702SOL    HW125742   1.930   0.793  10.215  0.6305 -0.1142 -0.5592
 4702SOL    HW225743   1.871   0.878  10.111  1.5918 -2.2358 -1.1431
 4703SOL     OW25744   3.634   1.448   1.750 -0.8040  0.0336 -0.3573
 4703SOL    HW125745   3.729   1.444   1.764 -0.2460  1.9135 -3.5485
 4703SOL    HW225746   3.621   1.354   1.746  1.9366 -0.3833 -0.0459
 4704SOL     OW25747   3.738   4.637   7.703  0.8984  0.9500 -0.0784
 4704SOL    HW125748   3.734   4.602   7.615 -0.3247  0.1338  0.2932
 4704SOL    HW225749   3.664   4.698   7.708  0.4113  0.7027 -4.9258
 4705SOL     OW25750   0.703   0.755   4.699 -0.4231  0.5600  0.3872
 4705SOL    HW125751   0.646   0.696   4.651 -1.7381  1.5412  0.7321
 4705SOL    HW225752   0.781   0.748   4.645 -0.7223  0.2127  0.0023
 4706SOL     OW25753   3.287   3.991  14.057  0.0335 -0.1587 -0.1536
 4706SOL    HW125754   3.255   3.953  13.975  0.2516  0.7631 -0.6688
 4706SOL    HW225755   3.311   4.076  14.021  0.0578 -1.5122 -3.3139
 4707SOL     OW25756   4.359   1.691   4.854 -0.9643 -0.0833 -0.2000
 4707SOL    HW125757   4.412   1.623   4.811 -0.8951 -0.2380  0.1317
 4707SOL    HW225758   4.391   1.773   4.817 -0.5559 -0.5670 -0.9177
 4708SOL     OW25759   1.166   1.182   3.148 -0.5816  0.4415 -0.2119
 4708SOL    HW125760   1.084   1.201   3.103 -1.3828 -0.0611  1.0241
 4708SOL    HW225761   1.211   1.131   3.081 -0.1590 -0.0534  0.4440
 4709SOL     OW25762   2.744   1.589   5.757  0.5207 -0.0516  0.2100
 4709SOL    HW125763   2.801   1.540   5.816 -1.2837 -0.5955  1.4858
 4709SOL    HW225764   2.797   1.592   5.677  1.2608  1.6129  0.7557
 4710SOL     OW25765   3.191   1.633   6.531  0.0059 -0.0399 -0.0620
 4710SOL    HW125766   3.278   1.615   6.497 -0.2251 -0.8854 -0.2286
 4710SOL    HW225767   3.160   1.542   6.528  1.4115 -0.4595 -1.6732
 4711SOL     OW25768   1.580   0.454   8.597  0.4391 -0.0669 -0.2748
 4711SOL    HW125769   1.630   0.424   8.673 -0.3097 -0.7585 -0.0445
 4711SOL    HW225770   1.620   0.540   8.585  0.9211 -0.2324  0.1190
 4712SOL     OW25771   2.056   0.721   4.323  0.4583  0.0642  0.2932
 4712SOL    HW125772   2.093   0.755   4.404  0.6491  1.0343 -0.1969
 4712SOL    HW225773   2.137   0.712   4.273 -0.0836  1.0727 -0.7494
 4713SOL     OW25774   2.516   2.888   7.280 -0.0542 -0.0261 -0.4475
 4713SOL    HW125775   2.472   2.865   7.362 -1.6344  0.5972 -1.1072
 4713SOL    HW225776   2.487   2.980   7.276 -0.7593 -0.2376 -0.2141
 4714SOL     OW25777   0.237   0.494   6.544  0.6438  1.1868  0.1745
 4714SOL    HW125778   0.315   0.500   6.600 -0.2896 -0.6090  1.6585
 4714SOL    HW225779   0.248   0.404   6.512  0.2425  1.2412 -0.1112
 4715SOL     OW25780   1.822   2.093  12.205 -0.1336 -0.0539 -0.0069
 4715SOL    HW125781   1.767   2.029  12.160  0.6529 -1.0644  0.4628
 4715SOL    HW225782   1.893   2.043  12.244 -0.1306 -1.5220 -1.9100
 4716SOL     OW25783   1.445   3.358   3.273  0.6256  0.1455  0.5125
 4716SOL    HW125784   1.433   3.428   3.336  1.1355 -0.4824  1.3225
 4716SOL    HW225785   1.492   3.392   3.197 -2.5123  2.8541 -0.2038
 4717SOL     OW25786   3.565   4.337  11.336  0.2692 -0.1679 -0.1218
 4717SOL    HW125787   3.493   4.319  11.275  1.3183 -0.4692 -1.2826
 4717SOL    HW225788   3.540   4.430  11.341  1.1137  0.1622 -1.9288
 4718SOL     OW25789   0.072   2.850   4.237  0.8734 -0.0679  0.1706
 4718SOL    HW125790   0.073   2.895   4.322 -1.9374  0.2850  0.0294
 4718SOL    HW225791   0.084   2.758   4.261  1.0870  0.4156  1.9730
 4719SOL     OW25792   4.278   3.702  11.160 -0.2248 -0.3316 -0.5174
 4719SOL    HW125793   4.268   3.653  11.241  0.9619  0.5224  0.1392
 4719SOL    HW225794   4.230   3.644  11.100 -1.1313  0.0487 -0.1502
 4720SOL     OW25795   4.329   1.395   7.320 -0.3253  0.0476 -0.4030
 4720SOL    HW125796   4.296   1.484   7.310  0.4723  0.4503  0.5639
 4720SOL    HW225797   4.299   1.383   7.411 -0.9253 -1.6956 -0.8272
 4721SOL     OW25798   3.358   3.640   8.475 -0.5974  0.5578 -0.0847
 4721SOL    HW125799   3.362   3.644   8.571  1.6916  0.1668 -0.1581
 4721SOL    HW225800   3.429   3.577   8.460 -0.3577  0.4132  1.6277
 4722SOL     OW25801   2.279   3.872   9.867  0.0534  0.4175  0.1346
 4722SOL    HW125802   2.310   3.962   9.857 -0.7804  0.8301  1.2671
 4722SOL    HW225803   2.280   3.863   9.962  1.7000  2.4493  0.3206
 4723SOL     OW25804   0.391   3.910   5.671 -0.0178 -0.1714  0.5360
 4723SOL    HW125805   0.358   3.826   5.641 -1.5475  0.2213  1.1044
 4723SOL    HW225806   0.306   3.952   5.684  0.0064 -0.0538  0.3121
 4724SOL     OW25807   2.404   1.161  14.216  0.5537  0.7376  0.2583
 4724SOL    HW125808   2.470   1.096  14.192  0.4068 -0.2993  2.6868
 4724SOL    HW225809   2.447   1.242  14.189  2.1731 -0.3345 -0.3801
 4725SOL     OW25810   1.388   3.070   5.925  0.4172  0.5239  0.0255
 4725SOL    HW125811   1.376   3.165   5.920 -2.0308  0.3154  2.2424
 4725SOL    HW225812   1.297   3.042   5.919  0.8686 -1.5825  3.1312
 4726SOL     OW25813   4.092   4.483   5.037 -0.1482  0.0146  0.3618
 4726SOL    HW125814   4.028   4.527   5.093 -1.8287 -1.9649 -0.0253
 4726SOL    HW225815   4.098   4.400   5.084  0.4159 -0.1422  0.0061
 4727SOL     OW25816   0.500   0.528   3.775  0.3959  0.3246 -0.2099
 4727SOL    HW125817   0.462   0.493   3.856  1.2070  2.4791  1.0858
 4727SOL    HW225818   0.501   0.448   3.723 -1.9584  1.0258 -1.3609
 4728SOL     OW25819   4.281   0.863   5.164 -0.7434  0.4392 -0.2113
 4728SOL    HW125820   4.232   0.833   5.088 -1.5047 -0.2448  0.5533
 4728SOL    HW225821   4.286   0.784   5.218  3.1195 -0.0075 -1.2234
 4729SOL     OW25822   4.632   2.233   9.941 -0.2365 -0.2087  0.6254
 4729SOL    HW125823   4.641   2.226   9.846  1.3062  0.0002  0.7633
 4729SOL    HW225824   4.656   2.146   9.973  0.5435 -1.0083 -2.0962
 4730SOL     OW25825   0.011   3.740  12.192  1.0897  0.3876  0.0740
 4730SOL    HW125826   0.090   3.690  12.208  1.0499  0.9301  1.9284
 4730SOL    HW225827   0.039   3.797  12.120 -0.2230  1.1581  0.1665
 4731SOL     OW25828   1.311   2.445   7.279  0.2545 -0.0681 -0.2268
 4731SOL    HW125829   1.283   2.474   7.366  2.0364  1.9927 -0.3414
 4731SOL    HW225830   1.281   2.354   7.285  1.2590 -0.3336  0.9076
 4732SOL     OW25831   3.736   3.207  15.987  0.2608 -0.7052 -0.4115
 4732SOL    HW125832   3.695   3.284  16.027  0.9511 -1.1299  1.1022
 4732SOL    HW225833   3.806   3.192  16.051  2.0846  0.4199 -2.1098
 4733SOL     OW25834   0.563   4.189  10.717 -0.2271  0.0624 -0.3467
 4733SOL    HW125835   0.605   4.191  10.803 -2.9027 -1.4469  0.9987
 4733SOL    HW225836   0.481   4.141  10.729 -0.0144 -0.3334 -0.4830
 4734SOL     OW25837   4.651   2.832   5.963 -0.9521 -0.2557 -0.3441
 4734SOL    HW125838   4.611   2.753   5.929 -0.2032 -1.4298  1.4749
 4734SOL    HW225839   4.704   2.807   6.039 -0.3018  1.9699 -0.0641
 4735SOL     OW25840   3.899   1.201   8.926 -0.8991  0.5498 -0.5120
 4735SOL    HW125841   3.843   1.232   8.997  0.3758 -0.9815  1.1792
 4735SOL    HW225842   3.837   1.138   8.890 -2.3554  0.6728  1.7867
 4736SOL     OW25843   3.975   0.156   6.631  0.0994  0.0796 -0.3134
 4736SOL    HW125844   3.970   0.195   6.544 -1.7340  0.3534 -0.0853
 4736SOL    HW225845   3.894   0.107   6.642  0.4016 -0.4056 -0.2456
 4737SOL     OW25846   1.792   3.288  11.289  0.2580 -0.2344 -0.6606
 4737SOL    HW125847   1.728   3.247  11.231  0.1956 -3.1572  1.4661
 4737SOL    HW225848   1.819   3.210  11.338  1.6147  0.1308 -0.8235
 4738SOL     OW25849   3.357   3.658   7.319 -0.2542 -0.0155  0.3601
 4738SOL    HW125850   3.423   3.638   7.386 -0.9938  1.8873  1.6469
 4738SOL    HW225851   3.345   3.751   7.339  0.7571 -0.0909  1.3427
 4739SOL     OW25852   1.136   2.724   3.507  0.6085 -0.5785 -0.0946
 4739SOL    HW125853   1.080   2.669   3.563  2.1759  0.3980  2.4444
 4739SOL    HW225854   1.203   2.744   3.573  0.5677  1.9030 -0.8397
 4740SOL     OW25855   4.186   1.814  10.134  0.6055  0.0543 -0.3152
 4740SOL    HW125856   4.098   1.851  10.137  0.0003 -1.1273 -3.2336
 4740SOL    HW225857   4.187   1.775  10.222 -0.6037 -0.0801 -0.3544
 4741SOL     OW25858   4.156   3.869  17.701  0.5804 -0.1228  0.0072
 4741SOL    HW125859   4.169   3.938  17.766 -3.2320  1.1758 -0.5759
 4741SOL    HW225860   4.073   3.902  17.666 -0.0673  0.9030  2.4927
 4742SOL     OW25861   0.765   1.061   5.650  0.0307 -0.2003 -0.1108
 4742SOL    HW125862   0.796   1.136   5.700  3.2326  0.0960 -2.5400
 4742SOL    HW225863   0.839   1.041   5.593  1.1646  1.4564  0.7871
 4743SOL     OW25864   2.277   4.365   4.577 -0.0377 -0.1765  0.0216
 4743SOL    HW125865   2.271   4.318   4.660  0.8436 -0.1491  0.0929
 4743SOL    HW225866   2.226   4.444   4.592  3.2687  1.9365  0.0885
 4744SOL     OW25867   1.091   3.098  11.134 -0.1535 -0.1186  0.4311
 4744SOL    HW125868   1.000   3.091  11.164 -0.0323 -1.9945  0.3734
 4744SOL    HW225869   1.114   3.184  11.169  1.8985 -0.2339 -0.6346
 4745SOL     OW25870   0.889   1.038   9.409 -0.7521 -0.1430 -0.0483
 4745SOL    HW125871   0.847   0.987   9.479  0.0860 -1.0080 -0.1776
 4745SOL    HW225872   0.845   1.025   9.325 -1.6382 -0.5881  0.4897
 4746SOL     OW25873   2.276   3.069   3.314  0.0390 -0.7886 -0.5499
 4746SOL    HW125874   2.368   3.063   3.340 -0.9401  0.7824  3.2792
 4746SOL    HW225875   2.282   3.134   3.244 -0.9283  0.8462  0.8718
 4747SOL     OW25876   2.790   3.666   2.855 -0.0387 -0.1242  0.0292
 4747SOL    HW125877   2.788   3.738   2.918  0.3917 -0.3116  0.2577
 4747SOL    HW225878   2.726   3.690   2.789  0.3627  0.3788 -0.1810
 4748SOL     OW25879   3.884   0.016   7.123  0.6350  0.5936  0.1351
 4748SOL    HW125880   3.855   0.052   7.207  1.2886  0.0014  0.6103
 4748SOL    HW225881   3.852   0.083   7.062 -1.4926  0.3587  0.9926
 4749SOL     OW25882   4.647   2.234   9.681  0.5564  0.2431 -0.2860
 4749SOL    HW125883   4.696   2.199   9.607  0.6096  1.6959 -0.9465
 4749SOL    HW225884   4.615   2.319   9.652  0.8673  1.1500  1.9961
 4750SOL     OW25885   3.384   3.252   3.790 -0.6642  0.1589  0.0845
 4750SOL    HW125886   3.316   3.189   3.766 -1.0762  0.5347  0.2595
 4750SOL    HW225887   3.422   3.208   3.866 -2.4966 -2.0554 -0.2479
 4751SOL     OW25888   0.242   0.826   7.700  0.7671 -0.4050  0.0407
 4751SOL    HW125889   0.184   0.769   7.751 -1.6863  1.2739 -0.8396
 4751SOL    HW225890   0.204   0.817   7.612  0.5917  1.6476 -0.1052
 4752SOL     OW25891   0.140   1.458   3.516  0.3874 -0.0720  0.6169
 4752SOL    HW125892   0.083   1.413   3.453  2.3486 -1.1400 -0.4180
 4752SOL    HW225893   0.086   1.470   3.594 -0.1779 -0.6216  0.3136
 4753SOL     OW25894   2.399   3.055  11.967  0.3178  0.0887  0.3999
 4753SOL    HW125895   2.382   3.034  12.059 -1.8269  2.9125  0.6481
 4753SOL    HW225896   2.367   2.969  11.937 -1.8621  1.3535 -0.9252
 4754SOL     OW25897   0.068   1.858   1.624 -0.4535  0.2374  0.4910
 4754SOL    HW125898   0.076   1.800   1.699 -0.9661 -1.0438 -0.4450
 4754SOL    HW225899   0.152   1.905   1.620 -0.8022  0.5287 -4.0083
 4755SOL     OW25900   1.793   3.800   8.270  0.1169 -0.0788  0.3126
 4755SOL    HW125901   1.855   3.871   8.282  1.4240 -1.0931 -0.4780
 4755SOL    HW225902   1.770   3.820   8.180  1.7609 -2.0626 -0.5582
 4756SOL     OW25903   1.095   4.491   6.531 -0.5730 -0.2927 -0.2514
 4756SOL    HW125904   1.038   4.561   6.497 -0.1864  1.2923  2.3330
 4756SOL    HW225905   1.086   4.443   6.449  3.0769 -0.8613 -0.2843
 4757SOL     OW25906   1.309   3.318   1.805  0.2525  0.0484 -0.2032
 4757SOL    HW125907   1.219   3.343   1.826  0.5923  2.2616 -1.2995
 4757SOL    HW225908   1.299   3.335   1.711  1.7432  2.5154  0.0746
 4758SOL     OW25909   0.016   1.552   0.304 -0.5156  0.4962  0.2832
 4758SOL    HW125910   4.735   1.640   0.275 -0.5517 -0.7882 -3.5604
 4758SOL    HW225911   0.100   1.573   0.346  0.1495 -0.2177 -0.6713
 4759SOL     OW25912   2.653   4.422   6.709  0.0095 -0.1003 -0.6536
 4759SOL    HW125913   2.633   4.483   6.639 -1.5834 -0.0693 -0.1809
 4759SOL    HW225914   2.620   4.337   6.680  1.9177 -0.7813 -0.7975
 4760SOL     OW25915   1.695   3.794  13.008  0.2143 -0.4729 -0.1509
 4760SOL    HW125916   1.771   3.782  13.065 -0.9558  0.7547  1.6438
 4760SOL    HW225917   1.731   3.854  12.942 -2.5576  1.3805  0.0027
 4761SOL     OW25918   0.522   0.829   1.807 -0.5120 -0.4646  0.3955
 4761SOL    HW125919   0.540   0.751   1.861 -1.0267 -0.9208 -0.0974
 4761SOL    HW225920   0.502   0.785   1.725 -0.6318  0.3001  0.0227
 4762SOL     OW25921   1.391   0.924   7.400 -0.3337  0.6552  0.3514
 4762SOL    HW125922   1.449   0.956   7.469  1.4446 -0.4261 -0.6320
 4762SOL    HW225923   1.371   0.835   7.430 -0.3331  0.5987  0.1838
 4763SOL     OW25924   0.187   3.322  11.416  0.1007 -0.3160  0.3091
 4763SOL    HW125925   0.167   3.414  11.403  0.0267 -0.3890 -0.0876
 4763SOL    HW225926   0.212   3.297  11.327  0.1141  1.6763 -0.2540
 4764SOL     OW25927   2.215   1.919   3.019  0.1119  0.0734 -0.1445
 4764SOL    HW125928   2.174   2.001   2.992  1.8996  1.3019  0.8399
 4764SOL    HW225929   2.197   1.916   3.113  0.2091 -1.5943 -0.1680
 4765SOL     OW25930   1.927   1.807   5.298  0.5206 -0.1149 -0.2611
 4765SOL    HW125931   1.917   1.712   5.308  1.5035 -0.3543 -1.4625
 4765SOL    HW225932   1.940   1.812   5.203 -5.3062  0.8286 -1.0564
 4766SOL     OW25933   3.925   1.123   6.443  0.2343 -0.1726  0.2872
 4766SOL    HW125934   3.957   1.163   6.363 -1.9962 -0.1201 -0.5921
 4766SOL    HW225935   4.007   1.081   6.469  2.7143  1.5694 -4.9277
 4767SOL     OW25936   3.889   1.108   5.752 -0.4016 -0.0328 -0.1820
 4767SOL    HW125937   3.899   1.159   5.832  0.5141  0.4462 -0.6056
 4767SOL    HW225938   3.960   1.149   5.703 -0.7201  1.4757  0.6324
 4768SOL     OW25939   4.270   1.521   3.836  0.5330  0.3112  0.0086
 4768SOL    HW125940   4.331   1.455   3.869 -0.6935 -0.2546  1.1357
 4768SOL    HW225941   4.310   1.536   3.751  0.2224  0.3520 -0.1315
 4769SOL     OW25942   2.498   1.385  16.147  0.1752 -0.0204 -0.2258
 4769SOL    HW125943   2.415   1.365  16.192  0.2520 -0.6821 -0.3834
 4769SOL    HW225944   2.553   1.381  16.225  0.0006 -0.2944 -0.1145
 4770SOL     OW25945   0.169   1.680   3.381  0.0605  0.3131  0.0862
 4770SOL    HW125946   0.180   1.720   3.468 -0.5203 -1.2641  0.8763
 4770SOL    HW225947   0.186   1.591   3.411 -0.9932  0.2791  0.5956
 4771SOL     OW25948   2.372   2.090   4.480 -0.7777  0.1586  0.0622
 4771SOL    HW125949   2.297   2.070   4.536  1.7190 -3.3172  2.1274
 4771SOL    HW225950   2.449   2.058   4.528 -0.4646  2.5325  1.1804
 4772SOL     OW25951   1.772   2.994   7.051 -0.1073 -0.6278  0.5459
 4772SOL    HW125952   1.857   2.951   7.063  0.7253  0.8752 -0.0222
 4772SOL    HW225953   1.795   3.040   6.970  1.5465 -0.6241  1.0235
 4773SOL     OW25954   3.572   3.248  14.045 -0.0555  0.2729  0.8966
 4773SOL    HW125955   3.540   3.173  13.995  1.8879  1.3239 -1.8793
 4773SOL    HW225956   3.558   3.321  13.986 -2.2424 -0.3437  0.6397
 4774SOL     OW25957   3.191   4.683   7.807 -0.2991 -0.2522  0.5819
 4774SOL    HW125958   3.115   4.705   7.754 -0.7674 -2.1378  0.4532
 4774SOL    HW225959   3.169   4.593   7.832  0.8861 -0.6285  0.2952
 4775SOL     OW25960   4.495   4.275   5.112 -0.0787  0.7039  0.4309
 4775SOL    HW125961   4.544   4.194   5.101  1.1766  1.4318  0.6770
 4775SOL    HW225962   4.557   4.336   5.071  3.4729 -1.5517  2.5429
 4776SOL     OW25963   2.049   3.624  10.943 -0.0548  0.0012 -0.6894
 4776SOL    HW125964   2.045   3.718  10.958 -4.3782 -0.1238 -1.0693
 4776SOL    HW225965   2.063   3.602  11.035  1.4001  0.2122 -0.8639
 4777SOL     OW25966   0.172   2.210   0.361  0.5356  0.2335 -0.0261
 4777SOL    HW125967   0.173   2.302   0.336 -0.2002  0.0315 -0.7832
 4777SOL    HW225968   0.089   2.169   0.336  0.0451  0.2501  1.5543
 4778SOL     OW25969   2.890   4.656   1.545  0.2544  0.2252  0.2306
 4778SOL    HW125970   2.878   4.606   1.464  0.6876 -0.9703  0.9020
 4778SOL    HW225971   2.983   4.677   1.541  0.6692 -1.7645 -0.6635
 4779SOL     OW25972   2.509   3.480   6.029 -0.1617 -0.2017  0.2433
 4779SOL    HW125973   2.456   3.413   5.985 -0.7392  0.1582  0.3943
 4779SOL    HW225974   2.499   3.549   5.964  0.5203 -0.5449 -0.2263
 4780SOL     OW25975   2.179   2.983   3.615  0.1046  0.4647  0.3191
 4780SOL    HW125976   2.109   2.919   3.603  0.1104  0.1819  1.8295
 4780SOL    HW225977   2.259   2.943   3.582  2.2843  1.8797  3.8718
 4781SOL     OW25978   3.880   2.895   4.568  0.1636 -0.5889 -0.5492
 4781SOL    HW125979   3.862   2.823   4.507 -3.3939 -1.1477  1.1387
 4781SOL    HW225980   3.805   2.948   4.543  2.0750  2.0779 -0.6127
 4782SOL     OW25981   0.910   3.877   3.832  0.0099 -0.1789  0.1003
 4782SOL    HW125982   0.885   3.949   3.775 -0.1169  0.6907  1.2407
 4782SOL    HW225983   0.980   3.830   3.786 -0.2429  0.1240 -0.5852
 4783SOL     OW25984   3.155   3.126  15.773  0.0936  0.1310  0.0809
 4783SOL    HW125985   3.165   3.083  15.688 -0.4990  1.0532 -0.4552
 4783SOL    HW225986   3.245   3.123  15.806 -0.3069 -0.2433  1.1286
 4784SOL     OW25987   1.862   0.624   5.135  0.2145  0.1766  0.4629
 4784SOL    HW125988   1.770   0.604   5.154  0.1545  0.6681  0.7024
 4784SOL    HW225989   1.879   0.626   5.230  1.2907  1.0761  0.2576
 4785SOL     OW25990   0.262   1.928   3.876  0.2619  0.2361  0.1235
 4785SOL    HW125991   0.242   1.928   3.969 -1.9103  0.7133 -0.3447
 4785SOL    HW225992   0.305   2.013   3.886 -0.1243  0.4798 -0.2579
 4786SOL     OW25993   3.013   0.448   2.877  0.0505  0.0386 -0.0290
 4786SOL    HW125994   3.087   0.506   2.858 -0.5769  0.5202 -0.9808
 4786SOL    HW225995   3.049   0.362   2.856  0.7773  0.6938 -1.4811
 4787SOL     OW25996   1.003   3.307   2.135 -0.3331  0.2940  0.3681
 4787SOL    HW125997   1.079   3.302   2.193  0.3847 -1.2371 -0.6903
 4787SOL    HW225998   1.032   3.378   2.078 -0.9238  0.7879  0.6844
 4788SOL     OW25999   3.670   0.793   4.239  0.3747  0.7622 -0.1760
 4788SOL    HW126000   3.734   0.822   4.174  0.5707 -0.6209 -0.6130
 4788SOL    HW226001   3.603   0.753   4.184 -0.0421 -0.2272  1.0464
 4789SOL     OW26002   1.285   0.467   8.981 -0.5946 -0.3500  0.4869
 4789SOL    HW126003   1.251   0.538   8.927  0.5049 -0.8295 -0.8582
 4789SOL    HW226004   1.218   0.461   9.049 -0.0704 -2.4559  0.8197
 4790SOL     OW26005   3.030   3.793   3.798  0.3053 -0.1994 -0.0186
 4790SOL    HW126006   2.965   3.826   3.736  0.2499 -2.5793 -1.2394
 4790SOL    HW226007   3.045   3.706   3.761 -1.1146 -0.3533 -0.2315
 4791SOL     OW26008   4.393   4.609  15.425  0.0073  0.3978 -0.4068
 4791SOL    HW126009   4.397   4.559  15.507  2.7332  1.3501  0.0692
 4791SOL    HW226010   4.348   4.688  15.455 -0.1208 -0.0835  0.6871
 4792SOL     OW26011   0.721   3.847   9.198 -0.7503 -0.0940  0.1252
 4792SOL    HW126012   0.647   3.788   9.180 -0.7122  0.3421 -1.4568
 4792SOL    HW226013   0.701   3.875   9.288  2.2665 -0.8081  1.0393
 4793SOL     OW26014   2.105   1.701  11.678  0.5832 -0.1578 -0.4543
 4793SOL    HW126015   2.012   1.696  11.655  0.8526  0.8080 -1.6923
 4793SOL    HW226016   2.137   1.667  11.595 -0.9467 -0.7638 -0.8093
 4794SOL     OW26017   0.968   4.221  12.984  0.1981 -0.4586 -0.5388
 4794SOL    HW126018   1.015   4.305  12.979 -3.2931  1.6351  1.7338
 4794SOL    HW226019   0.953   4.217  13.078  1.9422 -0.1509 -0.2452
 4795SOL     OW26020   2.648   3.628   2.613 -0.4309  0.0676  0.2016
 4795SOL    HW126021   2.704   3.651   2.540 -3.0659  1.5266 -1.3606
 4795SOL    HW226022   2.569   3.613   2.562  1.2521 -1.5493 -1.8948
 4796SOL     OW26023   2.442   2.488  16.247  0.1160  0.6161  0.1776
 4796SOL    HW126024   2.428   2.459  16.337  0.4552 -2.7210 -0.8260
 4796SOL    HW226025   2.514   2.433  16.214  0.3330  1.5923 -0.9586
 4797SOL     OW26026   2.980   2.214   3.514 -0.5641  0.2318 -0.1659
 4797SOL    HW126027   2.931   2.162   3.450  0.8042 -0.6070 -0.5420
 4797SOL    HW226028   3.058   2.207   3.459 -0.1596  1.9293  0.2180
 4798SOL     OW26029   3.628   4.170   6.708 -0.1714  0.3634  0.5189
 4798SOL    HW126030   3.561   4.108   6.736  0.2961 -0.3080  0.1674
 4798SOL    HW226031   3.655   4.217   6.787  1.0719  0.0510  0.2785
 4799SOL     OW26032   3.987   1.512   5.639 -0.0823  0.1222  0.4171
 4799SOL    HW126033   4.082   1.524   5.639  0.2649 -2.4939 -3.2412
 4799SOL    HW226034   3.968   1.578   5.573  0.8552  0.7123  0.7305
 4800SOL     OW26035   1.208   3.922   3.799 -0.8427  0.0685  0.1466
 4800SOL    HW126036   1.301   3.938   3.779 -0.8496  0.5782  0.5247
 4800SOL    HW226037   1.176   3.859   3.733  0.8252  0.2279 -0.8241
 4801SOL     OW26038   0.085   0.055   3.584 -0.1299 -0.1384  0.2125
 4801SOL    HW126039   0.041   4.723   3.625 -2.0304  0.0430 -1.4921
 4801SOL    HW226040   0.056   0.129   3.637  0.4286  0.8765 -0.8958
 4802SOL     OW26041   2.118   3.815  12.496 -0.2583  0.0420 -0.3975
 4802SOL    HW126042   2.178   3.741  12.484 -0.3168  0.0486 -0.7395
 4802SOL    HW226043   2.092   3.825  12.404 -1.0013  1.5812 -0.0244
 4803SOL     OW26044   4.521   1.249  11.312  1.3282 -0.5705  0.0511
 4803SOL    HW126045   4.538   1.326  11.365  1.8338  1.1040 -2.5554
 4803SOL    HW226046   4.578   1.258  11.235  1.5176 -0.4600  0.2079
 4804SOL     OW26047   2.818   2.901   2.643 -0.1885  0.2507  0.0654
 4804SOL    HW126048   2.790   2.809   2.645 -0.5968  0.4252  2.8920
 4804SOL    HW226049   2.894   2.884   2.587  0.2879  0.0268  0.7788
 4805SOL     OW26050   1.675   3.098  15.259  0.5390  0.7242 -0.5405
 4805SOL    HW126051   1.750   3.096  15.200 -0.5304 -3.5814 -1.8231
 4805SOL    HW226052   1.607   3.128  15.198 -0.0395 -2.4682 -1.4706
 4806SOL     OW26053   1.284   3.966   4.190  0.5174 -0.3169  0.0926
 4806SOL    HW126054   1.278   4.058   4.164 -0.5464 -0.7182 -1.0743
 4806SOL    HW226055   1.378   3.952   4.202  0.9122  2.5501  0.4154
 4807SOL     OW26056   0.550   3.459   9.790 -0.3309 -0.2533 -0.1549
 4807SOL    HW126057   0.514   3.422   9.870  0.6037 -2.1590 -0.6020
 4807SOL    HW226058   0.597   3.383   9.755 -0.7772 -1.4463  1.8406
 4808SOL     OW26059   1.871   0.900   6.014  0.0839  0.5456  0.0987
 4808SOL    HW126060   1.913   0.844   6.079 -0.3073  0.3156  0.1519
 4808SOL    HW226061   1.804   0.948   6.064 -0.3183 -0.7499  0.8035
 4809SOL     OW26062   0.359   0.388   7.742  0.2640 -0.0894 -0.3790
 4809SOL    HW126063   0.360   0.293   7.746 -0.7240 -0.0457  1.1908
 4809SOL    HW226064   0.418   0.410   7.814  1.4646  0.8185 -1.6402
 4810SOL     OW26065   2.042   2.582  15.125 -0.2276 -0.2727  0.2145
 4810SOL    HW126066   1.951   2.589  15.095 -0.4427 -0.3645  0.8346
 4810SOL    HW226067   2.065   2.674  15.113 -1.2414 -0.1082 -0.4205
 4811SOL     OW26068   2.515   2.966   2.739  0.2092 -0.5498  0.4438
 4811SOL    HW126069   2.545   2.889   2.690 -1.3577 -0.9270  0.0807
 4811SOL    HW226070   2.504   2.938   2.830 -1.4897  0.5947  0.5753
 4812SOL     OW26071   3.129   3.544  15.178  0.3527  0.4483  0.3600
 4812SOL    HW126072   3.198   3.573  15.117 -0.8121 -1.3597 -1.8213
 4812SOL    HW226073   3.052   3.522  15.125  0.6053 -2.5312  1.2194
 4813SOL     OW26074   1.023   2.766   2.847  0.0558  0.3026 -0.5955
 4813SOL    HW126075   1.064   2.765   2.761 -0.3365  1.3303 -0.7968
 4813SOL    HW226076   1.017   2.861   2.861 -1.4798 -0.1961  2.1193
 4814SOL     OW26077   0.484   0.483   9.526 -0.1747 -0.2022 -0.1730
 4814SOL    HW126078   0.476   0.559   9.469 -0.3423  0.7193  1.0716
 4814SOL    HW226079   0.492   0.539   9.603 -1.2649 -2.9404  1.9319
 4815SOL     OW26080   4.101   3.794   2.283 -0.0966 -0.6379 -0.5834
 4815SOL    HW126081   4.142   3.876   2.311  1.0435 -1.2124 -0.5922
 4815SOL    HW226082   4.057   3.822   2.203 -0.6912  2.0298  0.6427
 4816SOL     OW26083   4.379   1.164   1.762 -0.1766  0.2933 -0.5074
 4816SOL    HW126084   4.417   1.092   1.812  0.9180  2.4244  1.7291
 4816SOL    HW226085   4.420   1.148   1.677  0.2172  0.1772 -0.2946
 4817SOL     OW26086   2.508   0.669   8.097 -0.1949  0.0391  0.2763
 4817SOL    HW126087   2.556   0.699   8.020 -1.3552 -0.8684 -0.8144
 4817SOL    HW226088   2.415   0.676   8.074 -0.0950  1.9031  0.4643
 4818SOL     OW26089   2.615   4.063   5.408 -0.1585  0.3268 -0.1045
 4818SOL    HW126090   2.562   4.137   5.437  1.1622  1.1677  0.1301
 4818SOL    HW226091   2.661   4.105   5.335  0.3186 -1.0868 -0.6186
 4819SOL     OW26092   2.149   2.600   5.377 -0.1696  0.5314 -0.2859
 4819SOL    HW126093   2.150   2.649   5.459 -0.7367  0.9326 -0.5208
 4819SOL    HW226094   2.059   2.570   5.388  0.3105 -0.5931  0.6020
 4820SOL     OW26095   0.826   1.667  15.504  0.1272 -0.2345 -0.1801
 4820SOL    HW126096   0.800   1.740  15.448  1.6045 -0.9793 -1.8343
 4820SOL    HW226097   0.782   1.691  15.586 -1.2248 -1.4693 -0.5423
 4821SOL     OW26098   0.652   3.387   7.534  0.2166 -0.1502 -0.0417
 4821SOL    HW126099   0.690   3.474   7.547  0.4992 -0.0749 -1.3569
 4821SOL    HW226100   0.732   3.335   7.543  0.8101  0.3261 -2.5088
 4822SOL     OW26101   1.793   4.655   3.739 -0.2622 -0.2498  0.0773
 4822SOL    HW126102   1.880   4.621   3.719  0.0553 -1.8261  4.0965
 4822SOL    HW226103   1.736   4.619   3.671 -0.9235 -0.9009  0.9726
 4823SOL     OW26104   0.105   3.450   8.477 -0.2045 -0.1446 -0.0449
 4823SOL    HW126105   0.158   3.374   8.454  2.6009  1.2313  1.9208
 4823SOL    HW226106   0.090   3.494   8.394 -1.2961 -0.4620 -0.0256
 4824SOL     OW26107   2.897   1.431   3.158 -0.0015 -0.1761  0.0413
 4824SOL    HW126108   2.991   1.419   3.175 -0.3087 -3.7853 -0.8986
 4824SOL    HW226109   2.883   1.399   3.070  0.5395  2.5847 -1.0613
 4825SOL     OW26110   0.322   4.370   5.524  0.0594  0.2615  0.0844
 4825SOL    HW126111   0.258   4.434   5.491 -0.4909 -0.6018 -0.5179
 4825SOL    HW226112   0.317   4.373   5.619  0.8906 -1.4823  0.1675
 4826SOL     OW26113   1.146   4.265   4.362 -0.2401  0.5613  0.2713
 4826SOL    HW126114   1.240   4.250   4.375 -0.3695 -0.5631 -0.1188
 4826SOL    HW226115   1.108   4.185   4.398  0.1246  1.5495  2.8787
 4827SOL     OW26116   3.596   2.988   1.853  0.3474 -0.0633  0.3874
 4827SOL    HW126117   3.516   3.009   1.804 -0.5689 -2.6696  0.7535
 4827SOL    HW226118   3.644   2.940   1.786  1.4220 -0.7950  1.6888
 4828SOL     OW26119   0.479   2.456   2.327  0.4084  0.4726 -0.1683
 4828SOL    HW126120   0.526   2.494   2.401 -1.7773  1.2235  0.8047
 4828SOL    HW226121   0.562   2.431   2.286  2.0078  2.3372  1.9157
 4829SOL     OW26122   1.428   2.022   3.660  0.2653 -0.0590  0.1704
 4829SOL    HW126123   1.406   2.037   3.752  1.6724 -1.7001  0.7774
 4829SOL    HW226124   1.453   1.930   3.654  0.7196 -0.0731  2.4401
 4830SOL     OW26125   1.233   3.909   1.068 -0.3857 -0.3781 -0.0514
 4830SOL    HW126126   1.267   3.825   1.100  0.4472 -0.5628 -1.4386
 4830SOL    HW226127   1.148   3.918   1.111  0.6251  0.2903  1.7882
 4831SOL     OW26128   1.642   0.843   2.257 -0.4683 -0.2264 -0.5904
 4831SOL    HW126129   1.685   0.925   2.232  0.5879 -1.6057 -3.2710
 4831SOL    HW226130   1.691   0.768   2.224  0.1359 -0.4712  0.8559
 4832SOL     OW26131   2.612   3.132   4.415  0.0448  0.2579 -0.0107
 4832SOL    HW126132   2.676   3.166   4.477 -0.2002 -0.0264  0.3982
 4832SOL    HW226133   2.536   3.107   4.468 -0.0590  2.2728  0.7981
 4833SOL     OW26134   0.438   0.804   6.993 -0.1740 -0.1981  0.0680
 4833SOL    HW126135   0.453   0.895   7.016  0.6505 -0.3278  0.0485
 4833SOL    HW226136   0.428   0.760   7.077  0.5486  1.9629  1.2769
 4834SOL     OW26137   2.754   3.886   3.039  0.4800 -0.1305 -0.3046
 4834SOL    HW126138   2.689   3.957   3.042  0.4146 -0.1052 -2.8949
 4834SOL    HW226139   2.826   3.915   3.095  1.4378 -1.8293 -0.6747
 4835SOL     OW26140   3.222   0.632   4.292  0.5840 -0.4202  0.1031
 4835SOL    HW126141   3.253   0.722   4.305 -1.0362  0.3364 -1.3870
 4835SOL    HW226142   3.235   0.619   4.198 -2.5963 -1.0766 -0.2259
 4836SOL     OW26143   3.210   4.676   6.080 -0.1997 -0.0225  0.4565
 4836SOL    HW126144   3.115   4.684   6.084 -0.1711 -0.4290  2.3320
 4836SOL    HW226145   3.222   4.596   6.132  0.9281  0.5856  1.1352
 4837SOL     OW26146   2.425   3.929  11.328  0.1813  0.2210  0.3726
 4837SOL    HW126147   2.367   3.901  11.398 -0.3260 -0.5859 -0.3794
 4837SOL    HW226148   2.450   4.012  11.369 -2.0626  0.0715  2.0376
 4838SOL     OW26149   2.259   4.464   1.618  0.0241 -0.0992 -0.5594
 4838SOL    HW126150   2.180   4.487   1.569  0.1678 -1.1114 -1.2877
 4838SOL    HW226151   2.241   4.370   1.628  1.9542 -0.4427 -0.3442
 4839SOL     OW26152   4.456   2.959  12.553 -0.6119 -0.1020  0.4195
 4839SOL    HW126153   4.527   2.974  12.615 -1.4222  0.7889  1.1178
 4839SOL    HW226154   4.384   3.012  12.587  0.8030  1.4485  0.9496
 4840SOL     OW26155   1.686   1.847   4.669 -0.6341  0.4841 -0.3420
 4840SOL    HW126156   1.672   1.756   4.643  2.1552  0.9263 -3.4748
 4840SOL    HW226157   1.738   1.872   4.592  1.3708 -2.6944 -0.0102
 4841SOL     OW26158   1.250   3.774   8.087  0.5544 -0.0292  0.1489
 4841SOL    HW126159   1.263   3.727   8.169  0.4048 -0.3320  0.0006
 4841SOL    HW226160   1.280   3.703   8.030  0.3438  2.2373 -2.7570
 4842SOL     OW26161   1.659   1.367   5.446 -0.4449 -0.0716 -0.1687
 4842SOL    HW126162   1.592   1.334   5.507 -0.1755 -0.2866  0.0152
 4842SOL    HW226163   1.626   1.327   5.366  0.4872 -1.2244  0.0080
 4843SOL     OW26164   3.161   2.785   5.623  0.0950 -0.3348  0.3579
 4843SOL    HW126165   3.135   2.696   5.602  0.0316  0.0298 -1.1042
 4843SOL    HW226166   3.079   2.832   5.609  0.4862  0.5500  1.0336
 4844SOL     OW26167   2.878   3.936   5.016 -0.0714  0.2743  0.2998
 4844SOL    HW126168   2.940   3.998   5.055 -2.9653  1.8185  2.3897
 4844SOL    HW226169   2.929   3.856   5.025  1.0320  0.8750 -0.5760
 4845SOL     OW26170   3.360   1.112  13.741 -0.9052  0.3582 -0.5515
 4845SOL    HW126171   3.341   1.025  13.707  0.2688  1.7741 -4.7685
 4845SOL    HW226172   3.279   1.159  13.722 -0.0054  1.1917 -2.3351
 4846SOL     OW26173   0.058   1.519   1.178  0.6803 -0.1395 -0.2730
 4846SOL    HW126174   0.034   1.581   1.247 -1.1619  1.0969 -2.0200
 4846SOL    HW226175   4.714   1.484   1.156  0.2849 -0.6538  2.0068
 4847SOL     OW26176   2.680   3.124  12.099  0.1063 -0.6318 -0.2852
 4847SOL    HW126177   2.676   3.073  12.180  0.6148  0.8534  0.6690
 4847SOL    HW226178   2.770   3.111  12.072 -0.1273  1.1170 -1.9611
 4848SOL     OW26179   2.538   3.658   8.394 -0.1833 -0.1382 -0.1672
 4848SOL    HW126180   2.528   3.575   8.440 -0.0100  0.7092  1.4285
 4848SOL    HW226181   2.545   3.620   8.306  1.2507  1.0979 -0.5818
 4849SOL     OW26182   4.198   2.409   1.718 -0.5993  0.0375 -0.2405
 4849SOL    HW126183   4.276   2.418   1.773 -1.1908  1.6795  0.3197
 4849SOL    HW226184   4.248   2.380   1.642  1.0311  1.1595  0.4025
 4850SOL     OW26185   3.478   1.293  10.812 -0.4715  0.2951 -0.2203
 4850SOL    HW126186   3.497   1.365  10.752  3.3726 -0.2264  0.3606
 4850SOL    HW226187   3.408   1.338  10.858 -0.3450  1.2025 -0.9127
 4851SOL     OW26188   4.475   3.752   6.200 -0.5046 -0.2967  0.6278
 4851SOL    HW126189   4.530   3.776   6.274 -0.6980 -1.6848  1.2077
 4851SOL    HW226190   4.467   3.837   6.155 -0.8597  0.1056  1.4469
 4852SOL     OW26191   2.966   2.101   8.016  0.5240  0.0560 -0.4435
 4852SOL    HW126192   2.897   2.119   7.952  0.4705  1.0356 -0.1029
 4852SOL    HW226193   2.929   2.018   8.048 -1.0685  0.8885 -0.1381
 4853SOL     OW26194   0.746   1.534   5.849  0.5415  0.5070  0.2817
 4853SOL    HW126195   0.700   1.545   5.766 -0.0896  2.0157  0.8352
 4853SOL    HW226196   0.787   1.618   5.868  0.8721  0.2962  0.5022
 4854SOL     OW26197   3.715   1.416   5.707  0.0610  0.4574 -0.3742
 4854SOL    HW126198   3.714   1.347   5.772  2.5664  1.5906  0.8550
 4854SOL    HW226199   3.797   1.455   5.736  1.3222 -1.4600 -1.3327
 4855SOL     OW26200   0.128   0.448   1.846 -0.0394 -0.7601  0.0030
 4855SOL    HW126201   0.151   0.375   1.788  2.0594 -1.0121  1.1718
 4855SOL    HW226202   0.033   0.436   1.845 -0.0410 -0.9125  2.2575
 4856SOL     OW26203   3.031   1.681  10.630  0.1810 -0.5579  0.4449
 4856SOL    HW126204   2.951   1.731  10.647  0.6744  0.1300  0.7559
 4856SOL    HW226205   3.078   1.746  10.578 -0.5088 -0.9229 -0.6203
 4857SOL     OW26206   2.174   1.359   2.110 -0.1431  0.0382  0.2763
 4857SOL    HW126207   2.128   1.433   2.071 -0.3598  0.0297  0.5110
 4857SOL    HW226208   2.231   1.336   2.037 -2.1222 -1.6816 -0.7187
 4858SOL     OW26209   2.232   2.329   6.015  0.3196  0.3609 -0.1391
 4858SOL    HW126210   2.243   2.379   5.933 -0.7731 -0.1803 -0.6092
 4858SOL    HW226211   2.316   2.286   6.029  0.1450 -1.0167 -3.4121
 4859SOL     OW26212   2.891   2.934  12.595 -1.1250 -0.6289  0.3819
 4859SOL    HW126213   2.969   2.990  12.600  0.5824 -3.0011  0.0957
 4859SOL    HW226214   2.922   2.864  12.653 -0.8119  0.1673  1.1856
 4860SOL     OW26215   3.503   3.721   1.230  0.6108  0.1177 -0.3545
 4860SOL    HW126216   3.573   3.657   1.246 -0.2008 -1.4857 -3.2065
 4860SOL    HW226217   3.523   3.792   1.291 -0.9258 -0.3028  0.6529
 4861SOL     OW26218   3.596   3.117  17.200 -0.1342 -0.5787 -0.1617
 4861SOL    HW126219   3.654   3.121  17.124 -0.8616 -0.7493 -0.7270
 4861SOL    HW226220   3.560   3.206  17.194 -0.8977 -1.0886 -3.1713
 4862SOL     OW26221   1.449   2.241  16.002  0.5489  0.1490  0.1513
 4862SOL    HW126222   1.512   2.169  16.009  1.4054  0.8733 -0.1831
 4862SOL    HW226223   1.466   2.271  15.913  1.8287  0.2952  0.4465
 4863SOL     OW26224   1.329   1.672  14.031  0.1421  0.6392  0.1756
 4863SOL    HW126225   1.355   1.715  13.949 -1.1642  1.9701  0.4477
 4863SOL    HW226226   1.414   1.638  14.058 -1.0080 -1.5627  1.0168
 4864SOL     OW26227   2.747   4.400   1.238 -0.6316 -0.0820 -0.4010
 4864SOL    HW126228   2.750   4.462   1.312  0.2190 -1.3390  0.6231
 4864SOL    HW226229   2.741   4.457   1.161 -0.2784  2.4507  1.4150
 4865SOL     OW26230   2.021   2.254  16.503 -0.2025  0.2756  0.3718
 4865SOL    HW126231   2.014   2.346  16.529  2.1239  0.7890 -0.8378
 4865SOL    HW226232   1.934   2.231  16.537 -2.3498  3.6216 -2.8560
 4866SOL     OW26233   2.114   1.637   2.873  0.0545 -0.9645 -0.1020
 4866SOL    HW126234   2.085   1.702   2.937  0.2739 -1.3806  0.4109
 4866SOL    HW226235   2.135   1.561   2.926 -0.8472  0.5755  2.4513
 4867SOL     OW26236   0.133   2.735   7.295 -0.1961 -0.3683  0.2122
 4867SOL    HW126237   0.140   2.678   7.372 -2.5044 -1.2350 -0.2021
 4867SOL    HW226238   0.038   2.725   7.283 -0.1701 -0.8754  0.4215
 4868SOL     OW26239   1.922   4.008   6.538 -0.0934 -0.5569 -0.5524
 4868SOL    HW126240   1.883   4.096   6.536 -0.9938 -0.9583 -0.6790
 4868SOL    HW226241   1.888   3.972   6.620 -0.8138 -0.3080 -0.7336
 4869SOL     OW26242   1.247   2.279   3.842  0.6723 -0.1307 -0.0469
 4869SOL    HW126243   1.232   2.342   3.912 -1.6845  0.3988 -1.0010
 4869SOL    HW226244   1.310   2.219   3.881  2.4120  0.3684 -2.0607
 4870SOL     OW26245   0.068   3.710  10.625 -0.1122 -0.2481 -0.3226
 4870SOL    HW126246   0.147   3.686  10.675 -0.0031  0.5878 -0.0913
 4870SOL    HW226247   0.093   3.799  10.599 -0.0735  0.0989  0.9257
 4871SOL     OW26248   4.251   3.199   1.228  0.2379  0.0108  0.1324
 4871SOL    HW126249   4.220   3.152   1.151  0.7644 -2.3818  1.3990
 4871SOL    HW226250   4.346   3.194   1.224  0.3704  1.6224  1.0020
 4872SOL     OW26251   0.841   3.882  15.879 -0.0912  0.2958 -0.0274
 4872SOL    HW126252   0.894   3.807  15.905  0.3214  0.4224 -0.5173
 4872SOL    HW226253   0.757   3.837  15.872 -1.5174  2.7876  1.1139
 4873SOL     OW26254   4.614   3.063  12.742 -0.1828 -0.0951 -0.0487
 4873SOL    HW126255   4.578   3.150  12.728  0.6601  0.5338  1.5977
 4873SOL    HW226256   4.703   3.085  12.771 -0.9364  1.4009  1.0669
 4874SOL     OW26257   2.463   1.132   6.538  0.3088 -0.0059 -0.5892
 4874SOL    HW126258   2.397   1.082   6.490  1.2600 -1.5042 -0.3746
 4874SOL    HW226259   2.432   1.216   6.505  1.4224  0.5174 -0.2992
 4875SOL     OW26260   4.471   3.737   8.277 -0.0617  0.0400 -0.3972
 4875SOL    HW126261   4.378   3.746   8.257 -0.2430  2.0605  1.3408
 4875SOL    HW226262   4.510   3.804   8.222  1.8636  0.4246  1.4418
 4876SOL     OW26263   3.927   0.532   4.514  0.3745 -0.3092  0.0833
 4876SOL    HW126264   3.929   0.493   4.601 -0.9147  0.6476  0.5513
 4876SOL    HW226265   3.949   0.624   4.528  1.6599 -0.2826 -2.0386
 4877SOL     OW26266   0.083   4.239   4.259  0.1740  0.7788 -0.1483
 4877SOL    HW126267   0.128   4.223   4.176 -0.2818  1.3604 -0.4977
 4877SOL    HW226268   0.097   4.330   4.285  1.9151  0.6917 -0.8164
 4878SOL     OW26269   1.848   2.481   5.971  0.2029 -0.2393  0.1558
 4878SOL    HW126270   1.858   2.389   5.946  0.2264 -0.1668 -0.0966
 4878SOL    HW226271   1.839   2.523   5.885  0.9342 -1.5933 -0.5725
 4879SOL     OW26272   1.111   1.863  13.247 -0.2984 -0.1662  0.0456
 4879SOL    HW126273   1.028   1.864  13.295 -0.7526  1.8393 -0.7713
 4879SOL    HW226274   1.127   1.955  13.225  0.7816 -0.3093  0.2348
 4880SOL     OW26275   3.442   0.421   3.599  0.2056 -0.2807  0.2504
 4880SOL    HW126276   3.525   0.375   3.601 -0.2571 -0.9194  3.5084
 4880SOL    HW226277   3.437   0.460   3.686  1.1759 -0.6862  0.4751
 4881SOL     OW26278   3.767   3.883  12.171  0.6199  0.3126 -1.0216
 4881SOL    HW126279   3.860   3.889  12.190  0.8566  1.8138 -2.6662
 4881SOL    HW226280   3.768   3.796  12.130  1.1676  0.6547 -1.7251
 4882SOL     OW26281   4.563   2.309   4.120  0.2301 -0.2048  0.7054
 4882SOL    HW126282   4.476   2.348   4.109 -0.2459 -1.4457 -0.0126
 4882SOL    HW226283   4.547   2.215   4.109 -0.3852 -0.4233  3.4803
 4883SOL     OW26284   3.415   2.656   0.148 -0.5127 -0.1666 -0.2729
 4883SOL    HW126285   3.392   2.721   0.214  0.9408 -1.5219  1.5634
 4883SOL    HW226286   3.394   2.710   0.072  0.5912  1.4156  0.5568
 4884SOL     OW26287   2.595   1.932   4.875 -0.4942 -0.0317  0.0642
 4884SOL    HW126288   2.603   1.883   4.957  1.7689 -1.6629 -1.1572
 4884SOL    HW226289   2.501   1.952   4.869  0.3535  4.2467  0.8372
 4885SOL     OW26290   4.384   3.624  12.695 -0.2358 -0.2686 -0.3055
 4885SOL    HW126291   4.444   3.624  12.770 -0.7968 -0.1315  0.1452
 4885SOL    HW226292   4.309   3.578  12.734  0.0532 -1.5814 -1.2781
 4886SOL     OW26293   4.341   0.929  16.002  0.0387  0.9484  0.3579
 4886SOL    HW126294   4.364   1.005  16.056  2.5887  1.4251 -1.4070
 4886SOL    HW226295   4.247   0.949  15.997 -0.0370  0.5242  0.1309
 4887SOL     OW26296   0.138   3.580   8.247 -0.3422  0.0284  0.7591
 4887SOL    HW126297   0.221   3.619   8.221 -0.5691 -0.3694 -0.5671
 4887SOL    HW226298   0.093   3.573   8.163  1.8027  1.9216 -0.5345
 4888SOL     OW26299   0.538   0.451   8.239 -0.0688  0.4972  0.1323
 4888SOL    HW126300   0.473   0.487   8.299  1.3869  0.2604  1.8827
 4888SOL    HW226301   0.620   0.459   8.288  1.2770  2.0370 -2.3589
 4889SOL     OW26302   3.993   3.939   2.047  0.4639 -0.4031 -0.5030
 4889SOL    HW126303   3.992   4.018   2.101  0.8684  0.4367 -1.7273
 4889SOL    HW226304   3.898   3.925   2.051  0.4715 -0.4064 -0.3271
 4890SOL     OW26305   4.379   4.692   4.371  0.3861  0.2871  0.5384
 4890SOL    HW126306   4.392   4.598   4.359  0.8995  0.1236  2.4237
 4890SOL    HW226307   4.331   4.692   4.454  0.1201  0.0396  0.3830
 4891SOL     OW26308   1.926   1.440   8.375 -0.0367  0.2747 -0.2794
 4891SOL    HW126309   1.939   1.530   8.348  0.5476  0.6985  1.4337
 4891SOL    HW226310   2.008   1.432   8.423  1.6744  1.4453 -2.9792
 4892SOL     OW26311   4.545   1.876   5.439  0.4794 -0.2998 -0.1043
 4892SOL    HW126312   4.489   1.834   5.373  0.6952 -2.5001  1.1018
 4892SOL    HW226313   4.552   1.802   5.499  0.8802 -2.3426 -2.6715
 4893SOL     OW26314   2.602   1.259  16.376 -0.2044 -0.0809  0.0527
 4893SOL    HW126315   2.529   1.218  16.422 -1.1510  0.2113 -1.2081
 4893SOL    HW226316   2.663   1.215  16.436 -0.5214  0.9031  1.1028
 4894SOL     OW26317   3.054   1.771   5.315 -0.3023  0.2361  0.3530
 4894SOL    HW126318   3.071   1.679   5.294  1.0920  0.5824 -0.0171
 4894SOL    HW226319   3.145   1.796   5.326 -0.1719  0.3160 -0.8283
 4895SOL     OW26320   1.036   3.048   2.770  0.3483  0.5889  0.5072
 4895SOL    HW126321   1.131   3.039   2.777  0.2721  0.2304  1.0515
 4895SOL    HW226322   1.018   3.136   2.739 -0.7122  0.7680  1.6369
 4896SOL     OW26323   3.512   3.993   5.541  0.3078  0.0970  0.2140
 4896SOL    HW126324   3.418   3.990   5.559  0.5644  0.5672  1.6312
 4896SOL    HW226325   3.534   3.899   5.541 -0.2695 -0.0413 -1.4405
 4897SOL     OW26326   3.694   2.970   0.199 -0.1452 -0.1241  0.0747
 4897SOL    HW126327   3.786   2.962   0.174 -0.3045  3.6994 -1.8222
 4897SOL    HW226328   3.662   3.003   0.115 -1.6159  1.7881  1.3680
 4898SOL     OW26329   4.301   4.452   1.885  0.2607  0.4903  0.3644
 4898SOL    HW126330   4.317   4.358   1.888 -0.3895  0.3284 -1.6823
 4898SOL    HW226331   4.319   4.476   1.794 -0.0751  0.6484  0.3378
 4899SOL     OW26332   2.716   3.194   2.308  0.0081  0.0076  0.0343
 4899SOL    HW126333   2.756   3.270   2.350  2.3185 -1.3629  0.3028
 4899SOL    HW226334   2.794   3.157   2.266  0.8571 -0.3500  1.9159
 4900SOL     OW26335   3.295   1.690   7.842 -0.0479 -0.0205 -0.0145
 4900SOL    HW126336   3.212   1.732   7.864  1.0105  1.5667  0.9936
 4900SOL    HW226337   3.268   1.598   7.847  0.4840 -0.0648  2.2712
 4901SOL     OW26338   2.404   0.567  14.844 -0.0176 -0.2842  0.3674
 4901SOL    HW126339   2.404   0.601  14.934 -1.7178  1.4875 -0.3012
 4901SOL    HW226340   2.346   0.492  14.860  0.6369 -0.6749  0.8899
 4902SOL     OW26341   1.493   4.174   6.553  0.3119  0.7835 -0.3511
 4902SOL    HW126342   1.460   4.260   6.579  3.1234  1.4183  1.0224
 4902SOL    HW226343   1.524   4.182   6.463 -1.4242  0.7219 -0.9640
 4903SOL     OW26344   4.579   4.232   5.844  0.2229  0.1129 -0.0606
 4903SOL    HW126345   4.629   4.177   5.904 -0.0800 -0.4029 -0.2864
 4903SOL    HW226346   4.614   4.212   5.757 -1.1195 -1.7299 -0.1723
 4904SOL     OW26347   3.118   2.145  11.608 -0.4087  0.1895 -0.0251
 4904SOL    HW126348   3.115   2.240  11.594 -2.6452  0.2181  0.7012
 4904SOL    HW226349   3.134   2.134  11.702  1.3002 -1.9963 -0.5660
 4905SOL     OW26350   0.534   2.753   4.135 -0.5865  0.0150  0.1791
 4905SOL    HW126351   0.502   2.725   4.220  0.9445  1.0546  1.1099
 4905SOL    HW226352   0.472   2.822   4.114  0.5986  0.0603 -3.1766
 4906SOL     OW26353   1.939   0.316   0.505 -0.0523  0.4504 -0.6641
 4906SOL    HW126354   1.950   0.404   0.541  0.7726  0.2264 -0.3743
 4906SOL    HW226355   1.845   0.304   0.521 -0.1823  1.2661 -0.7972
 4907SOL     OW26356   4.588   0.013   8.093  0.0278 -0.1904 -0.3175
 4907SOL    HW126357   4.531   0.043   8.164  1.1203  0.5879  0.2387
 4907SOL    HW226358   4.664   0.071   8.104 -1.2862  1.2203  1.3632
 4908SOL     OW26359   1.690   3.814   3.593  0.0883  0.3567 -0.1771
 4908SOL    HW126360   1.666   3.725   3.568 -0.1470 -0.1803  2.0167
 4908SOL    HW226361   1.782   3.809   3.619  0.4294 -1.3921 -1.7493
 4909SOL     OW26362   4.637   3.724  11.383  0.0966 -0.1142  0.5100
 4909SOL    HW126363   4.633   3.817  11.363  0.8847 -0.6057 -1.8409
 4909SOL    HW226364   4.631   3.680  11.299 -1.0433  0.3773  0.3377
 4910SOL     OW26365   4.272   2.699   5.912 -0.1161 -0.2907  0.1992
 4910SOL    HW126366   4.299   2.624   5.966  0.2304 -0.7185 -0.5649
 4910SOL    HW226367   4.303   2.776   5.960 -1.3504  0.5805 -0.4133
 4911SOL     OW26368   0.621   1.545  15.927 -0.4272 -0.6251  0.6924
 4911SOL    HW126369   0.691   1.482  15.946 -0.8894 -0.8346  1.7053
 4911SOL    HW226370   0.540   1.493  15.930 -0.1914 -1.0812 -0.9374
 4912SOL     OW26371   3.697   3.589   4.528  0.2488  0.9045  0.2364
 4912SOL    HW126372   3.774   3.581   4.472 -1.1272 -1.7469 -1.2682
 4912SOL    HW226373   3.719   3.529   4.598  0.6118  1.3159  0.4750
 4913SOL     OW26374   1.612   3.766  11.177  0.0432  0.1172 -0.4803
 4913SOL    HW126375   1.649   3.725  11.099  1.0948 -1.3978  0.8329
 4913SOL    HW226376   1.650   3.854  11.181  2.6649 -1.0144 -0.9977
 4914SOL     OW26377   0.444   0.127   5.210 -0.0623  0.1029  0.1768
 4914SOL    HW126378   0.396   0.046   5.227  0.8462 -0.2514  1.0995
 4914SOL    HW226379   0.451   0.168   5.296  0.2034 -1.2665  0.8132
 4915SOL     OW26380   4.496   3.991   5.223 -0.5326  0.3773 -0.2002
 4915SOL    HW126381   4.474   4.012   5.313 -1.1561  0.9075 -0.4724
 4915SOL    HW226382   4.446   3.914   5.199  1.1571 -0.9558  0.5832
 4916SOL     OW26383   1.337   2.554   9.372 -0.4449 -0.2709 -0.2209
 4916SOL    HW126384   1.316   2.599   9.290  2.5744  0.1358 -0.7562
 4916SOL    HW226385   1.249   2.520   9.390 -0.3887  0.2919  1.1382
 4917SOL     OW26386   0.063   1.917   7.487  0.2193  0.5030  0.4834
 4917SOL    HW126387   0.105   1.898   7.404 -0.5126 -0.3250  0.2986
 4917SOL    HW226388   0.071   1.827   7.521 -0.8378  0.0887 -0.3583
 4918SOL     OW26389   4.420   3.976   9.473  0.2950 -0.3195 -0.3288
 4918SOL    HW126390   4.357   4.045   9.450  0.5679  0.0389 -0.0098
 4918SOL    HW226391   4.362   3.901   9.465  1.7906 -1.4155 -0.7911
 4919SOL     OW26392   4.673   1.355   8.397  0.0973 -0.4143 -0.2713
 4919SOL    HW126393   4.604   1.330   8.459 -0.2282 -1.5915 -1.1023
 4919SOL    HW226394   4.693   1.268   8.362 -2.4775 -1.0911 -0.0700
 4920SOL     OW26395   2.249   0.552   2.059  0.2026  0.3228 -0.4081
 4920SOL    HW126396   2.161   0.588   2.069  0.1550  0.4729 -1.3607
 4920SOL    HW226397   2.281   0.607   1.988  1.0371  0.1837 -0.1512
 4921SOL     OW26398   4.310   1.674   4.531 -0.2007 -0.3177  0.3728
 4921SOL    HW126399   4.388   1.653   4.582  0.3701 -2.1377 -1.2682
 4921SOL    HW226400   4.289   1.598   4.476 -0.4335 -0.2678  0.3898
 4922SOL     OW26401   0.809   2.254   4.293 -0.3842  0.0853  0.1106
 4922SOL    HW126402   0.791   2.337   4.248  1.2246  0.0100 -0.6614
 4922SOL    HW226403   0.740   2.206   4.247 -1.1546  1.6394 -0.3419
 4923SOL     OW26404   2.163   2.285   3.905  0.0109 -0.1902  0.3090
 4923SOL    HW126405   2.209   2.203   3.887 -1.0077 -0.7375  0.1854
 4923SOL    HW226406   2.160   2.320   3.816  2.5628 -1.7010 -0.3596
 4924SOL     OW26407   1.924   3.461   9.886  0.2052 -0.2689 -0.1478
 4924SOL    HW126408   1.915   3.481   9.979 -0.8354 -3.1915  0.3776
 4924SOL    HW226409   1.998   3.400   9.884  0.9967  0.7094 -1.7150
 4925SOL     OW26410   4.508   2.450   9.505 -0.4066 -0.2653 -0.5982
 4925SOL    HW126411   4.534   2.415   9.421  2.2489 -0.2662  0.2359
 4925SOL    HW226412   4.420   2.413   9.514 -0.4714 -0.0136 -0.1882
 4926SOL     OW26413   4.286   3.575   6.164 -0.3125  0.1105 -0.2177
 4926SOL    HW126414   4.330   3.578   6.079 -2.1446 -0.5987 -1.1897
 4926SOL    HW226415   4.357   3.607   6.219 -0.2040 -1.9891  0.8357
 4927SOL     OW26416   4.238   1.608   5.633  0.1011 -0.0868  0.4889
 4927SOL    HW126417   4.334   1.603   5.631  0.2402  1.8349  2.3880
 4927SOL    HW226418   4.226   1.685   5.689  0.2935  0.2581  0.0546
 4928SOL     OW26419   4.117   1.424  11.004  0.1773  0.0773  0.6998
 4928SOL    HW126420   4.159   1.374  11.073  0.2881 -0.0592  0.5324
 4928SOL    HW226421   4.023   1.408  11.016  0.0481  0.1477 -0.2193
 4929SOL     OW26422   3.868   0.240  15.546 -0.4770  0.4612 -0.1721
 4929SOL    HW126423   3.886   0.323  15.590 -5.0411  0.4995  1.6410
 4929SOL    HW226424   3.903   0.184  15.615 -0.9438  1.2429  0.6977
 4930SOL     OW26425   1.325   2.997   9.119 -0.0435  0.2782 -0.4660
 4930SOL    HW126426   1.256   3.003   9.185 -0.3709 -0.2463 -0.7606
 4930SOL    HW226427   1.370   2.922   9.158 -3.3137 -1.5606 -0.2662
 4931SOL     OW26428   0.324   2.348   8.349 -0.3199 -0.3930  0.4500
 4931SOL    HW126429   0.274   2.423   8.381  1.8647  1.0144  0.6495
 4931SOL    HW226430   0.347   2.295   8.425 -0.9553  0.6981  1.3905
 4932SOL     OW26431   1.394   2.276   5.285 -0.4481  0.0730 -0.0662
 4932SOL    HW126432   1.322   2.327   5.322  0.7058  1.7063 -0.0715
 4932SOL    HW226433   1.375   2.196   5.335 -1.2164  0.9559  1.0402
 4933SOL     OW26434   1.492   1.570   1.157 -0.0585 -0.1626 -0.5630
 4933SOL    HW126435   1.584   1.584   1.181 -0.0290 -2.8120  0.8289
 4933SOL    HW226436   1.499   1.602   1.067  1.0513  0.4437 -0.2650
 4934SOL     OW26437   3.274   0.220   4.973  0.5349 -0.0580  0.8381
 4934SOL    HW126438   3.311   0.135   4.947  0.7484  0.9741 -2.2282
 4934SOL    HW226439   3.243   0.251   4.888 -1.4735  1.2134  2.0425
 4935SOL     OW26440   1.294   1.619   2.444  0.6230 -0.1889 -0.6574
 4935SOL    HW126441   1.290   1.698   2.389 -0.5727  0.5466  0.4821
 4935SOL    HW226442   1.209   1.579   2.429 -0.8685  1.6779  2.8045
 4936SOL     OW26443   1.352   2.520   5.596 -0.4068 -0.0546  0.3854
 4936SOL    HW126444   1.352   2.535   5.690  1.2670 -1.6933  0.6595
 4936SOL    HW226445   1.354   2.424   5.603  1.7579 -0.1802 -1.7425
 4937SOL     OW26446   0.641   1.117   2.793 -0.0521 -0.4232  0.1263
 4937SOL    HW126447   0.703   1.084   2.858 -0.1251  0.3266  0.5807
 4937SOL    HW226448   0.594   1.034   2.788 -2.7214  1.2308 -1.8424
 4938SOL     OW26449   3.327   4.082   3.481 -0.0328  0.3806 -0.5559
 4938SOL    HW126450   3.282   3.999   3.465  2.0119 -0.5892 -1.3373
 4938SOL    HW226451   3.381   4.086   3.402  1.2736  0.0668  0.3228
 4939SOL     OW26452   0.117   2.020   0.101 -0.0249  0.0015 -0.5190
 4939SOL    HW126453   0.063   2.042   0.025 -1.5268  0.2202  0.6199
 4939SOL    HW226454   0.187   1.971   0.058  0.5549  1.0622 -0.7753
 4940SOL     OW26455   0.676   1.837  16.615  0.1635 -0.7527 -0.0210
 4940SOL    HW126456   0.653   1.804  16.702 -0.8583  2.5757  0.9945
 4940SOL    HW226457   0.609   1.905  16.606  2.0216  1.3582  2.0817
 4941SOL     OW26458   3.328   4.675  13.673  0.1307  0.2022 -0.1807
 4941SOL    HW126459   3.260   4.727  13.629 -1.2378 -1.6025 -0.1985
 4941SOL    HW226460   3.387   4.659  13.599 -0.4283  1.7556 -0.9587
 4942SOL     OW26461   3.949   3.529  11.513  0.2446  0.0357  0.1450
 4942SOL    HW126462   3.894   3.480  11.451 -1.6341 -0.3125  2.0713
 4942SOL    HW226463   4.013   3.575  11.459  0.1326 -0.7368 -0.6513
 4943SOL     OW26464   2.535   1.370   8.967 -0.5678  0.0755 -0.4020
 4943SOL    HW126465   2.606   1.316   9.002  0.0328  0.1306 -1.5584
 4943SOL    HW226466   2.462   1.346   9.024 -0.2452 -0.3401 -0.1688
 4944SOL     OW26467   1.958   0.924   0.757  0.3729 -0.1874  0.0983
 4944SOL    HW126468   1.963   0.972   0.675 -2.8683  0.2415  0.1498
 4944SOL    HW226469   1.867   0.942   0.779  0.3871  0.2772 -0.2313
 4945SOL     OW26470   1.539   1.301  17.178 -0.6904 -0.2563  0.7198
 4945SOL    HW126471   1.592   1.306  17.258  0.6764 -0.0199 -0.2157
 4945SOL    HW226472   1.455   1.313  17.224 -1.0885 -0.9745  0.1852
 4946SOL     OW26473   0.828   1.625  13.221  0.1924  0.3134 -0.0539
 4946SOL    HW126474   0.882   1.625  13.142  0.3565  2.4029  0.0675
 4946SOL    HW226475   0.893   1.617  13.290 -0.4625  2.8614  0.8505
 4947SOL     OW26476   1.899   3.107   6.845  0.9855 -0.0101  0.1554
 4947SOL    HW126477   1.941   3.108   6.760  0.5306  0.8960 -0.0634
 4947SOL    HW226478   1.874   3.199   6.852 -0.7173 -0.4380 -0.1245
 4948SOL     OW26479   4.218   2.442  17.158 -0.2711 -0.0891 -0.2055
 4948SOL    HW126480   4.254   2.436  17.246 -3.8704  0.2531  1.2828
 4948SOL    HW226481   4.149   2.376  17.162  0.7379 -1.1317  0.3008
 4949SOL     OW26482   2.147   4.185   1.570  0.8199  0.0539 -0.0549
 4949SOL    HW126483   2.066   4.206   1.523  0.1087  1.3233  1.7270
 4949SOL    HW226484   2.183   4.122   1.508 -0.7528  1.2822 -2.2167
 4950SOL     OW26485   0.146   3.958   7.421  0.4909  0.2282 -0.3913
 4950SOL    HW126486   0.174   4.027   7.481 -1.5627 -0.0080  0.8106
 4950SOL    HW226487   0.084   3.896   7.458  1.0874 -0.6879 -0.9411
 4951SOL     OW26488   3.119   2.904  14.265 -0.4434  0.5531  0.3790
 4951SOL    HW126489   3.108   2.967  14.337  0.4057  1.7663 -0.5408
 4951SOL    HW226490   3.052   2.842  14.293  2.8506 -2.3376  1.9289
 4952SOL     OW26491   0.241   0.658   5.597 -0.7076 -0.6887 -0.3482
 4952SOL    HW126492   0.194   0.605   5.661 -0.0629 -0.1230  0.5920
 4952SOL    HW226493   0.296   0.585   5.568 -1.2884 -1.3769  0.2985
 4953SOL     OW26494   4.534   0.406   6.814 -0.1031 -0.5147  0.4201
 4953SOL    HW126495   4.605   0.409   6.749  0.2036 -0.9082  0.7372
 4953SOL    HW226496   4.579   0.369   6.890  0.8522  1.6791  0.9448
 4954SOL     OW26497   0.558   0.650   3.123 -0.2523  0.1153 -0.0051
 4954SOL    HW126498   0.628   0.647   3.187 -1.4382  4.7155  1.5392
 4954SOL    HW226499   0.522   0.738   3.137 -0.3048  0.1683 -0.4630
 4955SOL     OW26500   3.385   2.848  17.740  0.5561  0.1575  0.2945
 4955SOL    HW126501   3.343   2.875  17.658  1.5137  0.2584 -0.1518
 4955SOL    HW226502   3.477   2.841  17.716 -0.4587 -1.4835 -3.0790
 4956SOL     OW26503   4.016   2.830   9.493 -0.1247  0.2957  0.0174
 4956SOL    HW126504   4.058   2.744   9.496  1.3423  0.9443 -2.4880
 4956SOL    HW226505   4.018   2.853   9.586  1.0797  0.8404 -0.1438
 4957SOL     OW26506   0.589   0.733  15.364 -0.0314  0.3521 -0.2147
 4957SOL    HW126507   0.551   0.682  15.435  0.0539 -1.3845 -1.4072
 4957SOL    HW226508   0.680   0.742  15.392 -0.5483 -1.0304  1.9361
 4958SOL     OW26509   2.316   4.171  14.232  0.2925  0.0648  0.3406
 4958SOL    HW126510   2.268   4.128  14.303  0.5356 -3.1659 -1.4217
 4958SOL    HW226511   2.338   4.106  14.165  2.9985  2.1640 -0.7889
 4959SOL     OW26512   0.641   0.651  16.424 -0.8017 -0.4267 -0.0112
 4959SOL    HW126513   0.638   0.690  16.511  1.7915  0.3973 -0.2886
 4959SOL    HW226514   0.549   0.647  16.398 -1.6219 -0.3811  2.8930
 4960SOL     OW26515   4.597   2.188   1.260 -0.8536 -0.1610  0.1015
 4960SOL    HW126516   4.650   2.156   1.187 -0.3060  2.0351 -0.4574
 4960SOL    HW226517   4.647   2.145   1.330 -0.9260 -1.2481 -0.5186
 4961SOL     OW26518   4.260   0.019  11.356 -0.1691 -0.0798 -0.3336
 4961SOL    HW126519   4.354   0.016  11.375 -0.4132  1.1206  1.0346
 4961SOL    HW226520   4.260   0.106  11.316  0.0466 -0.3154 -0.8611
 4962SOL     OW26521   0.765   2.354   5.090 -0.4077 -0.6296 -0.0733
 4962SOL    HW126522   0.809   2.288   5.037  1.1111 -0.6780  1.2170
 4962SOL    HW226523   0.675   2.322   5.092 -1.2406  1.7322  0.8153
 4963SOL     OW26524   2.553   1.530   3.489 -0.1567  0.0916 -0.0640
 4963SOL    HW126525   2.605   1.574   3.422  1.4040 -0.6588  0.6777
 4963SOL    HW226526   2.611   1.531   3.565  0.9760  1.3239 -0.9621
 4964SOL     OW26527   0.135   2.510   7.455 -0.1433 -0.0831  0.2201
 4964SOL    HW126528   0.117   2.416   7.451 -0.6898  0.0016  0.7503
 4964SOL    HW226529   0.063   2.540   7.510  0.9508  2.2767  0.3462
 4965SOL     OW26530   2.157   0.496   5.479 -0.1595  0.3530  0.4183
 4965SOL    HW126531   2.069   0.502   5.441 -0.3433  1.6130  1.0399
 4965SOL    HW226532   2.164   0.588   5.504 -0.8010  0.4115  0.3800
 4966SOL     OW26533   0.602   0.592   8.929 -0.2920 -0.1774 -0.3833
 4966SOL    HW126534   0.589   0.675   8.883 -1.5460 -0.1204  0.0553
 4966SOL    HW226535   0.514   0.580   8.967 -0.4590  2.2138  0.0221
 4967SOL     OW26536   3.703   1.289  13.729  0.3529 -0.2377 -0.0076
 4967SOL    HW126537   3.664   1.222  13.787  1.1024 -1.1403 -0.5546
 4967SOL    HW226538   3.710   1.363  13.789 -1.0596 -1.1265  1.2734
 4968SOL     OW26539   2.857   0.385   7.887  0.2363 -0.3102 -0.3228
 4968SOL    HW126540   2.869   0.476   7.914 -1.7262 -0.1500  0.0076
 4968SOL    HW226541   2.764   0.378   7.909  0.5613  0.0012  1.1526
 4969SOL     OW26542   3.519   3.201   0.379 -0.2655 -0.5315  0.1993
 4969SOL    HW126543   3.535   3.240   0.464  1.0556 -1.7719  0.5246
 4969SOL    HW226544   3.603   3.210   0.334 -0.1922 -0.9773  0.2488
 4970SOL     OW26545   3.896   2.031   2.816 -0.8149 -0.2246 -0.6321
 4970SOL    HW126546   3.987   2.053   2.796 -0.7496 -0.6381 -0.7872
 4970SOL    HW226547   3.901   2.015   2.910  0.8377  0.7241 -0.5438
 4971SOL     OW26548   1.733   1.322   5.761  0.2505 -0.2183  0.1526
 4971SOL    HW126549   1.745   1.415   5.743  0.5953  0.4553  3.7359
 4971SOL    HW226550   1.739   1.321   5.857 -3.6122  1.7170  0.4373
 4972SOL     OW26551   2.079   2.475   8.908 -0.0639 -0.2458  0.0582
 4972SOL    HW126552   2.145   2.504   8.845 -1.5795 -0.0157 -1.4374
 4972SOL    HW226553   2.087   2.382   8.886  0.1943 -0.4129  0.8736
 4973SOL     OW26554   1.893   2.811   5.648 -0.1367 -0.6381  0.2399
 4973SOL    HW126555   1.854   2.866   5.581 -1.2132 -0.9837  0.5767
 4973SOL    HW226556   1.983   2.797   5.621 -0.4239  1.3684 -1.7665
 4974SOL     OW26557   4.129   1.955   9.558  0.0670 -0.2448  0.5688
 4974SOL    HW126558   4.115   1.911   9.641 -0.1229 -1.3249 -0.0348
 4974SOL    HW226559   4.040   1.975   9.530  1.5713  1.0028 -3.3184
 4975SOL     OW26560   0.711   3.818   7.876 -0.5410 -0.4674 -0.8754
 4975SOL    HW126561   0.683   3.739   7.829  0.8873 -1.5367  0.0766
 4975SOL    HW226562   0.805   3.829   7.865 -0.8775  2.9187 -0.3804
 4976SOL     OW26563   4.648   0.679  17.142  0.0163  0.0520  0.0520
 4976SOL    HW126564   4.703   0.645  17.213  1.4271 -0.3792 -1.2386
 4976SOL    HW226565   4.660   0.597  17.095 -0.2849 -0.2679  0.5313
 4977SOL     OW26566   3.960   0.810   3.412  0.8250  0.3307 -0.4647
 4977SOL    HW126567   4.031   0.816   3.476  0.4829  0.7730 -0.1322
 4977SOL    HW226568   3.924   0.725   3.437  0.5542  2.0358  4.8839
 4978SOL     OW26569   3.813   2.508   4.174  0.3148 -0.4273 -0.3141
 4978SOL    HW126570   3.853   2.595   4.166 -0.4079 -0.0289  0.4568
 4978SOL    HW226571   3.721   2.521   4.196  0.3456 -0.9185  0.0964
 4979SOL     OW26572   3.207   1.373   9.025 -0.5223  0.0752 -0.8055
 4979SOL    HW126573   3.181   1.316   8.953  0.5241  0.8738 -1.8113
 4979SOL    HW226574   3.270   1.433   8.985  0.8107 -2.4513 -2.4749
 4980SOL     OW26575   3.937   0.515   5.429 -0.6846  0.1660 -0.0408
 4980SOL    HW126576   3.986   0.435   5.410 -1.2827 -0.3798  0.7005
 4980SOL    HW226577   3.864   0.491   5.372 -1.9221 -1.9273  2.3641
 4981SOL     OW26578   2.252   4.427   8.112  0.5600  0.2900 -0.2992
 4981SOL    HW126579   2.332   4.422   8.059  1.1170  1.3325  0.4470
 4981SOL    HW226580   2.244   4.336   8.143  1.0427 -0.3508 -2.0632
 4982SOL     OW26581   4.322   1.548   2.864 -0.1104  0.4070  0.4090
 4982SOL    HW126582   4.250   1.493   2.833  0.8553 -1.0515  0.7282
 4982SOL    HW226583   4.302   1.574   2.954 -0.9681 -0.4654  0.4670
 4983SOL     OW26584   0.085   3.455  12.923 -0.6431 -0.5077 -0.8902
 4983SOL    HW126585   0.040   3.522  12.975 -1.8399 -1.7612 -0.3213
 4983SOL    HW226586   0.075   3.492  12.835  1.4254  1.9878 -0.0720
 4984SOL     OW26587   3.972   4.291  14.702  0.5570  0.1042  0.0323
 4984SOL    HW126588   3.979   4.295  14.607  2.1204 -1.9795  0.0613
 4984SOL    HW226589   3.925   4.208  14.705  0.7887  0.0027  1.0896
 4985SOL     OW26590   4.610   2.970   7.429  0.0911  0.2340  0.2262
 4985SOL    HW126591   4.691   2.981   7.478  0.2860  0.1091 -0.0717
 4985SOL    HW226592   4.629   2.892   7.378 -0.5987  1.1951 -1.4933
 4986SOL     OW26593   3.782   0.221  14.708  0.4430 -0.2403 -0.2991
 4986SOL    HW126594   3.787   0.224  14.613  0.4209 -0.1665 -0.2977
 4986SOL    HW226595   3.831   0.297  14.740 -0.0522 -0.3973  0.8194
 4987SOL     OW26596   1.371   3.776   2.221  0.4069  0.7710  0.5585
 4987SOL    HW126597   1.350   3.869   2.232  1.2037  0.9410  0.6558
 4987SOL    HW226598   1.435   3.772   2.150 -0.5433  0.4878 -0.2823
 4988SOL     OW26599   1.502   1.531  16.441  0.1480  0.1097  0.2415
 4988SOL    HW126600   1.515   1.459  16.503 -0.4311  1.1644  1.5833
 4988SOL    HW226601   1.407   1.534  16.429  0.2966  0.0502 -0.9377
 4989SOL     OW26602   0.436   0.981   1.582  0.2576 -0.1850 -0.6058
 4989SOL    HW126603   0.355   1.031   1.591 -0.4823 -1.3873 -0.6800
 4989SOL    HW226604   0.405   0.910   1.637 -0.4344  1.9085  1.7134
 4990SOL     OW26605   1.161   1.073  17.574  0.1345 -0.1420 -0.5811
 4990SOL    HW126606   1.089   1.136  17.578 -0.4215 -1.0201  3.1497
 4990SOL    HW226607   1.163   1.054  17.480  1.1617 -0.0383 -0.5824
 4991SOL     OW26608   3.647   3.884  13.734  0.5069 -0.1164  0.1136
 4991SOL    HW126609   3.715   3.940  13.772 -1.9874  1.3163  2.4109
 4991SOL    HW226610   3.569   3.925  13.770  0.0945 -2.3656  1.8150
 4992SOL     OW26611   3.803   1.813   6.783 -0.3547 -0.1661 -0.0914
 4992SOL    HW126612   3.763   1.758   6.715  2.2935 -0.4303 -1.4247
 4992SOL    HW226613   3.889   1.773   6.789 -0.6993 -0.8590  0.2374
 4993SOL     OW26614   1.092   1.415   6.161  0.5402  0.5365  0.2739
 4993SOL    HW126615   1.020   1.398   6.222  0.8833  1.8873  1.0557
 4993SOL    HW226616   1.044   1.412   6.078 -0.4483 -0.8153  0.8965
 4994SOL     OW26617   1.179   0.001   4.692 -0.3490  0.2632 -1.1832
 4994SOL    HW126618   1.122   4.721   4.765 -0.3718  0.2960 -1.1907
 4994SOL    HW226619   1.231   4.664   4.698  0.6986  1.2874  2.9314
 4995SOL     OW26620   2.577   2.036   6.396 -0.8372 -0.5302  0.0715
 4995SOL    HW126621   2.655   1.989   6.427 -0.3908  1.7900  2.4648
 4995SOL    HW226622   2.545   2.057   6.483  0.9736 -1.6902  1.0191
 4996SOL     OW26623   4.540   1.099  11.526  0.8467 -0.0481 -0.8532
 4996SOL    HW126624   4.451   1.067  11.540  1.2633 -1.0979 -0.6330
 4996SOL    HW226625   4.532   1.145  11.443 -0.9282 -0.2907 -0.8205
 4997SOL     OW26626   0.866   3.540   7.057  0.2779  0.0795  0.2329
 4997SOL    HW126627   0.815   3.591   7.120  0.6795 -0.0152  0.6346
 4997SOL    HW226628   0.926   3.493   7.115 -1.4279  1.1727  2.8820
 4998SOL     OW26629   0.677   1.043   4.378  0.5209  0.4723  0.4673
 4998SOL    HW126630   0.745   1.036   4.445 -0.7161  0.9668  1.7687
 4998SOL    HW226631   0.687   0.952   4.353 -1.7910  0.6476 -1.1206
 4999SOL     OW26632   1.928   1.289   2.302  0.0942  0.1693 -0.3988
 4999SOL    HW126633   1.997   1.355   2.295 -0.9207  0.9468 -2.9778
 4999SOL    HW226634   1.900   1.313   2.391 -0.1354 -0.5904 -0.2697
 5000SOL     OW26635   2.981   1.140   4.120  0.4552 -0.1693 -0.0285
 5000SOL    HW126636   3.020   1.053   4.116 -0.6618 -0.7103  1.1311
 5000SOL    HW226637   2.887   1.124   4.123  0.2782  0.6885 -0.8472
 5001SOL     OW26638   4.616   2.106   2.870 -0.0795 -0.0789 -0.0828
 5001SOL    HW126639   4.563   2.185   2.882  0.9857  0.5338  0.6402
 5001SOL    HW226640   4.687   2.117   2.934  1.1170 -2.8368 -0.9394
 5002SOL     OW26641   0.969   4.625  14.794 -0.1987  0.3326  0.3914
 5002SOL    HW126642   0.929   4.663  14.716 -1.9037  0.3868  1.2933
 5002SOL    HW226643   0.931   4.537  14.791 -1.1476  0.8651 -2.3121
 5003SOL     OW26644   1.427   4.177   2.429 -0.0216  0.3957  0.5295
 5003SOL    HW126645   1.350   4.222   2.395  0.0068  1.8413  2.3386
 5003SOL    HW226646   1.448   4.225   2.509  0.6090  2.8999 -1.1535
 5004SOL     OW26647   1.420   1.339   2.335 -0.1321  0.6176 -0.1793
 5004SOL    HW126648   1.407   1.273   2.267 -0.2947 -0.9952  1.4164
 5004SOL    HW226649   1.333   1.371   2.356 -1.4492 -1.9161 -1.7654
 5005SOL     OW26650   1.243   0.469   1.844  0.3448  0.0120  0.2547
 5005SOL    HW126651   1.196   0.397   1.802 -0.1316  0.3200  0.2534
 5005SOL    HW226652   1.185   0.493   1.917  0.6523  1.9045 -0.1230
 5006SOL     OW26653   2.193   2.971   5.772  0.0421  0.2625 -0.4082
 5006SOL    HW126654   2.125   2.971   5.704 -0.2427 -1.4497 -0.1253
 5006SOL    HW226655   2.127   2.995   5.837  0.5942  0.8530 -0.0706
 5007SOL     OW26656   3.205   1.650   3.137  0.3965 -0.1050 -0.1959
 5007SOL    HW126657   3.212   1.564   3.096  0.2250 -0.7128  1.0439
 5007SOL    HW226658   3.294   1.681   3.152 -0.3512  1.8531  0.1970
 5008SOL     OW26659   4.216   3.026   7.459  0.2377  0.3080  0.1938
 5008SOL    HW126660   4.131   2.983   7.471  1.5638 -2.1183  1.0374
 5008SOL    HW226661   4.200   3.119   7.470  0.5277  0.4196 -0.3019
 5009SOL     OW26662   3.740   3.161   5.126  0.2929 -0.2326  0.1186
 5009SOL    HW126663   3.790   3.086   5.094  0.7470  0.5192 -0.9385
 5009SOL    HW226664   3.715   3.130   5.213 -1.6133 -0.1993 -0.4077
 5010SOL     OW26665   4.282   1.260  11.550 -0.5960  0.2375  0.3668
 5010SOL    HW126666   4.377   1.273  11.542 -0.7935  1.2571 -0.2447
 5010SOL    HW226667   4.274   1.327  11.617 -3.2284  1.4723 -1.1854
 5011SOL     OW26668   2.124   2.173   3.152  0.0514  0.2672 -0.9139
 5011SOL    HW126669   2.214   2.178   3.120 -0.4950  0.3601 -2.4198
 5011SOL    HW226670   2.078   2.194   3.071 -0.5888  0.9903 -0.3679
 5012SOL     OW26671   0.378   3.644   3.202  0.5216  0.7473 -0.1622
 5012SOL    HW126672   0.442   3.587   3.244 -1.7614 -1.1276  0.7933
 5012SOL    HW226673   0.308   3.580   3.187 -1.0572  2.5080 -0.2844
 5013SOL     OW26674   0.491   2.680   1.458 -0.2738  0.1793 -0.2947
 5013SOL    HW126675   0.399   2.694   1.435 -0.4470 -2.1104 -1.0112
 5013SOL    HW226676   0.487   2.585   1.464  2.4632  0.1319  0.4370
 5014SOL     OW26677   2.086   1.448   9.251 -0.5047  0.0838 -0.7377
 5014SOL    HW126678   2.115   1.474   9.339  0.6619  0.4775 -1.2337
 5014SOL    HW226679   2.019   1.385   9.275 -0.8503  1.2819  1.4580
 5015SOL     OW26680   4.005   3.234   3.051 -0.1292  0.7031  0.1206
 5015SOL    HW126681   4.005   3.239   3.146  0.3470  2.7388  0.0084
 5015SOL    HW226682   3.961   3.149   3.044 -1.4080  1.1994  2.3773
 5016SOL     OW26683   0.117   3.774   3.548  0.1603 -0.4218  0.7726
 5016SOL    HW126684   0.027   3.741   3.557 -0.6425  1.6659  0.6164
 5016SOL    HW226685   0.105   3.851   3.604  0.9373  0.4656 -0.2616
 5017SOL     OW26686   2.491   0.116   3.848 -0.1581  0.7050 -0.3249
 5017SOL    HW126687   2.495   0.084   3.757  1.1689  0.3396 -0.1306
 5017SOL    HW226688   2.406   0.074   3.864  0.8632 -1.3742 -0.4100
 5018SOL     OW26689   0.570   2.331  13.868  0.3954  0.2321 -0.1486
 5018SOL    HW126690   0.586   2.325  13.774 -2.2945 -1.5719 -0.5247
 5018SOL    HW226691   0.594   2.245  13.903  1.3317 -0.0352 -1.4663
 5019SOL     OW26692   0.737   0.665   5.880 -0.0242  0.3150  0.2822
 5019SOL    HW126693   0.773   0.753   5.888  0.4923 -0.0261  1.7312
 5019SOL    HW226694   0.766   0.643   5.792 -0.0571 -0.3729  0.4429
 5020SOL     OW26695   0.815   0.023  17.732  0.0923 -0.1527 -0.1860
 5020SOL    HW126696   0.780   0.100  17.687  2.5345  0.7002 -0.6274
 5020SOL    HW226697   0.748   4.736   0.027 -0.8914  1.3000 -0.5788
 5021SOL     OW26698   1.036   3.748  12.869  0.2119  0.1098  0.0387
 5021SOL    HW126699   1.081   3.788  12.794  2.0838  1.2165  1.7672
 5021SOL    HW226700   1.054   3.814  12.936  2.8977  1.2406 -1.7874
 5022SOL     OW26701   1.832   1.219   3.325  0.2551 -0.1643  0.4097
 5022SOL    HW126702   1.911   1.272   3.316 -1.6250  2.3788 -0.9958
 5022SOL    HW226703   1.804   1.197   3.236  0.0190  0.3131  0.3674
 5023SOL     OW26704   1.061   4.459   1.121 -0.5735  0.0554  0.2548
 5023SOL    HW126705   1.021   4.427   1.041 -0.3394 -1.8152  0.8723
 5023SOL    HW226706   1.057   4.375   1.167  0.9123 -1.7490 -2.9647
 5024SOL     OW26707   0.786   0.195   5.826 -0.0748 -0.5093 -0.1570
 5024SOL    HW126708   0.864   0.142   5.810  0.0443 -0.1775 -0.6428
 5024SOL    HW226709   0.721   0.128   5.802 -1.2084  0.4452  0.2733
 5025SOL     OW26710   0.223   4.635   1.973 -0.0015 -0.1555 -0.5930
 5025SOL    HW126711   0.212   4.541   1.989  0.4239 -0.1710 -0.3940
 5025SOL    HW226712   0.181   4.672   2.051  0.1445  3.5386 -2.2706
 5026SOL     OW26713   3.654   0.757   3.063  0.1792 -0.4900 -0.0933
 5026SOL    HW126714   3.674   0.841   3.105  0.7548  0.6751 -2.6732
 5026SOL    HW226715   3.563   0.733   3.078  0.0445  0.2693  0.2851
 5027SOL     OW26716   0.185   2.463  15.881 -0.3509 -0.2775  0.3538
 5027SOL    HW126717   0.152   2.486  15.968 -0.6573 -3.3578  1.0551
 5027SOL    HW226718   0.144   2.379  15.858  0.7093 -1.0214  1.1799
 5028SOL     OW26719   2.659   1.468   7.094  0.7577 -0.0313 -0.4857
 5028SOL    HW126720   2.630   1.379   7.072 -1.7282  0.1969  1.8723
 5028SOL    HW226721   2.652   1.459   7.189  0.7449  1.9841 -0.3032
 5029SOL     OW26722   2.036   4.420  17.678  0.0243  0.4630  0.0210
 5029SOL    HW126723   2.049   4.420   0.007 -2.3827  2.9944  0.3368
 5029SOL    HW226724   2.128   4.435  17.658 -0.0136 -0.6045 -0.9557
 5030SOL     OW26725   3.590   2.488  15.388  0.2822  0.2245  0.7692
 5030SOL    HW126726   3.654   2.559  15.389  0.1918  0.3500 -1.3578
 5030SOL    HW226727   3.620   2.436  15.463  2.3326 -0.3620 -0.4569
 5031SOL     OW26728   0.183   0.706   6.280 -0.0652  0.3183 -0.0472
 5031SOL    HW126729   0.094   0.737   6.298 -0.1192  0.4235 -0.4911
 5031SOL    HW226730   0.222   0.724   6.365 -1.2470  0.9731  0.3592
 5032SOL     OW26731   0.273   1.848   1.998  0.2845  0.0502  0.1212
 5032SOL    HW126732   0.326   1.876   2.073 -0.6951 -0.1079  0.8645
 5032SOL    HW226733   0.278   1.932   1.952 -1.7609 -1.4227 -2.7848
 5033SOL     OW26734   2.670   4.468   2.160 -0.1323  0.1489  0.0931
 5033SOL    HW126735   2.758   4.497   2.132 -0.9859  0.9784 -1.7500
 5033SOL    HW226736   2.653   4.529   2.231 -1.7199 -1.4915  1.1066
 5034SOL     OW26737   1.504   0.733   8.173 -0.1838  0.0371  0.8893
 5034SOL    HW126738   1.492   0.826   8.154 -2.1639 -0.5733 -0.9150
 5034SOL    HW226739   1.495   0.725   8.268  2.3762 -0.5395  1.0895
 5035SOL     OW26740   3.444   2.385   7.512 -0.1054 -0.0774  0.4223
 5035SOL    HW126741   3.350   2.398   7.515 -0.0287 -0.2147  2.9200
 5035SOL    HW226742   3.448   2.289   7.520 -1.3488  0.0182  2.1743
 5036SOL     OW26743   1.610   0.798   7.715 -0.1735  0.1084 -0.2495
 5036SOL    HW126744   1.684   0.858   7.712  1.4815 -1.8675  0.7029
 5036SOL    HW226745   1.604   0.764   7.626  0.8305 -0.3725 -0.1313
 5037SOL     OW26746   0.741   0.336   7.876  0.3790  0.0936  0.7624
 5037SOL    HW126747   0.720   0.423   7.843  1.2055  0.1778  0.4571
 5037SOL    HW226748   0.671   0.279   7.845 -0.1628  0.4059  1.4080
 5038SOL     OW26749   2.387   0.659   9.449 -0.0627  0.0646 -0.3235
 5038SOL    HW126750   2.374   0.599   9.376 -0.8923  1.2419 -1.1364
 5038SOL    HW226751   2.449   0.714   9.403  0.2193  1.2664  1.5022
 5039SOL     OW26752   3.122   0.392   8.620 -0.0056  0.0529  1.1064
 5039SOL    HW126753   3.028   0.390   8.638  0.1199  1.2439  1.8884
 5039SOL    HW226754   3.165   0.420   8.701  1.0350 -0.4417  0.7197
 5040SOL     OW26755   1.195   0.046  13.583  0.1336 -0.3611 -0.4464
 5040SOL    HW126756   1.144   0.078  13.508  0.8442  0.4979 -0.5652
 5040SOL    HW226757   1.280   0.037  13.540  0.4701 -1.7842  0.5110
 5041SOL     OW26758   0.379   0.611   5.128 -0.4753  0.4793 -0.2346
 5041SOL    HW126759   0.437   0.547   5.086 -0.2653  0.5488 -0.0518
 5041SOL    HW226760   0.297   0.602   5.080  0.2731  1.9245 -1.7580
 5042SOL     OW26761   3.612   3.761   4.718 -0.0012  0.2165 -0.0147
 5042SOL    HW126762   3.538   3.785   4.662  0.4549 -1.1733 -1.1976
 5042SOL    HW226763   3.662   3.717   4.649  0.8571 -0.1792  0.8509
 5043SOL     OW26764   3.722   3.513   2.000  0.2634  0.4637  0.1835
 5043SOL    HW126765   3.636   3.524   1.959  0.0507 -0.0176  0.5045
 5043SOL    HW226766   3.716   3.566   2.080 -2.0619 -0.9545  0.9332
 5044SOL     OW26767   2.346   4.206   4.053 -0.0182 -0.3819 -0.1800
 5044SOL    HW126768   2.436   4.215   4.086 -0.7991 -0.9544  2.1456
 5044SOL    HW226769   2.300   4.273   4.103 -0.1057  0.4793 -1.4235
 5045SOL     OW26770   3.055   3.652   6.426 -0.3840 -0.5138 -0.3776
 5045SOL    HW126771   3.117   3.655   6.499 -0.4069 -2.6155 -0.2713
 5045SOL    HW226772   3.110   3.623   6.353 -0.1671  2.1695 -1.2829
 5046SOL     OW26773   4.215   0.340  11.463  0.3199 -0.4940 -0.1394
 5046SOL    HW126774   4.141   0.279  11.459 -1.1182  1.2186  0.7545
 5046SOL    HW226775   4.220   0.359  11.370 -3.9754  0.7793 -0.1022
 5047SOL     OW26776   3.659   4.420   9.911 -0.1613  0.2998  0.4731
 5047SOL    HW126777   3.740   4.432   9.861  0.2502 -0.7853  0.8874
 5047SOL    HW226778   3.685   4.432  10.003 -1.5532 -1.8053  1.1341
 5048SOL     OW26779   0.420   0.615  13.033  0.3687  0.1298 -0.7438
 5048SOL    HW126780   0.382   0.684  12.979 -0.1911 -0.0864 -0.6194
 5048SOL    HW226781   0.513   0.634  13.019  0.4164 -1.3247 -2.3461
 5049SOL     OW26782   3.054   4.523  17.464  0.0886 -0.2655 -0.0745
 5049SOL    HW126783   3.030   4.494  17.375 -3.0347  1.3096  0.2620
 5049SOL    HW226784   3.095   4.607  17.444 -0.2271  0.0099  0.4385
 5050SOL     OW26785   2.182   0.990   3.766  0.1645  0.1310 -0.0300
 5050SOL    HW126786   2.201   0.996   3.860 -0.8497 -0.6924  0.2352
 5050SOL    HW226787   2.234   0.911   3.749  2.5412  0.9019  3.7859
 5051SOL     OW26788   4.446   3.734   2.863 -0.2896 -0.0922  0.0202
 5051SOL    HW126789   4.463   3.762   2.773 -1.3419  0.0664 -0.1264
 5051SOL    HW226790   4.397   3.808   2.898 -2.4886 -0.2885 -2.6367
 5052SOL     OW26791   2.089   3.665  11.992  0.3177  0.0139  0.0121
 5052SOL    HW126792   2.015   3.631  11.941  0.6728 -0.8182  0.0420
 5052SOL    HW226793   2.154   3.597  11.974  0.1729  0.0277 -0.5842
 5053SOL     OW26794   3.127   1.640   6.022  0.0605  0.1630 -0.5758
 5053SOL    HW126795   3.150   1.721   5.975 -0.3622  0.5979 -0.0409
 5053SOL    HW226796   3.152   1.581   5.951 -0.7236 -0.7949 -0.0541
 5054SOL     OW26797   3.817   1.414   6.904 -0.6867  1.0924  0.5205
 5054SOL    HW126798   3.723   1.418   6.888 -0.8458  0.3105  1.2478
 5054SOL    HW226799   3.842   1.358   6.830 -2.1799  1.5489 -0.3169
 5055SOL     OW26800   2.906   1.050   7.939 -0.0699  0.1387  0.5122
 5055SOL    HW126801   2.924   0.976   7.996 -1.2617 -1.1094 -0.7338
 5055SOL    HW226802   2.810   1.047   7.932  0.0180 -1.7127  0.1829
 5056SOL     OW26803   4.150   2.994  16.276 -0.1808  0.0193 -0.4447
 5056SOL    HW126804   4.138   2.928  16.344  0.2936  1.7056  1.2495
 5056SOL    HW226805   4.201   2.945  16.211  0.6589  0.4005 -0.0779
 5057SOL     OW26806   2.752   1.981   2.105 -0.8115 -0.1506 -0.0892
 5057SOL    HW126807   2.738   1.977   2.011 -2.5075  0.5315  0.1283
 5057SOL    HW226808   2.684   1.925   2.143 -1.7160 -0.3955 -2.1159
 5058SOL     OW26809   2.540   2.769   8.782  0.0205  0.3020  0.1472
 5058SOL    HW126810   2.566   2.861   8.784 -1.0824  0.6038  0.9626
 5058SOL    HW226811   2.490   2.757   8.863  0.9113 -0.8365  0.5165
 5059SOL     OW26812   2.649   1.770   1.576 -0.1229 -0.1970  0.3157
 5059SOL    HW126813   2.641   1.741   1.667 -0.1543 -0.9874  0.0547
 5059SOL    HW226814   2.572   1.827   1.570 -0.3826 -0.4541  1.2297
 5060SOL     OW26815   0.389   3.099  13.309  0.3803 -0.1091 -0.3454
 5060SOL    HW126816   0.346   3.016  13.329 -0.6341  0.8381  1.3999
 5060SOL    HW226817   0.382   3.112  13.215  0.4498  1.0979 -0.1880
 5061SOL     OW26818   4.270   2.346   4.241  0.4516 -0.4242  0.2738
 5061SOL    HW126819   4.323   2.426   4.241  2.1258 -1.5259  1.5415
 5061SOL    HW226820   4.203   2.373   4.304  1.4448  1.1534  0.6481
 5062SOL     OW26821   3.651   1.842   7.019 -0.0458 -0.0259 -0.2324
 5062SOL    HW126822   3.709   1.817   6.947 -0.4289 -1.7131  0.0679
 5062SOL    HW226823   3.621   1.929   6.990  0.7083  0.4720  0.4701
 5063SOL     OW26824   0.619   2.673  17.533  0.4531 -0.5390 -0.2696
 5063SOL    HW126825   0.624   2.586  17.493  0.1855 -1.2053  1.1789
 5063SOL    HW226826   0.640   2.645  17.622  2.3707 -2.4270 -1.3169
 5064SOL     OW26827   1.169   4.260   4.787 -0.0367 -0.4287 -0.0002
 5064SOL    HW126828   1.100   4.198   4.808  0.6421 -0.9288  0.7526
 5064SOL    HW226829   1.252   4.212   4.794  1.4221  2.0863  0.1945
 5065SOL     OW26830   3.745   3.360   3.118 -0.0231  0.1294  0.1123
 5065SOL    HW126831   3.707   3.288   3.168  1.8151 -1.6253 -1.0579
 5065SOL    HW226832   3.779   3.320   3.038 -0.0409  0.3146  0.0111
 5066SOL     OW26833   4.334   2.293   3.982 -0.4535 -0.3296 -0.0680
 5066SOL    HW126834   4.285   2.301   4.064  0.9849 -1.0858  0.8695
 5066SOL    HW226835   4.270   2.232   3.946 -1.7236  1.3305 -0.6419
 5067SOL     OW26836   2.951   2.819   0.674 -0.0173 -0.0660 -0.0641
 5067SOL    HW126837   3.039   2.812   0.635  1.2446 -1.8936  3.1329
 5067SOL    HW226838   2.960   2.902   0.722  0.0294  1.0932 -2.0568
 5068SOL     OW26839   4.289   4.366   0.937 -0.4718  0.0057  0.2788
 5068SOL    HW126840   4.383   4.362   0.951 -0.3378  2.3638 -0.0372
 5068SOL    HW226841   4.273   4.274   0.917  1.1829  0.4257 -2.8830
 5069SOL     OW26842   4.404   4.595   9.873  0.4345  0.3799 -0.0032
 5069SOL    HW126843   4.310   4.591   9.853  0.0994  0.5453  1.5709
 5069SOL    HW226844   4.411   4.526   9.939 -0.6247 -1.6143 -1.9449
 5070SOL     OW26845   1.350   2.148   8.651  0.9542  0.1867  0.1345
 5070SOL    HW126846   1.287   2.132   8.721  0.3771  1.0817 -0.1889
 5070SOL    HW226847   1.347   2.243   8.648 -1.2408  0.1012  0.0059
 5071SOL     OW26848   1.287   4.018   6.492  0.1957 -0.1422 -0.1815
 5071SOL    HW126849   1.221   4.078   6.455  1.3866  0.9664 -0.5130
 5071SOL    HW226850   1.360   4.073   6.520  0.4443 -0.8072  0.4482
 5072SOL     OW26851   0.736   1.969   1.396 -0.0763 -0.5281  0.1531
 5072SOL    HW126852   0.772   2.056   1.379 -1.4239  0.0271  0.1547
 5072SOL    HW226853   0.722   1.950   1.304  0.3521  0.4060 -0.1085
 5073SOL     OW26854   2.608   1.578   9.287  0.2554  0.1605 -0.2191
 5073SOL    HW126855   2.644   1.628   9.360  1.1716  0.4146 -0.8381
 5073SOL    HW226856   2.572   1.652   9.239 -0.6243  1.2020  2.0298
 5074SOL     OW26857   3.430   0.770   9.078 -0.7420 -0.1762 -0.1357
 5074SOL    HW126858   3.488   0.789   9.152 -1.9421 -1.9719  1.2473
 5074SOL    HW226859   3.486   0.728   9.014  0.0476 -0.5479  0.8038
 5075SOL     OW26860   4.400   1.157  13.227 -0.0553  0.3344  0.5119
 5075SOL    HW126861   4.421   1.075  13.271  0.4658 -0.0376 -0.4425
 5075SOL    HW226862   4.311   1.183  13.252 -0.7005  0.5954 -2.0188
 5076SOL     OW26863   0.344   2.840   2.259  0.4284 -0.4720 -0.1833
 5076SOL    HW126864   0.353   2.921   2.209  2.2651 -1.0847 -0.8202
 5076SOL    HW226865   0.255   2.844   2.296 -0.3369  1.0268 -2.1836
 5077SOL     OW26866   1.876   4.721   6.709 -0.3538  0.9362  0.2445
 5077SOL    HW126867   1.824   0.013   6.782  0.2407  3.2104 -0.4084
 5077SOL    HW226868   1.882   4.627   6.727 -1.9234  0.6874 -0.4564
 5078SOL     OW26869   0.784   2.055  12.648 -0.1140  0.3140  0.1574
 5078SOL    HW126870   0.862   2.005  12.673  1.0674  2.0701 -0.0525
 5078SOL    HW226871   0.823   2.124  12.595 -1.8641  0.6987 -0.6369
 5079SOL     OW26872   2.297   4.405   2.230 -0.0076  0.0411  0.0029
 5079SOL    HW126873   2.300   4.350   2.152  1.6114 -2.0641  1.5410
 5079SOL    HW226874   2.212   4.447   2.220  0.8316  1.0073 -3.3490
 5080SOL     OW26875   0.319   1.568  12.608  0.2456  0.6558  0.1164
 5080SOL    HW126876   0.327   1.652  12.563 -1.0614  1.1648  0.8427
 5080SOL    HW226877   0.261   1.526  12.544  1.2102 -1.3933  0.5895
 5081SOL     OW26878   2.603   2.229   1.827  0.2402  0.1989  0.4720
 5081SOL    HW126879   2.516   2.201   1.858 -0.4694  1.6829 -0.1864
 5081SOL    HW226880   2.640   2.148   1.793  0.3441 -0.4040  2.0234
 5082SOL     OW26881   1.345   3.104   7.956  0.7320  0.6407  0.1629
 5082SOL    HW126882   1.345   3.037   8.024 -1.3431  0.4883  0.0316
 5082SOL    HW226883   1.383   3.060   7.880 -0.1528  1.6441 -0.8599
 5083SOL     OW26884   0.095   2.847   2.369 -0.0992  0.7552 -0.1340
 5083SOL    HW126885   0.044   2.774   2.405  0.4894  0.1570 -0.4963
 5083SOL    HW226886   0.130   2.876   2.454  0.7951 -1.0780  0.1324
 5084SOL     OW26887   0.645   3.864   2.103 -0.1907  0.3705 -0.4042
 5084SOL    HW126888   0.596   3.875   2.184  0.3395  3.6619 -0.5555
 5084SOL    HW226889   0.691   3.946   2.086 -1.2734  0.8408 -0.9954
 5085SOL     OW26890   2.517   2.726   3.104  0.5030 -0.5308 -0.0500
 5085SOL    HW126891   2.481   2.761   3.186  2.2232  1.9316 -0.3263
 5085SOL    HW226892   2.443   2.739   3.045 -0.1128  0.9545  1.0191
 5086SOL     OW26893   0.466   1.263   6.079 -0.0712 -0.5086 -0.0409
 5086SOL    HW126894   0.497   1.315   6.152  0.3306 -1.0721  0.1870
 5086SOL    HW226895   0.534   1.289   6.016 -2.8260  2.0480 -1.9711
 5087SOL     OW26896   0.046   3.979  10.549 -0.4629 -0.0448 -0.1460
 5087SOL    HW126897   0.110   3.997  10.479  0.4071 -2.3874  0.0428
 5087SOL    HW226898   4.703   3.979  10.506 -0.4395 -3.7302 -0.2087
 5088SOL     OW26899   4.306   1.974   2.947  0.3070  0.5306 -0.0292
 5088SOL    HW126900   4.303   1.944   3.038  1.9655 -0.3792 -0.2763
 5088SOL    HW226901   4.280   2.065   2.957  0.9635  0.8031 -0.8277
 5089SOL     OW26902   1.643   0.294  13.145 -0.5777 -0.0850  0.3013
 5089SOL    HW126903   1.597   0.232  13.201  1.1025  1.4057  3.3480
 5089SOL    HW226904   1.674   0.357  13.210  1.1087 -0.8117  0.1901
 5090SOL     OW26905   0.087   3.180   4.101 -0.0244 -0.1198  0.0052
 5090SOL    HW126906   0.015   3.189   4.162 -0.1948  1.1360 -0.3778
 5090SOL    HW226907   0.138   3.256   4.130 -0.8587  0.5314 -0.2527
 5091SOL     OW26908   1.764   4.286   8.887  0.0503  0.6494  0.2529
 5091SOL    HW126909   1.731   4.197   8.879 -1.8787  1.2256  1.7713
 5091SOL    HW226910   1.680   4.331   8.888  0.3205  1.1849 -0.8035
 5092SOL     OW26911   0.661   2.775   2.584  0.5468  0.4298 -0.3081
 5092SOL    HW126912   0.605   2.730   2.647  0.2730  0.4698 -0.5182
 5092SOL    HW226913   0.711   2.833   2.640  0.1972  0.6685 -0.2407
 5093SOL     OW26914   3.519   1.885   7.876 -0.2580  0.2343  0.1433
 5093SOL    HW126915   3.439   1.851   7.915 -0.7062  0.3329 -0.6801
 5093SOL    HW226916   3.559   1.805   7.842  2.4835  2.0698 -1.0090
 5094SOL     OW26917   1.732   2.143   9.548  0.1471 -0.2939 -0.1406
 5094SOL    HW126918   1.703   2.076   9.486 -0.4144 -0.1370 -0.0377
 5094SOL    HW226919   1.809   2.181   9.505 -0.7417  0.2378 -1.2738
 5095SOL     OW26920   3.951   0.702   7.592 -0.8977  0.0587  0.2834
 5095SOL    HW126921   3.916   0.616   7.615  0.9621 -0.8484 -0.2394
 5095SOL    HW226922   4.031   0.695   7.643 -0.3478 -1.5194 -0.7587
 5096SOL     OW26923   0.732   0.361   0.574 -0.1372  0.4874 -0.1272
 5096SOL    HW126924   0.780   0.412   0.509  1.0831 -1.3443 -0.6360
 5096SOL    HW226925   0.758   0.277   0.537 -0.6426  0.4610 -0.4196
 5097SOL     OW26926   3.563   2.661   8.774 -0.3373  0.4448 -0.5211
 5097SOL    HW126927   3.522   2.697   8.696 -0.5758  1.3008 -0.0078
 5097SOL    HW226928   3.489   2.611   8.809 -1.1081  0.6968 -1.7753
 5098SOL     OW26929   4.691   3.610  11.138  0.3557  0.5432  0.0777
 5098SOL    HW126930   0.023   3.557  11.110  2.0852  2.0111  1.8892
 5098SOL    HW226931   4.682   3.669  11.064 -0.7216  1.3732  0.8578
 5099SOL     OW26932   1.237   1.022   5.780  0.2063  0.8100  0.4339
 5099SOL    HW126933   1.213   0.953   5.718  1.9388  0.9155 -0.3232
 5099SOL    HW226934   1.329   0.998   5.790  0.0255  0.0864  0.3559
 5100SOL     OW26935   0.834   0.888  16.502 -0.1351  0.1794 -0.2339
 5100SOL    HW126936   0.757   0.871  16.557 -0.0479  0.4473 -0.0311
 5100SOL    HW226937   0.816   0.977  16.471 -0.5451  0.1812  0.0069
 5101SOL     OW26938   1.687   1.309  14.628  0.1654  0.1616 -0.3275
 5101SOL    HW126939   1.737   1.349  14.699 -0.1022 -2.7556  1.4725
 5101SOL    HW226940   1.608   1.279  14.672 -0.6735  0.1763 -1.8227
 5102SOL     OW26941   0.292   4.596   0.203 -0.2316  0.1381  0.1062
 5102SOL    HW126942   0.238   4.531   0.247 -0.1713 -0.5184 -0.7858
 5102SOL    HW226943   0.351   4.531   0.164 -0.5372  0.5962 -1.1239
 5103SOL     OW26944   0.764   1.365   4.478 -0.4564 -0.0173 -0.0883
 5103SOL    HW126945   0.759   1.417   4.398 -1.0183  0.8202  0.4916
 5103SOL    HW226946   0.854   1.336   4.465 -1.4986 -2.1514 -2.7056
 5104SOL     OW26947   4.345   2.974   3.334 -0.4338 -0.8210 -0.7840
 5104SOL    HW126948   4.261   3.017   3.352 -0.2176 -0.9215  0.3982
 5104SOL    HW226949   4.360   2.994   3.241 -0.9225  0.1064 -0.6635
 5105SOL     OW26950   2.086   0.306  16.672 -0.3820  0.6526 -0.3592
 5105SOL    HW126951   2.141   0.358  16.614 -0.5190 -0.9619 -1.9173
 5105SOL    HW226952   2.055   0.239  16.612  0.5728 -0.3014  0.2211
 5106SOL     OW26953   4.506   3.784   8.575  0.1590 -0.2673 -0.0530
 5106SOL    HW126954   4.575   3.735   8.620  1.9614  0.3690 -2.1520
 5106SOL    HW226955   4.542   3.791   8.487 -3.2006 -1.3077 -1.5094
 5107SOL     OW26956   2.495   3.393  11.555 -0.4401 -0.4864  0.3285
 5107SOL    HW126957   2.547   3.314  11.538  3.5119  1.4114  3.5823
 5107SOL    HW226958   2.424   3.402  11.491  0.9203  1.2675 -0.9758
 5108SOL     OW26959   2.980   3.781   6.156 -0.2820 -0.3612 -0.3138
 5108SOL    HW126960   2.907   3.721   6.140  1.3651 -1.8799 -2.1372
 5108SOL    HW226961   2.940   3.861   6.124  2.1260 -0.0830 -2.6026
 5109SOL     OW26962   2.049   3.031   4.916 -0.6540 -0.5695  0.1096
 5109SOL    HW126963   2.052   3.126   4.901 -3.3154 -0.8083 -1.7945
 5109SOL    HW226964   2.117   3.028   4.984 -0.7416 -0.9294  0.1798
 5110SOL     OW26965   0.502   2.693   8.871  0.0431  0.1066 -0.1672
 5110SOL    HW126966   0.529   2.735   8.789 -1.8862 -1.3270 -1.5406
 5110SOL    HW226967   0.480   2.606   8.838 -0.6661  0.1601  0.1672
 5111SOL     OW26968   0.510   2.555   3.809 -0.2927 -0.2128  0.3746
 5111SOL    HW126969   0.473   2.518   3.889 -4.2530  1.7244 -0.5767
 5111SOL    HW226970   0.462   2.504   3.745  1.2876 -1.7290  0.4020
 5112SOL     OW26971   1.862   1.252   9.282 -0.4275 -0.6976 -0.3803
 5112SOL    HW126972   1.786   1.259   9.223 -0.0812 -0.8669 -0.8461
 5112SOL    HW226973   1.823   1.297   9.357  0.4877  0.2587 -0.4871
 5113SOL     OW26974   0.240   3.193   6.459  0.0210 -0.0349 -0.4416
 5113SOL    HW126975   0.318   3.191   6.404  1.7695  1.8259  1.9731
 5113SOL    HW226976   0.178   3.240   6.403 -1.7299 -1.7966  0.0338
 5114SOL     OW26977   2.902   3.200   3.302 -0.1827  0.6858 -0.3660
 5114SOL    HW126978   2.835   3.202   3.370  0.6669  3.4058  0.4148
 5114SOL    HW226979   2.962   3.271   3.327  0.8869 -0.4575  0.3409
 5115SOL     OW26980   1.837   1.749   9.288 -0.2451 -0.6642  0.0997
 5115SOL    HW126981   1.752   1.758   9.331 -0.4290  0.1230 -0.4299
 5115SOL    HW226982   1.894   1.792   9.352 -0.8301 -0.7550  0.6750
 5116SOL     OW26983   3.688   3.099  10.986  0.4800 -0.2811 -0.1798
 5116SOL    HW126984   3.642   3.044  10.923 -0.2332  0.3079 -0.1698
 5116SOL    HW226985   3.616   3.150  11.023  0.5325  0.0339 -0.5134
 5117SOL     OW26986   2.945   0.178   4.539 -0.0720 -0.3155  0.3134
 5117SOL    HW126987   2.890   0.101   4.557  0.4712 -1.1196 -1.4397
 5117SOL    HW226988   2.961   0.171   4.445  2.1325  1.6470  0.5336
 5118SOL     OW26989   2.919   0.731   7.103 -0.4491 -0.0081  0.0430
 5118SOL    HW126990   3.006   0.696   7.120 -0.2743  0.3564 -0.1112
 5118SOL    HW226991   2.940   0.819   7.071  1.5868 -0.2078  0.8617
 5119SOL     OW26992   4.163   1.704  11.033 -0.2535 -0.6634 -0.4711
 5119SOL    HW126993   4.161   1.611  11.011 -1.5889 -0.6652 -0.3401
 5119SOL    HW226994   4.070   1.729  11.031 -0.6133 -1.9455  0.4939
 5120SOL     OW26995   2.540   4.487   1.934 -0.7219  0.6961 -0.3203
 5120SOL    HW126996   2.563   4.490   2.027 -3.0010 -2.4566  0.3635
 5120SOL    HW226997   2.540   4.395   1.905  1.8001 -0.5168  3.5741
 5121SOL     OW26998   0.130   0.949   5.191  0.4746 -0.5460 -0.1158
 5121SOL    HW126999   0.111   0.893   5.267  1.7433 -0.4533  0.2743
 5121SOL    HW227000   0.049   0.999   5.183 -0.3585 -2.1163 -1.4470
 5122SOL     OW27001   3.369   3.861   0.219  0.2680  0.5113 -0.2611
 5122SOL    HW127002   3.380   3.956   0.225 -0.9170  0.6992 -1.1001
 5122SOL    HW227003   3.275   3.854   0.207  0.2181  0.6472  0.0655
 5123SOL     OW27004   0.928   2.150   5.002  0.5209  0.2698 -0.0229
 5123SOL    HW127005   0.983   2.077   5.028  0.2194  0.9479  2.4874
 5123SOL    HW227006   0.957   2.170   4.913 -2.7789 -1.4988 -1.4860
 5124SOL     OW27007   2.425   4.586   9.026 -0.8393  0.0439  0.2492
 5124SOL    HW127008   2.385   4.615   9.108  1.5256  0.2232  1.3399
 5124SOL    HW227009   2.420   4.669   8.978  0.8371 -0.0321 -0.0416
 5125SOL     OW27010   4.397   2.387   1.896  0.4643  0.2349 -0.0490
 5125SOL    HW127011   4.337   2.334   1.949 -2.2092  2.4179 -0.8748
 5125SOL    HW227012   4.482   2.344   1.905  0.7570  0.5609 -1.1833
 5126SOL     OW27013   1.382   3.581  15.560 -0.3574  0.3275  0.0244
 5126SOL    HW127014   1.380   3.515  15.491  3.3956 -0.5722  0.7715
 5126SOL    HW227015   1.434   3.526  15.619  0.4245 -0.0969 -1.0554
 5127SOL     OW27016   1.343   2.563   0.800 -0.1156  0.1155 -0.0708
 5127SOL    HW127017   1.368   2.655   0.791 -0.1660  0.0533 -0.8714
 5127SOL    HW227018   1.248   2.572   0.792  0.1110  3.7868  1.5402
 5128SOL     OW27019   3.048   4.721  12.820  0.0576 -0.5361  0.0223
 5128SOL    HW127020   3.076   4.692  12.907  1.6275 -1.6589 -0.8516
 5128SOL    HW227021   3.009   4.639  12.791 -2.9323  0.6292  0.7727
 5129SOL     OW27022   1.212   1.985   6.307  0.1938 -0.6403 -0.2748
 5129SOL    HW127023   1.260   2.059   6.344  0.5662 -1.6034  1.1519
 5129SOL    HW227024   1.280   1.920   6.288  0.6851 -0.0261 -0.6319
 5130SOL     OW27025   3.900   0.821   4.526 -0.1866 -0.0790 -0.0810
 5130SOL    HW127026   3.924   0.913   4.524 -1.7633  0.2924 -1.2216
 5130SOL    HW227027   3.928   0.795   4.614  0.5753  1.0487  0.0026
 5131SOL     OW27028   0.631   3.859   3.545  0.4001  0.2077 -0.1243
 5131SOL    HW127029   0.542   3.825   3.551  0.1741  0.7273 -0.6429
 5131SOL    HW227030   0.614   3.936   3.599 -0.2531  0.6793 -1.0152
 5132SOL     OW27031   0.153   4.446   2.289  0.2637 -0.2437  0.4007
 5132SOL    HW127032   0.237   4.400   2.283  0.9418  0.6366  3.1821
 5132SOL    HW227033   0.180   4.528   2.329 -1.8982  0.3219  0.7103
 5133SOL     OW27034   4.374   2.699   6.277  0.1167 -0.4333 -0.0915
 5133SOL    HW127035   4.350   2.772   6.219 -0.0478 -1.4609 -1.3085
 5133SOL    HW227036   4.410   2.641   6.210  2.9363 -0.5277  1.4988
 5134SOL     OW27037   0.082   3.123   5.135  0.6402 -0.1695  0.1940
 5134SOL    HW127038   0.046   3.119   5.224 -2.6103 -2.2061 -1.2230
 5134SOL    HW227039   0.172   3.093   5.152 -0.1131 -1.6725  1.5215
 5135SOL     OW27040   3.198   1.041  11.900  0.0345 -0.4191  0.0321
 5135SOL    HW127041   3.199   1.065  11.808  0.9481  1.8288  0.6101
 5135SOL    HW227042   3.248   1.112  11.942 -0.2116  0.4024 -1.0680
 5136SOL     OW27043   4.260   2.442  14.848  0.5799 -0.6508  0.1843
 5136SOL    HW127044   4.253   2.503  14.775  1.1532  0.6750  1.2436
 5136SOL    HW227045   4.246   2.357  14.806  1.0527 -1.4916  1.7320
 5137SOL     OW27046   3.323   3.284   1.887  0.1679 -0.2414 -0.1713
 5137SOL    HW127047   3.348   3.215   1.825  0.4585  0.4814 -0.8537
 5137SOL    HW227048   3.229   3.291   1.871  0.1952 -0.5336 -0.4756
 5138SOL     OW27049   1.101   3.687   2.636 -0.5706  0.0438  0.0213
 5138SOL    HW127050   1.144   3.616   2.588 -1.1582 -0.2322 -0.0961
 5138SOL    HW227051   1.107   3.759   2.573 -0.6121 -0.6456 -0.7746
 5139SOL     OW27052   0.260   0.118  16.467  0.1859 -0.0696 -0.1152
 5139SOL    HW127053   0.334   0.073  16.507 -0.6281  0.0542  1.5209
 5139SOL    HW227054   0.296   0.201  16.437 -1.8032  0.4722 -1.0005
 5140SOL     OW27055   4.540   4.513   2.261 -0.4562  0.2265  0.0095
 5140SOL    HW127056   4.547   4.606   2.237 -2.0993  0.0427 -1.1157
 5140SOL    HW227057   4.608   4.513   2.329  1.1277  2.8212 -1.5735
 5141SOL     OW27058   1.107   2.189   5.375 -0.0478 -0.0858  0.1496
 5141SOL    HW127059   1.024   2.148   5.398 -0.7613  1.1159 -0.2799
 5141SOL    HW227060   1.172   2.122   5.398 -0.1008 -0.0291  0.4632
 5142SOL     OW27061   0.709   1.563   2.594 -0.6627 -0.0752 -0.2827
 5142SOL    HW127062   0.792   1.601   2.621  0.9072 -3.3827 -0.4958
 5142SOL    HW227063   0.656   1.618   2.652  1.3885 -0.0017  1.5403
 5143SOL     OW27064   1.518   3.107   9.749  0.1372  0.2598  0.3754
 5143SOL    HW127065   1.571   3.033   9.778 -0.9920 -1.7792 -2.8711
 5143SOL    HW227066   1.438   3.065   9.718  0.2320 -0.7191  1.4625
 5144SOL     OW27067   1.329   2.750   3.749  0.3835 -0.0674 -0.9014
 5144SOL    HW127068   1.278   2.829   3.771 -0.9659 -0.8684 -1.1190
 5144SOL    HW227069   1.346   2.715   3.836 -0.5905  0.0298 -0.6717
 5145SOL     OW27070   3.324   1.359   8.276 -0.0747 -0.2767 -0.3579
 5145SOL    HW127071   3.234   1.327   8.277  0.1981 -1.0643 -0.6458
 5145SOL    HW227072   3.330   1.453   8.258  0.1248 -0.2749 -0.2805
 5146SOL     OW27073   3.813   3.925   4.765  0.8438  0.0421  0.1092
 5146SOL    HW127074   3.843   3.946   4.853  0.0488  0.4382  0.2882
 5146SOL    HW227075   3.727   3.882   4.772 -0.2524  2.1943 -0.1212
 5147SOL     OW27076   3.807   0.412   9.066 -0.0310  0.1716 -0.0321
 5147SOL    HW127077   3.780   0.457   8.985  0.5875  0.9386  0.1911
 5147SOL    HW227078   3.840   0.488   9.115  0.2650  0.1574 -0.2120
 5148SOL     OW27079   3.771   1.995   1.416  0.0863 -0.1687  0.2459
 5148SOL    HW127080   3.735   1.985   1.504 -0.2518  1.1843  0.2599
 5148SOL    HW227081   3.845   2.042   1.456  0.9848 -0.6344 -0.8733
 5149SOL     OW27082   0.799   0.076  13.246  0.3630 -0.2590  0.2005
 5149SOL    HW127083   0.816   4.739  13.196  0.6754  1.2026 -2.0383
 5149SOL    HW227084   0.709   0.061  13.274  0.5378  1.5006  1.7571
 5150SOL     OW27085   1.928   1.952   4.780 -0.0123 -0.1223  0.5934
 5150SOL    HW127086   1.908   2.042   4.754 -1.8432 -0.9502 -0.8807
 5150SOL    HW227087   1.838   1.921   4.793 -0.0553 -0.0202  0.5426
 5151SOL     OW27088   4.038   0.243   3.632  0.3315  0.4360  0.3476
 5151SOL    HW127089   4.007   0.291   3.708  0.3848  0.2361  0.4944
 5151SOL    HW227090   4.123   0.230   3.674  0.7059 -2.0682 -1.1915
 5152SOL     OW27091   1.483   1.895   1.151 -0.6844 -0.2080  0.1201
 5152SOL    HW127092   1.397   1.928   1.122 -1.3188 -0.5118  1.6658
 5152SOL    HW227093   1.516   1.851   1.073  1.4192  0.4938  0.6218
 5153SOL     OW27094   1.442   1.572   9.099 -0.2443 -0.2796  0.2371
 5153SOL    HW127095   1.440   1.538   9.189  2.3077 -0.2042  0.3210
 5153SOL    HW227096   1.376   1.511   9.067 -1.4522  0.4058  1.4125
 5154SOL     OW27097   1.144   1.596   9.265  0.0393  0.2829  0.7516
 5154SOL    HW127098   1.195   1.539   9.208  0.3781  1.4281 -0.0673
 5154SOL    HW227099   1.074   1.531   9.276  0.8972 -0.9018 -0.7717
 5155SOL     OW27100   4.527   3.402  11.185  0.6798 -0.1224 -0.5355
 5155SOL    HW127101   4.448   3.413  11.132 -0.2643 -0.7951  0.7278
 5155SOL    HW227102   4.565   3.489  11.195  0.0070 -0.1348  2.0974
 5156SOL     OW27103   3.670   4.445   4.083 -0.2659  0.4798  0.0279
 5156SOL    HW127104   3.658   4.352   4.066  1.6488  0.0531  1.0465
 5156SOL    HW227105   3.633   4.488   4.005 -0.0378  0.7780  0.0813
 5157SOL     OW27106   1.350   1.997   5.133 -0.2141  0.1414 -0.2840
 5157SOL    HW127107   1.346   1.970   5.041  1.4430 -0.1981 -0.2685
 5157SOL    HW227108   1.419   2.063   5.122 -1.4177  1.3489 -0.5581
 5158SOL     OW27109   0.962   2.898   9.023  0.3237  0.1980 -0.1316
 5158SOL    HW127110   0.885   2.848   8.995  0.1666  0.4144 -0.0888
 5158SOL    HW227111   0.918   2.981   9.043  0.6230  0.5962 -1.1180
 5159SOL     OW27112   3.301   2.565   8.732  0.1838 -0.1333 -0.1095
 5159SOL    HW127113   3.259   2.622   8.797 -1.2865 -1.7229  0.3312
 5159SOL    HW227114   3.239   2.492   8.737 -1.0245  0.9020  0.0291
 5160SOL     OW27115   1.285   4.668   8.210 -0.1679 -0.7634  0.1589
 5160SOL    HW127116   1.379   4.657   8.197  0.0295 -0.9306  1.7163
 5160SOL    HW227117   1.298   4.726   8.286  0.6054  0.5673 -0.9974
 5161SOL     OW27118   0.586   0.127  15.509 -0.4849  0.2514 -0.0952
 5161SOL    HW127119   0.515   0.184  15.479  0.2931  0.4620 -1.5411
 5161SOL    HW227120   0.653   0.111  15.443 -0.0653  0.4920  0.2707
 5162SOL     OW27121   3.040   4.630   2.700 -0.0133  0.4158  0.1555
 5162SOL    HW127122   3.018   4.559   2.761 -1.9274 -0.5998 -1.7108
 5162SOL    HW227123   3.093   4.584   2.635  1.4371  0.2826  1.4329
 5163SOL     OW27124   3.697   1.879   4.837  0.0057  0.7318 -0.3143
 5163SOL    HW127125   3.727   1.881   4.746  1.5906  0.9480  0.2149
 5163SOL    HW227126   3.633   1.808   4.840  0.5780  0.0549 -4.4066
 5164SOL     OW27127   2.704   1.166   7.433 -0.1822 -0.6282  0.1269
 5164SOL    HW127128   2.701   1.261   7.423  0.1573 -0.6238  0.0485
 5164SOL    HW227129   2.642   1.130   7.370  2.8709 -1.2980 -2.5257
 5165SOL     OW27130   1.957   4.042   0.004  0.5988 -0.3991  0.6810
 5165SOL    HW127131   2.011   4.118   0.027 -1.1712  1.4377 -1.2158
 5165SOL    HW227132   1.950   4.041  17.675  1.3406 -0.4188  0.6317
 5166SOL     OW27133   2.305   4.665   3.826 -0.1931 -0.3239 -0.0120
 5166SOL    HW127134   2.263   4.579   3.835 -3.3233  1.2963  0.9842
 5166SOL    HW227135   2.293   4.678   3.732  1.2149 -2.0853 -0.4333
 5167SOL     OW27136   0.620   3.016   1.531  0.1041  0.4600 -0.0535
 5167SOL    HW127137   0.627   3.110   1.517  0.8978  0.3510 -0.4110
 5167SOL    HW227138   0.704   2.981   1.501  0.1838  2.9170 -2.6614
 5168SOL     OW27139   4.277   1.574  13.612 -0.2845 -0.3401 -0.2106
 5168SOL    HW127140   4.324   1.637  13.558  0.4000 -0.3214  0.4110
 5168SOL    HW227141   4.355   1.534  13.651 -1.0471 -0.4412  1.2088
 5169SOL     OW27142   3.599   3.967   9.392 -0.1238  0.5486  0.5922
 5169SOL    HW127143   3.519   3.931   9.429  0.3724 -1.2018 -0.0445
 5169SOL    HW227144   3.643   3.885   9.368 -0.4000  0.7634 -0.6624
 5170SOL     OW27145   2.780   0.475   6.005  0.1073 -0.0146  0.3853
 5170SOL    HW127146   2.749   0.541   6.067  0.8320 -1.5569  2.4192
 5170SOL    HW227147   2.695   0.436   5.982 -1.1816  1.1505  3.0875
 5171SOL     OW27148   2.212   3.599  12.789  0.4072 -0.2281  0.5726
 5171SOL    HW127149   2.273   3.526  12.771  2.9661  1.9746  0.3007
 5171SOL    HW227150   2.131   3.548  12.782  0.8429 -1.1197  1.9894
 5172SOL     OW27151   2.618   3.051   0.709  0.7231  0.6107  0.0038
 5172SOL    HW127152   2.680   3.088   0.772  1.0185  0.6536 -0.3097
 5172SOL    HW227153   2.613   3.127   0.651  2.5974  0.8116  0.0922
 5173SOL     OW27154   1.506   4.348   2.650 -0.3374 -0.6174 -0.4400
 5173SOL    HW127155   1.582   4.332   2.706 -2.8087 -0.2784  2.9929
 5173SOL    HW227156   1.443   4.385   2.711 -1.3205  0.6507 -2.2089
 5174SOL     OW27157   4.185   1.596   2.335  0.0440  0.3589 -0.5464
 5174SOL    HW127158   4.223   1.520   2.291  0.0527 -0.5882  1.0661
 5174SOL    HW227159   4.208   1.667   2.275  2.6984 -0.3877 -0.3793
 5175SOL     OW27160   1.571   3.823  12.610  0.2837  0.1125  0.1805
 5175SOL    HW127161   1.531   3.795  12.528  2.9860  0.6129 -1.3115
 5175SOL    HW227162   1.636   3.888  12.582  0.9569 -0.5664  0.1829
 5176SOL     OW27163   2.904   1.004  13.665 -0.2718 -0.2453  0.2535
 5176SOL    HW127164   2.865   1.090  13.647  2.8021  1.0672 -0.1898
 5176SOL    HW227165   2.880   0.989  13.757  1.8983 -1.3817  0.6357
 5177SOL     OW27166   0.683   2.509  17.118  0.3634 -0.3012  0.0750
 5177SOL    HW127167   0.632   2.495  17.039  0.7368  0.7835 -0.3493
 5177SOL    HW227168   0.747   2.576  17.093 -2.0669  1.7087 -0.7093
 5178SOL     OW27169   3.263   4.181   7.935  0.3924 -0.2392 -0.1703
 5178SOL    HW127170   3.249   4.274   7.918 -0.5804 -0.0311  1.7589
 5178SOL    HW227171   3.186   4.160   7.988 -0.5703  1.9241 -0.7176
 5179SOL     OW27172   4.328   4.618  16.053  0.4105  0.0979 -0.1456
 5179SOL    HW127173   4.411   4.611  16.100 -0.4167  1.3915  1.5153
 5179SOL    HW227174   4.343   4.559  15.980  1.9881 -1.6213  1.5812
 5180SOL     OW27175   3.071   1.940   6.265  0.3991  0.4294  0.0332
 5180SOL    HW127176   2.984   1.950   6.226  1.0646  0.9792 -1.3087
 5180SOL    HW227177   3.126   1.923   6.187  0.8817 -0.5853  0.5949
 5181SOL     OW27178   1.259   3.937   7.243 -0.5094  0.2189  0.5260
 5181SOL    HW127179   1.234   3.956   7.153 -1.4208  0.3052  0.7941
 5181SOL    HW227180   1.342   3.984   7.246  0.0966 -0.8334  0.3304
 5182SOL     OW27181   4.475   2.665  13.914 -0.4698  0.5854 -0.5970
 5182SOL    HW127182   4.512   2.579  13.891 -1.1008  0.4009 -0.9205
 5182SOL    HW227183   4.524   2.666  13.997 -1.1722 -2.4897 -0.1500
 5183SOL     OW27184   3.243   3.049   7.437 -0.0141  0.0267 -0.5645
 5183SOL    HW127185   3.248   3.079   7.528  3.5762  1.2032 -1.1491
 5183SOL    HW227186   3.306   3.109   7.398 -0.7091 -0.1026 -1.8644
 5184SOL     OW27187   2.519   3.428   8.507  0.1810 -0.0009  0.6501
 5184SOL    HW127188   2.580   3.358   8.483  2.0889  1.8478  0.0993
 5184SOL    HW227189   2.436   3.385   8.485 -0.0608  1.6550 -1.7505
 5185SOL     OW27190   0.172   1.952   3.227 -0.6869 -0.3549 -0.6927
 5185SOL    HW127191   0.211   1.870   3.258 -1.3842 -0.1311  0.8104
 5185SOL    HW227192   0.081   1.950   3.256 -0.3432 -1.8883  0.2754
 5186SOL     OW27193   0.756   0.909   7.627 -0.2374  0.5189 -0.6732
 5186SOL    HW127194   0.728   0.994   7.659  1.8249  0.4325  1.3581
 5186SOL    HW227195   0.670   0.880   7.596  0.2990 -1.8095 -0.0115
 5187SOL     OW27196   0.832   2.322   6.297 -0.3125  0.6557 -0.2521
 5187SOL    HW127197   0.924   2.301   6.282 -0.3427 -0.8172  1.5178
 5187SOL    HW227198   0.825   2.287   6.386 -1.1918  0.5392 -0.3738
 5188SOL     OW27199   4.250   2.836   4.321  0.0574 -0.5079  0.1359
 5188SOL    HW127200   4.229   2.840   4.415 -0.1120  0.3906  0.0595
 5188SOL    HW227201   4.268   2.929   4.305 -1.4427 -0.2594 -0.1030
 5189SOL     OW27202   3.150   4.562   4.688  0.0371  0.6039  0.2219
 5189SOL    HW127203   3.101   4.536   4.611 -1.9869 -0.2355  1.7952
 5189SOL    HW227204   3.208   4.621   4.640 -0.8083 -1.7146 -3.6180
 5190SOL     OW27205   0.888   2.781  16.100  0.6131  0.0840  0.2769
 5190SOL    HW127206   0.842   2.773  16.016  1.2440  1.6445 -0.2131
 5190SOL    HW227207   0.864   2.697  16.140 -2.2559  0.7219 -0.1126
 5191SOL     OW27208   1.335   3.354   8.032 -0.2975  0.5313  0.6030
 5191SOL    HW127209   1.430   3.347   8.038 -0.3469  0.5039  1.3427
 5191SOL    HW227210   1.318   3.266   7.998 -1.2769  1.2251 -0.7186
 5192SOL     OW27211   1.224   4.577   5.149  0.1976  0.5567 -0.0737
 5192SOL    HW127212   1.247   4.536   5.066 -0.9861  1.1491 -0.6940
 5192SOL    HW227213   1.250   4.669   5.147 -0.1311  0.6168 -1.3141
 5193SOL     OW27214   0.668   0.457  11.511 -0.1905 -0.3637 -0.0204
 5193SOL    HW127215   0.623   0.410  11.581  1.3232 -0.7963  0.6736
 5193SOL    HW227216   0.619   0.420  11.437 -1.0047 -2.3378  1.5121
 5194SOL     OW27217   2.440   3.282   5.831 -0.2095 -0.2409  0.9307
 5194SOL    HW127218   2.515   3.273   5.772 -1.0356 -0.6753 -0.0585
 5194SOL    HW227219   2.433   3.193   5.864 -0.4033 -0.8454 -0.7200
 5195SOL     OW27220   0.020   0.542   5.959 -0.2147  0.0833 -0.3002
 5195SOL    HW127221   0.109   0.578   5.968 -0.2254 -0.7983  3.4809
 5195SOL    HW227222   4.720   0.542   6.045  1.0107 -1.9197  0.3075
 5196SOL     OW27223   0.122   3.502   3.144  0.8550  0.2813  0.1648
 5196SOL    HW127224   0.047   3.551   3.110  0.0653 -0.7681  0.4210
 5196SOL    HW227225   0.127   3.435   3.076  2.4703 -2.3943  2.9319
 5197SOL     OW27226   0.516   4.076   1.712 -0.1653  0.1900  0.3226
 5197SOL    HW127227   0.507   4.162   1.753  1.3967  0.2647  0.5187
 5197SOL    HW227228   0.495   4.021   1.788  1.5625 -1.9466 -0.7517
 5198SOL     OW27229   3.677   1.215   7.572  0.6633  0.7546 -0.1279
 5198SOL    HW127230   3.747   1.216   7.507  0.6040  2.9722 -0.1579
 5198SOL    HW227231   3.722   1.163   7.639  0.2488 -0.1078 -0.5348
 5199SOL     OW27232   1.132   4.436   4.132 -0.3000  0.0137  0.0108
 5199SOL    HW127233   1.133   4.383   4.212 -0.3257  0.0723  0.0496
 5199SOL    HW227234   1.221   4.415   4.102 -0.8622 -0.2534 -1.4324
 5200SOL     OW27235   0.910   3.674   4.956  0.3802 -0.8474 -1.0437
 5200SOL    HW127236   0.956   3.644   4.877 -0.8317 -1.4207 -1.5362
 5200SOL    HW227237   0.962   3.752   4.975 -0.2554 -0.2574 -1.7251
 5201SOL     OW27238   4.059   0.929   6.751 -0.5903  0.0965 -0.1632
 5201SOL    HW127239   4.145   0.887   6.754  0.7950  2.7294 -2.3465
 5201SOL    HW227240   4.092   1.013   6.784 -2.4412  0.5185  0.6299
 5202SOL     OW27241   2.980   0.621   7.975  0.1863 -0.1850  0.5621
 5202SOL    HW127242   3.034   0.692   8.010  2.1224 -1.4983  0.2483
 5202SOL    HW227243   3.014   0.548   8.028  0.9969 -0.2773 -0.0792
 5203SOL     OW27244   4.637   4.649  12.128  0.3067 -0.6069 -0.3416
 5203SOL    HW127245   4.568   4.689  12.077 -1.4766 -0.2052  2.4032
 5203SOL    HW227246   4.629   4.706  12.205  1.6281 -0.8858  0.0048
 5204SOL     OW27247   0.164   1.100   6.922 -0.0693  0.1250  0.2163
 5204SOL    HW127248   0.121   1.184   6.913 -1.8548 -0.9606 -1.3808
 5204SOL    HW227249   0.257   1.122   6.915  0.1115 -0.1755  1.6452
 5205SOL     OW27250   1.185   4.658   9.659 -0.5506 -0.0683  0.2621
 5205SOL    HW127251   1.263   4.713   9.663 -1.0614  0.5418  2.0730
 5205SOL    HW227252   1.145   4.671   9.745 -0.1247 -3.0469  0.9359
 5206SOL     OW27253   3.395   0.554   4.577  0.0647 -1.0775 -0.4573
 5206SOL    HW127254   3.335   0.513   4.514  1.4132 -0.7446 -1.9540
 5206SOL    HW227255   3.435   0.625   4.525 -2.0010  0.5493  0.1675
 5207SOL     OW27256   2.481   1.869   2.897 -0.0873  0.3462 -0.0625
 5207SOL    HW127257   2.396   1.891   2.936 -0.1270  1.1238 -0.5915
 5207SOL    HW227258   2.456   1.793   2.844  1.1934  0.7100 -1.1768
 5208SOL     OW27259   1.312   3.535   7.695 -0.2886 -0.8676  0.4165
 5208SOL    HW127260   1.239   3.595   7.712  0.8956  0.7394 -0.1347
 5208SOL    HW227261   1.286   3.516   7.604 -1.2880  0.1226  0.4823
 5209SOL     OW27262   2.133   3.635   2.740  0.4449 -0.4670 -0.2797
 5209SOL    HW127263   2.070   3.598   2.678  2.3760 -2.2881 -1.1374
 5209SOL    HW227264   2.166   3.707   2.686 -0.5760  0.4702  0.3320
 5210SOL     OW27265   0.652   1.595   2.190  0.2565 -0.3947 -0.3242
 5210SOL    HW127266   0.674   1.519   2.137  0.8219  1.1332 -2.2681
 5210SOL    HW227267   0.584   1.557   2.246  0.1466 -1.3171 -1.0952
 5211SOL     OW27268   2.507   3.893   9.318  0.2425 -0.4365  0.0168
 5211SOL    HW127269   2.592   3.879   9.277 -0.0131  1.1235 -1.0364
 5211SOL    HW227270   2.507   3.989   9.322  5.6127 -0.4652  0.1426
 5212SOL     OW27271   2.951   3.747   7.303 -0.0308  0.2616  0.0555
 5212SOL    HW127272   2.861   3.733   7.275 -0.2140  0.8487  0.3378
 5212SOL    HW227273   2.990   3.774   7.220  0.7329 -0.4890  0.1623
 5213SOL     OW27274   3.369   0.929   6.439  0.0879  1.1893 -0.6529
 5213SOL    HW127275   3.375   0.858   6.375  0.8112 -2.3922  3.3791
 5213SOL    HW227276   3.279   0.939   6.470  0.2904  0.8773  0.0301
 5214SOL     OW27277   4.202   0.780  11.777 -0.3480  0.4350 -0.0741
 5214SOL    HW127278   4.198   0.689  11.748  2.1912  0.8635 -1.7720
 5214SOL    HW227279   4.233   0.828  11.700 -0.6750  0.7368 -0.0152
 5215SOL     OW27280   1.924   4.666   0.312  0.1336  0.4556 -0.7342
 5215SOL    HW127281   1.961   0.003   0.350 -1.6626 -0.1191  2.2273
 5215SOL    HW227282   1.842   4.698   0.274 -0.2015  0.0896 -0.3138
 5216SOL     OW27283   1.470   0.197  16.974  0.0682  0.0289 -0.3208
 5216SOL    HW127284   1.531   0.125  16.958  1.0890  1.1068 -1.2665
 5216SOL    HW227285   1.494   0.260  16.906  1.8364 -0.4621 -0.1326
 5217SOL     OW27286   3.864   0.384   4.724 -0.7413  0.2384  0.5309
 5217SOL    HW127287   3.769   0.392   4.711 -0.8414  2.1647  2.4278
 5217SOL    HW227288   3.877   0.354   4.814 -1.6394  1.0845  0.9509
 5218SOL     OW27289   1.424   0.070   7.134 -0.4579 -0.6931 -0.1397
 5218SOL    HW127290   1.492   0.084   7.068 -2.5184 -0.8763 -2.3126
 5218SOL    HW227291   1.378   0.152   7.117  2.0348  0.5829 -0.7546
 5219SOL     OW27292   2.711   0.017   2.871 -0.2157  0.5138 -0.1337
 5219SOL    HW127293   2.616   0.031   2.875 -0.1272  1.1581 -0.3265
 5219SOL    HW227294   2.746   0.082   2.810  0.4461  0.1661 -0.1205
 5220SOL     OW27295   1.789   1.244   6.728 -0.0553 -0.0132  0.1832
 5220SOL    HW127296   1.819   1.218   6.641 -1.5422 -1.7124  0.1781
 5220SOL    HW227297   1.749   1.161   6.756  0.0792 -0.0019  0.4104
 5221SOL     OW27298   0.493   1.055   7.856  0.5055  0.2056  0.2234
 5221SOL    HW127299   0.572   1.109   7.852  0.4387  0.3425  0.7577
 5221SOL    HW227300   0.430   1.111   7.812  0.1521 -0.7624 -0.5129
 5222SOL     OW27301   0.757   0.706  15.694 -0.5777  0.2639  0.0247
 5222SOL    HW127302   0.780   0.793  15.662  0.6266  0.1936  0.7050
 5222SOL    HW227303   0.845   0.676  15.717 -1.1260 -2.0483 -0.8411
 5223SOL     OW27304   2.672   3.732   1.155  0.5576  0.6982 -0.2981
 5223SOL    HW127305   2.597   3.723   1.214  1.9731  0.4570  1.4940
 5223SOL    HW227306   2.737   3.770   1.215  2.5776 -1.8564 -0.8500
 5224SOL     OW27307   3.990   0.013   9.375  0.7274 -0.4500  0.4008
 5224SOL    HW127308   3.997   0.081   9.308  1.0098 -0.9659 -0.0858
 5224SOL    HW227309   3.928   0.041   9.443  0.1902 -2.9605  0.9270
 5225SOL     OW27310   1.353   0.146   5.665 -0.1723  0.5231 -0.0592
 5225SOL    HW127311   1.279   0.193   5.626  0.8503  1.3067 -1.0705
 5225SOL    HW227312   1.308   0.063   5.683  1.1263  0.0482  0.9495
 5226SOL     OW27313   0.328   3.272   4.887 -0.5657  0.5125 -0.4556
 5226SOL    HW127314   0.285   3.309   4.810 -0.5696  0.0247 -0.6844
 5226SOL    HW227315   0.390   3.209   4.850 -1.1067 -0.6812  0.6857
 5227SOL     OW27316   3.103   4.105   4.420  0.4874 -0.3423  0.0433
 5227SOL    HW127317   3.135   4.043   4.486  0.7918 -1.6893 -1.3683
 5227SOL    HW227318   3.024   4.144   4.457  1.6042  2.3272 -0.4290
 5228SOL     OW27319   4.236   1.241   8.551  0.2146  0.2786 -0.0193
 5228SOL    HW127320   4.202   1.267   8.465  0.9423  4.7651  1.0612
 5228SOL    HW227321   4.251   1.328   8.587  0.9650  0.0485  0.2366
 5229SOL     OW27322   4.282   4.664   3.116  0.2291 -0.2774  0.1676
 5229SOL    HW127323   4.275   4.737   3.054 -0.9714  0.8865  1.6566
 5229SOL    HW227324   4.293   4.711   3.199  0.0420  0.3345 -0.1549
 5230SOL     OW27325   2.736   0.726  17.746 -0.0616 -0.0587 -0.0219
 5230SOL    HW127326   2.747   0.704  17.653  0.4551 -1.2903  0.3387
 5230SOL    HW227327   2.803   0.795  17.746 -2.1413  1.9723  2.8129
 5231SOL     OW27328   3.679   2.006   0.395 -0.0425  0.8411  0.4368
 5231SOL    HW127329   3.720   2.038   0.314 -2.7686 -1.2502 -1.7745
 5231SOL    HW227330   3.708   1.914   0.387 -2.4353  0.0641  0.9099
 5232SOL     OW27331   3.427   1.771   7.566 -0.2102  0.0737  0.0678
 5232SOL    HW127332   3.482   1.847   7.585 -1.7314  0.8260  1.3441
 5232SOL    HW227333   3.410   1.743   7.656  1.6710 -0.6490  0.2111
 5233SOL     OW27334   1.315   1.312   4.669 -0.4710  0.2270 -0.3571
 5233SOL    HW127335   1.384   1.267   4.718  2.0375  2.5053 -1.8010
 5233SOL    HW227336   1.328   1.296   4.576 -1.2203 -2.3855 -0.0217
 5234SOL     OW27337   0.719   0.045   5.065 -0.1401  0.2102  0.4359
 5234SOL    HW127338   0.747   4.712   5.014  2.1139  1.5755 -0.3445
 5234SOL    HW227339   0.631   0.019   5.091 -0.1345 -0.5561 -0.3368
 5235SOL     OW27340   4.680   3.850  12.437 -0.0070  0.0189  0.7097
 5235SOL    HW127341   4.712   3.844  12.347 -0.6743  4.3643  0.1686
 5235SOL    HW227342   4.666   3.756  12.451  1.0143 -0.0578  1.2228
 5236SOL     OW27343   0.458   0.719   1.103  0.1243  0.2054 -0.5059
 5236SOL    HW127344   0.548   0.729   1.070  0.7642 -0.3756  1.0402
 5236SOL    HW227345   0.457   0.770   1.184 -2.9900 -0.1992 -0.2844
 5237SOL     OW27346   0.738   4.347   6.574  0.3574  0.1266  0.0906
 5237SOL    HW127347   0.665   4.385   6.623 -0.3391  1.7098 -2.2097
 5237SOL    HW227348   0.756   4.416   6.510 -2.4795 -0.5611 -1.4375
 5238SOL     OW27349   4.116   1.105  10.449  0.1584  0.2219  0.0194
 5238SOL    HW127350   4.127   1.065  10.535 -0.9558  1.0852  0.5543
 5238SOL    HW227351   4.041   1.058  10.413  1.6507 -0.4513 -2.2691
 5239SOL     OW27352   2.569   2.685   7.093  0.0634  0.0116 -0.4465
 5239SOL    HW127353   2.541   2.756   7.150 -0.4411 -0.3916 -0.1901
 5239SOL    HW227354   2.613   2.630   7.157 -2.9542 -1.5447  0.2583
 5240SOL     OW27355   3.394   0.133   6.080  0.0415 -0.4688 -0.3086
 5240SOL    HW127356   3.344   0.051   6.084 -3.0689  1.4071 -1.0984
 5240SOL    HW227357   3.481   0.096   6.069 -1.0167 -2.7892 -0.9604
 5241SOL     OW27358   1.991   2.023   5.661  0.2637 -0.1539 -0.5528
 5241SOL    HW127359   2.018   2.053   5.748 -1.3973 -2.2322  0.6658
 5241SOL    HW227360   2.053   2.066   5.601 -0.2122 -0.1040 -1.0056
 5242SOL     OW27361   3.987   1.196   5.169  0.4993  0.0007 -0.4088
 5242SOL    HW127362   3.937   1.162   5.243 -1.2542  3.3506 -0.0963
 5242SOL    HW227363   3.990   1.288   5.193 -1.4349 -0.0578  0.0061
 5243SOL     OW27364   1.384   3.171   7.447  0.1150  0.2332 -0.0766
 5243SOL    HW127365   1.318   3.240   7.455 -0.0893 -0.0207  0.4286
 5243SOL    HW227366   1.468   3.216   7.455  0.2272 -0.0959  0.5733
 5244SOL     OW27367   3.345   1.830   6.999  0.6763 -0.0730 -0.7382
 5244SOL    HW127368   3.432   1.813   7.034 -0.6579 -2.1592  1.5204
 5244SOL    HW227369   3.362   1.920   6.969  0.8837 -0.0900 -0.6713
 5245SOL     OW27370   2.659   2.215   0.218 -0.2417  0.6304 -1.1618
 5245SOL    HW127371   2.701   2.182   0.297  1.6990  2.5859 -1.3870
 5245SOL    HW227372   2.569   2.219   0.249 -0.2385  0.2898 -1.1124
 5246SOL     OW27373   0.595   0.702  11.598 -0.1142  0.2463  0.4772
 5246SOL    HW127374   0.544   0.739  11.525  0.8511  2.5705  0.9654
 5246SOL    HW227375   0.630   0.623  11.558  0.3153  1.1774 -1.0152
 5247SOL     OW27376   1.497   3.084   2.215 -0.1049 -0.4274  0.0983
 5247SOL    HW127377   1.517   3.156   2.275  0.5601  0.7313 -1.5071
 5247SOL    HW227378   1.455   3.139   2.149  0.1802 -2.3851 -1.7171
 5248SOL     OW27379   1.959   0.822  17.570 -0.4251  0.4094  0.0423
 5248SOL    HW127380   2.020   0.878  17.521 -0.6254  1.1228  0.5991
 5248SOL    HW227381   2.017   0.749  17.587  0.6851  1.8243  2.3471
 5249SOL     OW27382   2.126   1.258  14.231 -0.0819  0.5622  0.9917
 5249SOL    HW127383   2.139   1.267  14.136  3.4830 -2.3103  1.1926
 5249SOL    HW227384   2.213   1.262  14.272 -0.2219 -0.0179  1.3297
 5250SOL     OW27385   0.024   1.613   8.484  0.4686 -0.2568  1.2149
 5250SOL    HW127386   4.699   1.678   8.465 -0.1949 -1.3258 -0.1250
 5250SOL    HW227387   4.733   1.533   8.443 -1.4056  0.8794  0.5446
 5251SOL     OW27388   0.340   1.522   7.728  0.0416 -0.1566  0.1354
 5251SOL    HW127389   0.286   1.519   7.807  0.1359 -2.4199  0.1145
 5251SOL    HW227390   0.332   1.431   7.702 -1.0512  0.1569 -0.5975
 5252SOL     OW27391   4.337   0.998  10.322 -0.1741 -0.2183  0.3545
 5252SOL    HW127392   4.363   1.090  10.323  0.1199 -0.2867 -0.3612
 5252SOL    HW227393   4.251   1.014  10.361  0.3336  0.0080  1.3710
 5253SOL     OW27394   0.655   1.173   8.245  0.3560  0.1911  0.6293
 5253SOL    HW127395   0.595   1.208   8.178  0.5948  1.6220  1.1491
 5253SOL    HW227396   0.697   1.110   8.188  0.8085  1.6508 -0.6431
 5254SOL     OW27397   1.235   0.736   4.025  0.1795 -0.4253 -0.1449
 5254SOL    HW127398   1.212   0.829   4.014 -2.9829 -1.1289  0.4807
 5254SOL    HW227399   1.148   0.696   4.024  0.9086 -1.9535 -1.5462
 5255SOL     OW27400   2.673   4.284   6.169 -0.6018  0.0400  0.3044
 5255SOL    HW127401   2.609   4.261   6.235 -1.2701  0.4885 -0.1884
 5255SOL    HW227402   2.721   4.203   6.184  2.4107  1.9937  1.2874
 5256SOL     OW27403   2.436   1.551  11.289  0.1949  0.4834  0.6476
 5256SOL    HW127404   2.389   1.602  11.356 -1.2135  1.2576 -0.9091
 5256SOL    HW227405   2.522   1.593  11.285  1.0795 -1.4641 -0.2619
 5257SOL     OW27406   0.038   1.099   8.329 -0.0592 -0.3403  0.4846
 5257SOL    HW127407   0.052   1.012   8.291 -0.7429 -0.0932 -0.3355
 5257SOL    HW227408   4.721   1.063   8.395 -1.5720  0.8478 -0.2270
 5258SOL     OW27409   4.667   3.735   2.458 -0.3302 -0.1086  0.3340
 5258SOL    HW127410   4.578   3.751   2.488  0.1617 -0.2835  1.8813
 5258SOL    HW227411   4.697   3.715   2.546 -1.5817 -1.2761  0.4915
 5259SOL     OW27412   4.495   1.161   3.221  0.3529 -0.1610  0.2499
 5259SOL    HW127413   4.418   1.131   3.173  0.4931  1.8782 -1.2816
 5259SOL    HW227414   4.558   1.145   3.151  0.3022 -2.8998  0.8392
 5260SOL     OW27415   1.325   0.357   0.284  0.0189  0.5788 -0.2772
 5260SOL    HW127416   1.304   0.298   0.211 -1.3366 -0.5683  1.0261
 5260SOL    HW227417   1.376   0.417   0.229  1.2068  1.0546  1.3592
 5261SOL     OW27418   1.561   0.383   7.128 -0.4770  0.2762 -0.2515
 5261SOL    HW127419   1.644   0.338   7.111 -0.5515 -0.0328  0.1951
 5261SOL    HW227420   1.529   0.350   7.212  1.5943  1.4397  1.0041
 5262SOL     OW27421   2.604   4.302   8.697  0.0396  0.0475  0.1391
 5262SOL    HW127422   2.652   4.361   8.639 -1.4498  1.5662  0.4558
 5262SOL    HW227423   2.527   4.355   8.719  1.0703  0.1430  3.4224
 5263SOL     OW27424   0.687   2.490   3.590 -0.4582 -0.6268  0.2990
 5263SOL    HW127425   0.662   2.401   3.564 -2.8914  0.6394 -1.6781
 5263SOL    HW227426   0.645   2.486   3.676  0.3435 -1.5403  0.6566
 5264SOL     OW27427   2.784   3.468   1.407  0.1575 -0.5010  0.4624
 5264SOL    HW127428   2.849   3.530   1.442  3.9989 -1.5963 -4.6743
 5264SOL    HW227429   2.705   3.468   1.459 -0.8858 -0.5308 -1.1228
 5265SOL     OW27430   0.215   0.101   8.871 -0.7886 -0.0281  0.0414
 5265SOL    HW127431   0.278   0.050   8.922 -0.5250 -0.5320 -0.7717
 5265SOL    HW227432   0.174   0.039   8.810 -0.0669 -0.5869  0.1278
 5266SOL     OW27433   4.040   4.491   1.963  0.2030 -0.4678 -0.4560
 5266SOL    HW127434   4.131   4.474   1.938 -0.0371 -1.8636 -0.3864
 5266SOL    HW227435   3.999   4.504   1.878 -1.1184  1.1700  0.4212
 5267SOL     OW27436   3.337   2.961   8.669  0.3161  0.1043 -0.7395
 5267SOL    HW127437   3.334   2.938   8.762  1.5039  0.0412 -0.7207
 5267SOL    HW227438   3.242   2.964   8.665  0.1985 -2.3722  0.2597
 5268SOL     OW27439   4.048   2.724   5.738 -0.4266 -0.1120  0.2164
 5268SOL    HW127440   4.076   2.684   5.656 -1.1140 -0.5171  0.1809
 5268SOL    HW227441   4.120   2.703   5.797 -0.0555 -0.3982 -0.3417
 5269SOL     OW27442   0.884   2.329  17.215  0.0101 -0.8566 -0.0696
 5269SOL    HW127443   0.822   2.401  17.203  0.1005 -1.2032 -2.5367
 5269SOL    HW227444   0.965   2.354  17.170  0.3869 -0.7632  0.6606
 5270SOL     OW27445   3.314   0.272   6.323 -0.1753 -0.2863  0.0707
 5270SOL    HW127446   3.275   0.345   6.274  0.1831 -1.0571 -1.3512
 5270SOL    HW227447   3.348   0.216   6.253  0.3458 -0.9915  0.8884
 5271SOL     OW27448   1.714   3.138   8.890  0.6879  0.0785  0.3778
 5271SOL    HW127449   1.623   3.123   8.918  0.1400  0.8210 -1.0030
 5271SOL    HW227450   1.708   3.226   8.852 -0.3023 -0.0430  0.2535
 5272SOL     OW27451   3.120   1.909  10.493  0.7547  0.1643 -0.5064
 5272SOL    HW127452   3.129   1.890  10.400  1.8405  0.0908 -0.3864
 5272SOL    HW227453   3.181   1.980  10.512  0.7804  0.2861 -1.0557
 5273SOL     OW27454   3.755   0.626   2.121 -0.3431 -0.2399  0.4330
 5273SOL    HW127455   3.814   0.670   2.182  1.8805 -1.4130 -0.8499
 5273SOL    HW227456   3.680   0.623   2.180 -1.9512  2.9456 -1.4528
 5274SOL     OW27457   3.004   1.360   6.601  0.5585  0.1081 -0.0184
 5274SOL    HW127458   2.925   1.306   6.611  0.9399 -0.3443  0.5930
 5274SOL    HW227459   2.993   1.424   6.671 -0.4512 -0.0800  0.0025
 5275SOL     OW27460   0.823   1.082   6.105 -0.4472  0.1824 -0.2507
 5275SOL    HW127461   0.826   1.091   6.200  0.5703  0.1710 -0.2758
 5275SOL    HW227462   0.863   1.164   6.076  0.2104 -0.8205 -2.2519
 5276SOL     OW27463   2.879   3.265   2.954 -0.1791  0.0935  0.5214
 5276SOL    HW127464   2.848   3.264   2.864 -1.7595 -0.9214  1.0826
 5276SOL    HW227465   2.878   3.174   2.982  0.1660  0.2631  1.0899
 5277SOL     OW27466   0.284   0.994   2.781  0.1016  0.2869 -0.4644
 5277SOL    HW127467   0.356   0.933   2.797  0.6559  0.8522 -0.7975
 5277SOL    HW227468   0.249   0.975   2.868  2.3032 -2.2947 -0.1750
 5278SOL     OW27469   3.593   2.064   3.668 -0.1415 -0.0670 -0.6797
 5278SOL    HW127470   3.619   2.045   3.578  0.3087 -0.9187 -0.3682
 5278SOL    HW227471   3.595   1.976   3.706 -2.2264  0.7104  1.2331
 5279SOL     OW27472   4.347   4.530  14.081 -0.2677 -0.5614 -0.4558
 5279SOL    HW127473   4.389   4.610  14.112 -2.5652  1.0719 -1.6026
 5279SOL    HW227474   4.360   4.549  13.988  1.1727  0.1407 -0.1146
 5280SOL     OW27475   0.612   0.576   9.231 -0.6616  0.2729  0.6165
 5280SOL    HW127476   0.636   0.608   9.144 -2.2115  0.2620  0.1769
 5280SOL    HW227477   0.559   0.497   9.216 -2.1861  1.5194 -0.6489
 5281SOL     OW27478   4.087   2.064   1.267 -0.1664  0.2520  0.0417
 5281SOL    HW127479   4.046   2.104   1.344 -0.9808  2.5716 -1.5755
 5281SOL    HW227480   4.182   2.079   1.269  0.0212 -0.8831 -0.5860
 5282SOL     OW27481   0.428   0.316   8.541 -0.1478 -0.6771  0.2568
 5282SOL    HW127482   0.391   0.319   8.630 -0.8829  0.7137 -0.1108
 5282SOL    HW227483   0.361   0.353   8.484  2.8928  1.2539 -2.0395
 5283SOL     OW27484   2.678   3.114  11.191 -0.1814  0.2725  0.0254
 5283SOL    HW127485   2.583   3.105  11.195 -0.1485  0.5803  1.2952
 5283SOL    HW227486   2.702   3.021  11.189  1.3912  0.7337 -2.6258
 5284SOL     OW27487   4.697   0.599   5.681  0.1786 -0.2628 -0.0732
 5284SOL    HW127488   4.703   0.693   5.663  0.5611 -0.3537 -0.3913
 5284SOL    HW227489   4.703   0.591   5.776  0.0260  1.9501  0.1255
 5285SOL     OW27490   3.306   2.460   4.130 -0.0691 -0.2578  0.0629
 5285SOL    HW127491   3.227   2.478   4.079  0.8946  0.0564 -1.3420
 5285SOL    HW227492   3.365   2.465   4.055 -0.4512 -0.7003 -0.2703
 5286SOL     OW27493   4.186   0.549   8.814 -0.1693  0.0173  0.0681
 5286SOL    HW127494   4.159   0.577   8.901  0.1108 -0.5962  0.3470
 5286SOL    HW227495   4.271   0.512   8.837  0.1023 -0.1257 -1.1485
 5287SOL     OW27496   2.684   1.036   9.248  0.0681  0.9192 -0.2904
 5287SOL    HW127497   2.685   1.112   9.306  3.6548  0.5980  0.0428
 5287SOL    HW227498   2.745   0.978   9.292  0.5386  1.1588 -0.6309
 5288SOL     OW27499   1.403   2.173  14.168  0.0611 -0.0214  0.5154
 5288SOL    HW127500   1.483   2.225  14.170  0.2482 -0.4290  2.8546
 5288SOL    HW227501   1.442   2.086  14.172 -2.3235 -1.1098  0.4643
 5289SOL     OW27502   4.217   1.997  11.081 -0.1127  0.3669 -0.2122
 5289SOL    HW127503   4.177   1.915  11.053  1.3882 -0.1254 -0.9442
 5289SOL    HW227504   4.163   2.051  11.023  0.7815  1.7230  0.2164
 5290SOL     OW27505   2.608   1.271  12.386 -0.0742 -0.4577  0.1456
 5290SOL    HW127506   2.688   1.275  12.333  0.3343  1.1940  0.8691
 5290SOL    HW227507   2.601   1.181  12.415 -1.2804  0.1755  1.8219
 5291SOL     OW27508   3.632   2.403   3.308 -0.5979 -0.0031 -0.4932
 5291SOL    HW127509   3.545   2.388   3.345 -0.2890  1.6141  0.9114
 5291SOL    HW227510   3.602   2.445   3.228  0.2334  2.5696  0.5511
 5292SOL     OW27511   0.273   1.555   1.955 -0.2850  0.0356 -0.5925
 5292SOL    HW127512   0.231   1.516   2.031 -2.8538  2.8279 -0.6104
 5292SOL    HW227513   0.280   1.647   1.980  0.5596 -0.9577  2.7400
 5293SOL     OW27514   0.372   2.065  15.039  0.1811 -0.0934  0.4127
 5293SOL    HW127515   0.367   2.059  14.943  0.2888  0.1912  0.3882
 5293SOL    HW227516   0.291   2.110  15.064 -0.3692 -1.7713  1.6213
 5294SOL     OW27517   0.572   3.540   3.767  0.3445  0.5142  0.1959
 5294SOL    HW127518   0.499   3.562   3.710 -0.2265 -0.7542  0.4317
 5294SOL    HW227519   0.537   3.495   3.844 -0.0291 -0.2760 -0.4418
 5295SOL     OW27520   3.688   3.536   7.675 -0.0686  0.2636  0.3377
 5295SOL    HW127521   3.691   3.631   7.688 -1.2913  0.4646 -0.8941
 5295SOL    HW227522   3.706   3.516   7.767 -0.6762 -1.9753 -0.0382
 5296SOL     OW27523   0.027   0.092  16.342 -0.6444  0.3151 -0.1929
 5296SOL    HW127524   4.739   0.025  16.403 -0.9465 -0.0147 -0.7023
 5296SOL    HW227525   0.110   0.107  16.387 -1.1465  0.4720  0.6690
 5297SOL     OW27526   0.361   0.888  14.861  0.5717 -0.2225 -0.0050
 5297SOL    HW127527   0.434   0.930  14.817  1.5635  0.4274  2.2394
 5297SOL    HW227528   0.296   0.959  14.855 -0.8648 -1.5720 -0.3491
 5298SOL     OW27529   0.344   2.357   9.450  0.1605  0.1627  0.6673
 5298SOL    HW127530   0.265   2.411   9.443 -0.2345 -0.3606  1.1137
 5298SOL    HW227531   0.413   2.423   9.454 -1.0517  1.4368  0.4982
 5299SOL     OW27532   1.115   3.678   6.980 -0.6322  0.1969  0.0960
 5299SOL    HW127533   1.085   3.769   6.978 -0.8815  0.0851 -1.0711
 5299SOL    HW227534   1.031   3.632   6.984 -1.2225  1.4438  1.9683
 5300SOL     OW27535   0.066   3.428   5.576  0.3059  0.5094  0.1657
 5300SOL    HW127536   0.092   3.335   5.578  2.3526  1.0745  0.3875
 5300SOL    HW227537   0.122   3.444   5.500  1.7444  1.1164  1.3425
 5301SOL     OW27538   2.777   1.358   9.247 -0.1885  0.1414  0.6699
 5301SOL    HW127539   2.699   1.411   9.263  0.5793  1.1740  0.9670
 5301SOL    HW227540   2.802   1.352   9.340 -0.7918 -0.0572  0.8174
 5302SOL     OW27541   0.190   0.923   3.021  0.0935 -0.7713 -0.3231
 5302SOL    HW127542   0.199   0.829   3.040 -2.5261 -0.9006  0.2960
 5302SOL    HW227543   0.202   0.957   3.110 -0.3052  0.8816 -0.9184
 5303SOL     OW27544   3.490   4.624   1.519 -0.4375 -0.4892 -0.1290
 5303SOL    HW127545   3.558   4.660   1.463  0.6316 -3.1395 -0.5118
 5303SOL    HW227546   3.410   4.678   1.515  0.1780  0.4359  0.0815
 5304SOL     OW27547   4.365   0.215   8.551 -0.2668 -0.9078 -0.3079
 5304SOL    HW127548   4.400   0.188   8.636  0.9800 -0.7436 -0.7753
 5304SOL    HW227549   4.404   0.302   8.551 -0.5532 -0.7798 -0.9622
 5305SOL     OW27550   3.569   0.767  13.375  0.2692 -0.1506 -0.8934
 5305SOL    HW127551   3.537   0.735  13.291 -0.6264  0.6774 -0.8547
 5305SOL    HW227552   3.657   0.728  13.377  0.6893  0.7258 -3.7885
 5306SOL     OW27553   3.620   1.738   2.585 -0.1514  0.0675 -0.2326
 5306SOL    HW127554   3.670   1.678   2.640  0.6860  0.7054 -0.2880
 5306SOL    HW227555   3.558   1.764   2.653 -1.8838 -0.0691 -1.7572
 5307SOL     OW27556   4.197   3.520  13.776  0.2039  0.4219  0.5070
 5307SOL    HW127557   4.187   3.609  13.743  0.0821  0.2725  0.1475
 5307SOL    HW227558   4.283   3.491  13.748 -0.3834 -0.5934 -0.2700
 5308SOL     OW27559   2.087   1.306   5.843  0.0009 -0.0190  1.2055
 5308SOL    HW127560   2.051   1.391   5.871 -0.7733 -0.6297  2.0576
 5308SOL    HW227561   2.178   1.332   5.829 -0.5317  0.4062 -1.3727
 5309SOL     OW27562   4.612   1.667  16.605 -0.5643  0.0988 -0.3669
 5309SOL    HW127563   4.635   1.616  16.527  0.5872 -0.7697  0.5437
 5309SOL    HW227564   4.558   1.731  16.559  2.8465  2.7022 -0.7779
 5310SOL     OW27565   1.103   2.764  14.737 -0.1624 -0.0221  0.2483
 5310SOL    HW127566   1.088   2.770  14.832 -1.1898  2.3337 -0.0645
 5310SOL    HW227567   1.013   2.757  14.706 -0.6844  1.0391  1.5661
 5311SOL     OW27568   2.318   2.970   8.719  0.1080 -0.2175  0.1424
 5311SOL    HW127569   2.338   3.018   8.799 -0.2431  1.2163 -0.6225
 5311SOL    HW227570   2.275   3.033   8.661  0.9182  0.3900  0.2099
 5312SOL     OW27571   3.568   1.937  10.274 -0.1283  0.0466  0.2675
 5312SOL    HW127572   3.517   1.923  10.194  2.3288 -0.4847 -1.1942
 5312SOL    HW227573   3.616   1.858  10.249 -1.2155 -0.9932  1.4263
 5313SOL     OW27574   3.077   2.030  16.737 -0.6053  0.6865  0.1986
 5313SOL    HW127575   3.052   1.979  16.660  0.6385 -0.9433  0.8716
 5313SOL    HW227576   3.070   2.112  16.688  0.9356 -0.2013 -1.4797
 5314SOL     OW27577   1.946   4.664   5.871  0.2223  0.3902 -0.3515
 5314SOL    HW127578   1.972   4.601   5.938 -0.5536 -1.4148 -1.7538
 5314SOL    HW227579   1.998   4.739   5.901  0.4810 -0.8565  2.2840
 5315SOL     OW27580   0.236   2.334   5.843  0.1539  0.2849 -0.7707
 5315SOL    HW127581   0.145   2.360   5.826 -0.3437  0.3015  2.0317
 5315SOL    HW227582   0.280   2.412   5.874  0.3335 -0.6725  1.3655
 5316SOL     OW27583   4.102   0.716   8.232 -0.2496  0.2246  0.0131
 5316SOL    HW127584   4.063   0.709   8.145  1.1867  0.0249 -0.6285
 5316SOL    HW227585   4.137   0.805   8.230 -0.7496  0.4125 -0.3165
 5317SOL     OW27586   2.106   3.631   9.186 -0.1057 -0.1526  1.0995
 5317SOL    HW127587   2.051   3.570   9.236  0.3767  0.2189  2.0906
 5317SOL    HW227588   2.156   3.676   9.254  0.7884 -0.4255  0.6132
 5318SOL     OW27589   0.066   4.030   6.419 -1.0434  0.1669 -0.0396
 5318SOL    HW127590   0.052   4.073   6.504 -0.7467 -0.1460  0.1659
 5318SOL    HW227591   0.075   4.099   6.353 -1.0813  1.4588  1.3106
 5319SOL     OW27592   3.536   3.797   8.310  0.3354  0.4354 -0.2941
 5319SOL    HW127593   3.541   3.889   8.334  0.6546  0.4502 -0.4207
 5319SOL    HW227594   3.460   3.767   8.361 -1.3441  0.5451 -2.7515
 5320SOL     OW27595   4.487   4.671  11.652  0.1040 -0.3227  0.3643
 5320SOL    HW127596   4.518   4.680  11.562 -2.8880 -3.0479 -0.9321
 5320SOL    HW227597   4.457   0.019  11.669 -1.3329 -0.6785 -0.2368
 5321SOL     OW27598   1.846   0.405   8.763 -0.3606 -0.3386 -0.6561
 5321SOL    HW127599   1.842   0.404   8.859  3.1209 -0.2953 -0.4986
 5321SOL    HW227600   1.859   0.312   8.747 -0.5891 -0.7087  1.2718
 5322SOL     OW27601   2.385   1.558   6.983  0.0839  0.2510  0.6715
 5322SOL    HW127602   2.436   1.638   7.000 -0.5402  0.9013 -0.5107
 5322SOL    HW227603   2.371   1.522   7.070 -2.0822 -2.9806 -1.0070
 5323SOL     OW27604   3.711   1.430   8.794  0.2470  0.0865 -0.4306
 5323SOL    HW127605   3.717   1.402   8.885  1.5651  2.2273  0.1411
 5323SOL    HW227606   3.669   1.360   8.745 -1.4635  0.3942  0.6018
 5324SOL     OW27607   1.848   0.792  10.598 -0.5061 -0.1777  0.2294
 5324SOL    HW127608   1.889   0.870  10.560  1.6511 -1.3783  0.1439
 5324SOL    HW227609   1.812   0.758  10.516  2.0113 -0.6395 -0.6803
 5325SOL     OW27610   1.825   3.832   6.093 -0.1435  0.3270 -0.7015
 5325SOL    HW127611   1.844   3.742   6.117 -1.7994 -0.2080 -1.4306
 5325SOL    HW227612   1.777   3.859   6.172 -1.4790  0.4316 -1.5550
 5326SOL     OW27613   0.772   1.238   7.180 -0.0240  0.2356 -0.1362
 5326SOL    HW127614   0.718   1.162   7.204 -1.4612  0.4605 -2.6261
 5326SOL    HW227615   0.854   1.230   7.229  0.2864 -1.3278 -0.8888
 5327SOL     OW27616   0.533   0.013  13.310  0.4015  0.5872 -0.5172
 5327SOL    HW127617   0.476   4.679  13.300  1.0335  0.6337 -4.4155
 5327SOL    HW227618   0.496   0.049  13.392  0.5998  0.6697 -0.4647
 5328SOL     OW27619   4.627   3.768  14.841 -0.2057  0.2434 -0.0545
 5328SOL    HW127620   4.578   3.731  14.914  1.6188 -0.8898  0.6054
 5328SOL    HW227621   4.557   3.812  14.792 -2.1836 -0.9999  1.6780
 5329SOL     OW27622   1.450   0.654   7.407  0.0535 -0.2703 -0.1560
 5329SOL    HW127623   1.469   0.561   7.411 -1.6693 -0.6333 -0.5708
 5329SOL    HW227624   1.533   0.680   7.366  1.0883 -0.2001  1.9572
 5330SOL     OW27625   2.944   0.059   6.299  0.0965  0.1892  1.0703
 5330SOL    HW127626   3.005   0.071   6.371 -0.2608  0.3575  1.3489
 5330SOL    HW227627   2.935   4.706   6.298 -1.9075  0.3784 -0.4711
 5331SOL     OW27628   3.411   4.071  17.005 -0.4037 -0.6821 -0.4435
 5331SOL    HW127629   3.400   4.031  16.919  0.3514 -1.2565 -0.2764
 5331SOL    HW227630   3.415   4.164  16.981  0.3673 -0.5671  0.1094
 5332SOL     OW27631   0.604   4.705  11.248  0.3732 -0.1677 -0.0377
 5332SOL    HW127632   0.693   4.736  11.263  0.4991 -0.9612  0.8804
 5332SOL    HW227633   0.548   0.022  11.298 -1.2922 -2.1925  0.4726
 5333SOL     OW27634   4.582   2.724   7.313 -0.0657  0.5540  0.4754
 5333SOL    HW127635   4.591   2.638   7.272 -0.5138  0.7206  0.0311
 5333SOL    HW227636   4.495   2.717   7.352 -0.5723 -1.3395 -0.9941
 5334SOL     OW27637   2.283   3.586  13.078 -0.5613 -0.2760  0.2987
 5334SOL    HW127638   2.289   3.584  12.982  1.3760 -0.4450  0.4187
 5334SOL    HW227639   2.200   3.550  13.108  0.0519 -0.7877  1.3953
 5335SOL     OW27640   1.148   1.950   1.452  0.2841 -0.8344  0.0530
 5335SOL    HW127641   1.103   1.983   1.375  0.7825 -0.7392 -0.1952
 5335SOL    HW227642   1.238   1.971   1.427  0.3073 -0.7625  0.1933
 5336SOL     OW27643   0.959   1.727  11.556 -0.4422 -0.0755  0.1384
 5336SOL    HW127644   0.938   1.808  11.510 -0.2996 -0.1998 -0.1402
 5336SOL    HW227645   0.872   1.690  11.574 -0.3661  0.6206  1.9013
 5337SOL     OW27646   3.459   2.435  12.649  0.4883  0.0515 -0.1029
 5337SOL    HW127647   3.532   2.496  12.638  0.5929 -0.2060 -0.8843
 5337SOL    HW227648   3.389   2.484  12.605 -0.0262 -0.1233  0.5265
 5338SOL     OW27649   2.002   2.605   8.510 -0.3176 -0.2168  0.5652
 5338SOL    HW127650   2.052   2.639   8.435  1.0321 -1.5031  0.8804
 5338SOL    HW227651   2.058   2.635   8.581 -1.0892 -1.0257  1.5188
 5339SOL     OW27652   3.260   1.147   3.788 -0.4819  0.0163  0.4404
 5339SOL    HW127653   3.271   1.203   3.711  0.0785 -2.0681 -1.0293
 5339SOL    HW227654   3.281   1.213   3.854 -2.4325 -1.8705  2.9442
 5340SOL     OW27655   1.251   3.668   7.308 -0.6200  0.2671  0.1197
 5340SOL    HW127656   1.257   3.643   7.216  1.0893 -0.9839  0.5498
 5340SOL    HW227657   1.275   3.761   7.308 -1.5498  0.4988  0.7882
 5341SOL     OW27658   3.932   1.514   6.195  0.0384  0.0749  0.4000
 5341SOL    HW127659   3.935   1.573   6.270  1.1628  0.5877 -0.0429
 5341SOL    HW227660   3.838   1.499   6.186  0.0447 -0.4888  1.2385
 5342SOL     OW27661   0.349   2.980   4.137 -0.2880  0.3296 -0.0891
 5342SOL    HW127662   0.253   2.986   4.129 -0.4384 -1.0046  0.7666
 5342SOL    HW227663   0.372   3.034   4.212 -1.0139 -1.1228  1.1706
 5343SOL     OW27664   0.002   1.438   9.143 -0.4655 -1.1289 -0.1076
 5343SOL    HW127665   4.727   1.415   9.234 -0.7072 -0.5973 -0.0159
 5343SOL    HW227666   4.652   1.452   9.122  0.0790  1.7402 -0.6036
 5344SOL     OW27667   1.453   3.095   3.366 -0.3164  0.2926  0.2651
 5344SOL    HW127668   1.454   3.177   3.317 -1.3383  0.6770  0.8803
 5344SOL    HW227669   1.486   3.119   3.453 -1.4668  2.3328  0.1295
 5345SOL     OW27670   1.086   4.571   7.471  0.3392 -0.5202  0.7702
 5345SOL    HW127671   1.105   4.629   7.545 -0.0027  0.2604  0.2483
 5345SOL    HW227672   1.170   4.525   7.478  0.6421 -0.2875 -1.4828
 5346SOL     OW27673   4.532   4.281   3.139  0.2809 -0.8956 -0.0121
 5346SOL    HW127674   4.492   4.194   3.132 -0.9846 -0.6827  4.0512
 5346SOL    HW227675   4.506   4.283   3.232 -1.3372  1.1274 -0.5168
 5347SOL     OW27676   4.157   3.513   5.758  0.2934 -0.6067 -0.2899
 5347SOL    HW127677   4.081   3.484   5.809  1.3402 -0.0277  1.5818
 5347SOL    HW227678   4.118   3.529   5.672 -2.3542  2.0618  1.3742
 5348SOL     OW27679   1.980   0.259  10.619 -0.2324 -0.0924  0.0191
 5348SOL    HW127680   1.906   0.319  10.605  1.0404  1.4553 -0.0303
 5348SOL    HW227681   1.985   0.276  10.713 -0.1434 -2.2164  0.3861
 5349SOL     OW27682   2.976   0.668   8.274 -0.3555  0.1751 -0.2552
 5349SOL    HW127683   2.913   0.674   8.345 -1.8597  3.5064 -1.8381
 5349SOL    HW227684   3.004   0.579   8.292  1.4167  0.9919  1.0339
 5350SOL     OW27685   1.578   3.283   4.798 -0.3576  0.3218 -0.2657
 5350SOL    HW127686   1.529   3.351   4.753 -2.0551 -1.5348 -1.2134
 5350SOL    HW227687   1.662   3.326   4.785 -0.2856  0.4072  0.4657
 5351SOL     OW27688   2.449   2.571   8.048 -0.3607  0.4650  0.2418
 5351SOL    HW127689   2.400   2.492   8.025  0.7373  0.6549 -2.7820
 5351SOL    HW227690   2.538   2.536   8.044 -0.8405 -0.6967 -0.3401
 5352SOL     OW27691   1.488   0.203   1.520 -0.2021  0.1342  0.1945
 5352SOL    HW127692   1.468   0.199   1.427  0.1780  1.6613  0.0351
 5352SOL    HW227693   1.537   0.123   1.540  3.0951  2.6428  2.2614
 5353SOL     OW27694   0.221   2.969   6.220  0.1437  0.0407 -0.4037
 5353SOL    HW127695   0.199   2.893   6.274 -0.8279 -0.4932 -1.5768
 5353SOL    HW227696   0.284   2.920   6.167 -1.1320  0.4101 -2.2428
 5354SOL     OW27697   4.147   3.598   9.271  0.5431  0.0942 -0.3947
 5354SOL    HW127698   4.154   3.658   9.346  1.2754 -1.1253  0.5187
 5354SOL    HW227699   4.165   3.656   9.197  0.7033  0.7742  0.1786
 5355SOL     OW27700   4.345   2.469   3.410  0.6059  0.3062  0.4103
 5355SOL    HW127701   4.431   2.432   3.391  1.2973  0.6543  2.8542
 5355SOL    HW227702   4.317   2.459   3.319  0.1404 -0.5367  0.6439
 5356SOL     OW27703   0.508   2.585   1.972 -0.4162 -0.3706 -0.6641
 5356SOL    HW127704   0.527   2.625   1.888 -0.9332  2.7567  0.7363
 5356SOL    HW227705   0.560   2.643   2.028  2.3734 -1.4867 -2.0994
 5357SOL     OW27706   0.279   1.642   8.145 -0.4798 -0.0195  0.0284
 5357SOL    HW127707   0.190   1.605   8.145 -0.3120 -0.3957 -2.7197
 5357SOL    HW227708   0.319   1.618   8.229 -0.9983 -1.5653 -0.1509
 5358SOL     OW27709   1.056   1.704  15.114 -0.2383 -0.3203 -0.5957
 5358SOL    HW127710   0.990   1.642  15.084 -1.3503  0.2948  0.5617
 5358SOL    HW227711   1.117   1.638  15.147  0.6064  0.8351  0.2023
 5359SOL     OW27712   3.457   2.346   3.708  0.3919 -0.0149  0.2190
 5359SOL    HW127713   3.481   2.256   3.732  0.8972 -0.0714 -0.5037
 5359SOL    HW227714   3.534   2.388   3.747  1.2000  1.0021 -2.5047
 5360SOL     OW27715   2.610   1.938   5.220 -0.2384  0.1401  0.0127
 5360SOL    HW127716   2.687   1.957   5.275 -1.4167  0.0447  1.6942
 5360SOL    HW227717   2.580   1.859   5.264  1.0922 -1.6508 -2.2874
 5361SOL     OW27718   2.236   4.633   2.529 -0.4749  0.0376 -0.3139
 5361SOL    HW127719   2.306   4.588   2.576 -0.4925  0.4489  0.1139
 5361SOL    HW227720   2.258   4.602   2.442 -0.1855  1.6704 -0.8291
 5362SOL     OW27721   0.980   0.461   9.423  0.4338 -0.3319  0.1388
 5362SOL    HW127722   0.889   0.432   9.436  0.6296 -0.7990  0.4901
 5362SOL    HW227723   0.961   0.551   9.448 -1.9108 -1.1071  1.2152
 5363SOL     OW27724   1.440   4.521   7.237  0.6820 -0.7545  0.1904
 5363SOL    HW127725   1.408   4.550   7.151  1.5128  0.0044  0.1410
 5363SOL    HW227726   1.533   4.519   7.212  0.3640  0.0336 -1.0607
 5364SOL     OW27727   2.957   2.229   4.045 -0.2831 -0.0068 -0.4033
 5364SOL    HW127728   3.049   2.231   4.019  0.3781  1.0356  2.0460
 5364SOL    HW227729   2.944   2.135   4.049 -0.1073 -0.0366 -0.5275
 5365SOL     OW27730   3.357   1.161   5.855  0.4508 -0.1114  0.0020
 5365SOL    HW127731   3.411   1.149   5.933 -1.6314 -0.5261  1.3899
 5365SOL    HW227732   3.359   1.070   5.828 -1.4211  0.7146 -2.9661
 5366SOL     OW27733   2.644   2.390   6.840 -0.1783 -0.2037  0.0012
 5366SOL    HW127734   2.681   2.330   6.905  1.6415 -0.3091 -1.1345
 5366SOL    HW227735   2.699   2.468   6.841 -1.0707  0.4497 -1.5679
 5367SOL     OW27736   3.996   1.236   6.214  0.0354  0.7164  0.0127
 5367SOL    HW127737   3.998   1.332   6.214  0.2926  0.7120 -0.2073
 5367SOL    HW227738   4.082   1.214   6.177  0.4610  0.9179  0.8895
 5368SOL     OW27739   4.458   4.472  15.870 -0.3766  0.2601  0.2043
 5368SOL    HW127740   4.508   4.546  15.837  0.2352 -1.0357 -1.7439
 5368SOL    HW227741   4.519   4.400  15.853  0.0292  0.6233  0.1143
 5369SOL     OW27742   0.281   3.545  12.567 -0.2159 -0.1016 -0.4702
 5369SOL    HW127743   0.360   3.491  12.566  0.4616  0.8772 -0.5868
 5369SOL    HW227744   0.220   3.479  12.599 -1.6775  1.4587 -0.0257
 5370SOL     OW27745   0.492   2.272  13.606 -0.0212 -0.3235  0.1519
 5370SOL    HW127746   0.587   2.259  13.596 -0.1602 -1.5377  0.3800
 5370SOL    HW227747   0.451   2.266  13.520  0.0563  0.7344  0.0501
 5371SOL     OW27748   1.656   1.410   2.470 -0.0126  0.0029 -0.3145
 5371SOL    HW127749   1.594   1.407   2.397 -0.4597 -2.3073  0.1796
 5371SOL    HW227750   1.597   1.420   2.544  0.8822  1.8975  0.1623
 5372SOL     OW27751   4.071   3.732   7.359 -0.0880 -0.7284  0.4331
 5372SOL    HW127752   4.020   3.650   7.355  0.2952 -0.9840  0.8333
 5372SOL    HW227753   4.007   3.797   7.329  2.5144  1.6931  0.1787
 5373SOL     OW27754   2.351   1.349   7.208  0.2327 -0.0080 -0.2090
 5373SOL    HW127755   2.343   1.260   7.173  1.7473  0.3959 -1.6036
 5373SOL    HW227756   2.361   1.339   7.303 -0.2634  1.1774 -0.0359
 5374SOL     OW27757   2.351   4.087  13.560  0.0684  0.6770  0.6436
 5374SOL    HW127758   2.287   4.145  13.518  1.4604  0.4176 -1.8258
 5374SOL    HW227759   2.387   4.050  13.480 -0.2308  0.2322  0.7186
 5375SOL     OW27760   2.973   3.614   0.984  0.2421  0.2545 -0.7598
 5375SOL    HW127761   3.007   3.662   1.059 -1.0907 -1.5003  0.9670
 5375SOL    HW227762   2.980   3.524   1.014  0.2996 -0.1090 -1.8429
 5376SOL     OW27763   0.066   0.341   3.405 -0.2074  0.0088 -0.1994
 5376SOL    HW127764   0.099   0.265   3.454  0.1372 -0.9268 -1.8723
 5376SOL    HW227765   0.094   0.409   3.466 -0.4299  0.9945 -1.2041
 5377SOL     OW27766   2.225   3.271   4.341 -0.1288 -0.0404 -0.3036
 5377SOL    HW127767   2.292   3.209   4.370 -0.7409 -0.2722  0.5998
 5377SOL    HW227768   2.152   3.216   4.313  0.1563 -1.0454  0.9481
 5378SOL     OW27769   4.419   3.327   3.114 -0.5030  0.1517 -0.0762
 5378SOL    HW127770   4.375   3.243   3.102  0.5704 -0.4434  0.1426
 5378SOL    HW227771   4.488   3.317   3.048 -2.5781 -0.1283 -2.1949
 5379SOL     OW27772   3.303   2.147   7.229 -0.2818  0.4998  0.0004
 5379SOL    HW127773   3.332   2.076   7.287 -2.2702  1.1055  1.7438
 5379SOL    HW227774   3.389   2.183   7.206 -0.7116  1.1950 -0.4956
 5380SOL     OW27775   3.693   3.833   9.012 -0.0207  0.0542  0.4195
 5380SOL    HW127776   3.782   3.832   9.045  0.3181  1.4411 -0.4776
 5380SOL    HW227777   3.710   3.842   8.919 -2.5845 -1.5708 -0.2091
 5381SOL     OW27778   0.429   1.537   5.951 -0.0674 -0.1043 -0.1575
 5381SOL    HW127779   0.405   1.595   6.024  4.0360  1.7864 -0.3186
 5381SOL    HW227780   0.523   1.546   5.940 -0.2854  1.6571 -0.6531
 5382SOL     OW27781   1.377   4.088   4.789 -0.1101 -0.0214 -0.6072
 5382SOL    HW127782   1.443   4.102   4.721 -0.0114 -0.0065 -0.5082
 5382SOL    HW227783   1.330   4.009   4.763  0.0435 -0.1480 -0.5030
 5383SOL     OW27784   0.484   1.452   4.874  0.2770 -0.3222  0.1613
 5383SOL    HW127785   0.510   1.413   4.791 -0.3456 -1.7100  0.6222
 5383SOL    HW227786   0.453   1.536   4.838 -1.9224 -1.0182  0.4066
 5384SOL     OW27787   1.691   1.379  12.088 -0.2291 -0.2292 -0.5226
 5384SOL    HW127788   1.674   1.303  12.032  2.7389  0.5755 -2.4968
 5384SOL    HW227789   1.749   1.344  12.156  0.9863  0.6855 -1.0968
 5385SOL     OW27790   3.118   0.042  17.382 -0.0261  0.5956 -0.0310
 5385SOL    HW127791   3.089   0.009  17.297  0.9296 -0.3766  0.0142
 5385SOL    HW227792   3.213   0.051  17.373 -0.0464  2.1539  1.2203
 5386SOL     OW27793   3.150   3.190  10.966 -0.4126 -0.5795  0.1524
 5386SOL    HW127794   3.242   3.212  10.977 -0.5837  0.5000 -0.5216
 5386SOL    HW227795   3.105   3.258  11.017  0.1249 -2.1197  2.6876
 5387SOL     OW27796   3.391   1.258  11.988 -0.0691  0.0103 -0.0336
 5387SOL    HW127797   3.320   1.296  12.039  0.0083  1.8445 -1.2907
 5387SOL    HW227798   3.396   1.313  11.910  1.1747 -0.9706 -0.6462
 5388SOL     OW27799   4.069   3.186   2.772 -0.4460 -0.6850 -0.6708
 5388SOL    HW127800   4.056   3.228   2.857 -1.3941  0.3593 -1.3457
 5388SOL    HW227801   3.991   3.219   2.728 -0.2055  0.2756 -0.3809
 5389SOL     OW27802   3.116   1.800   1.602 -0.2262  0.0674 -0.0936
 5389SOL    HW127803   3.023   1.797   1.581 -0.2699  1.2314 -0.0872
 5389SOL    HW227804   3.152   1.722   1.560  0.9785 -0.7921  2.5592
 5390SOL     OW27805   3.136   1.346   8.642 -0.1234 -0.4421  0.7450
 5390SOL    HW127806   3.065   1.394   8.683 -0.4601 -0.8416  0.6390
 5390SOL    HW227807   3.155   1.277   8.706  2.6294 -0.2362  0.1532
 5391SOL     OW27808   2.776   3.450  12.692  0.3577 -0.1071 -0.0529
 5391SOL    HW127809   2.825   3.422  12.614 -1.4116 -2.5527 -0.2789
 5391SOL    HW227810   2.848   3.432  12.753  0.5763  1.7889  0.2346
 5392SOL     OW27811   1.439   2.862   5.208 -0.1332 -1.0948  0.6246
 5392SOL    HW127812   1.464   2.811   5.285  1.1793  0.4370  1.2254
 5392SOL    HW227813   1.358   2.901   5.240 -1.0207 -1.4124 -1.2843
 5393SOL     OW27814   2.120   0.691   4.808  0.5048 -0.5920  0.1967
 5393SOL    HW127815   2.099   0.751   4.737 -0.2817  1.1053  1.8407
 5393SOL    HW227816   2.113   0.744   4.888 -0.2367  1.2199 -1.0737
 5394SOL     OW27817   2.570   2.960   0.965 -0.1530 -0.3495  0.2421
 5394SOL    HW127818   2.613   2.978   0.882 -0.0912  0.7969  0.5185
 5394SOL    HW227819   2.498   2.910   0.927 -1.2954  0.6616  1.0684
 5395SOL     OW27820   4.519   3.791   4.002  0.4128  0.1147 -0.1022
 5395SOL    HW127821   4.582   3.719   4.008  0.3096  0.1392  1.2104
 5395SOL    HW227822   4.518   3.806   3.907 -1.6578 -1.0010 -0.2527
 5396SOL     OW27823   1.696   4.235   2.391  0.1254  0.0067 -0.1784
 5396SOL    HW127824   1.601   4.224   2.396 -0.1112  1.6714 -0.9206
 5396SOL    HW227825   1.723   4.170   2.325  1.2416  2.1170 -1.8166
 5397SOL     OW27826   3.001   3.993   8.666  0.1075 -0.3711 -0.5490
 5397SOL    HW127827   2.986   3.924   8.601 -2.8340 -1.0082  0.8004
 5397SOL    HW227828   3.093   3.983   8.690  0.0727  0.6799  0.0447
 5398SOL     OW27829   2.084   1.204   3.175 -0.1607 -0.1549 -0.1956
 5398SOL    HW127830   2.144   1.187   3.102  0.4118 -0.9379  0.4608
 5398SOL    HW227831   2.132   1.185   3.256 -2.2166  0.0921  1.0776
 5399SOL     OW27832   4.151   1.451   5.393  0.5721  0.3687 -0.3559
 5399SOL    HW127833   4.201   1.467   5.313  0.2492 -0.1292 -0.6639
 5399SOL    HW227834   4.133   1.539   5.426 -1.3762 -0.7188  1.4835
 5400SOL     OW27835   4.551   1.392  11.539  0.2769 -0.1037  0.4091
 5400SOL    HW127836   4.564   1.380  11.633 -3.0171 -2.2585  0.5932
 5400SOL    HW227837   4.512   1.479  11.543  1.0351  0.2822 -0.4252
 5401SOL     OW27838   0.301   1.482  13.030  0.4305 -0.5070  0.2317
 5401SOL    HW127839   0.374   1.487  13.091  2.0179  1.3737 -1.8020
 5401SOL    HW227840   0.230   1.463  13.091 -0.4935  0.7993 -0.4114
 5402SOL     OW27841   2.835   0.564   2.100 -0.3719  0.7180  0.2056
 5402SOL    HW127842   2.783   0.495   2.058 -2.8319  0.3997  3.7752
 5402SOL    HW227843   2.778   0.596   2.170  0.2915 -1.1562  1.5891
 5403SOL     OW27844   4.051   4.089   9.041  0.0791 -0.3764  0.4618
 5403SOL    HW127845   4.005   4.170   9.017  0.7875  0.3354  1.4759
 5403SOL    HW227846   4.137   4.123   9.068 -1.1224  1.3459  2.0825
 5404SOL     OW27847   1.331   1.807   4.548  0.3436 -0.3840  0.6212
 5404SOL    HW127848   1.239   1.814   4.522  0.5643  2.1295  0.5130
 5404SOL    HW227849   1.377   1.863   4.485  2.0835  0.2436  2.4618
 5405SOL     OW27850   3.661   2.962   6.875 -0.1521 -0.9038 -0.3686
 5405SOL    HW127851   3.566   2.956   6.882 -0.3553 -1.8196 -3.7709
 5405SOL    HW227852   3.677   2.869   6.858  2.7415 -0.1615 -1.7108
 5406SOL     OW27853   0.660   1.047   6.799  0.5177 -0.4158 -0.1875
 5406SOL    HW127854   0.711   1.007   6.869  0.4386  0.3948  0.3252
 5406SOL    HW227855   0.728   1.097   6.754  1.3283  0.8531  2.4483
 5407SOL     OW27856   2.501   3.784   2.969  0.3203  0.0408  0.3471
 5407SOL    HW127857   2.586   3.803   3.009  0.3390 -1.2487  0.9064
 5407SOL    HW227858   2.443   3.854   3.001  0.5899  0.3625  0.1422
 5408SOL     OW27859   1.815   3.632   1.955 -0.1914 -0.1441  0.6753
 5408SOL    HW127860   1.888   3.676   1.911 -0.3677  0.6783  1.2011
 5408SOL    HW227861   1.869   3.586   2.019 -0.1859  0.7574  1.3252
 5409SOL     OW27862   3.797   4.673  10.867  0.6102 -0.2277  0.7843
 5409SOL    HW127863   3.747   4.658  10.948 -0.9187 -0.8638 -0.2573
 5409SOL    HW227864   3.790   4.582  10.838  0.0118 -0.8387  2.7931
 5410SOL     OW27865   0.013   2.998  17.432 -0.3513  0.4952  0.1934
 5410SOL    HW127866   0.015   3.008  17.337 -1.4504  0.4789  0.1726
 5410SOL    HW227867   4.681   3.057  17.444 -3.5169 -3.5223  0.4165
 5411SOL     OW27868   3.418   0.800   7.589  0.8364 -0.9643 -0.3211
 5411SOL    HW127869   3.498   0.788   7.538  1.0039  1.1787 -0.5656
 5411SOL    HW227870   3.447   0.758   7.669 -2.0591  2.1921  2.3742
 5412SOL     OW27871   0.568   4.079   0.627  0.6174 -0.3803 -0.2295
 5412SOL    HW127872   0.580   3.985   0.612  1.0615 -0.2277 -0.8002
 5412SOL    HW227873   0.473   4.072   0.638  0.3106  2.2755 -1.3534
 5413SOL     OW27874   3.972   0.033   1.018 -0.4465 -0.3501 -0.0541
 5413SOL    HW127875   4.037   0.004   0.955 -2.5393 -2.4921 -1.2172
 5413SOL    HW227876   3.899   0.061   0.962 -1.2711 -0.8467  0.7566
 5414SOL     OW27877   2.902   4.643  14.898 -0.2493 -0.5198 -0.6397
 5414SOL    HW127878   2.841   4.685  14.839  2.7422  1.8729 -1.9761
 5414SOL    HW227879   2.978   4.700  14.910 -0.4790  0.1528 -2.4304
 5415SOL     OW27880   3.725   1.568   2.804 -0.7507  0.6915  0.2161
 5415SOL    HW127881   3.765   1.482   2.798 -0.6445  0.8138 -0.8836
 5415SOL    HW227882   3.799   1.624   2.779  1.1265 -0.9796  2.0570
 5416SOL     OW27883   2.831   3.720  16.086 -0.4674 -0.7867 -0.8075
 5416SOL    HW127884   2.838   3.701  15.993 -4.2328 -1.1094 -1.0165
 5416SOL    HW227885   2.737   3.738  16.098 -0.1557  0.4553 -0.1921
 5417SOL     OW27886   0.827   3.223   5.884  0.1887  0.2064  0.4725
 5417SOL    HW127887   0.741   3.189   5.860  1.0921 -1.7255 -0.0797
 5417SOL    HW227888   0.867   3.241   5.799 -0.9219 -0.4329 -0.1860
 5418SOL     OW27889   4.406   0.309   4.940  0.6359 -0.4825 -0.2914
 5418SOL    HW127890   4.340   0.364   4.981  1.7606  1.5502 -1.2242
 5418SOL    HW227891   4.485   0.316   4.994 -0.4652  0.8189  1.1423
 5419SOL     OW27892   3.684   1.960  15.631  0.4211  0.1094  0.2861
 5419SOL    HW127893   3.763   2.014  15.624  1.8167 -1.8392  0.7909
 5419SOL    HW227894   3.637   1.990  15.553 -0.9552  0.6142  1.3144
 5420SOL     OW27895   0.219   2.803   0.121  0.3124  0.8083 -0.2528
 5420SOL    HW127896   0.236   2.757   0.039 -1.2311  1.5445 -0.9687
 5420SOL    HW227897   0.296   2.790   0.177  0.0885 -1.7929 -0.5537
 5421SOL     OW27898   3.678   2.557   6.496  0.3914 -0.2401  0.0525
 5421SOL    HW127899   3.599   2.599   6.529 -0.7926 -2.6869  0.3312
 5421SOL    HW227900   3.697   2.619   6.425  1.2779  0.3585  0.8258
 5422SOL     OW27901   4.437   2.781   5.695  0.9509 -0.2945  0.6448
 5422SOL    HW127902   4.498   2.714   5.726  0.5203 -0.2870  1.5122
 5422SOL    HW227903   4.359   2.752   5.742  1.3357 -5.0734 -1.6529
 5423SOL     OW27904   0.290   3.871   5.181 -0.2221 -0.5557  0.2737
 5423SOL    HW127905   0.326   3.896   5.266  1.7322 -4.5345  0.6407
 5423SOL    HW227906   0.198   3.866   5.208 -0.3470 -0.4041 -0.1328
 5424SOL     OW27907   1.903   1.062   8.796  0.6627 -0.0682  0.3079
 5424SOL    HW127908   1.824   1.116   8.796  1.0339  0.4543 -2.3683
 5424SOL    HW227909   1.950   1.107   8.725  1.1210 -0.5050  0.3318
 5425SOL     OW27910   4.616   1.816   8.436  0.3305 -0.5458  0.5814
 5425SOL    HW127911   4.568   1.795   8.516  0.2050 -3.1475 -0.1738
 5425SOL    HW227912   4.590   1.906   8.415  1.7922 -0.1921  0.2794
 5426SOL     OW27913   4.190   3.706   3.603 -0.3963  0.4477  0.1868
 5426SOL    HW127914   4.137   3.691   3.525 -0.8703  2.5278  0.1049
 5426SOL    HW227915   4.240   3.625   3.599 -0.6067  0.3059  0.3824
 5427SOL     OW27916   3.188   1.233   5.313 -0.3519 -0.6301  0.1552
 5427SOL    HW127917   3.177   1.164   5.379 -2.4841 -0.7361 -0.2957
 5427SOL    HW227918   3.249   1.297   5.350  0.8435 -0.0031 -2.9724
 5428SOL     OW27919   2.513   2.311   7.897 -0.2117  0.2866  0.2738
 5428SOL    HW127920   2.593   2.275   7.936 -1.4435  0.4211  2.9377
 5428SOL    HW227921   2.450   2.260   7.948  1.0155 -0.1769  1.3282
 5429SOL     OW27922   0.320   0.471   1.354  0.0010  0.2716 -0.0896
 5429SOL    HW127923   0.340   0.521   1.433 -1.8532 -1.4780  1.4801
 5429SOL    HW227924   0.389   0.405   1.343  0.5682  1.1501 -1.8908
 5430SOL     OW27925   1.436   1.463   3.590  1.3231 -0.2344  0.2895
 5430SOL    HW127926   1.528   1.450   3.566  1.1559  0.2008 -0.5800
 5430SOL    HW227927   1.411   1.389   3.644  2.4549 -0.5117  0.4456
 5431SOL     OW27928   4.443   0.239  13.949  0.3119  0.3180 -0.0982
 5431SOL    HW127929   4.417   0.163  13.898 -1.2490 -0.3106  1.6399
 5431SOL    HW227930   4.505   0.206  14.014 -0.5259  0.2315  0.6657
 5432SOL     OW27931   0.953   1.818   3.488 -0.7192  0.1858 -0.7329
 5432SOL    HW127932   1.017   1.889   3.492 -0.2279 -0.3443  0.8669
 5432SOL    HW227933   0.926   1.835   3.397  1.6968  1.7040 -1.1706
 5433SOL     OW27934   0.814   2.594   4.327 -0.6714  0.8721 -0.2776
 5433SOL    HW127935   0.841   2.683   4.308  1.3352  0.6893  1.7184
 5433SOL    HW227936   0.866   2.575   4.405 -2.5668  1.0476  1.0217
 5434SOL     OW27937   2.862   2.885   7.220  1.0259 -0.3802  0.5779
 5434SOL    HW127938   2.778   2.854   7.254  1.1354  1.1666  2.2554
 5434SOL    HW227939   2.859   2.860   7.128  2.1430 -3.0215  1.2379
 5435SOL     OW27940   0.869   0.261   8.853 -0.2513 -0.3148 -0.1155
 5435SOL    HW127941   0.811   0.325   8.809  0.2605  0.8182  0.8538
 5435SOL    HW227942   0.866   0.299   8.941 -1.7647  0.5217 -0.5139
 5436SOL     OW27943   4.091   3.052   4.689 -0.1373 -1.1240 -0.5947
 5436SOL    HW127944   4.021   2.991   4.664 -1.1893 -0.6370  1.1802
 5436SOL    HW227945   4.064   3.087   4.774 -1.6819 -1.6053 -0.8904
 5437SOL     OW27946   2.250   3.893   3.456 -0.5982 -0.1937 -0.0746
 5437SOL    HW127947   2.288   3.814   3.418  0.9727  0.1543  0.7693
 5437SOL    HW227948   2.236   3.859   3.545  0.8403 -0.4510  0.0428
 5438SOL     OW27949   3.898   2.182   8.899  0.5206  0.2592 -0.1228
 5438SOL    HW127950   3.884   2.122   8.826  0.2887  0.2994 -0.1097
 5438SOL    HW227951   3.839   2.256   8.885 -0.9992 -0.8569  0.4275
 5439SOL     OW27952   2.256   1.429  17.595  0.2104 -0.2172 -0.2889
 5439SOL    HW127953   2.235   1.513  17.554  0.7199 -0.2890 -0.6979
 5439SOL    HW227954   2.180   1.378  17.567  0.9058  0.5528 -3.5743
 5440SOL     OW27955   2.341   2.708   6.350  0.6117 -0.0563  0.1991
 5440SOL    HW127956   2.264   2.732   6.299  0.4508 -0.9314  0.0265
 5440SOL    HW227957   2.414   2.738   6.296 -1.4956 -0.3936 -2.8286
 5441SOL     OW27958   1.572   3.508   4.326 -0.0966 -0.5319 -0.0374
 5441SOL    HW127959   1.609   3.581   4.276  1.0705 -1.5092 -0.5908
 5441SOL    HW227960   1.502   3.481   4.267 -0.8549  2.5298 -0.5217
 5442SOL     OW27961   3.020   1.551   6.273 -0.1468 -0.3348  0.2406
 5442SOL    HW127962   3.053   1.609   6.204  0.7452 -4.0566 -2.4599
 5442SOL    HW227963   3.098   1.498   6.284  0.4708  0.8976  1.8806
 5443SOL     OW27964   0.436   2.708   0.862 -0.3212 -0.2801  0.0308
 5443SOL    HW127965   0.346   2.740   0.856  0.2102  0.6534 -2.9290
 5443SOL    HW227966   0.421   2.615   0.883  0.5665 -0.3198  0.4605
 5444SOL     OW27967   2.165   2.013   8.408  0.3133 -0.2477 -0.2629
 5444SOL    HW127968   2.127   2.003   8.495 -1.1998  2.4627 -0.6006
 5444SOL    HW227969   2.251   2.047   8.435  0.9406 -2.0732  0.0442
 5445SOL     OW27970   3.475   1.027   2.625  0.1683  0.5246 -0.3167
 5445SOL    HW127971   3.442   1.104   2.671 -1.1117  0.1415 -0.5863
 5445SOL    HW227972   3.423   1.039   2.546  0.3299  0.1504 -0.4810
 5446SOL     OW27973   2.746   1.858   6.528  0.1281 -0.3175 -0.1752
 5446SOL    HW127974   2.708   1.774   6.504 -2.2490  0.9067 -0.6727
 5446SOL    HW227975   2.834   1.834   6.497  1.2681  1.8359  1.3766
 5447SOL     OW27976   1.172   3.225   5.647  0.3623  0.2324  0.5089
 5447SOL    HW127977   1.232   3.274   5.592 -1.1805  0.4548 -0.9585
 5447SOL    HW227978   1.239   3.199   5.710  0.7944 -0.1548 -0.1203
 5448SOL     OW27979   3.618   1.468   7.357 -0.1727 -0.1149  0.3115
 5448SOL    HW127980   3.669   1.546   7.333 -0.4598  0.1971  0.6963
 5448SOL    HW227981   3.687   1.402   7.352  1.4473  1.5531  0.6781
 5449SOL     OW27982   4.714   2.913   6.694  0.3747 -0.0138  0.0996
 5449SOL    HW127983   4.723   2.896   6.600  0.1246  1.1282 -0.1384
 5449SOL    HW227984   0.041   2.978   6.702  0.2254  0.2154 -0.4421
 5450SOL     OW27985   1.969   2.084   1.788  0.2988  0.1212 -0.1629
 5450SOL    HW127986   1.922   2.099   1.706  0.3976 -0.3898 -0.3111
 5450SOL    HW227987   2.059   2.095   1.757  0.5496  0.5204  0.6940
 5451SOL     OW27988   2.889   0.566  15.649 -1.0829  0.0860  0.1179
 5451SOL    HW127989   2.857   0.596  15.734 -3.1082 -2.1408  0.1424
 5451SOL    HW227990   2.973   0.530  15.676 -0.8760  0.5789  0.1286
 5452SOL     OW27991   2.304   2.112  13.134  0.0128 -0.4870 -0.8733
 5452SOL    HW127992   2.294   2.171  13.060  0.3053 -1.2716 -1.5377
 5452SOL    HW227993   2.275   2.167  13.207  0.0605 -0.1383 -1.1171
 5453SOL     OW27994   0.470   3.844   7.103  0.0863  0.3688  0.1990
 5453SOL    HW127995   0.387   3.798   7.116  0.3188  0.2319  1.1941
 5453SOL    HW227996   0.494   3.822   7.013 -0.6058  1.8872 -0.3684
 5454SOL     OW27997   2.165   4.700   6.326  0.1185  0.0234  0.3053
 5454SOL    HW127998   2.229   0.028   6.320 -0.6647  0.7197  0.0560
 5454SOL    HW227999   2.229   4.633   6.349 -0.9354 -0.8904  0.6115
 5455SOL     OW28000   1.554   4.528  13.319 -0.3393  0.6415 -0.2464
 5455SOL    HW128001   1.517   4.473  13.249 -0.4722 -0.6245  0.8253
 5455SOL    HW228002   1.628   4.561  13.267 -0.5524 -1.6335 -2.0245
 5456SOL     OW28003   2.424   3.329   0.430 -0.3461 -0.6939 -0.0147
 5456SOL    HW128004   2.499   3.325   0.489  1.5059 -2.6110 -2.4665
 5456SOL    HW228005   2.440   3.412   0.385 -1.9035 -0.5355 -0.2721
 5457SOL     OW28006   1.630   2.411   6.913 -0.5652  0.2070 -0.1004
 5457SOL    HW128007   1.704   2.472   6.918 -1.9464  1.7576  1.3726
 5457SOL    HW228008   1.663   2.328   6.879 -0.6296 -0.5911  1.7667
 5458SOL     OW28009   3.948   2.433   3.921 -0.1952 -0.3227 -0.3845
 5458SOL    HW128010   4.005   2.510   3.912 -0.8934  0.3405  0.9175
 5458SOL    HW228011   3.913   2.439   4.009  0.9472  0.1592  0.0393
 5459SOL     OW28012   0.862   0.294   1.969  0.5036 -0.6352 -0.6137
 5459SOL    HW128013   0.769   0.283   1.948  0.7022 -0.8041 -1.4059
 5459SOL    HW228014   0.885   0.353   1.897 -1.2798  0.1834 -0.5244
 5460SOL     OW28015   3.097   0.263  16.581  0.2235  0.1451  0.3454
 5460SOL    HW128016   3.033   0.287  16.514 -1.3215  0.1901  1.8177
 5460SOL    HW228017   3.042   0.268  16.659 -0.5602 -2.0494 -0.0665
 5461SOL     OW28018   4.141   3.435   4.081  0.3088 -0.0593  0.5626
 5461SOL    HW128019   4.087   3.508   4.051  2.3637  0.6067 -1.5316
 5461SOL    HW228020   4.077   3.389   4.136  0.4560 -0.7901  0.1235
 5462SOL     OW28021   3.687   1.909   9.174  0.7545  0.2025  0.3079
 5462SOL    HW128022   3.666   1.819   9.150  1.3898  0.1102  0.1079
 5462SOL    HW228023   3.657   1.963   9.101  0.0053 -0.8047 -0.1317
 5463SOL     OW28024   3.646   2.796   5.839  0.2557 -0.3930  0.5335
 5463SOL    HW128025   3.560   2.763   5.812  0.5793 -0.9216  0.1486
 5463SOL    HW228026   3.619   2.865   5.899 -0.9917 -1.4652  1.2141
 5464SOL     OW28027   0.373   3.337  12.235  0.0731 -0.1880 -0.1067
 5464SOL    HW128028   0.302   3.285  12.197 -1.2367  0.3842  1.5556
 5464SOL    HW228029   0.376   3.308  12.327  1.2242  0.9283  0.2084
 5465SOL     OW28030   2.467   0.839  13.961 -0.4754  0.2489  0.4199
 5465SOL    HW128031   2.470   0.769  13.896  0.9112  1.3142 -0.6598
 5465SOL    HW228032   2.430   0.901  13.898  0.7491  1.2555  0.6964
 5466SOL     OW28033   0.499   4.724   8.749  0.0281 -0.1723 -0.3146
 5466SOL    HW128034   0.504   0.032   8.667  0.6910  2.9763  1.6784
 5466SOL    HW228035   0.562   0.020   8.809 -0.8696  0.0976  0.4466
 5467SOL     OW28036   1.051   3.582   2.066 -0.2879  0.4029 -0.0196
 5467SOL    HW128037   1.078   3.573   2.157  0.9515 -0.9445 -0.5253
 5467SOL    HW228038   0.956   3.576   2.075 -0.5049  3.0781 -0.5421
 5468SOL     OW28039   4.228   4.541  13.472  0.3108  0.7275 -0.2118
 5468SOL    HW128040   4.137   4.528  13.446  0.3840 -0.5519  0.2021
 5468SOL    HW228041   4.272   4.462  13.442  1.0470  1.2515 -0.5271
 5469SOL     OW28042   0.371   1.358   1.132 -0.9820  0.0314  0.1781
 5469SOL    HW128043   0.311   1.286   1.113 -1.3594  0.6445 -0.9133
 5469SOL    HW228044   0.413   1.307   1.202  1.1574 -1.8555 -2.4327
 5470SOL     OW28045   1.083   3.210   6.066 -0.1030  0.1738  0.7065
 5470SOL    HW128046   0.999   3.210   6.111 -1.1374  1.9900 -1.2520
 5470SOL    HW228047   1.053   3.211   5.976 -0.9248 -0.4890  0.9814
 5471SOL     OW28048   3.491   2.181   8.893  0.3321 -0.1405 -0.0442
 5471SOL    HW128049   3.496   2.203   8.800  1.6639 -0.8009 -0.1342
 5471SOL    HW228050   3.469   2.267   8.929  1.5338 -0.5706  1.7520
 5472SOL     OW28051   0.908   2.002   2.939  0.2863  0.1932 -0.0603
 5472SOL    HW128052   0.995   1.974   2.967 -0.5497 -2.3191  0.0267
 5472SOL    HW228053   0.917   2.097   2.945  0.9756 -0.0586  2.6053
 5473SOL     OW28054   2.884   4.109   7.335  0.7358 -0.2086  0.1970
 5473SOL    HW128055   2.833   4.139   7.410 -0.3693  0.5020 -0.8359
 5473SOL    HW228056   2.938   4.039   7.371  2.4214  1.8856  1.6581
 5474SOL     OW28057   4.092   0.970   7.602  0.4240 -0.5651  0.0575
 5474SOL    HW128058   4.056   0.883   7.621  0.7139 -0.5443  0.7384
 5474SOL    HW228059   4.053   1.018   7.675 -0.0600 -1.1565  0.1863
 5475SOL     OW28060   4.308   4.717  12.306  0.2606 -0.4495 -0.2966
 5475SOL    HW128061   4.327   4.642  12.362 -1.4831 -0.1098  0.7357
 5475SOL    HW228062   4.257   0.025  12.369  1.6048  0.3286  0.1655
 5476SOL     OW28063   1.339   0.702   2.627 -0.0799  0.2864  0.1793
 5476SOL    HW128064   1.432   0.721   2.617  0.1421 -0.9015  0.0074
 5476SOL    HW228065   1.354   0.622   2.677  1.6744  0.6955  0.2844
 5477SOL     OW28066   1.212   3.276   6.737  0.2610  0.0159  0.1148
 5477SOL    HW128067   1.170   3.222   6.805 -2.1538  2.5644  0.6923
 5477SOL    HW228068   1.215   3.212   6.666  0.1319 -1.0743  1.0938
 5478SOL     OW28069   3.350   3.309   4.576 -0.1114 -0.1035  0.0324
 5478SOL    HW128070   3.261   3.306   4.541 -0.5543  1.3718  1.0322
 5478SOL    HW228071   3.335   3.256   4.655  1.0947 -0.5677 -0.0522
 5479SOL     OW28072   0.474   1.188   1.948 -0.0051 -0.3349 -0.3125
 5479SOL    HW128073   0.389   1.176   1.906 -0.7557  1.7326  0.6192
 5479SOL    HW228074   0.521   1.122   1.896 -0.0960 -0.0774 -0.7223
 5480SOL     OW28075   3.944   1.465   8.649 -0.3000  0.4331 -0.3052
 5480SOL    HW128076   3.946   1.474   8.745 -0.7597  3.2163 -0.5619
 5480SOL    HW228077   3.849   1.452   8.647 -0.3170  0.5450 -0.2198
 5481SOL     OW28078   2.066   3.542   8.769 -0.2511 -0.1487  0.7343
 5481SOL    HW128079   1.977   3.576   8.781 -0.3800 -0.1476 -0.2167
 5481SOL    HW228080   2.055   3.452   8.800 -0.1653 -0.2567  0.4521
 5482SOL     OW28081   1.735   0.477  13.314 -0.2978  0.7016 -0.0148
 5482SOL    HW128082   1.793   0.536  13.266 -0.4448 -0.2610 -1.3516
 5482SOL    HW228083   1.737   0.524  13.398  1.2269 -0.7236  0.7313
 5483SOL     OW28084   2.684   4.597   7.098 -0.7124  0.5400 -0.1844
 5483SOL    HW128085   2.736   4.541   7.157 -1.1011  1.0975  0.6879
 5483SOL    HW228086   2.744   4.581   7.025 -1.4671 -0.7739 -0.5189
 5484SOL     OW28087   3.870   1.203   6.765  0.4719  0.1636  0.0403
 5484SOL    HW128088   3.820   1.133   6.808  0.0356  0.5291  0.1341
 5484SOL    HW228089   3.958   1.176   6.791  0.4024  0.4594  0.6048
 5485SOL     OW28090   3.007   1.555  16.567 -0.4138  0.2008 -0.0983
 5485SOL    HW128091   2.979   1.490  16.631  1.6936 -0.6088  0.0080
 5485SOL    HW228092   3.072   1.507  16.517  0.5160  1.4625 -0.1072
 5486SOL     OW28093   2.860   1.822  17.756 -0.0323  0.3059 -0.0135
 5486SOL    HW128094   2.944   1.825   0.035 -0.6661  0.1673  1.1681
 5486SOL    HW228095   2.852   1.916  17.745  2.5532  0.6635  1.2458
 5487SOL     OW28096   0.665   0.968  11.185 -0.4320  0.7106  0.3479
 5487SOL    HW128097   0.691   0.921  11.105  1.4175  1.3571  0.5619
 5487SOL    HW228098   0.723   0.926  11.248  0.7773  0.5606 -0.8507
 5488SOL     OW28099   0.622   3.099   7.256 -0.1227  0.1587  0.1533
 5488SOL    HW128100   0.621   3.020   7.202  0.4922  0.8326 -0.8325
 5488SOL    HW228101   0.697   3.077   7.311 -1.6566 -1.9930  1.4128
 5489SOL     OW28102   2.373   3.489   6.617  0.1762 -0.5365  0.9734
 5489SOL    HW128103   2.353   3.469   6.709  1.7739 -0.5057  1.3262
 5489SOL    HW228104   2.458   3.449   6.600 -0.5516 -1.4684 -0.4969
 5490SOL     OW28105   3.413   1.107   5.066 -0.2517  0.0809 -0.5143
 5490SOL    HW128106   3.378   1.142   4.985  1.7655 -1.3476 -2.0120
 5490SOL    HW228107   3.437   1.188   5.112  0.0698  0.6266 -1.6538
 5491SOL     OW28108   2.967   3.537   4.359  0.4434 -0.5378 -0.2929
 5491SOL    HW128109   2.881   3.550   4.401  1.5644  1.8426  1.3010
 5491SOL    HW228110   2.989   3.458   4.408 -1.0333 -0.0444  1.2085
 5492SOL     OW28111   4.038   3.019   6.070 -0.1935  0.6135 -0.2863
 5492SOL    HW128112   3.962   3.046   6.120 -0.9745  1.8707 -2.1473
 5492SOL    HW228113   4.069   3.109   6.057 -0.4898  0.8969  1.0560
 5493SOL     OW28114   1.944   2.326   5.643 -0.4990 -0.0645  0.3159
 5493SOL    HW128115   2.022   2.298   5.596 -0.7523  0.6781 -0.5524
 5493SOL    HW228116   1.977   2.411   5.673 -2.0440  0.2271  1.2155
 5494SOL     OW28117   4.689   0.017   4.264 -0.0971  0.0427  0.3171
 5494SOL    HW128118   4.596   0.002   4.281 -0.1923 -2.1546 -2.1285
 5494SOL    HW228119   4.734   4.730   4.344  0.9302 -0.4782 -0.4427
 5495SOL     OW28120   3.495   0.458  14.694  0.3217 -0.1772 -0.3573
 5495SOL    HW128121   3.429   0.400  14.732  0.7342  1.1404  2.3163
 5495SOL    HW228122   3.553   0.452  14.769  0.7004  1.1245 -0.5580
 5496SOL     OW28123   2.663   4.420  15.964  0.1355  0.2176 -0.5121
 5496SOL    HW128124   2.605   4.452  16.033  2.7890 -0.0241  1.8169
 5496SOL    HW228125   2.650   4.491  15.901 -1.2883  0.4004 -0.0020
 5497SOL     OW28126   2.186   1.061  12.154  0.4056 -0.2917  0.0738
 5497SOL    HW128127   2.132   1.117  12.098  1.4100  0.8489  0.2231
 5497SOL    HW228128   2.118   1.002  12.187 -0.9446 -0.2211 -2.6151
 5498SOL     OW28129   2.304   1.464  11.081  0.0997  0.3706 -0.2554
 5498SOL    HW128130   2.367   1.396  11.059  2.2420  3.4505 -3.6516
 5498SOL    HW228131   2.350   1.483  11.163 -1.0693 -1.9565  0.9267
 5499SOL     OW28132   1.500   2.591   1.819 -0.3710 -0.1025 -0.1957
 5499SOL    HW128133   1.519   2.579   1.726 -2.2339 -0.7014 -0.5077
 5499SOL    HW228134   1.408   2.566   1.827 -0.4174  0.1188 -0.0297
 5500SOL     OW28135   1.186   3.811   0.812 -0.5228  0.0066 -0.3025
 5500SOL    HW128136   1.201   3.838   0.903 -0.3672  2.9577 -1.2143
 5500SOL    HW228137   1.150   3.898   0.794  1.0462  0.8478  0.6232
 5501SOL     OW28138   3.166   3.425   6.602 -0.2259  0.5974 -0.2755
 5501SOL    HW128139   3.183   3.516   6.626 -1.4715  1.2091 -1.7007
 5501SOL    HW228140   3.184   3.377   6.683 -0.3890 -1.8797 -1.6860
 5502SOL     OW28141   3.559   4.559   7.958  0.1722  0.3013 -0.8492
 5502SOL    HW128142   3.628   4.526   7.900  0.9152  0.2335  0.0908
 5502SOL    HW228143   3.548   4.484   8.016  0.8469  2.1132  1.5723
 5503SOL     OW28144   3.508   4.226   3.233  0.4636  0.7846 -0.0584
 5503SOL    HW128145   3.458   4.280   3.173  1.2041 -0.6265 -1.9271
 5503SOL    HW228146   3.561   4.298   3.268  0.6664  2.4781 -3.9270
 5504SOL     OW28147   3.900   1.189   3.132  0.1146  0.4723  0.0796
 5504SOL    HW128148   3.945   1.170   3.214  2.1790  0.4796 -1.0649
 5504SOL    HW228149   3.976   1.227   3.089  0.9122 -2.4419 -1.0870
 5505SOL     OW28150   0.857   1.376   6.928 -0.7632  0.1470  0.4510
 5505SOL    HW128151   0.942   1.418   6.940  0.0693 -1.6790  0.9428
 5505SOL    HW228152   0.854   1.343   7.018  0.1906 -0.1705  0.3640
 5506SOL     OW28153   1.110   4.004   8.035 -0.2835 -0.0201 -0.0783
 5506SOL    HW128154   1.053   3.993   8.111  0.5278  0.4028  0.5898
 5506SOL    HW228155   1.156   3.922   8.054 -0.7002  0.1591  1.6752
 5507SOL     OW28156   4.180   1.169  16.304  0.1799 -0.3237 -0.2982
 5507SOL    HW128157   4.241   1.193  16.235  1.0248  0.1903  0.6322
 5507SOL    HW228158   4.101   1.140  16.258  0.1722 -1.1443  0.2483
 5508SOL     OW28159   2.092   4.110   3.216  0.8327 -0.4448  0.1226
 5508SOL    HW128160   2.017   4.059   3.185  0.0036  1.3714 -0.8652
 5508SOL    HW228161   2.082   4.087   3.309  0.8425 -0.5888  0.0884
 5509SOL     OW28162   4.602   4.282  15.034  0.6037 -0.1764  0.0141
 5509SOL    HW128163   4.538   4.211  15.029  0.5909 -0.2104  0.6339
 5509SOL    HW228164   4.574   4.325  14.953  2.0540 -1.5356 -1.2230
 5510SOL     OW28165   4.099   1.186  13.267 -0.0652 -0.0097  0.3159
 5510SOL    HW128166   4.144   1.254  13.317 -0.5500  0.4118  0.1785
 5510SOL    HW228167   4.036   1.144  13.325 -1.1497 -0.0075 -0.8393
 5511SOL     OW28168   2.386   3.906   8.384 -0.0232 -0.0043  0.1487
 5511SOL    HW128169   2.311   3.893   8.327 -1.0078  0.3349  1.3716
 5511SOL    HW228170   2.416   3.817   8.401 -1.2134 -0.8366 -2.1876
 5512SOL     OW28171   1.279   2.620   4.493 -0.4046  0.5723 -0.2914
 5512SOL    HW128172   1.323   2.612   4.409  1.3547 -0.5123  0.7381
 5512SOL    HW228173   1.332   2.564   4.549 -0.3116 -0.2668 -1.2214
 5513SOL     OW28174   3.198   0.170   2.554 -0.1045 -0.3259 -0.6486
 5513SOL    HW128175   3.147   0.129   2.484 -1.0375  0.4159 -0.4074
 5513SOL    HW228176   3.180   0.263   2.536  0.6526  0.1925  1.2040
 5514SOL     OW28177   3.045   0.363   5.278  0.6190 -0.9393 -0.6012
 5514SOL    HW128178   3.028   0.278   5.319 -0.8256 -1.0671 -1.4564
 5514SOL    HW228179   3.141   0.358   5.271  1.0288  3.0393  2.4230
 5515SOL     OW28180   4.630   0.778   7.005  0.0912 -0.8819  0.2009
 5515SOL    HW128181   4.721   0.801   7.025 -0.4936  0.6752  1.0763
 5515SOL    HW228182   4.603   0.855   6.955  0.7883  0.8491  2.4932
 5516SOL     OW28183   1.803   0.234   7.160  0.0863 -0.1668 -0.1408
 5516SOL    HW128184   1.772   0.166   7.220  2.0517  0.6722  1.7885
 5516SOL    HW228185   1.875   0.192   7.114  0.4745 -0.2875  0.5901
 5517SOL     OW28186   0.651   4.192   2.970  0.2954 -0.2074 -0.0688
 5517SOL    HW128187   0.664   4.230   3.056 -0.9054  0.5142 -0.2065
 5517SOL    HW228188   0.709   4.115   2.975  0.2980 -0.1813  0.3253
 5518SOL     OW28189   3.425   4.045   2.398 -0.1885  0.1677  0.4795
 5518SOL    HW128190   3.392   4.029   2.486  0.3028 -0.1288  0.6083
 5518SOL    HW228191   3.378   3.985   2.339  0.7462 -1.3318  1.2697
 5519SOL     OW28192   4.433   3.322   8.837  0.1293  0.0794  0.7580
 5519SOL    HW128193   4.459   3.401   8.885 -0.6647 -0.4447  2.0260
 5519SOL    HW228194   4.442   3.359   8.749  3.1083 -2.1670  0.1031
 5520SOL     OW28195   2.587   3.769   3.927  0.0871  0.3453  0.1363
 5520SOL    HW128196   2.550   3.824   3.995 -2.1963 -1.5013  0.3681
 5520SOL    HW228197   2.579   3.681   3.963  1.0139  0.6316  1.0330
 5521SOL     OW28198   3.074   2.849   7.489  0.2331  0.3908  0.2531
 5521SOL    HW128199   3.131   2.918   7.456  2.5576 -2.0775 -0.8786
 5521SOL    HW228200   3.098   2.772   7.437 -2.9649  0.9266 -2.0331
 5522SOL     OW28201   4.201   4.133   0.524  0.0629  0.0276  0.3860
 5522SOL    HW128202   4.186   4.228   0.520  2.3943  0.4515  1.7643
 5522SOL    HW228203   4.194   4.104   0.433 -1.3887 -1.2106  0.8985
 5523SOL     OW28204   4.092   1.832   3.888  0.3784  0.1414 -0.0782
 5523SOL    HW128205   4.004   1.813   3.920  1.0038  0.0003  1.5372
 5523SOL    HW228206   4.081   1.767   3.818  1.0409 -0.9100  0.7875
 5524SOL     OW28207   3.589   2.456  11.709  0.0729 -0.8070 -0.1987
 5524SOL    HW128208   3.646   2.427  11.638 -0.2319  0.5210 -0.9774
 5524SOL    HW228209   3.531   2.380  11.711  0.1648 -0.8936 -0.7192
 5525SOL     OW28210   2.554   1.490  16.638  0.0817 -0.5771  0.1624
 5525SOL    HW128211   2.541   1.509  16.731 -0.6267 -1.2765  0.2024
 5525SOL    HW228212   2.477   1.532  16.600  1.8485  0.6249 -2.0676
 5526SOL     OW28213   4.004   2.075   6.466  0.3126  0.1193 -0.2636
 5526SOL    HW128214   3.936   2.010   6.448 -0.5829  0.0622  3.2428
 5526SOL    HW228215   3.969   2.158   6.432  1.1250  1.8664  3.1370
 5527SOL     OW28216   2.609   3.394  16.843  0.0331  0.0969  0.3105
 5527SOL    HW128217   2.534   3.438  16.883 -1.6810 -1.5640 -1.0829
 5527SOL    HW228218   2.612   3.311  16.891  1.0169 -0.3378 -0.5014
 5528SOL     OW28219   0.377   0.021   3.541 -0.4740 -0.1941  0.7473
 5528SOL    HW128220   0.287   4.736   3.554 -0.3493 -0.5499  0.8545
 5528SOL    HW228221   0.425   4.684   3.516 -1.0864 -0.1459 -0.5942
 5529SOL     OW28222   1.909   2.792  14.934 -0.6429 -0.5938  0.1795
 5529SOL    HW128223   1.983   2.837  14.977 -0.7694  0.2886 -0.5273
 5529SOL    HW228224   1.842   2.790  15.003 -1.1689 -0.6235 -0.3331
 5530SOL     OW28225   2.938   3.734  13.783 -0.2800  0.3760  0.2558
 5530SOL    HW128226   2.872   3.790  13.742 -1.1749 -1.1358 -0.3900
 5530SOL    HW228227   2.961   3.675  13.710 -3.2211 -1.8857  1.1661
 5531SOL     OW28228   0.351   2.916   8.175 -0.0900  0.3454 -0.4258
 5531SOL    HW128229   0.428   2.859   8.174  0.2554  0.8508 -2.8277
 5531SOL    HW228230   0.305   2.893   8.094  1.5651  1.3918 -1.6464
 5532SOL     OW28231   2.667   1.307   6.675 -0.1156 -0.1497  0.7223
 5532SOL    HW128232   2.576   1.295   6.701 -0.6496  1.6750 -0.2831
 5532SOL    HW228233   2.689   1.386   6.725  2.3329  0.2716 -0.9656
 5533SOL     OW28234   2.244   3.321  16.253 -0.2248  0.3361 -0.1677
 5533SOL    HW128235   2.329   3.335  16.294 -0.2017  2.2784 -0.8978
 5533SOL    HW228236   2.193   3.278  16.321  1.6170 -0.5047  0.6793
 5534SOL     OW28237   2.754   4.195   7.571 -0.2515 -0.1374  0.4020
 5534SOL    HW128238   2.664   4.228   7.563 -0.8438 -2.1348 -1.2400
 5534SOL    HW228239   2.802   4.261   7.621 -0.5380  0.3270  0.0564
 5535SOL     OW28240   0.137   4.555   5.452 -0.3519 -0.5276 -0.5555
 5535SOL    HW128241   0.134   4.634   5.398 -0.2169 -0.9428 -1.1702
 5535SOL    HW228242   0.061   4.514   5.410 -0.8848  0.7611 -0.8436
 5536SOL     OW28243   1.646   1.192   0.351  0.1208  0.2030 -0.6721
 5536SOL    HW128244   1.612   1.254   0.287 -2.7709 -1.1507 -0.4312
 5536SOL    HW228245   1.631   1.110   0.304  0.6180  1.2942 -2.7374
 5537SOL     OW28246   2.728   3.722  16.816  0.0745  0.4149 -0.0159
 5537SOL    HW128247   2.675   3.687  16.745 -0.9596 -0.1271  1.0215
 5537SOL    HW228248   2.758   3.644  16.862  1.3662 -0.5927 -2.5790
 5538SOL     OW28249   1.906   1.108   5.057 -0.2906 -0.5937  0.0174
 5538SOL    HW128250   1.980   1.159   5.091  0.6901 -1.4239 -0.8669
 5538SOL    HW228251   1.843   1.115   5.129  0.3832  0.1463  0.5473
 5539SOL     OW28252   2.092   3.788   4.101  0.3817 -0.3712 -0.6540
 5539SOL    HW128253   2.082   3.827   4.014  1.5626  1.1971 -0.0850
 5539SOL    HW228254   2.165   3.731   4.076  0.4261  0.2453 -1.9628
 5540SOL     OW28255   3.001   4.393   2.800 -0.2770 -0.0118 -0.1460
 5540SOL    HW128256   3.027   4.331   2.868 -2.0010 -0.1077  0.4215
 5540SOL    HW228257   3.067   4.362   2.738  0.3507  0.6266  0.1967
 5541SOL     OW28258   4.234   3.400   3.430  0.6231 -0.6303 -0.2709
 5541SOL    HW128259   4.317   3.386   3.476  0.6075 -0.6576 -0.2504
 5541SOL    HW228260   4.180   3.325   3.454  1.2691 -1.9051 -2.8376
 5542SOL     OW28261   2.620   3.432  12.363  0.2885  0.4672  0.3073
 5542SOL    HW128262   2.713   3.421  12.385  0.8987  0.1580 -2.4360
 5542SOL    HW228263   2.586   3.367  12.425  0.5452 -0.3239 -0.3697
 5543SOL     OW28264   3.311   0.301   9.441  0.0152  0.1095  0.0753
 5543SOL    HW128265   3.365   0.358   9.387 -1.3003  1.5447  0.2732
 5543SOL    HW228266   3.338   0.331   9.528 -0.2765 -1.0454  0.5670
 5544SOL     OW28267   0.111   2.513   9.382  0.3566  0.4285  0.0421
 5544SOL    HW128268   0.056   2.449   9.336 -0.2148  1.5943 -0.8933
 5544SOL    HW228269   0.052   2.568   9.434 -1.7014 -1.7085 -0.0175
 5545SOL     OW28270   4.381   3.924   4.874  0.1419  0.1169 -0.1215
 5545SOL    HW128271   4.315   3.993   4.885  1.5968  1.4400  0.3441
 5545SOL    HW228272   4.383   3.888   4.962  3.2253  0.1543 -0.1680
 5546SOL     OW28273   0.731   2.133   7.290  0.4572  0.1069  0.0174
 5546SOL    HW128274   0.671   2.204   7.313  0.7199 -0.1033  1.3094
 5546SOL    HW228275   0.698   2.116   7.202  0.5607  0.6861 -0.1379
 5547SOL     OW28276   0.200   3.364   1.229 -0.6485 -0.3630  0.0472
 5547SOL    HW128277   0.156   3.317   1.300 -0.8879 -1.1251 -0.6001
 5547SOL    HW228278   0.233   3.293   1.174 -0.8581 -0.5192  0.1215
 5548SOL     OW28279   1.026   3.699   4.492 -0.3872  0.0847 -0.1138
 5548SOL    HW128280   1.061   3.657   4.571 -0.5488  2.0860  1.0339
 5548SOL    HW228281   1.087   3.667   4.426 -1.3680 -0.4837 -0.7388
 5549SOL     OW28282   1.853   0.130   6.467  0.1698  0.1451  0.1658
 5549SOL    HW128283   1.862   0.087   6.551  1.6033  1.1497  0.5153
 5549SOL    HW228284   1.883   0.063   6.406 -0.9490  0.0486 -0.2885
 5550SOL     OW28285   3.291   3.158   7.714 -0.0143 -0.0250 -0.4746
 5550SOL    HW128286   3.261   3.247   7.695 -0.4655 -0.1977 -0.5764
 5550SOL    HW228287   3.385   3.164   7.731 -0.3681 -1.7060  1.9689
 5551SOL     OW28288   3.180   0.334   1.656 -0.0363  1.2079 -0.2341
 5551SOL    HW128289   3.190   0.412   1.712  0.3120  0.7732  0.3110
 5551SOL    HW228290   3.085   0.338   1.647  0.1569  1.8278 -1.9838
 5552SOL     OW28291   2.194   0.595   2.456 -0.1831 -0.6683 -0.0458
 5552SOL    HW128292   2.198   0.507   2.494  0.0634 -0.7595 -0.2841
 5552SOL    HW228293   2.251   0.588   2.379  2.4288 -1.2285  1.9248
 5553SOL     OW28294   4.405   2.945   9.332 -0.0837  0.3958  0.2068
 5553SOL    HW128295   4.348   2.970   9.260  0.3631  2.7905  0.6931
 5553SOL    HW228296   4.408   2.852   9.307 -3.4587  0.8546 -1.8258
 5554SOL     OW28297   3.151   2.853   4.716  0.2801  0.8862  0.1460
 5554SOL    HW128298   3.095   2.817   4.786  0.2947 -0.8153 -0.7204
 5554SOL    HW228299   3.168   2.773   4.666  0.5448  0.6804  0.5565
 5555SOL     OW28300   0.104   0.620   7.161  0.0421 -0.2633 -0.3824
 5555SOL    HW128301   0.096   0.656   7.073 -1.5882  1.2390  0.3789
 5555SOL    HW228302   0.151   0.698   7.191 -1.5484 -0.0068  1.4887
 5556SOL     OW28303   4.236   2.040   7.402  0.2999  0.0313 -0.2193
 5556SOL    HW128304   4.253   2.058   7.495 -0.2438 -1.3548  0.1468
 5556SOL    HW228305   4.318   1.994   7.384 -0.6572 -2.0470  0.7486
 5557SOL     OW28306   2.065   4.393  16.586  0.3251 -0.0071  0.2720
 5557SOL    HW128307   2.102   4.473  16.550 -0.3775  0.6843  1.0772
 5557SOL    HW228308   2.058   4.325  16.519  2.5448  1.4347 -1.4111
 5558SOL     OW28309   0.486   3.401   8.138 -0.2087 -0.2277 -0.3508
 5558SOL    HW128310   0.420   3.362   8.081 -2.2853  1.4637  0.8972
 5558SOL    HW228311   0.458   3.490   8.158  0.7681 -0.6030  2.6603
 5559SOL     OW28312   2.743   0.671  15.875 -0.7783  0.3825  0.0021
 5559SOL    HW128313   2.752   0.692  15.968 -0.3763 -2.9858  0.7138
 5559SOL    HW228314   2.670   0.609  15.870  0.8721 -1.6385  0.7151
 5560SOL     OW28315   2.236   0.940   6.935 -0.2159  0.5273 -0.7613
 5560SOL    HW128316   2.232   1.016   6.877 -0.9945 -0.4250 -1.9732
 5560SOL    HW228317   2.328   0.915   6.930 -0.6871 -1.1686 -0.9850
 5561SOL     OW28318   1.744   0.490   8.350 -0.2907  0.4777  0.6153
 5561SOL    HW128319   1.721   0.567   8.401 -0.6819 -0.6659  2.1506
 5561SOL    HW228320   1.662   0.442   8.359 -0.6949  1.4281  1.8489
 5562SOL     OW28321   4.614   2.711   3.868 -0.5211  0.1477  0.7928
 5562SOL    HW128322   4.639   2.797   3.900  0.7906  0.6445 -1.5613
 5562SOL    HW228323   4.648   2.711   3.778 -2.6904 -0.3869 -0.0509
 5563SOL     OW28324   4.142   2.223   2.767 -0.8142  0.1666 -0.3882
 5563SOL    HW128325   4.086   2.298   2.787 -0.0592  0.3935  0.9064
 5563SOL    HW228326   4.201   2.229   2.842 -1.4938 -0.0294  0.1679
 5564SOL     OW28327   4.342   4.169   9.160  0.0196 -0.2234 -0.4491
 5564SOL    HW128328   4.324   4.255   9.124  2.7304  1.1021  1.4108
 5564SOL    HW228329   4.299   4.165   9.246 -0.1606 -4.0487 -0.6799
 5565SOL     OW28330   2.915   0.216   3.886 -0.0480 -0.2808  0.1705
 5565SOL    HW128331   2.922   0.154   3.814 -1.7888 -0.5942  0.2627
 5565SOL    HW228332   2.967   0.290   3.855 -3.1091  1.4544 -0.7382
 5566SOL     OW28333   2.016   4.207   5.682  0.0434  0.2758  0.1824
 5566SOL    HW128334   2.098   4.172   5.715 -1.2302  0.5190  3.6357
 5566SOL    HW228335   2.044   4.200   5.591  1.4944 -1.5746  0.7813
 5567SOL     OW28336   4.641   2.244   8.110 -0.1776  0.7098  0.4766
 5567SOL    HW128337   4.711   2.191   8.071 -1.6237  0.6238 -2.0284
 5567SOL    HW228338   4.683   2.321   8.148  0.3112  1.7346 -2.1630
 5568SOL     OW28339   1.054   3.385  17.260 -0.4527 -0.9593 -0.3511
 5568SOL    HW128340   1.141   3.421  17.238 -0.7442 -0.7758 -1.1978
 5568SOL    HW228341   1.075   3.315  17.322 -1.9247 -2.5833 -1.7005
 5569SOL     OW28342   0.368   0.609  16.334 -0.5097 -0.7503 -0.2985
 5569SOL    HW128343   0.352   0.598  16.240 -0.6636  2.6094 -0.6720
 5569SOL    HW228344   0.288   0.654  16.363 -1.2461 -1.9300 -0.4745
 5570SOL     OW28345   0.228   3.588  12.209 -0.2542  0.2322 -0.2637
 5570SOL    HW128346   0.290   3.654  12.239 -1.7515  2.4065 -1.9619
 5570SOL    HW228347   0.271   3.505  12.228 -0.7245 -0.1566 -0.8829
 5571SOL     OW28348   4.718   2.445  10.076  0.1908 -0.6321  0.2667
 5571SOL    HW128349   4.720   2.395  10.158  1.6114 -0.5227  0.2951
 5571SOL    HW228350   4.701   2.368  10.021  1.3764 -1.0324  0.4495
 5572SOL     OW28351   4.587   1.092   2.375  0.0255 -0.7096 -0.1820
 5572SOL    HW128352   4.524   1.040   2.426  0.7538 -0.9544  0.4740
 5572SOL    HW228353   4.646   1.108   2.449  0.2086 -0.8003 -0.3075
 5573SOL     OW28354   0.602   1.982   9.760  0.5831 -0.2964  0.0519
 5573SOL    HW128355   0.569   2.043   9.694 -0.1141 -0.1226  0.5523
 5573SOL    HW228356   0.532   1.919   9.742 -0.2876  0.8945 -0.7266
 5574SOL     OW28357   4.479   2.263   9.086  0.7423 -0.5665 -0.3000
 5574SOL    HW128358   4.504   2.238   8.997  2.4984  2.2597 -0.5719
 5574SOL    HW228359   4.388   2.290   9.075  1.3907  2.8206  2.7567
 5575SOL     OW28360   3.986   1.463   8.939 -0.2665 -0.9078  0.4683
 5575SOL    HW128361   3.946   1.476   9.025 -1.0797 -0.0127 -0.0380
 5575SOL    HW228362   3.984   1.368   8.939 -1.6892 -0.8756  0.7998
 5576SOL     OW28363   2.039   3.000  14.650  0.0881  0.1324  0.0285
 5576SOL    HW128364   2.099   2.942  14.697 -0.0488  0.4122  0.5438
 5576SOL    HW228365   2.073   3.086  14.673 -0.5200  0.1016  1.0140
 5577SOL     OW28366   0.451   1.968   0.369  0.0414 -0.1404  0.6967
 5577SOL    HW128367   0.480   1.922   0.448 -0.4137  1.0872  1.5723
 5577SOL    HW228368   0.483   1.895   0.316 -0.9714 -0.0079 -0.0882
 5578SOL     OW28369   2.782   3.669   6.403  0.2017 -0.0421 -0.7284
 5578SOL    HW128370   2.875   3.659   6.424 -0.2537  2.2779  2.2705
 5578SOL    HW228371   2.790   3.742   6.341  0.2149  0.4904 -0.0965
 5579SOL     OW28372   1.412   4.470  11.012 -0.6254 -0.0194  0.0136
 5579SOL    HW128373   1.414   4.486  11.106 -0.8599 -0.6365  0.1205
 5579SOL    HW228374   1.366   4.550  10.987 -0.1668  0.3674  0.4111
 5580SOL     OW28375   2.326   2.513  16.814 -0.0979  0.0581  0.3902
 5580SOL    HW128376   2.246   2.522  16.865  2.8436  3.3087  4.3664
 5580SOL    HW228377   2.398   2.526  16.876  0.5809  0.2337 -0.4298
 5581SOL     OW28378   2.067   2.144   5.918  0.5320  0.4640 -0.3478
 5581SOL    HW128379   2.099   2.233   5.935  2.9541 -0.5796  0.5638
 5581SOL    HW228380   2.123   2.097   5.980 -2.2939 -1.1170  0.9945
 5582SOL     OW28381   2.434   0.466   8.712  0.1030 -0.2551  0.3868
 5582SOL    HW128382   2.376   0.395   8.738  0.1218  0.3355  2.0049
 5582SOL    HW228383   2.382   0.490   8.635  0.6459  0.9333  0.3887
 5583SOL     OW28384   2.014   0.360  10.891  0.0212 -0.0322 -0.8615
 5583SOL    HW128385   1.918   0.367  10.891  0.0001 -0.3541 -2.7032
 5583SOL    HW228386   2.031   0.442  10.845 -0.0513  1.3556  1.5847
 5584SOL     OW28387   3.111   2.752   7.978  0.0843  0.2952  0.8694
 5584SOL    HW128388   3.182   2.784   7.923 -2.0081  1.1740 -1.3127
 5584SOL    HW228389   3.052   2.715   7.912  1.0683  0.3869 -0.0594
 5585SOL     OW28390   3.974   3.216   9.450  0.1646 -0.1697  0.0284
 5585SOL    HW128391   4.058   3.185   9.483  0.2382 -1.1585 -1.0971
 5585SOL    HW228392   3.918   3.139   9.450  0.5497 -0.4719  2.1878
 5586SOL     OW28393   3.944   3.713   3.132 -0.2970 -0.5206  0.0477
 5586SOL    HW128394   3.919   3.751   3.048 -0.7630 -0.0134  0.4110
 5586SOL    HW228395   3.851   3.714   3.157  0.4679 -0.4186  2.9078
 5587SOL     OW28396   3.987   2.404   2.909 -0.4059  0.6679 -0.2669
 5587SOL    HW128397   3.894   2.393   2.894 -0.5725  1.2231  0.3727
 5587SOL    HW228398   3.991   2.435   2.999  0.1371  2.8945 -1.0534
 5588SOL     OW28399   3.350   3.880   1.624 -0.1001 -0.4413 -0.1967
 5588SOL    HW128400   3.445   3.876   1.633  0.0138 -0.6463 -1.5986
 5588SOL    HW228401   3.337   3.891   1.530  0.9641  2.2903 -0.0432
 5589SOL     OW28402   4.240   0.236   7.607  0.0643  0.1227  0.3874
 5589SOL    HW128403   4.196   0.156   7.635  1.3486 -0.4530  0.7887
 5589SOL    HW228404   4.250   0.228   7.513  1.4947 -1.1291  0.6373
 5590SOL     OW28405   0.424   0.599   4.789  0.0069  0.5925  0.3557
 5590SOL    HW128406   0.459   0.514   4.762  1.0038  1.0502  0.2067
 5590SOL    HW228407   0.482   0.613   4.864  1.9534  1.7524 -1.3638
 5591SOL     OW28408   3.949   4.339   9.463  0.0266  0.2719  0.2888
 5591SOL    HW128409   3.855   4.326   9.471  0.2122 -0.1564  1.8741
 5591SOL    HW228410   3.962   4.333   9.558 -1.0197  1.7352  0.5121
 5592SOL     OW28411   4.622   3.519  15.189 -0.2376  0.3561  0.0003
 5592SOL    HW128412   4.629   3.589  15.254  0.4793 -0.8611  1.2189
 5592SOL    HW228413   4.568   3.559  15.121  0.8210  0.1450 -0.9660
 5593SOL     OW28414   3.969   3.020  13.239 -0.5734 -0.1801  0.0184
 5593SOL    HW128415   4.048   3.052  13.283  0.0872 -1.5908 -0.1453
 5593SOL    HW228416   3.994   2.985  13.154  0.1119  1.5838 -0.5034
 5594SOL     OW28417   4.538   1.874  16.978  0.0529 -0.1113  0.4590
 5594SOL    HW128418   4.483   1.841  16.906 -3.0677  1.7484  1.9700
 5594SOL    HW228419   4.574   1.947  16.927 -0.1705  1.5691  2.7114
 5595SOL     OW28420   0.966   2.362   7.561 -0.5394  0.2377 -0.4228
 5595SOL    HW128421   0.960   2.455   7.539  0.8219  0.3308 -0.4164
 5595SOL    HW228422   0.872   2.349   7.567 -0.3217 -0.6237  1.2042
 5596SOL     OW28423   3.125   4.034   4.160  0.2698 -0.1199  0.0253
 5596SOL    HW128424   3.053   3.973   4.177 -0.2581  0.6594  0.5795
 5596SOL    HW228425   3.126   4.073   4.248 -1.8788 -0.1302  0.0518
 5597SOL     OW28426   2.936   2.958   8.915 -0.2448 -0.1262  0.0675
 5597SOL    HW128427   2.861   2.931   8.969  0.0288  0.5354  0.7794
 5597SOL    HW228428   3.003   2.951   8.983  1.8846 -0.8376 -2.0867
 5598SOL     OW28429   0.784   4.535   4.961 -0.0628 -0.3829  0.5172
 5598SOL    HW128430   0.795   4.454   5.011  0.2200 -0.6084  0.0842
 5598SOL    HW228431   0.717   4.506   4.899 -1.0810  3.7019 -0.2917
 5599SOL     OW28432   0.744   0.551  13.495  0.8259  0.0066  0.0933
 5599SOL    HW128433   0.809   0.621  13.495  0.2761  0.5089  1.5562
 5599SOL    HW228434   0.741   0.521  13.586  1.5978  0.3401  0.2227
 5600SOL     OW28435   3.229   0.536   2.643  0.2644 -0.3742 -0.2806
 5600SOL    HW128436   3.306   0.513   2.695 -0.2861  0.0143  0.7083
 5600SOL    HW228437   3.243   0.631   2.644  0.4056 -0.4370  2.3666
 5601SOL     OW28438   2.502   4.516   2.400  0.3441 -0.9007 -0.7580
 5601SOL    HW128439   2.469   4.426   2.401 -0.6011 -0.5599 -0.7389
 5601SOL    HW228440   2.447   4.550   2.330 -0.3438 -0.0621  0.1936
 5602SOL     OW28441   2.516   2.537   7.734  0.4328  0.1948  0.2826
 5602SOL    HW128442   2.520   2.463   7.794 -1.3485 -0.3198 -0.2281
 5602SOL    HW228443   2.565   2.607   7.778  1.4281  1.3044 -2.5557
 5603SOL     OW28444   0.600   3.176   8.173 -0.1022 -0.1775  0.7816
 5603SOL    HW128445   0.682   3.198   8.218 -0.4877  1.0730  0.8684
 5603SOL    HW228446   0.560   3.262   8.161 -0.5838 -0.6367 -0.7567
 5604SOL     OW28447   1.772   3.871   5.335 -0.7301  0.0660  0.3073
 5604SOL    HW128448   1.748   3.848   5.245  0.3356 -0.2278  0.0915
 5604SOL    HW228449   1.748   3.963   5.346  1.7655  0.9774 -1.5587
 5605SOL     OW28450   3.511   2.131   8.164 -0.0789 -0.3989  0.3147
 5605SOL    HW128451   3.562   2.212   8.156  0.1559 -0.6812 -0.9039
 5605SOL    HW228452   3.491   2.122   8.257  1.4444 -0.7357  0.6147
 5606SOL     OW28453   2.494   3.493   3.154 -0.3482 -0.3057  0.3639
 5606SOL    HW128454   2.582   3.504   3.117 -0.5002 -0.2636  0.0080
 5606SOL    HW228455   2.443   3.479   3.074  1.3566 -0.6812 -0.6799
 5607SOL     OW28456   3.757   0.352  11.650  0.4676 -0.6287  0.1735
 5607SOL    HW128457   3.814   0.406  11.706 -0.1657  1.0515 -0.8001
 5607SOL    HW228458   3.699   0.419  11.613  0.7963 -1.2726 -1.5053
 5608SOL     OW28459   3.861   1.589   2.405  0.8383 -0.0043 -0.0741
 5608SOL    HW128460   3.895   1.666   2.359  2.0657  0.1583  1.0844
 5608SOL    HW228461   3.786   1.626   2.452 -0.2786 -2.0041 -0.2961
 5609SOL     OW28462   0.051   1.896  17.606  0.0086 -0.8127 -0.4888
 5609SOL    HW128463   0.124   1.914  17.548 -0.2840  1.8643  0.0008
 5609SOL    HW228464   0.021   1.984  17.629  1.5292  0.3104 -2.8572
 5610SOL     OW28465   2.032   0.068  16.535  0.3330 -0.4057 -0.8258
 5610SOL    HW128466   2.076   0.089  16.453  1.4675  1.4386  0.2756
 5610SOL    HW228467   2.102   0.014  16.571  1.4884  0.4191 -1.8607
 5611SOL     OW28468   4.615   0.384   1.831 -0.4320  0.4400 -0.2192
 5611SOL    HW128469   4.566   0.408   1.752  1.4202  1.5714 -1.0126
 5611SOL    HW228470   4.552   0.326   1.874 -1.1706  2.2012  1.0995
 5612SOL     OW28471   0.771   2.963   2.731 -0.6953  0.3602 -0.0595
 5612SOL    HW128472   0.765   2.963   2.826  3.3779 -1.4184  0.2295
 5612SOL    HW228473   0.857   3.005   2.722 -0.5835  0.1932  0.2402
 5613SOL     OW28474   3.453   3.606   5.189  0.1593  1.0181  0.2203
 5613SOL    HW128475   3.403   3.684   5.167  0.3569  0.7154 -1.3445
 5613SOL    HW228476   3.541   3.624   5.155  0.6235 -1.6543 -0.0099
 5614SOL     OW28477   2.829   3.960   1.775 -0.1068 -0.8776 -0.1247
 5614SOL    HW128478   2.809   4.052   1.757 -2.0401 -1.5791 -1.5510
 5614SOL    HW228479   2.824   3.950   1.871 -0.7632  0.7567  0.0040
 5615SOL     OW28480   2.734   4.221  13.588  0.5912 -0.0163  0.3076
 5615SOL    HW128481   2.697   4.190  13.671  1.2934  0.2389  0.7205
 5615SOL    HW228482   2.820   4.254  13.614 -0.0171  0.8968  1.1701
 5616SOL     OW28483   1.500   2.640  16.729  0.1504 -0.2873 -0.2682
 5616SOL    HW128484   1.480   2.615  16.639  0.5681  0.3219 -0.5320
 5616SOL    HW228485   1.506   2.734  16.709 -1.3731 -0.2492 -0.5738
 5617SOL     OW28486   2.089   4.076   2.403  0.2188 -0.6764 -0.1842
 5617SOL    HW128487   2.041   4.001   2.439 -0.1814 -0.3140  0.0350
 5617SOL    HW228488   2.044   4.088   2.320 -1.1829 -0.3941  0.6150
 5618SOL     OW28489   2.582   0.513   1.465 -0.5880 -0.4259 -0.5350
 5618SOL    HW128490   2.595   0.427   1.506 -1.8253  0.1554  1.0439
 5618SOL    HW228491   2.636   0.508   1.386 -0.5641 -5.0167 -0.2329
 5619SOL     OW28492   3.304   2.061   4.821  0.0533  0.1383 -0.4458
 5619SOL    HW128493   3.363   2.048   4.895 -0.0181  0.4077 -0.3399
 5619SOL    HW228494   3.225   2.015   4.848  0.4539 -0.6552 -0.6356
 5620SOL     OW28495   2.205   0.580  12.842 -0.1167  0.5990 -0.4871
 5620SOL    HW128496   2.116   0.575  12.806  0.0783 -0.6352 -0.8036
 5620SOL    HW228497   2.249   0.660  12.813  2.7667 -0.0134  2.1644
 5621SOL     OW28498   3.227   0.052   5.671 -0.0075 -0.0010 -0.3285
 5621SOL    HW128499   3.144   0.032   5.714  0.8554 -0.7846  0.9601
 5621SOL    HW228500   3.263   0.137   5.697 -0.1638  0.0860 -0.3977
 5622SOL     OW28501   4.095   3.485   0.093 -0.1848 -0.1012 -0.4663
 5622SOL    HW128502   4.169   3.546   0.090 -1.0761  1.0059  0.1093
 5622SOL    HW228503   4.043   3.527   0.162  0.9141 -1.9926  1.5529
 5623SOL     OW28504   3.566   0.743   5.870  0.2725 -0.5063 -0.2974
 5623SOL    HW128505   3.643   0.696   5.839 -0.4828 -1.9763  0.0278
 5623SOL    HW228506   3.596   0.832   5.886 -3.2243  0.9234 -1.8080
 5624SOL     OW28507   2.650   1.612   6.450  0.1566 -0.3166  0.2332
 5624SOL    HW128508   2.707   1.536   6.457  0.7563  0.1972  0.9313
 5624SOL    HW228509   2.560   1.580   6.447  0.3005 -0.8252  1.4126
 5625SOL     OW28510   4.375   4.467   5.601  0.0947  0.0306 -0.0181
 5625SOL    HW128511   4.468   4.461   5.619 -0.0785 -3.6678 -0.3498
 5625SOL    HW228512   4.375   4.447   5.507  0.7573  0.3135 -0.0789
 5626SOL     OW28513   3.166   4.481   2.456 -0.0532 -0.6998  0.2379
 5626SOL    HW128514   3.213   4.402   2.430 -0.3070 -0.4417 -0.9955
 5626SOL    HW228515   3.237   4.544   2.468 -1.0037  0.6030 -0.9752
 5627SOL     OW28516   2.504   2.909  12.490  0.6692  0.0254 -0.0629
 5627SOL    HW128517   2.491   3.001  12.510  1.2776 -0.2087  1.4288
 5627SOL    HW228518   2.415   2.873  12.494  1.1905 -1.1982  0.7440
 5628SOL     OW28519   4.438   4.409  10.092 -0.2914  0.2581 -0.1125
 5628SOL    HW128520   4.483   4.477  10.143  1.1807 -0.2877 -0.7038
 5628SOL    HW228521   4.486   4.331  10.120  1.7675  0.7987 -2.1675
 5629SOL     OW28522   2.610   1.195   3.353  0.2602 -0.2293  0.1079
 5629SOL    HW128523   2.700   1.167   3.337  0.7145  1.6490 -0.6773
 5629SOL    HW228524   2.602   1.274   3.299  0.7060  0.2852  0.8013
 5630SOL     OW28525   1.546   2.770   8.092 -0.6427 -0.8354  0.4102
 5630SOL    HW128526   1.481   2.827   8.134 -1.2662 -1.1883 -0.0741
 5630SOL    HW228527   1.620   2.825   8.118 -1.0241 -0.5592  0.9353
 5631SOL     OW28528   2.130   1.824   6.427  0.5115 -0.1558 -0.0586
 5631SOL    HW128529   2.037   1.817   6.451  0.5208  0.7344  0.2146
 5631SOL    HW228530   2.142   1.918   6.412 -1.1376  0.1945  0.8553
 5632SOL     OW28531   3.163   2.557   6.201 -0.2823  0.4344 -0.2438
 5632SOL    HW128532   3.116   2.640   6.212 -2.0999 -0.8238  1.3382
 5632SOL    HW228533   3.170   2.537   6.108 -0.3138 -0.3391 -0.0768
 5633SOL     OW28534   1.122   1.365   8.839 -0.6069 -0.0732 -0.2813
 5633SOL    HW128535   1.100   1.384   8.747  2.5933  2.5129 -0.5023
 5633SOL    HW228536   1.112   1.270   8.835  0.2817 -0.1192 -1.4511
 5634SOL     OW28537   3.310   1.358   4.537 -0.8248 -0.0167  0.7980
 5634SOL    HW128538   3.316   1.423   4.467  0.7237 -1.6429 -0.5860
 5634SOL    HW228539   3.254   1.404   4.598 -3.8347  0.0446 -2.0386
 5635SOL     OW28540   0.541   2.727   1.745  0.2628 -0.3394  0.0686
 5635SOL    HW128541   0.604   2.798   1.735  0.5798 -0.5934  0.2557
 5635SOL    HW228542   0.518   2.703   1.655  1.8632 -1.6418  0.0072
 5636SOL     OW28543   3.611   1.307  12.737 -0.0927 -0.2705  0.3368
 5636SOL    HW128544   3.539   1.260  12.780 -1.1032 -0.3853 -1.4727
 5636SOL    HW228545   3.651   1.240  12.681 -1.8186 -0.3062 -0.8598
 5637SOL     OW28546   4.644   3.985  10.969  0.1682 -0.0048  0.0470
 5637SOL    HW128547   4.683   4.005  11.055  0.7997 -1.5566  0.1284
 5637SOL    HW228548   4.551   3.995  10.986  1.0345  2.7224  3.2985
 5638SOL     OW28549   1.768   1.127   7.235  0.4034  0.3889  0.1939
 5638SOL    HW128550   1.805   1.072   7.166 -0.1514 -2.1325  1.9055
 5638SOL    HW228551   1.680   1.089   7.245  1.6676 -1.9856  2.4805
 5639SOL     OW28552   2.320   3.145   0.262 -0.0472 -0.0356 -0.0753
 5639SOL    HW128553   2.374   3.210   0.306 -1.1196  1.1718 -0.5592
 5639SOL    HW228554   2.246   3.201   0.240 -0.3776 -0.0682  0.9701
 5640SOL     OW28555   3.143   3.047  15.081  0.2815 -0.0830  0.2225
 5640SOL    HW128556   3.089   3.034  15.003 -0.6647 -1.2467  1.0633
 5640SOL    HW228557   3.082   3.098  15.134  0.3047 -2.3347  2.4378
 5641SOL     OW28558   4.069   3.921  12.196 -0.0218  0.2080 -0.1467
 5641SOL    HW128559   4.075   3.991  12.260  2.6657  1.7207 -2.0712
 5641SOL    HW228560   4.119   3.850  12.237 -1.3981 -1.1740 -0.8157
 5642SOL     OW28561   1.302   2.631   6.161  0.0413 -0.1570  0.0426
 5642SOL    HW128562   1.252   2.588   6.092 -1.5416  0.3091  0.8977
 5642SOL    HW228563   1.344   2.697   6.107 -1.2603  1.7800  1.3992
 5643SOL     OW28564   0.800   4.185  15.902  0.2125  0.2855  0.5128
 5643SOL    HW128565   0.895   4.200  15.899  0.5126 -0.9726  3.8166
 5643SOL    HW228566   0.801   4.090  15.891 -0.7818  0.4590 -1.0004
 5644SOL     OW28567   1.941   1.208  16.749  0.0484 -0.3749 -0.4477
 5644SOL    HW128568   2.037   1.210  16.754  0.1348 -1.2846 -1.9988
 5644SOL    HW228569   1.920   1.299  16.771  2.0585 -0.4979  2.0247
 5645SOL     OW28570   4.187   3.940   1.860 -0.2965  0.0147 -0.1535
 5645SOL    HW128571   4.122   3.926   1.928 -0.3467 -1.0066 -0.4186
 5645SOL    HW228572   4.129   3.960   1.786 -1.0191 -1.6288 -0.0165
 5646SOL     OW28573   0.345   0.207  14.543  1.0055 -0.3397 -0.3913
 5646SOL    HW128574   0.397   0.135  14.578  1.8978  1.1051  1.2601
 5646SOL    HW228575   0.393   0.280  14.582 -2.3343  0.5161  2.0777
 5647SOL     OW28576   3.810   3.585   6.032 -0.6339 -0.8536 -0.2269
 5647SOL    HW128577   3.740   3.646   6.052  0.8981 -0.2182  3.1677
 5647SOL    HW228578   3.880   3.623   6.084 -0.7136  0.2820 -0.9661
 5648SOL     OW28579   1.715   2.461  17.094  0.0624  0.0818  0.1342
 5648SOL    HW128580   1.712   2.367  17.115  0.6062  0.2548  1.0079
 5648SOL    HW228581   1.732   2.460  17.000  0.2193 -0.3500  0.1661
 5649SOL     OW28582   3.024   4.282   6.836  0.2148 -0.5278 -0.0652
 5649SOL    HW128583   3.066   4.215   6.783 -0.5499 -0.4628 -0.7487
 5649SOL    HW228584   2.966   4.221   6.882  0.7345 -1.3284 -0.4749
 5650SOL     OW28585   1.395   4.290   8.436  0.1445  0.2093 -0.0550
 5650SOL    HW128586   1.383   4.379   8.470 -0.5668  0.6253 -1.3857
 5650SOL    HW228587   1.306   4.258   8.418  1.0934 -0.9374 -2.5745
 5651SOL     OW28588   0.981   3.066   0.572  0.1928  0.3302 -0.2889
 5651SOL    HW128589   0.965   3.049   0.480  0.4592 -1.6655  0.0318
 5651SOL    HW228590   1.076   3.077   0.569  0.5193 -1.3506  3.6678
 5652SOL     OW28591   2.103   3.119  12.092 -0.3458  0.2852  0.0555
 5652SOL    HW128592   2.198   3.109  12.087 -0.5656 -0.8381 -2.2440
 5652SOL    HW228593   2.103   3.209  12.124 -2.5132 -0.1171  1.1424
 5653SOL     OW28594   2.166   3.933   4.331  0.3371 -0.5840  0.3763
 5653SOL    HW128595   2.177   3.858   4.390 -0.2414  0.0469  1.2815
 5653SOL    HW228596   2.134   3.874   4.263 -0.6883  0.0131  0.3346
 5654SOL     OW28597   0.522   1.376   4.631  0.1175  0.2255  0.8001
 5654SOL    HW128598   0.615   1.380   4.607  0.5068  0.8052  2.3897
 5654SOL    HW228599   0.487   1.321   4.562  1.8826  0.6874 -0.4778
 5655SOL     OW28600   0.714   2.553  12.132 -0.3256 -0.1827  1.0905
 5655SOL    HW128601   0.635   2.566  12.185 -1.1927 -3.2907  0.5705
 5655SOL    HW228602   0.686   2.478  12.080 -0.3098  0.0053  0.8138
 5656SOL     OW28603   3.067   3.098   7.837 -0.0561 -0.0889  0.7556
 5656SOL    HW128604   3.082   3.171   7.896 -0.3757 -0.8337  1.7597
 5656SOL    HW228605   3.149   3.084   7.790  0.9348  0.3948  2.3422
 5657SOL     OW28606   2.987   2.810   2.383 -0.4865  0.2302 -0.0148
 5657SOL    HW128607   2.996   2.724   2.343  1.5700 -0.1639  1.2910
 5657SOL    HW228608   2.892   2.812   2.368 -0.3549 -0.1494 -0.8890
 5658SOL     OW28609   1.345   1.675  10.138  0.1770  0.4843 -0.0554
 5658SOL    HW128610   1.277   1.742  10.144  0.0847  0.4623 -0.8314
 5658SOL    HW228611   1.381   1.701  10.053  1.3853 -1.4783 -0.1351
 5659SOL     OW28612   2.855   3.075   6.096  0.4651 -0.0696  0.4264
 5659SOL    HW128613   2.811   2.998   6.059 -1.6517  1.2821  0.1662
 5659SOL    HW228614   2.809   3.136   6.038  1.5225 -1.2540 -1.6994
 5660SOL     OW28615   1.605   1.912   6.238 -0.1780 -0.3748  0.6357
 5660SOL    HW128616   1.609   1.992   6.184  2.3312 -0.6676  0.3738
 5660SOL    HW228617   1.520   1.876   6.213 -1.7994  3.5171  0.4395
 5661SOL     OW28618   1.128   0.903   3.818  0.6449  0.4031 -0.3733
 5661SOL    HW128619   1.141   0.946   3.733  1.4498 -0.5761 -0.7583
 5661SOL    HW228620   1.061   0.840   3.792 -0.5835  0.7620  1.9097
 5662SOL     OW28621   2.707   3.286   5.973  0.2839 -0.1656  0.1156
 5662SOL    HW128622   2.721   3.368   5.926 -1.4439  0.4887  0.7203
 5662SOL    HW228623   2.642   3.324   6.033 -1.1039  0.4090 -1.7397
 5663SOL     OW28624   2.096   0.270  16.057  0.2800 -0.1004  0.1245
 5663SOL    HW128625   2.002   0.270  16.043  0.2581 -0.0991  0.2742
 5663SOL    HW228626   2.122   0.221  15.979  0.0222 -0.9675  0.5817
 5664SOL     OW28627   0.563   3.205   9.740 -0.2230  0.0341  0.1028
 5664SOL    HW128628   0.475   3.171   9.726  0.0213 -0.0973 -1.1300
 5664SOL    HW228629   0.573   3.182   9.832 -0.1091 -1.1389 -0.2079
 5665SOL     OW28630   3.771   1.918  16.525 -0.1993  0.1939  0.6132
 5665SOL    HW128631   3.691   1.948  16.483  1.8243  0.1795 -3.2337
 5665SOL    HW228632   3.731   1.909  16.612 -1.2917  2.0066  0.3006
 5666SOL     OW28633   3.532   3.521   3.118  0.3093  0.2197 -0.1286
 5666SOL    HW128634   3.617   3.478   3.113  0.8821  1.1467  1.5066
 5666SOL    HW228635   3.513   3.520   3.025 -1.4484 -0.6753  0.2321
 5667SOL     OW28636   3.594   4.204  11.992 -0.3320 -0.0603  0.7192
 5667SOL    HW128637   3.666   4.265  11.974 -0.2322 -0.8947 -1.6930
 5667SOL    HW228638   3.523   4.268  12.002  0.3472  0.4850  2.0931
 5668SOL     OW28639   0.334   4.344   4.628 -0.2386  0.5184 -0.4216
 5668SOL    HW128640   0.414   4.291   4.622 -3.2003 -4.0351  0.8732
 5668SOL    HW228641   0.279   4.272   4.597  0.1967 -0.5379  1.2530
 5669SOL     OW28642   3.298   0.320   5.684 -0.0644 -0.5180 -0.0018
 5669SOL    HW128643   3.304   0.375   5.605 -1.4362 -0.0818  0.2053
 5669SOL    HW228644   3.204   0.308   5.696 -0.0584 -0.2749  0.2966
 5670SOL     OW28645   2.372   1.241   5.783  0.3242 -0.0880 -0.0196
 5670SOL    HW128646   2.397   1.231   5.875 -1.8568 -1.0677  0.4614
 5670SOL    HW228647   2.378   1.336   5.775 -1.2626  0.0946  0.9209
 5671SOL     OW28648   0.105   0.393   9.676  0.1746  0.0555  0.7826
 5671SOL    HW128649   0.027   0.391   9.621  0.8745  3.0259 -0.3611
 5671SOL    HW228650   0.172   0.355   9.620 -0.0283  0.1201  0.4930
 5672SOL     OW28651   0.188   2.132   6.655  0.0167  0.3987 -0.0437
 5672SOL    HW128652   0.150   2.054   6.615  0.2448  0.3828 -0.2279
 5672SOL    HW228653   0.124   2.172   6.713 -2.1194  0.0449 -2.1857
 5673SOL     OW28654   2.835   1.953   6.054  0.2661  0.5802 -0.1314
 5673SOL    HW128655   2.788   1.895   6.113  1.6198  0.2071  0.5847
 5673SOL    HW228656   2.806   1.927   5.966 -1.9502  0.1844  0.7331
 5674SOL     OW28657   3.808   1.898  16.206  0.2237  0.3492 -0.1082
 5674SOL    HW128658   3.847   1.879  16.291 -0.9231 -1.1766  0.0875
 5674SOL    HW228659   3.721   1.859  16.214 -0.3227  1.9081  1.6004
 5675SOL     OW28660   1.794   3.757  16.128  0.2241 -0.2256 -0.2918
 5675SOL    HW128661   1.796   3.662  16.121 -1.8182 -0.3031  0.1483
 5675SOL    HW228662   1.874   3.782  16.083  0.1311  1.2679  0.3572
 5676SOL     OW28663   4.371   3.452   5.895  0.6323  0.1873  0.2326
 5676SOL    HW128664   4.396   3.371   5.850  1.2003  0.1579  0.6072
 5676SOL    HW228665   4.286   3.463   5.851 -0.3886  2.2064  2.7226
 5677SOL     OW28666   3.820   2.192  15.519 -0.0193 -0.3493  0.2625
 5677SOL    HW128667   3.730   2.186  15.486 -0.1422  1.4242  0.3057
 5677SOL    HW228668   3.850   2.273  15.478 -0.2143 -0.6156 -0.4047
 5678SOL     OW28669   3.395   2.214   5.151  0.2414  0.1248  0.2779
 5678SOL    HW128670   3.468   2.225   5.213  1.8382 -2.2563 -1.2012
 5678SOL    HW228671   3.448   2.205   5.072  0.2153  1.3968  0.1042
 5679SOL     OW28672   3.977   0.383   1.875  0.2050 -0.0272  0.2740
 5679SOL    HW128673   4.007   0.424   1.956 -0.1623 -0.3589  0.5745
 5679SOL    HW228674   3.985   0.458   1.816  0.5995 -0.8248 -0.6843
 5680SOL     OW28675   2.916   1.237   6.934  0.1591 -0.2967  0.3980
 5680SOL    HW128676   2.912   1.331   6.921 -0.0362 -0.4025 -0.3368
 5680SOL    HW228677   3.009   1.217   6.940 -0.2567 -2.3270  0.1277
 5681SOL     OW28678   4.432   1.624   6.019 -0.2412  0.1007 -0.0779
 5681SOL    HW128679   4.465   1.557   5.958  1.1847  0.8145 -0.1035
 5681SOL    HW228680   4.352   1.582   6.050 -0.8480  1.1616 -0.2228
 5682SOL     OW28681   1.408   3.638   4.968 -0.1209  0.0431  0.4588
 5682SOL    HW128682   1.393   3.721   5.013  0.1717  0.5862 -0.4657
 5682SOL    HW228683   1.455   3.666   4.890 -0.0408  0.6424  0.7227
 5683SOL     OW28684   2.509   0.030   6.843  0.0473 -0.4054  0.3873
 5683SOL    HW128685   2.492   0.014   6.750 -1.4881 -0.1195  0.6172
 5683SOL    HW228686   2.535   4.686   6.876 -0.7246 -0.8783 -0.2301
 5684SOL     OW28687   2.115   2.087   6.375  0.1662  0.3292  0.1400
 5684SOL    HW128688   2.170   2.128   6.442  1.1307  1.3513 -1.2924
 5684SOL    HW228689   2.041   2.147   6.378  1.1053  1.5064 -0.0892
 5685SOL     OW28690   2.219   1.451   3.051 -0.1799  0.0714  0.3511
 5685SOL    HW128691   2.268   1.484   3.126  0.8213 -0.9065  0.1432
 5685SOL    HW228692   2.255   1.363   3.041 -2.5639 -0.8112 -0.3634
 5686SOL     OW28693   0.650   3.984   7.237  0.0083  0.6127  0.1968
 5686SOL    HW128694   0.573   4.036   7.261 -0.2835 -0.2924  1.2198
 5686SOL    HW228695   0.611   3.911   7.189  1.8712  0.9863 -1.8683
 5687SOL     OW28696   3.831   1.797   1.988 -0.1650  0.4506  0.0452
 5687SOL    HW128697   3.902   1.844   2.031  0.2973  1.8833 -2.2568
 5687SOL    HW228698   3.758   1.860   1.992  1.1357  1.8681  1.5823
 5688SOL     OW28699   4.288   1.125   3.414 -0.0890 -0.0544 -0.3214
 5688SOL    HW128700   4.337   1.137   3.495 -0.3002  0.0084 -0.2044
 5688SOL    HW228701   4.349   1.165   3.352  0.2693  1.4329  0.9978
 5689SOL     OW28702   4.651   0.511   2.497  0.0647 -0.2353 -0.5023
 5689SOL    HW128703   4.590   0.500   2.570  1.6628  0.6903  0.9537
 5689SOL    HW228704   4.723   0.454   2.524 -2.0330 -2.1365  1.0781
 5690SOL     OW28705   0.382   2.938  16.909 -0.1559  0.0316 -0.5051
 5690SOL    HW128706   0.454   2.930  16.971 -0.2286  2.7019 -0.0693
 5690SOL    HW228707   0.304   2.932  16.965 -0.6949 -0.4085 -1.3137
 5691SOL     OW28708   4.192   1.207  10.833  0.3103  0.8437  0.4143
 5691SOL    HW128709   4.282   1.178  10.818  0.9669  2.1209  1.9276
 5691SOL    HW228710   4.185   1.293  10.875 -2.1446  0.8279  0.0539
 5692SOL     OW28711   0.070   3.601   4.839 -0.4262 -0.3515 -0.8394
 5692SOL    HW128712   0.102   3.548   4.912  0.9942  0.4208 -0.8822
 5692SOL    HW228713   0.001   3.654   4.879 -0.3321  0.1047 -1.2800
 5693SOL     OW28714   0.979   4.104  10.612 -0.4802  0.0428  0.5345
 5693SOL    HW128715   1.064   4.147  10.604  0.9250 -3.0056 -0.9584
 5693SOL    HW228716   0.993   4.065  10.698  3.5069 -0.5594 -0.4172
 5694SOL     OW28717   2.209   3.214   7.416 -0.4583 -0.1972 -0.0801
 5694SOL    HW128718   2.143   3.280   7.436 -1.6857 -1.4330 -0.1248
 5694SOL    HW228719   2.236   3.198   7.507 -3.4096 -0.5778  0.7018
 5695SOL     OW28720   2.312   0.205   4.674  0.1103 -0.5741 -0.3626
 5695SOL    HW128721   2.243   0.259   4.635  0.0566  0.3323  0.9726
 5695SOL    HW228722   2.393   0.223   4.627 -0.0805 -0.8265 -0.7927
 5696SOL     OW28723   0.051   3.672   2.701  0.0881  0.1447 -0.5558
 5696SOL    HW128724   0.125   3.697   2.757  1.0462  1.2140 -2.2963
 5696SOL    HW228725   0.007   3.592   2.728  1.3397 -0.1274  0.6933
 5697SOL     OW28726   0.309   4.285   5.799 -0.3819 -0.3974 -0.2686
 5697SOL    HW128727   0.383   4.227   5.814  0.9080  1.4497  0.5422
 5697SOL    HW228728   0.239   4.230   5.834 -1.4231  1.0928 -0.0210
 5698SOL     OW28729   1.634   0.405   6.203 -0.6237 -0.7259 -0.1102
 5698SOL    HW128730   1.615   0.320   6.241 -1.9837 -1.6818 -2.9374
 5698SOL    HW228731   1.630   0.390   6.108  0.3687 -1.3386 -0.0487
 5699SOL     OW28732   4.489   0.277   3.112  0.2120  0.0840 -0.0726
 5699SOL    HW128733   4.576   0.263   3.076 -0.1978  0.2853 -1.1289
 5699SOL    HW228734   4.473   0.372   3.118 -1.5010 -0.3094  1.8622
 5700SOL     OW28735   0.435   4.696   3.152 -0.2772  0.9978  0.0910
 5700SOL    HW128736   0.398   0.032   3.194 -1.8779 -0.0249  0.5619
 5700SOL    HW228737   0.382   4.640   3.209  2.5427 -0.8719  0.8911
 5701SOL     OW28738   0.666   4.367  16.530  0.4029  0.6728  0.2102
 5701SOL    HW128739   0.654   4.281  16.571  1.0003  0.1530 -0.7217
 5701SOL    HW228740   0.714   4.408  16.603 -0.9292  0.2648  1.3114
 5702SOL     OW28741   0.229   4.443   6.423 -0.4614  0.1983 -0.8777
 5702SOL    HW128742   0.210   4.482   6.508  0.3010 -2.9140  0.7384
 5702SOL    HW228743   0.204   4.514   6.364 -0.0115  0.6305 -0.5412
 5703SOL     OW28744   1.142   1.040   7.468  0.4550  0.2033 -0.1185
 5703SOL    HW128745   1.159   0.989   7.547 -1.9293  1.6695  1.3252
 5703SOL    HW228746   1.229   1.022   7.431  0.9051 -2.2020  2.0901
 5704SOL     OW28747   2.864   0.460   4.657 -0.2855 -0.1769 -0.3282
 5704SOL    HW128748   2.894   0.382   4.611 -0.0431 -1.1396  1.4770
 5704SOL    HW228749   2.929   0.487   4.722  0.3184 -1.0144 -0.5857
 5705SOL     OW28750   4.706   0.835   8.233  0.0423  0.2773 -0.1171
 5705SOL    HW128751   4.615   0.821   8.209  0.0972  0.6050 -0.5090
 5705SOL    HW228752   0.019   0.794   8.166 -0.4879  1.8076 -1.4747
 5706SOL     OW28753   4.547   2.942   0.352 -0.4876 -0.2971  0.0566
 5706SOL    HW128754   4.627   2.991   0.373  0.1082 -0.3381 -2.0534
 5706SOL    HW228755   4.576   2.869   0.297 -0.0679  1.2583 -1.8141
 5707SOL     OW28756   0.761   2.412   2.832  0.5471  0.1236  0.0965
 5707SOL    HW128757   0.681   2.391   2.880  1.0525 -0.0778  0.8491
 5707SOL    HW228758   0.751   2.507   2.842 -0.6905  0.2407 -2.2818
 5708SOL     OW28759   3.381   1.664   2.054  0.2546 -0.1030  0.0689
 5708SOL    HW128760   3.439   1.689   1.982 -0.4778 -2.8090 -1.4634
 5708SOL    HW228761   3.334   1.745   2.076  0.0060 -0.6683  1.6386
 5709SOL     OW28762   4.384   1.642   7.097  0.7572  0.1620 -0.0477
 5709SOL    HW128763   4.316   1.658   7.162  0.6152  1.7318 -0.5724
 5709SOL    HW228764   4.464   1.662   7.144  0.7993 -1.8003  0.7035
 5710SOL     OW28765   2.930   2.983   0.354  0.3753 -0.5064 -0.4592
 5710SOL    HW128766   2.973   2.898   0.349  3.2991  0.9000  0.9782
 5710SOL    HW228767   2.840   2.954   0.336  0.4732 -1.6478  0.8738
 5711SOL     OW28768   2.650   0.930   7.586 -0.0879  0.0366  0.1681
 5711SOL    HW128769   2.577   0.975   7.630  1.6191  0.6078  2.4152
 5711SOL    HW228770   2.687   1.007   7.544 -1.7447  1.1597  0.7475
 5712SOL     OW28771   4.239   4.507  10.293 -0.1624 -0.5537  0.1425
 5712SOL    HW128772   4.307   4.565  10.325 -0.5135 -0.0723  0.0136
 5712SOL    HW228773   4.294   4.442  10.250  0.8532 -0.5301  1.4263
 5713SOL     OW28774   0.798   3.628   7.507  0.2139  0.1089 -0.6338
 5713SOL    HW128775   0.801   3.723   7.519 -2.3919  0.1373 -0.0586
 5713SOL    HW228776   0.847   3.610   7.427  2.0121  1.5012  0.1667
 5714SOL     OW28777   1.863   4.195  13.055  0.5187 -0.2177  0.6094
 5714SOL    HW128778   1.771   4.177  13.035  0.9114 -3.0186  1.3342
 5714SOL    HW228779   1.911   4.138  12.995  2.1884  0.5250  1.2398
 5715SOL     OW28780   2.696   2.219   4.902 -0.4258 -0.7555 -0.3279
 5715SOL    HW128781   2.640   2.255   4.971  1.7210  0.9675  0.5099
 5715SOL    HW228782   2.666   2.129   4.894 -3.3425  0.0832  0.8771
 5716SOL     OW28783   4.255   3.282  12.934 -0.1238 -0.4121  0.0415
 5716SOL    HW128784   4.350   3.292  12.930 -0.1236 -1.0562 -1.6725
 5716SOL    HW228785   4.249   3.249  13.023  3.4468 -0.3082  0.3431
 5717SOL     OW28786   3.782   3.770   2.868  0.5664  0.6837 -0.0760
 5717SOL    HW128787   3.759   3.842   2.809  1.0532  2.3491  1.7947
 5717SOL    HW228788   3.733   3.779   2.949  1.5058  0.2140  0.5535
 5718SOL     OW28789   3.795   0.209   7.832 -0.2963  0.3094  0.0198
 5718SOL    HW128790   3.788   0.140   7.898  0.9416  1.7777  1.6923
 5718SOL    HW228791   3.723   0.191   7.772 -0.5309  1.3691 -0.0251
 5719SOL     OW28792   0.132   3.784  17.631 -0.0718  0.2262  0.3032
 5719SOL    HW128793   0.100   3.719  17.569 -1.2951  0.7888  0.3472
 5719SOL    HW228794   0.224   3.785  17.606 -0.3507  2.1225 -0.6318
 5720SOL     OW28795   0.884   3.964  16.646 -0.1355 -0.0698  0.0642
 5720SOL    HW128796   0.892   3.875  16.680  1.4370 -1.0358 -2.8602
 5720SOL    HW228797   0.958   3.973  16.587 -0.9201 -0.3351 -0.9662
 5721SOL     OW28798   2.624   1.204  16.675 -0.0565 -0.2622  0.2102
 5721SOL    HW128799   2.615   1.299  16.669 -0.9311 -0.5267 -2.4323
 5721SOL    HW228800   2.539   1.180  16.639  1.4856 -2.8293 -1.7463
 5722SOL     OW28801   0.843   1.339   2.555 -0.3004  0.2140 -0.2167
 5722SOL    HW128802   0.769   1.284   2.530  2.2274 -2.6179 -1.4181
 5722SOL    HW228803   0.793   1.416   2.581  1.3464  1.0586  0.4676
 5723SOL     OW28804   3.754   2.689  15.441 -0.8405  0.1246  0.1599
 5723SOL    HW128805   3.765   2.781  15.466  0.2495 -0.7265  2.7537
 5723SOL    HW228806   3.831   2.647  15.479 -0.1629  0.8803 -0.3568
 5724SOL     OW28807   2.988   4.056  12.417  0.1300 -0.2754  0.7409
 5724SOL    HW128808   2.910   4.044  12.471 -0.4276  2.1885  0.4932
 5724SOL    HW228809   2.944   4.086  12.337  1.8705  0.4035  0.0434
 5725SOL     OW28810   1.329   0.487  16.175  0.0957 -0.6376  0.6320
 5725SOL    HW128811   1.400   0.460  16.115 -2.4983 -0.4193 -2.5450
 5725SOL    HW228812   1.385   0.525  16.243  0.3950 -1.0706  0.6308
 5726SOL     OW28813   4.633   0.653   7.319  0.1850 -0.3727  0.5498
 5726SOL    HW128814   4.572   0.605   7.263 -0.3774  0.7851  0.1702
 5726SOL    HW228815   4.721   0.624   7.296  0.0269 -0.0796 -0.4343
 5727SOL     OW28816   2.480   1.714   5.362 -0.2125  0.3590 -0.0554
 5727SOL    HW128817   2.440   1.697   5.448 -1.1913  1.9254 -0.2020
 5727SOL    HW228818   2.422   1.659   5.309 -1.1439  0.7357  0.5622
 5728SOL     OW28819   3.076   4.082   8.107  0.6431  0.2335  0.3958
 5728SOL    HW128820   3.002   4.022   8.114 -0.5841  1.4663 -2.0797
 5728SOL    HW228821   3.051   4.151   8.168  0.0842 -0.6548  1.1744
 5729SOL     OW28822   3.336   0.818   0.685 -0.5090  0.1071  0.0019
 5729SOL    HW128823   3.266   0.873   0.721  0.7543  0.0915  2.4927
 5729SOL    HW228824   3.310   0.735   0.724  1.6578 -0.4182  0.3284
 5730SOL     OW28825   2.713   2.201  12.340  0.2767  0.2240  0.4257
 5730SOL    HW128826   2.792   2.244  12.371 -0.7399  0.8870  2.1195
 5730SOL    HW228827   2.650   2.242  12.399  1.4199  1.4330  0.7848
 5731SOL     OW28828   1.133   2.824   2.147  0.3006  0.0170 -0.1551
 5731SOL    HW128829   1.072   2.885   2.105 -0.4744 -1.5177 -1.2434
 5731SOL    HW228830   1.206   2.829   2.086  1.0193  0.7241  0.7707
 5732SOL     OW28831   2.009   4.528   7.555 -0.6634 -0.0462  0.1235
 5732SOL    HW128832   2.013   4.623   7.566 -1.3747 -0.0098  0.0553
 5732SOL    HW228833   2.086   4.521   7.498  1.2367 -1.8986  2.9597
 5733SOL     OW28834   1.075   1.473   5.689 -0.2690  0.0254 -0.8464
 5733SOL    HW128835   1.049   1.486   5.598  0.0997  0.5709 -0.8773
 5733SOL    HW228836   1.055   1.557   5.730  0.1002 -0.9156  1.2733
 5734SOL     OW28837   1.806   3.849   5.816 -0.1332 -0.1660 -0.3493
 5734SOL    HW128838   1.776   3.760   5.836 -2.1623  0.5745 -0.0997
 5734SOL    HW228839   1.829   3.870   5.907  0.1129 -2.9670  0.2533
 5735SOL     OW28840   1.809   2.308  16.010  0.1563  0.1492 -0.5011
 5735SOL    HW128841   1.897   2.332  16.041 -0.0717  2.7366 -1.8754
 5735SOL    HW228842   1.755   2.315  16.089  3.2048  1.1945  1.5166
 5736SOL     OW28843   0.341   4.632   4.594 -0.7168  0.0265  0.2068
 5736SOL    HW128844   0.264   4.646   4.539 -0.5791 -1.5819 -0.4118
 5736SOL    HW228845   0.336   4.537   4.608  0.6888 -0.0741  0.0848
 5737SOL     OW28846   4.006   3.869  11.923  1.3262  0.2181 -0.7349
 5737SOL    HW128847   4.009   3.781  11.960  0.4171 -0.4450 -2.2267
 5737SOL    HW228848   4.008   3.924  12.001 -1.4954 -0.6835 -0.0341
 5738SOL     OW28849   1.729   2.598   5.690 -0.5438 -0.4751  0.1312
 5738SOL    HW128850   1.777   2.676   5.662  1.2780 -1.4664  0.5221
 5738SOL    HW228851   1.728   2.547   5.609 -0.1338 -1.6394  0.8643
 5739SOL     OW28852   4.164   1.318  12.278  0.1293  0.4804  0.2304
 5739SOL    HW128853   4.130   1.298  12.365 -2.2648 -0.8507 -1.0226
 5739SOL    HW228854   4.094   1.299  12.216  0.9832 -2.1725  0.0633
 5740SOL     OW28855   0.058   4.271  11.085  0.1183  0.7082  0.5597
 5740SOL    HW128856   0.026   4.192  11.126 -1.9384  0.0745 -2.2395
 5740SOL    HW228857   0.152   4.271  11.104  0.0580  0.7311  0.8566
 5741SOL     OW28858   4.451   4.005  12.432  0.4474 -0.0759 -0.2051
 5741SOL    HW128859   4.389   3.957  12.486 -0.4582 -0.2942 -1.4459
 5741SOL    HW228860   4.531   3.953  12.443 -0.7216 -1.9947 -0.7514
 5742SOL     OW28861   1.878   0.473   7.260  0.1045  0.6606 -0.1812
 5742SOL    HW128862   1.841   0.462   7.348  0.2563  0.8090 -0.1002
 5742SOL    HW228863   1.844   0.399   7.210  0.3992  0.5471 -0.2156
 5743SOL     OW28864   2.293   0.003   8.693  0.4443 -0.1023 -0.0260
 5743SOL    HW128865   2.261   4.728   8.604 -1.5924  0.0035  0.6979
 5743SOL    HW228866   2.213   4.726   8.741 -1.9633  0.9150 -3.6319
 5744SOL     OW28867   2.130   3.640   3.166 -0.3259  0.2260  0.0790
 5744SOL    HW128868   2.141   3.566   3.107  1.7015  1.4806 -1.1135
 5744SOL    HW228869   2.122   3.709   3.100  1.1482 -0.3960 -0.7349
 5745SOL     OW28870   0.514   0.330   0.274 -0.0659  0.2995 -0.0927
 5745SOL    HW128871   0.464   0.401   0.314 -0.1756  1.6864 -2.6739
 5745SOL    HW228872   0.494   0.248   0.319 -1.6888  0.6425 -0.2065
 5746SOL     OW28873   0.184   2.039   9.748  0.4378 -0.8282 -0.4552
 5746SOL    HW128874   0.264   1.999   9.716  1.0823  0.0920  0.0220
 5746SOL    HW228875   0.136   2.047   9.665 -0.4668 -0.9148  0.0516
 5747SOL     OW28876   0.168   2.286   1.227 -0.2881 -0.0703 -0.1630
 5747SOL    HW128877   0.101   2.302   1.161 -1.9724 -2.5414  0.9873
 5747SOL    HW228878   0.244   2.260   1.174 -0.5010 -1.9766  0.4801
 5748SOL     OW28879   3.793   0.757   6.044  0.2572 -0.1613 -0.3251
 5748SOL    HW128880   3.837   0.818   6.103 -0.6065  0.6337 -0.5136
 5748SOL    HW228881   3.859   0.748   5.976  1.0223 -1.1688  0.5475
 5749SOL     OW28882   3.239   1.133   6.944 -0.0481 -0.0689  0.3539
 5749SOL    HW128883   3.273   1.044   6.952 -0.1701 -0.1441  0.0360
 5749SOL    HW228884   3.259   1.163   7.033  1.0911 -0.6452  0.2941
 5750SOL     OW28885   3.409   4.485   8.231  0.0844 -0.0232  0.4011
 5750SOL    HW128886   3.392   4.471   8.324  1.3860  2.0476  0.9520
 5750SOL    HW228887   3.321   4.469   8.195  0.0765 -0.3704  0.5749
 5751SOL     OW28888   3.843   1.956   8.739 -0.1779 -0.6880 -0.5620
 5751SOL    HW128889   3.863   1.900   8.664  0.4723 -2.0171  0.5838
 5751SOL    HW228890   3.767   1.925   8.788 -0.4501 -0.3762 -0.7910
 5752SOL     OW28891   3.851   3.868  12.555 -0.2859 -0.2746 -0.2522
 5752SOL    HW128892   3.758   3.888  12.568  0.0235  0.1588  1.2069
 5752SOL    HW228893   3.885   3.948  12.514  3.8395 -2.3336 -0.8009
 5753SOL     OW28894   4.547   3.420  16.774 -0.3493 -0.1218 -0.2077
 5753SOL    HW128895   4.479   3.400  16.710 -1.3258 -0.7836  1.0448
 5753SOL    HW228896   4.615   3.378  16.721  2.6180  0.6303  3.0132
 5754SOL     OW28897   3.550   0.642  12.672  0.2301  0.0326 -0.6311
 5754SOL    HW128898   3.587   0.686  12.596  2.9867  1.4766  1.5086
 5754SOL    HW228899   3.623   0.646  12.734  0.4342  0.4180 -0.8937
 5755SOL     OW28900   3.577   4.364  14.749  0.0285  0.1101  0.3907
 5755SOL    HW128901   3.529   4.282  14.739  0.1575  0.0366  0.3705
 5755SOL    HW228902   3.630   4.352  14.828  0.0190 -3.5335 -0.1602
 5756SOL     OW28903   4.030   4.552   7.386  0.0997 -0.1234 -1.2332
 5756SOL    HW128904   4.003   4.469   7.348  0.4264 -0.4886 -0.6593
 5756SOL    HW228905   4.126   4.542   7.386  0.0459 -0.5780 -0.5379
 5757SOL     OW28906   1.561   1.700   8.478  0.6136 -0.3332  0.5465
 5757SOL    HW128907   1.631   1.743   8.527  1.0599 -0.5348  0.0908
 5757SOL    HW228908   1.498   1.771   8.466  0.3107 -0.8989 -1.1255
 5758SOL     OW28909   1.091   0.104  14.913  0.0802 -0.1311 -0.4201
 5758SOL    HW128910   1.024   0.173  14.908 -1.1859 -1.4508 -1.5159
 5758SOL    HW228911   1.040   0.024  14.903  0.5508 -0.6904  1.7442
 5759SOL     OW28912   0.581   3.713   4.350 -0.3061  0.3327  0.1642
 5759SOL    HW128913   0.521   3.779   4.386 -1.3664 -0.3827 -0.2897
 5759SOL    HW228914   0.581   3.733   4.257  0.2978  0.1612  0.1284
 5760SOL     OW28915   0.125   4.594   2.894  0.1748  0.0951 -0.2154
 5760SOL    HW128916   0.180   4.543   2.953 -1.7808 -0.3180  1.2276
 5760SOL    HW228917   0.178   4.585   2.814  1.2977 -0.1051  0.5555
 5761SOL     OW28918   1.226   4.739   1.481  0.0839  0.3462  0.6802
 5761SOL    HW128919   1.254   0.055   1.410  0.3413 -1.1230 -0.4258
 5761SOL    HW228920   1.254   4.653   1.448  0.3101  0.6386  0.1047
 5762SOL     OW28921   1.778   3.113   3.338  0.5817  0.1351  0.5074
 5762SOL    HW128922   1.862   3.151   3.361  0.0194  1.7000 -0.0770
 5762SOL    HW228923   1.714   3.167   3.384  1.4389 -0.0283  1.9139
 5763SOL     OW28924   0.660   1.081   1.771 -0.3476 -0.6992  0.2324
 5763SOL    HW128925   0.616   0.996   1.763  0.7319 -1.1816 -0.5360
 5763SOL    HW228926   0.744   1.045   1.798  0.6326  0.0452 -1.8584
 5764SOL     OW28927   2.965   4.294  15.759  0.0331 -0.1689  0.2445
 5764SOL    HW128928   3.032   4.304  15.690  0.3604 -0.6675  0.4885
 5764SOL    HW228929   2.891   4.272  15.703 -1.5634 -0.0597  2.3266
 5765SOL     OW28930   1.121   3.016   5.865  0.3465  0.0519  0.2240
 5765SOL    HW128931   1.049   2.955   5.877 -0.3158  0.5814 -1.1061
 5765SOL    HW228932   1.082   3.065   5.793 -3.2407 -1.4380  1.1545
 5766SOL     OW28933   2.553   3.183   2.093  0.2553  0.3881  0.8850
 5766SOL    HW128934   2.542   3.088   2.097  0.0781  0.4000  0.6791
 5766SOL    HW228935   2.607   3.186   2.172 -0.2169  2.1216  1.1405
 5767SOL     OW28936   3.846   1.941  11.120  0.8939 -0.1852 -0.8414
 5767SOL    HW128937   3.751   1.938  11.133  0.8367  1.6606 -0.7974
 5767SOL    HW228938   3.855   1.872  11.054  1.7373 -2.0693  1.2643
 5768SOL     OW28939   1.786   1.496   9.428  0.2914 -0.3695  0.0550
 5768SOL    HW128940   1.848   1.563   9.399  0.1523  1.0524  3.1171
 5768SOL    HW228941   1.814   1.476   9.517  1.2907  2.5064  0.3650
 5769SOL     OW28942   2.775   2.630   8.961 -0.3035 -0.2817 -0.7382
 5769SOL    HW128943   2.803   2.721   8.969 -0.9497  0.0168 -1.7846
 5769SOL    HW228944   2.694   2.650   8.913  0.9475  0.8010 -2.4002
 5770SOL     OW28945   3.330   3.192   8.316  0.1117  0.4686 -0.1376
 5770SOL    HW128946   3.318   3.100   8.293 -2.0257  0.6334  0.3603
 5770SOL    HW228947   3.256   3.199   8.376  1.3831 -0.4794  1.5615
 5771SOL     OW28948   1.729   0.972   5.331 -0.2261 -0.0725  0.3119
 5771SOL    HW128949   1.701   0.887   5.365  0.9411 -0.7528 -0.4135
 5771SOL    HW228950   1.817   0.971   5.368 -1.0601 -0.9893  2.2616
 5772SOL     OW28951   4.677   4.209   4.597 -0.5083 -0.1052 -0.5001
 5772SOL    HW128952   4.640   4.128   4.634  0.2901 -0.8872 -1.4134
 5772SOL    HW228953   0.022   4.177   4.572 -0.3381  1.1639 -1.5697
 5773SOL     OW28954   1.213   4.363   7.797 -0.0461  0.0513  0.6422
 5773SOL    HW128955   1.278   4.415   7.844 -0.3541 -1.2383  2.5031
 5773SOL    HW228956   1.150   4.338   7.866  0.7547  0.5516  1.5607
 5774SOL     OW28957   3.056   2.614   3.588  0.3654 -0.1203  0.6294
 5774SOL    HW128958   3.057   2.681   3.519 -3.4639 -0.0545  0.6373
 5774SOL    HW228959   2.976   2.568   3.564  0.7442 -0.5609  0.1889
 5775SOL     OW28960   4.725   1.140   8.789  0.2374 -0.0190 -0.1603
 5775SOL    HW128961   4.659   1.196   8.748 -0.6201 -0.4269  0.6765
 5775SOL    HW228962   4.681   1.080   8.849 -1.2928  0.4510 -0.8138
 5776SOL     OW28963   2.614   3.491   4.986  0.0467 -0.3103  0.1333
 5776SOL    HW128964   2.589   3.540   5.064 -1.7111  0.7455 -1.0825
 5776SOL    HW228965   2.681   3.431   5.019  0.6769  0.0130 -0.5507
 5777SOL     OW28966   2.049   0.439   7.599 -0.1088 -0.1997  0.0860
 5777SOL    HW128967   2.068   0.521   7.646  1.0974 -0.1316 -0.5459
 5777SOL    HW228968   1.973   0.458   7.544  0.5367 -0.8148 -0.9986
 5778SOL     OW28969   4.640   0.789   3.097  0.3558  0.0545 -0.3472
 5778SOL    HW128970   4.651   0.841   3.176  1.5821  1.1372 -1.2381
 5778SOL    HW228971   4.571   0.843   3.059 -0.1182 -0.4806 -0.2455
 5779SOL     OW28972   1.371   1.115   7.959  0.0371  0.2681  0.6984
 5779SOL    HW128973   1.352   1.194   7.908  1.0656  0.2385  0.2746
 5779SOL    HW228974   1.431   1.148   8.026  1.0726 -1.3430  0.5687
 5780SOL     OW28975   2.068   2.338   7.449  0.0447  0.3313  0.3334
 5780SOL    HW128976   2.061   2.423   7.493 -1.2070  1.4099 -2.0115
 5780SOL    HW228977   1.990   2.288   7.472  0.0141  1.2729  2.2647
 5781SOL     OW28978   0.228   2.153   8.730 -0.2709 -0.0589  0.0230
 5781SOL    HW128979   0.240   2.123   8.640  0.8309  0.7531 -0.1044
 5781SOL    HW228980   0.248   2.246   8.720  2.8328 -0.5427  1.7779
 5782SOL     OW28981   4.013   3.969   0.617 -0.0373  0.1121  0.4239
 5782SOL    HW128982   4.067   3.943   0.691  1.3165  1.0917 -0.2215
 5782SOL    HW228983   4.068   4.042   0.590  2.2990 -0.9246  2.4063
 5783SOL     OW28984   0.172   1.162   7.422  0.4515 -0.6118  0.3871
 5783SOL    HW128985   0.169   1.102   7.348 -0.3512  0.0757 -0.1395
 5783SOL    HW228986   0.124   1.237   7.388  1.1384 -0.5947 -0.5322
 5784SOL     OW28987   2.215   3.187   2.228 -0.3199  0.0985 -0.3917
 5784SOL    HW128988   2.188   3.096   2.213 -2.2632  0.8996 -1.7308
 5784SOL    HW228989   2.300   3.161   2.262  1.1186  2.3056 -2.2833
 5785SOL     OW28990   3.861   1.708  10.995  0.3624 -0.4959 -0.1247
 5785SOL    HW128991   3.841   1.706  10.901 -0.9398  1.9200  0.0812
 5785SOL    HW228992   3.800   1.645  11.033 -1.1145  1.5395  0.8672
 5786SOL     OW28993   0.988   0.084   4.116  0.2600  0.1935  0.1726
 5786SOL    HW128994   1.006   0.176   4.136  0.3757 -0.1356  1.5727
 5786SOL    HW228995   1.039   0.027   4.173  2.2242  1.1108 -0.6901
 5787SOL     OW28996   4.114   1.825   6.250  0.3268 -0.4926  0.4717
 5787SOL    HW128997   4.198   1.790   6.222  0.5932  1.2878 -0.9723
 5787SOL    HW228998   4.116   1.830   6.346  0.8844 -0.9534  0.4854
 5788SOL     OW28999   2.630   3.720   5.529  0.1666  0.1491 -0.4763
 5788SOL    HW129000   2.701   3.766   5.573  1.1398  1.1909 -3.1293
 5788SOL    HW229001   2.554   3.733   5.584  2.9757  0.0456  3.4129
 5789SOL     OW29002   2.800   3.954   4.332 -0.7506 -0.9518  0.1075
 5789SOL    HW129003   2.835   3.931   4.246  1.9478  1.2207  0.6442
 5789SOL    HW229004   2.861   3.917   4.396  2.1280  1.1444 -1.4491
 5790SOL     OW29005   1.926   3.041   1.663  0.2338 -0.1367 -0.5077
 5790SOL    HW129006   2.019   3.023   1.676  0.1596  0.5214  0.9166
 5790SOL    HW229007   1.925   3.130   1.629  0.0280  0.3173  0.6868
 5791SOL     OW29008   3.056   0.259  11.088 -0.2252  0.0228 -0.4049
 5791SOL    HW129009   3.006   0.285  11.165  0.2140  0.8376 -0.3945
 5791SOL    HW229010   2.986   0.259  11.023  0.2829  2.0379 -0.9474
 5792SOL     OW29011   2.057   2.570   5.765 -0.8262 -0.2649  0.3519
 5792SOL    HW129012   2.127   2.563   5.830 -0.7167 -0.1069  0.2504
 5792SOL    HW229013   2.096   2.635   5.707  1.1353  1.1109  3.1907
 5793SOL     OW29014   1.316   1.954   4.282 -0.6521  0.5755 -0.3797
 5793SOL    HW129015   1.262   1.921   4.210  0.8357 -1.0791 -0.7344
 5793SOL    HW229016   1.400   1.976   4.242 -0.7564  0.2026 -0.8113
 5794SOL     OW29017   0.443   2.035   5.788  0.0466  0.1656  0.5503
 5794SOL    HW129018   0.402   2.045   5.874  1.7934 -1.0718  1.5478
 5794SOL    HW229019   0.419   1.945   5.767  1.2401 -0.0586  0.1445
 5795SOL     OW29020   2.848   3.634   8.665 -0.2753  1.0379 -0.1379
 5795SOL    HW129021   2.924   3.675   8.625 -0.3008 -0.0266 -1.2909
 5795SOL    HW229022   2.774   3.691   8.643 -1.1465 -0.5436 -1.3286
 5796SOL     OW29023   3.218   0.571   0.783 -0.3219 -0.4241  0.4532
 5796SOL    HW129024   3.142   0.582   0.841 -1.5963 -0.8681 -1.1202
 5796SOL    HW229025   3.265   0.508   0.838  0.4283  0.9521  1.3706
 5797SOL     OW29026   4.202   3.341   4.698 -0.0992  0.1435  0.1100
 5797SOL    HW129027   4.295   3.319   4.701  0.1629  1.4833  1.5397
 5797SOL    HW229028   4.156   3.258   4.703 -1.8427  0.8292 -4.6176
 5798SOL     OW29029   1.956   3.087   8.794  0.2861  0.2235  0.4727
 5798SOL    HW129030   1.866   3.103   8.823  0.3015  0.9630  0.1166
 5798SOL    HW229031   1.981   3.007   8.838  2.9833  0.6949 -0.2104
 5799SOL     OW29032   0.680   1.254   0.927  0.2057  0.3644 -0.7293
 5799SOL    HW129033   0.655   1.216   0.843  0.7695 -0.6550 -0.4371
 5799SOL    HW229034   0.657   1.181   0.984  0.2151  0.7398 -0.2516
 5800SOL     OW29035   1.409   3.408   3.997 -0.2721  0.3721  0.2109
 5800SOL    HW129036   1.377   3.497   3.983  3.8539  1.3439 -2.9400
 5800SOL    HW229037   1.342   3.375   4.058  0.4581 -1.0473  0.2542
 5801SOL     OW29038   2.069   1.536   2.394  0.0304 -0.4251 -1.0609
 5801SOL    HW129039   2.016   1.498   2.464 -0.1040 -1.1189 -1.5362
 5801SOL    HW229040   2.039   1.627   2.393  3.2871  0.6489  4.0794
 5802SOL     OW29041   2.799   0.598   3.213 -0.3339  0.5215  0.1931
 5802SOL    HW129042   2.772   0.514   3.175 -1.5392  1.5419 -1.2220
 5802SOL    HW229043   2.722   0.598   3.270  0.8498 -1.5454  1.8055
 5803SOL     OW29044   3.568   3.288   7.703  0.1133  0.5936  0.6916
 5803SOL    HW129045   3.587   3.372   7.661 -0.4079  1.0669  1.4195
 5803SOL    HW229046   3.613   3.225   7.647  1.2001  1.7211  0.2980
 5804SOL     OW29047   1.006   0.123   2.505 -0.6423 -0.3580 -0.2823
 5804SOL    HW129048   1.060   0.194   2.539 -1.4178  0.6699 -1.2059
 5804SOL    HW229049   0.970   0.168   2.429  0.3264  0.6258 -0.1648
 5805SOL     OW29050   3.043   4.232   6.213  0.0262 -0.6481 -0.6009
 5805SOL    HW129051   2.982   4.188   6.272 -1.2404 -0.6355 -1.9170
 5805SOL    HW229052   3.001   4.213   6.129 -1.2092  0.3124 -0.1941
 5806SOL     OW29053   3.073   2.541  17.423  0.1303  0.1616 -0.0855
 5806SOL    HW129054   2.981   2.553  17.399  0.2063 -0.6893 -0.7923
 5806SOL    HW229055   3.094   2.473  17.359 -2.3029 -0.0047 -0.7360
 5807SOL     OW29056   3.168   0.463   8.872  1.0316  0.4690 -0.2448
 5807SOL    HW129057   3.092   0.474   8.929 -0.5620  0.2292 -2.3177
 5807SOL    HW229058   3.220   0.416   8.938  0.9124  1.5451  0.6200
 5808SOL     OW29059   2.470   0.538   1.107 -0.0190 -0.4359  0.2433
 5808SOL    HW129060   2.384   0.510   1.075 -0.3582  2.1038 -1.1000
 5808SOL    HW229061   2.507   0.464   1.155  1.0243  0.1792  0.3915
 5809SOL     OW29062   1.608   0.152   8.447 -0.2720 -0.6592  0.5065
 5809SOL    HW129063   1.668   0.194   8.385 -0.6815  0.3351  0.7754
 5809SOL    HW229064   1.604   0.209   8.524 -1.1369  0.5879 -0.4595
 5810SOL     OW29065   0.103   3.608  15.974  0.5957  0.2239 -0.4665
 5810SOL    HW129066   0.068   3.687  15.934 -0.7024 -0.1784 -0.1070
 5810SOL    HW229067   0.133   3.631  16.062  1.0267  3.1653 -1.3801
 5811SOL     OW29068   1.341   0.139  11.141 -0.0787  0.2721  0.0587
 5811SOL    HW129069   1.333   0.093  11.225 -0.5203 -1.4824 -0.9497
 5811SOL    HW229070   1.281   0.212  11.151 -0.6257  0.0293 -1.5025
 5812SOL     OW29071   1.599   2.173   4.687  0.0935  0.7292 -0.8184
 5812SOL    HW129072   1.647   2.255   4.701  1.4412 -0.2073  0.1122
 5812SOL    HW229073   1.665   2.106   4.704  0.3623  1.1296 -0.2592
 5813SOL     OW29074   1.171   1.951   7.306 -0.3600  0.1236 -0.1056
 5813SOL    HW129075   1.212   1.932   7.222  0.2601 -0.0401  0.2364
 5813SOL    HW229076   1.187   1.872   7.358  0.7519  0.0773 -0.5146
 5814SOL     OW29077   1.409   2.668   6.919  0.2453 -0.4706 -0.7487
 5814SOL    HW129078   1.335   2.654   6.860  0.1080  0.5233 -0.8178
 5814SOL    HW229079   1.473   2.699   6.855 -0.2847  0.3187 -0.8995
 5815SOL     OW29080   3.983   0.535   3.467 -0.6197 -0.0063 -0.6928
 5815SOL    HW129081   3.953   0.445   3.475  0.5812 -0.4619 -1.4390
 5815SOL    HW229082   3.976   0.558   3.560  1.2791 -0.4801 -0.4537
 5816SOL     OW29083   2.523   2.143   6.659 -0.1915 -0.2051 -0.8292
 5816SOL    HW129084   2.567   2.226   6.673 -0.3653 -0.4361  1.1364
 5816SOL    HW229085   2.441   2.171   6.618  0.5169  4.9486  1.2916
 5817SOL     OW29086   1.527   0.418   7.645  0.5390  0.1283  0.3767
 5817SOL    HW129087   1.485   0.332   7.634  0.1173  0.5610 -1.3758
 5817SOL    HW229088   1.450   0.467   7.674 -1.1780 -4.3397  3.4639
 5818SOL     OW29089   2.339   2.240   2.979 -0.1158  0.3637  0.3624
 5818SOL    HW129090   2.396   2.294   3.035  1.8874 -0.6825 -0.6660
 5818SOL    HW229091   2.272   2.297   2.942  0.8220  0.1876 -1.5720
 5819SOL     OW29092   0.945   4.368   8.236 -0.1962  0.2300 -0.1159
 5819SOL    HW129093   0.981   4.360   8.148 -2.2214  0.8370 -1.0082
 5819SOL    HW229094   0.905   4.454   8.228 -1.6642 -0.5604 -1.3181
 5820SOL     OW29095   1.542   0.154  12.063 -0.5037  0.3783 -0.1564
 5820SOL    HW129096   1.528   0.138  12.156 -0.7173 -2.5942 -0.7008
 5820SOL    HW229097   1.463   0.111  12.030 -0.6267  0.3958  0.1140
 5821SOL     OW29098   1.394   3.414  12.010 -0.1817  0.2600  0.5978
 5821SOL    HW129099   1.455   3.347  11.978 -0.4489 -0.2205  1.1019
 5821SOL    HW229100   1.346   3.437  11.930  0.7681 -1.7278 -0.5515
 5822SOL     OW29101   1.153   1.902   2.520 -0.2635  0.0222  0.7643
 5822SOL    HW129102   1.221   1.904   2.453  0.9643  0.9446  2.0347
 5822SOL    HW229103   1.094   1.963   2.474  1.9355  0.6598 -1.2469
 5823SOL     OW29104   0.976   4.700  14.264  0.1194  0.2074  0.6732
 5823SOL    HW129105   0.910   4.634  14.287 -0.9858  1.2916  0.6287
 5823SOL    HW229106   1.048   4.671  14.319  0.0825 -2.5575 -0.7204
 5824SOL     OW29107   3.417   1.287   1.063 -0.0592  0.2345 -0.1623
 5824SOL    HW129108   3.426   1.192   1.067 -0.2937  0.1499 -1.6754
 5824SOL    HW229109   3.507   1.316   1.078 -0.3650  1.5770 -0.9496
 5825SOL     OW29110   3.881   1.049   3.754 -0.2709  0.1439  0.5316
 5825SOL    HW129111   3.876   1.144   3.766 -0.7873  0.2796 -0.6662
 5825SOL    HW229112   3.805   1.039   3.697 -1.0936 -0.7208  1.7810
 5826SOL     OW29113   0.127   3.695   6.040 -0.0186 -0.1009  0.5661
 5826SOL    HW129114   0.170   3.741   6.112 -2.8718  1.3088  1.4047
 5826SOL    HW229115   0.182   3.617   6.053 -0.2656 -0.5438 -1.0632
 5827SOL     OW29116   0.964   2.569   3.637  0.1659  0.3367 -0.1519
 5827SOL    HW129117   0.873   2.551   3.615  0.2955 -0.7215  0.1833
 5827SOL    HW229118   0.957   2.553   3.731  2.0814  0.9668  0.1107
 5828SOL     OW29119   2.589   3.556  13.122 -0.0350  0.1023 -0.3335
 5828SOL    HW129120   2.585   3.541  13.027  1.0212  1.0781 -0.5254
 5828SOL    HW229121   2.520   3.622  13.134  0.4676  0.8903 -1.7743
 5829SOL     OW29122   1.378   0.706   4.530  1.0568 -0.1323 -0.2306
 5829SOL    HW129123   1.349   0.714   4.621 -1.3546  0.4141 -1.0272
 5829SOL    HW229124   1.391   0.796   4.499 -0.1156  0.8561  2.1366
 5830SOL     OW29125   4.283   0.208   9.302 -0.6767 -0.0957 -0.4987
 5830SOL    HW129126   4.271   0.197   9.397  2.2150  0.9138 -0.0071
 5830SOL    HW229127   4.242   0.135   9.258 -0.6542  0.8894 -2.1412
 5831SOL     OW29128   3.025   2.765  16.519 -0.5437  0.0881  0.1058
 5831SOL    HW129129   3.109   2.803  16.495 -0.9237  2.1077  1.9484
 5831SOL    HW229130   2.980   2.772  16.435  0.6060 -0.1925 -0.5281
 5832SOL     OW29131   1.952   0.832   9.478 -0.1492  0.3105  0.4203
 5832SOL    HW129132   1.862   0.860   9.495 -0.3509 -0.9572  1.5212
 5832SOL    HW229133   1.956   0.763   9.545  1.6859 -0.0607 -0.0703
 5833SOL     OW29134   1.375   0.982   4.812  0.1140 -0.1847 -0.4482
 5833SOL    HW129135   1.405   0.961   4.724 -1.2879 -0.5052 -0.8546
 5833SOL    HW229136   1.310   0.914   4.831 -0.5841 -0.0179 -2.3135
 5834SOL     OW29137   3.423   2.266   1.720 -0.2899  0.4740 -0.0230
 5834SOL    HW129138   3.434   2.198   1.787 -1.0947 -0.7230 -1.1240
 5834SOL    HW229139   3.502   2.248   1.669 -2.0614  1.0953 -2.9970
 5835SOL     OW29140   2.878   2.317  16.086 -0.6271 -0.6212  0.1785
 5835SOL    HW129141   2.798   2.335  16.135 -1.3579 -1.4731 -0.7214
 5835SOL    HW229142   2.891   2.222  16.087  2.7093 -0.1620  1.3654
 5836SOL     OW29143   1.342   2.204   2.550  0.2847  0.5379  0.7191
 5836SOL    HW129144   1.426   2.219   2.507 -0.1811  0.5201 -0.1942
 5836SOL    HW229145   1.367   2.236   2.637 -0.5737  0.2091  1.0904
 5837SOL     OW29146   4.051   3.583   7.733 -0.2208  0.8328 -0.1246
 5837SOL    HW129147   4.014   3.655   7.681 -3.6347 -0.7526  0.0838
 5837SOL    HW229148   3.981   3.576   7.798 -0.7758 -0.4795 -0.8537
 5838SOL     OW29149   1.625   1.148  10.360 -0.1806 -0.3370  0.0553
 5838SOL    HW129150   1.646   1.202  10.283 -1.6299 -0.1006 -0.1775
 5838SOL    HW229151   1.580   1.203  10.424 -1.8542 -0.1671 -1.2705
 5839SOL     OW29152   2.750   4.277   9.236 -0.2392 -0.1600 -0.2109
 5839SOL    HW129153   2.795   4.358   9.211 -2.2369  0.5279 -1.4952
 5839SOL    HW229154   2.733   4.230   9.155  0.5736  0.8707 -0.9791
 5840SOL     OW29155   0.444   1.840   5.413  0.0932 -0.1894 -0.3602
 5840SOL    HW129156   0.519   1.879   5.458 -0.1587 -0.6116  0.4417
 5840SOL    HW229157   0.387   1.916   5.417 -0.2726 -0.4155 -1.2044
 5841SOL     OW29158   1.112   2.347   9.247  0.4224 -0.0548  0.3256
 5841SOL    HW129159   1.113   2.341   9.343  2.5163  3.2030  0.4987
 5841SOL    HW229160   1.064   2.427   9.223 -2.7498 -1.6554  1.3260
 5842SOL     OW29161   1.594   4.283   7.923 -0.4970 -0.4529  0.2310
 5842SOL    HW129162   1.615   4.242   7.840  2.2936 -1.9629  1.7106
 5842SOL    HW229163   1.667   4.252   7.976  0.1201  0.6719  0.0414
 5843SOL     OW29164   3.997   3.575   7.011  0.1496 -0.3216  0.0398
 5843SOL    HW129165   4.048   3.654   6.992 -0.3566  0.4529  1.9423
 5843SOL    HW229166   3.986   3.535   6.925 -1.6540  1.0934 -0.3780
 5844SOL     OW29167   3.701   1.031  12.959 -0.8027  0.7024 -0.1402
 5844SOL    HW129168   3.612   1.039  12.924 -1.6348 -0.4872  1.7278
 5844SOL    HW229169   3.689   1.052  13.052  0.5210 -0.3092  0.2495
 5845SOL     OW29170   0.963   0.567   8.383 -0.0751  0.4780 -0.3287
 5845SOL    HW129171   1.001   0.479   8.374 -0.2880  0.2445  1.0326
 5845SOL    HW229172   0.933   0.574   8.474 -1.9170 -0.0544 -0.8932
 5846SOL     OW29173   4.250   3.263  12.033 -0.1656  0.0174 -0.1918
 5846SOL    HW129174   4.268   3.255  11.940 -1.9475  0.1850 -0.5452
 5846SOL    HW229175   4.202   3.346  12.025  2.9798  1.6172 -2.4436
 5847SOL     OW29176   4.677   0.109   5.278 -0.2348 -0.2466  0.7527
 5847SOL    HW129177   4.626   0.030   5.293 -1.6392  0.5738  0.3099
 5847SOL    HW229178   4.646   0.139   5.192  0.9115  0.8335  0.7122
 5848SOL     OW29179   1.437   3.763   2.743 -0.1365 -0.4395 -0.2144
 5848SOL    HW129180   1.403   3.837   2.694  0.8030  0.2131  0.1109
 5848SOL    HW229181   1.367   3.699   2.757  1.1686 -1.8184 -0.0212
 5849SOL     OW29182   1.491   0.865   1.267  0.7935 -0.0252  0.2659
 5849SOL    HW129183   1.578   0.873   1.306 -0.3655 -0.2401  2.9084
 5849SOL    HW229184   1.429   0.890   1.336  2.8224 -0.4255  2.2224
 5850SOL     OW29185   4.479   0.933   2.949  0.0488 -0.0879  0.5923
 5850SOL    HW129186   4.565   0.941   2.907 -0.0742 -2.2417 -0.0578
 5850SOL    HW229187   4.460   1.026   2.935 -0.5822 -0.3354 -0.1495
 5851SOL     OW29188   0.448   3.071   3.064  0.0641 -0.5196 -0.2751
 5851SOL    HW129189   0.453   3.040   3.154 -0.6247 -1.6765 -0.6419
 5851SOL    HW229190   0.420   3.158   3.092 -0.0715 -0.2331 -1.2864
 5852SOL     OW29191   0.362   0.045   0.025  0.3079  0.2403  0.1720
 5852SOL    HW129192   0.325   4.732  17.722  0.2941  0.4934 -0.0239
 5852SOL    HW229193   0.371   4.722   0.095  0.5022 -0.0168 -0.0896
 5853SOL     OW29194   0.622   0.193   6.382 -0.2151  0.0517  0.1391
 5853SOL    HW129195   0.595   0.282   6.359  2.3184  0.1809 -2.3380
 5853SOL    HW229196   0.681   0.181   6.308 -0.2947 -0.0093  0.0857
 5854SOL     OW29197   4.370   1.804   2.725  0.3720  0.1617  0.0429
 5854SOL    HW129198   4.359   1.855   2.805 -0.2487  1.1575 -0.6764
 5854SOL    HW229199   4.327   1.721   2.748  1.4565 -0.2103  0.7341
 5855SOL     OW29200   1.837   3.116   7.670 -0.1321 -0.5314  0.4028
 5855SOL    HW129201   1.911   3.071   7.630 -0.6810 -0.0430 -1.1694
 5855SOL    HW229202   1.769   3.049   7.664  0.6193 -1.3220  0.7735
 5856SOL     OW29203   0.573   2.871  12.152  0.4458  0.3771  0.2545
 5856SOL    HW129204   0.492   2.883  12.104 -0.3973 -0.4878  1.4507
 5856SOL    HW229205   0.572   2.777  12.167 -0.8232  0.2209 -0.8715
 5857SOL     OW29206   4.429   3.088  17.534  0.2196 -0.8519  0.1301
 5857SOL    HW129207   4.419   3.065  17.441  0.1459 -0.2180 -0.0222
 5857SOL    HW229208   4.342   3.069  17.567 -0.9600  2.8009 -0.8090
 5858SOL     OW29209   2.586   3.866  16.109 -0.4692 -0.4273 -0.1663
 5858SOL    HW129210   2.645   3.873  16.034  1.3867  0.6054  1.4043
 5858SOL    HW229211   2.511   3.924  16.099 -0.3554 -0.5019 -1.3975
 5859SOL     OW29212   0.545   1.470   0.960  0.4753  0.1273  0.2635
 5859SOL    HW129213   0.608   1.399   0.947 -0.2254 -0.3806 -0.3330
 5859SOL    HW229214   0.475   1.424   1.007 -0.0590 -0.9694 -1.6288
 5860SOL     OW29215   4.539   4.717  11.398  0.0519  0.4234 -0.5200
 5860SOL    HW129216   4.575   0.060  11.375  0.3551  1.4609  3.7358
 5860SOL    HW229217   4.583   4.655  11.341  1.3850  1.9724 -1.1647
 5861SOL     OW29218   0.505   4.111  17.224  0.0764 -0.0937 -0.9680
 5861SOL    HW129219   0.465   4.180  17.172 -1.1011 -0.5171 -0.6398
 5861SOL    HW229220   0.593   4.147  17.231  0.7624 -1.4827 -2.4962
 5862SOL     OW29221   3.914   2.396   3.383  0.0267 -0.3688  0.4047
 5862SOL    HW129222   3.902   2.408   3.478 -2.5860  1.0232 -0.1054
 5862SOL    HW229223   3.823   2.391   3.354  0.2382  0.2165 -0.3367
 5863SOL     OW29224   2.645   3.182  11.477 -0.3832 -0.0769 -0.1629
 5863SOL    HW129225   2.625   3.090  11.487 -0.9819  0.0273 -0.4234
 5863SOL    HW229226   2.675   3.166  11.388 -0.0874  1.1101 -0.2886
 5864SOL     OW29227   2.663   0.171   0.390  0.2471 -0.0196 -0.1444
 5864SOL    HW129228   2.646   0.118   0.312  1.4205  1.8702 -1.6947
 5864SOL    HW229229   2.752   0.203   0.378 -0.0718 -0.0758 -2.8637
 5865SOL     OW29230   3.783   0.288   3.083  0.3742  0.3172 -0.3046
 5865SOL    HW129231   3.704   0.330   3.050 -1.1968 -2.7908 -0.4462
 5865SOL    HW229232   3.841   0.293   3.007 -0.5250 -2.5540 -1.1850
 5866SOL     OW29233   3.115   1.651  12.485 -0.2256  0.4652  0.0331
 5866SOL    HW129234   3.176   1.694  12.424  2.5042 -3.9716 -0.3789
 5866SOL    HW229235   3.086   1.584  12.424 -2.0076  1.4773 -0.2524
 5867SOL     OW29236   0.866   0.559   8.646  0.3631 -0.0779 -1.0201
 5867SOL    HW129237   0.800   0.493   8.669 -0.2749  0.1016 -2.3600
 5867SOL    HW229238   0.944   0.508   8.669  0.8705  1.4610  0.6652
 5868SOL     OW29239   3.066   2.981   8.689  0.0913 -0.1480 -0.0111
 5868SOL    HW129240   3.026   2.926   8.623  0.7807  0.1845 -0.7054
 5868SOL    HW229241   3.010   2.968   8.765  0.5003 -1.2763  0.0886
 5869SOL     OW29242   4.741   2.676   1.551  0.1083 -0.6579 -0.3247
 5869SOL    HW129243   0.034   2.669   1.640 -0.6398 -0.4227 -0.0089
 5869SOL    HW229244   0.060   2.633   1.491 -1.2729  0.3031 -2.4090
 5870SOL     OW29245   2.196   1.314   8.877  0.4175 -0.0021 -0.5541
 5870SOL    HW129246   2.261   1.370   8.834  1.4267  0.7315  1.9030
 5870SOL    HW229247   2.246   1.232   8.877  2.3653  1.1678  1.8011
 5871SOL     OW29248   3.831   2.697   7.852  0.0026 -0.1344  0.7983
 5871SOL    HW129249   3.740   2.676   7.871  0.2454 -2.0891 -0.2521
 5871SOL    HW229250   3.862   2.720   7.939 -2.3565  0.7507  1.4025
 5872SOL     OW29251   1.733   2.933   3.634 -0.0461 -0.1923  0.4039
 5872SOL    HW129252   1.705   2.849   3.669  3.0999 -0.9676  0.9938
 5872SOL    HW229253   1.758   2.897   3.549 -0.9887  2.9838 -1.2338
 5873SOL     OW29254   0.373   2.301   2.137  0.4152 -0.1842  0.1865
 5873SOL    HW129255   0.416   2.348   2.208  0.1476 -0.9916  0.8875
 5873SOL    HW229256   0.451   2.277   2.086  1.0992  0.6366  0.8423
 5874SOL     OW29257   0.508   1.967  11.097 -0.2681  0.4842  0.3818
 5874SOL    HW129258   0.568   1.895  11.116 -1.0013 -0.7454 -2.0012
 5874SOL    HW229259   0.459   1.937  11.020  0.0004  0.4227  0.2355
 5875SOL     OW29260   2.683   3.269   8.254 -0.3143  0.4538 -0.9139
 5875SOL    HW129261   2.612   3.218   8.214 -0.3277 -1.0366  0.9820
 5875SOL    HW229262   2.656   3.357   8.230  0.0594  1.2734  1.6112
 5876SOL     OW29263   1.252   1.683  12.845  0.0127  0.0215  0.0284
 5876SOL    HW129264   1.197   1.745  12.797  0.4714  0.9650  0.7362
 5876SOL    HW229265   1.200   1.650  12.918 -0.0124  0.5283  0.2386
 5877SOL     OW29266   3.147   0.089  13.546  0.0541 -0.0580  0.2897
 5877SOL    HW129267   3.091   0.134  13.610 -0.5558 -1.7089  0.9107
 5877SOL    HW229268   3.086   0.097  13.472  0.5775 -0.7121 -0.2095
 5878SOL     OW29269   2.092   1.914   2.666  0.3253  0.2938 -0.1488
 5878SOL    HW129270   2.022   1.853   2.689  0.9685 -1.1896 -2.0779
 5878SOL    HW229271   2.169   1.860   2.685  0.3368  0.3439 -0.0520
 5879SOL     OW29272   1.206   2.156   2.993 -0.2268  0.5321 -0.6023
 5879SOL    HW129273   1.126   2.209   2.996 -0.8422 -0.4157 -0.1944
 5879SOL    HW229274   1.221   2.136   3.085 -2.5064  0.7983 -0.1702
 5880SOL     OW29275   0.597   4.029  15.217  0.4297 -0.4079  0.2520
 5880SOL    HW129276   0.636   4.078  15.289  2.3149 -0.6008 -0.6418
 5880SOL    HW229277   0.640   4.070  15.142  0.0490 -2.6378 -1.1962
 5881SOL     OW29278   1.910   4.177  10.172  0.4192 -0.2172 -0.1786
 5881SOL    HW129279   1.986   4.190  10.116  0.8827 -0.3250  0.4365
 5881SOL    HW229280   1.854   4.252  10.151  1.6195  0.6226 -0.3321
 5882SOL     OW29281   1.536   4.063  14.049 -0.5623 -0.2786 -0.3416
 5882SOL    HW129282   1.523   4.133  14.113 -0.0526 -1.2886  0.8611
 5882SOL    HW229283   1.576   4.110  13.976 -0.2086 -2.2232 -1.3893
 5883SOL     OW29284   0.629   1.895   7.359  0.3377 -0.0548 -0.0751
 5883SOL    HW129285   0.713   1.853   7.340  0.3596 -0.0220 -0.0516
 5883SOL    HW229286   0.658   1.982   7.332 -0.2125  0.0737 -0.2391
 5884SOL     OW29287   1.600   3.335   8.003  0.1213  0.0769 -0.1584
 5884SOL    HW129288   1.635   3.246   7.997 -1.7841 -0.6918  0.0850
 5884SOL    HW229289   1.581   3.347   7.910  1.6272  0.5826 -0.4069
 5885SOL     OW29290   1.636   2.173  17.116  0.8302  0.4288  0.4828
 5885SOL    HW129291   1.700   2.183  17.046 -0.9658 -1.2163 -1.3857
 5885SOL    HW229292   1.591   2.096  17.082  1.5427 -0.2118  0.9881
 5886SOL     OW29293   3.873   4.413   8.538 -0.2769  0.2020 -0.4399
 5886SOL    HW129294   3.792   4.455   8.507 -0.0628 -1.1889 -2.9128
 5886SOL    HW229295   3.832   4.335   8.574  0.6057  0.9038  2.0281
 5887SOL     OW29296   2.008   3.364  11.568  0.0764  0.3437 -0.2474
 5887SOL    HW129297   2.061   3.285  11.557 -2.6031 -1.2908 -1.2285
 5887SOL    HW229298   1.932   3.328  11.612  0.8256 -0.4061  0.4428
 5888SOL     OW29299   3.081   0.517   6.046  0.0007 -0.3851  0.4476
 5888SOL    HW129300   3.070   0.534   6.140  0.9433 -0.0628  0.4952
 5888SOL    HW229301   2.993   0.490   6.020  0.1435 -0.7706  0.3705
 5889SOL     OW29302   1.985   1.816   9.521 -0.1178 -0.1893 -0.9124
 5889SOL    HW129303   1.947   1.870   9.590 -0.0412 -0.4133 -0.6959
 5889SOL    HW229304   2.014   1.745   9.578  1.0602  0.8201 -0.2380
 5890SOL     OW29305   4.512   1.337   8.705 -0.0051  0.3595 -0.4937
 5890SOL    HW129306   4.474   1.363   8.789  0.9584  0.5079 -0.0942
 5890SOL    HW229307   4.472   1.399   8.643 -0.2121  0.8800  0.1568
 5891SOL     OW29308   1.000   0.247   0.367  0.2807 -0.5665  0.2655
 5891SOL    HW129309   0.947   0.276   0.293  1.1761  0.3426 -0.0139
 5891SOL    HW229310   1.009   0.325   0.422  0.6204 -0.2869 -0.1980
 5892SOL     OW29311   0.901   4.335  14.794  0.2446  0.6992 -0.2741
 5892SOL    HW129312   0.994   4.325  14.773  0.5707 -0.3107  1.6501
 5892SOL    HW229313   0.862   4.325  14.707 -2.8166 -2.1924  1.4164
 5893SOL     OW29314   0.414   3.132   7.984  0.6241  0.0082 -0.6483
 5893SOL    HW129315   0.453   3.183   7.913 -2.9914  2.2592 -1.0063
 5893SOL    HW229316   0.485   3.122   8.047 -1.6490 -2.7536  1.4872
 5894SOL     OW29317   3.434   1.600   4.022 -0.0426 -0.0988  0.0885
 5894SOL    HW129318   3.495   1.558   3.963 -0.6590  0.2260 -0.7815
 5894SOL    HW229319   3.467   1.689   4.035 -0.2336 -0.0930  0.5433
 5895SOL     OW29320   1.509   3.038   0.580  0.1216  0.1354 -0.1784
 5895SOL    HW129321   1.566   3.013   0.507  0.1030  0.9328 -0.4586
 5895SOL    HW229322   1.570   3.080   0.640 -0.4284  0.1544  0.3739
 5896SOL     OW29323   2.428   4.061   6.086  0.4716  0.0849 -0.7350
 5896SOL    HW129324   2.368   3.986   6.083  0.3420  0.2317 -1.8966
 5896SOL    HW229325   2.398   4.118   6.156  1.1661 -1.6228  0.9435
 5897SOL     OW29326   2.891   0.671   8.852 -0.0979  0.2238 -0.3066
 5897SOL    HW129327   2.897   0.651   8.945  0.4244  3.2616  0.3089
 5897SOL    HW229328   2.797   0.685   8.838  0.0196  0.1035 -1.2571
 5898SOL     OW29329   0.326   0.543   2.028  0.0824 -0.2392 -0.4272
 5898SOL    HW129330   0.264   0.513   1.962 -0.2196 -0.7797  0.1094
 5898SOL    HW229331   0.406   0.540   1.975  0.3037 -2.8307  0.0775
 5899SOL     OW29332   4.385   0.518  16.753  0.1162  0.2375 -0.1397
 5899SOL    HW129333   4.359   0.501  16.843  1.9604 -1.6901  0.0344
 5899SOL    HW229334   4.303   0.564  16.734  0.2612  1.1733  1.5899
 5900SOL     OW29335   3.569   0.373   1.939 -0.4591  0.1268  0.4457
 5900SOL    HW129336   3.578   0.462   1.906 -1.3400 -0.4921 -1.4719
 5900SOL    HW229337   3.543   0.384   2.031  1.9811 -1.4252  1.3203
 5901SOL     OW29338   2.012   4.227   0.943  0.4785  0.4319  0.4589
 5901SOL    HW129339   2.020   4.309   0.894  0.1928 -0.7283 -1.5160
 5901SOL    HW229340   1.972   4.175   0.874  1.9107  0.8675 -0.7042
 5902SOL     OW29341   3.007   1.510   6.874 -0.1876  0.0249  0.2936
 5902SOL    HW129342   2.961   1.572   6.930  0.1476  1.4587 -1.0159
 5902SOL    HW229343   3.077   1.569   6.846  1.1815 -1.1943  1.1699
 5903SOL     OW29344   2.657   3.408   6.502 -0.3163  0.1528  0.1238
 5903SOL    HW129345   2.602   3.420   6.424  2.6552  1.7372 -1.7269
 5903SOL    HW229346   2.694   3.496   6.503 -1.1129  0.4952 -0.0485
 5904SOL     OW29347   1.630   4.542  12.841  0.8360 -0.4052  0.0274
 5904SOL    HW129348   1.719   4.571  12.863  0.4508 -0.5812  1.7991
 5904SOL    HW229349   1.647   4.482  12.769 -2.6922 -0.7434 -0.5147
 5905SOL     OW29350   0.904   4.409   3.473  0.0056 -0.1911 -0.4710
 5905SOL    HW129351   0.848   4.477   3.435 -1.0654 -2.0354 -2.1905
 5905SOL    HW229352   0.931   4.351   3.401 -1.9923  1.3790 -2.4877
 5906SOL     OW29353   0.026   3.889   5.280  0.4883  0.0899 -0.3996
 5906SOL    HW129354   0.032   3.820   5.347 -1.2494  2.3045  2.0030
 5906SOL    HW229355   4.680   3.922   5.296  0.7370  1.6684 -2.3732
 5907SOL     OW29356   2.120   1.224  10.328  0.6529  0.1532  0.0179
 5907SOL    HW129357   2.040   1.239  10.378  0.5179 -1.9847  0.4215
 5907SOL    HW229358   2.078   1.212  10.243  0.0477 -1.1738  0.5087
 5908SOL     OW29359   4.521   1.350   6.805 -0.0014  0.2175  0.0948
 5908SOL    HW129360   4.596   1.349   6.865  0.6397 -2.5801 -0.7533
 5908SOL    HW229361   4.457   1.390   6.865  0.0281 -0.4196  0.5597
 5909SOL     OW29362   4.245   1.147   9.196 -0.0146  0.1451 -0.2760
 5909SOL    HW129363   4.252   1.077   9.261  1.1655 -0.8575 -1.4727
 5909SOL    HW229364   4.225   1.101   9.115  2.7076 -0.5817 -0.5447
 5910SOL     OW29365   0.857   2.980  11.189 -0.4191 -0.2667 -0.2235
 5910SOL    HW129366   0.802   2.959  11.264 -0.2331 -2.2750 -0.6324
 5910SOL    HW229367   0.838   2.903  11.136  0.8938 -0.9995  0.3533
 5911SOL     OW29368   3.847   3.637   5.329  0.4323 -0.9235  0.1433
 5911SOL    HW129369   3.756   3.634   5.358 -0.1228  1.8362 -1.2875
 5911SOL    HW229370   3.873   3.548   5.306  2.6020 -0.0136 -0.9657
 5912SOL     OW29371   1.498   3.566   7.454 -0.1045  0.1721 -0.5123
 5912SOL    HW129372   1.422   3.550   7.399  0.0236  1.2353 -1.0062
 5912SOL    HW229373   1.516   3.651   7.412  0.6674 -0.9014 -2.3337
 5913SOL     OW29374   4.741   4.028   0.648  0.2181  0.2087 -0.3429
 5913SOL    HW129375   0.054   4.011   0.724  2.0954  2.2292 -1.2509
 5913SOL    HW229376   4.729   3.935   0.634  0.1655 -0.2669  2.7498
 5914SOL     OW29377   3.344   4.489   2.769  0.1237 -0.4627 -0.0889
 5914SOL    HW129378   3.401   4.523   2.699 -0.2609 -2.7110 -1.4751
 5914SOL    HW229379   3.309   4.573   2.798 -0.5509 -0.2191 -1.5968
 5915SOL     OW29380   3.807   3.019  17.708 -0.0339 -0.2063 -0.2292
 5915SOL    HW129381   3.824   3.113  17.719 -1.5708  0.1380 -0.7493
 5915SOL    HW229382   3.799   2.993  17.616 -1.5539  0.1332 -0.1826
 5916SOL     OW29383   1.655   0.937   8.626 -0.2222 -0.1039  0.0411
 5916SOL    HW129384   1.711   1.008   8.595 -0.5399  1.4142  2.9431
 5916SOL    HW229385   1.659   0.938   8.721  1.9004 -0.5341 -0.0621
 5917SOL     OW29386   0.423   3.142   1.344 -0.0560 -0.5319 -0.0439
 5917SOL    HW129387   0.393   3.216   1.396 -2.1691 -2.7084  1.8626
 5917SOL    HW229388   0.500   3.178   1.300 -0.4370 -1.0234 -1.1164
 5918SOL     OW29389   2.033   2.892   7.019 -0.0453  0.2164 -0.2650
 5918SOL    HW129390   2.083   2.885   6.937 -1.0749  0.8197 -0.9440
 5918SOL    HW229391   2.069   2.970   7.061 -1.7382  0.1103  1.3634
 5919SOL     OW29392   2.955   2.917   5.566  0.1223  0.3324 -0.2438
 5919SOL    HW129393   2.956   3.012   5.575 -0.3958  0.3816 -0.7278
 5919SOL    HW229394   2.877   2.892   5.617 -1.2721  2.6383 -1.2330
 5920SOL     OW29395   0.928   2.177  15.001  0.2942  0.2794 -0.2220
 5920SOL    HW129396   0.860   2.222  15.051 -1.7283 -0.9432 -1.8562
 5920SOL    HW229397   0.932   2.228  14.920  1.5537 -1.0632 -1.0057
 5921SOL     OW29398   0.771   0.666   1.600  0.6246  0.5069 -0.1297
 5921SOL    HW129399   0.772   0.704   1.512 -1.0634  1.7521  0.3992
 5921SOL    HW229400   0.802   0.734   1.659  0.1603 -0.4493  1.2222
 5922SOL     OW29401   2.741   3.777  12.574 -0.3325 -0.2487  0.0278
 5922SOL    HW129402   2.676   3.708  12.559  0.6358 -1.1351 -0.0792
 5922SOL    HW229403   2.818   3.727  12.549 -0.6201 -1.2272  1.0998
 5923SOL     OW29404   2.669   3.896   6.630  0.1937 -0.1009 -0.0946
 5923SOL    HW129405   2.659   3.820   6.688 -1.2593  0.8370  0.8899
 5923SOL    HW229406   2.763   3.887   6.618  0.0162 -1.3698 -0.5393
 5924SOL     OW29407   2.931   1.687   3.570  0.2072  0.6946  0.2895
 5924SOL    HW129408   3.020   1.720   3.562  0.0194  0.8214 -1.3015
 5924SOL    HW229409   2.935   1.623   3.641  2.4062 -0.4367 -0.8431
 5925SOL     OW29410   4.135   2.720  17.491 -0.6396  0.1690  0.4278
 5925SOL    HW129411   4.192   2.793  17.466  1.2113 -1.6056 -0.5468
 5925SOL    HW229412   4.091   2.760  17.566 -0.8239 -0.1130  0.4693
 5926SOL     OW29413   3.076   1.287   7.649  0.0453 -0.4361  0.2494
 5926SOL    HW129414   3.072   1.268   7.556  1.7558 -1.9168  0.4900
 5926SOL    HW229415   3.134   1.217   7.680 -0.3971  0.7031  3.6542
 5927SOL     OW29416   3.600   3.946   7.045  0.5033 -0.9707 -0.0668
 5927SOL    HW129417   3.518   3.960   6.998 -0.2164 -1.5722  1.0081
 5927SOL    HW229418   3.625   3.862   7.007  0.6686 -0.3989 -1.2317
 5928SOL     OW29419   0.572   1.793  16.876  0.1047  0.2088 -0.4158
 5928SOL    HW129420   0.593   1.730  16.946  0.8278 -1.0194 -1.7407
 5928SOL    HW229421   0.581   1.881  16.911 -2.6673 -0.5468  2.3152
 5929SOL     OW29422   3.847   1.451   1.519 -0.0434 -0.2728 -0.3257
 5929SOL    HW129423   3.884   1.504   1.449  1.1821  1.9357  1.9901
 5929SOL    HW229424   3.861   1.507   1.596 -1.8342  0.0715 -0.2474
 5930SOL     OW29425   4.479   2.592   0.094 -0.0064  0.0129  0.1216
 5930SOL    HW129426   4.494   2.673   0.044  2.3171 -1.4607 -1.5296
 5930SOL    HW229427   4.384   2.588   0.081 -0.1922  0.3880  1.3260
 5931SOL     OW29428   0.812   1.661   2.913 -0.1914  0.4808 -0.3306
 5931SOL    HW129429   0.883   1.645   2.975  0.5552  2.8336 -0.5529
 5931SOL    HW229430   0.809   1.757   2.907  2.8879  0.6688  1.1439
 5932SOL     OW29431   2.368   2.387  12.710  0.1752 -0.4046 -0.2245
 5932SOL    HW129432   2.399   2.462  12.759  2.1842 -0.7606 -0.9755
 5932SOL    HW229433   2.323   2.339  12.780 -1.2268  1.2268 -0.0143
 5933SOL     OW29434   4.508   0.386   5.301  0.2019  0.1327  0.7587
 5933SOL    HW129435   4.429   0.369   5.250  1.5664  0.2099 -1.3739
 5933SOL    HW229436   4.523   0.306   5.352 -4.4018 -1.0413  0.3262
 5934SOL     OW29437   1.453   0.556   0.132  0.1578  1.0296 -0.5296
 5934SOL    HW129438   1.452   0.651   0.118 -0.2841  0.8828 -1.4628
 5934SOL    HW229439   1.539   0.558   0.175  0.8629 -1.0042 -1.8481
 5935SOL     OW29440   4.606   3.282   4.237  0.0230 -0.0664  0.1892
 5935SOL    HW129441   4.628   3.251   4.325 -0.9324  0.3538  0.5810
 5935SOL    HW229442   4.519   3.320   4.250 -0.0936 -0.0584 -0.5903
 5936SOL     OW29443   4.133   1.491   0.126  0.0896  0.3824 -0.3488
 5936SOL    HW129444   4.157   1.518   0.037  0.3669 -1.5065 -0.8527
 5936SOL    HW229445   4.052   1.440   0.126 -1.0564  2.2051 -1.8856
 5937SOL     OW29446   2.147   1.261   9.928  0.0278 -0.8707  0.1845
 5937SOL    HW129447   2.227   1.230   9.886  0.4559 -2.2936  2.0837
 5937SOL    HW229448   2.182   1.340   9.970 -1.1509 -0.6993  0.8247
 5938SOL     OW29449   2.138   4.375   3.143 -0.1019 -0.0239  0.5113
 5938SOL    HW129450   2.069   4.381   3.209 -0.4734 -2.7833  0.4067
 5938SOL    HW229451   2.168   4.287   3.169  1.0819 -0.1196 -1.1649
 5939SOL     OW29452   0.956   3.430   7.703  0.0945  0.6671  0.3466
 5939SOL    HW129453   0.943   3.420   7.609  0.6803 -1.4393  0.4984
 5939SOL    HW229454   0.989   3.520   7.699 -0.4190  0.7896 -1.1417
 5940SOL     OW29455   1.935   4.470  11.377  0.4827 -0.5970  0.0190
 5940SOL    HW129456   1.919   4.552  11.424  1.7710 -0.2555 -0.1395
 5940SOL    HW229457   1.952   4.423  11.458 -1.2198 -0.5485  0.4012
 5941SOL     OW29458   1.483   1.606   4.667  0.1392 -0.8144  0.2437
 5941SOL    HW129459   1.406   1.574   4.714  1.1905  0.7613  3.0415
 5941SOL    HW229460   1.450   1.675   4.609  2.9358  1.0994  0.9455
 5942SOL     OW29461   1.180   2.244  14.021  0.0097 -0.5403  0.0069
 5942SOL    HW129462   1.188   2.194  13.940  1.7154 -2.9520  1.6682
 5942SOL    HW229463   1.269   2.238  14.056  0.5031  1.2746 -0.9073
 5943SOL     OW29464   4.174   3.543  12.864  0.4883  0.5782  0.2507
 5943SOL    HW129465   4.207   3.454  12.880 -1.6783 -0.7351 -2.5691
 5943SOL    HW229466   4.089   3.528  12.822  0.3277  1.3347  0.3054
 5944SOL     OW29467   0.242   1.480  13.435 -0.4673 -0.0812 -0.0916
 5944SOL    HW129468   0.212   1.427  13.361  1.0821  0.0136 -0.7938
 5944SOL    HW229469   0.182   1.555  13.440 -0.0914  0.2347 -0.2826
 5945SOL     OW29470   0.730   2.566   0.630  0.2885 -0.0364 -0.1082
 5945SOL    HW129471   0.664   2.537   0.693  1.6581 -1.8350  0.4944
 5945SOL    HW229472   0.736   2.655   0.666  1.0839 -0.5813  1.1360
 5946SOL     OW29473   4.190   2.131  12.082 -0.0254 -0.2462 -0.2080
 5946SOL    HW129474   4.108   2.163  12.045  1.3516  1.7695 -1.4555
 5946SOL    HW229475   4.147   2.064  12.135  0.5014  0.1058  0.6829
 5947SOL     OW29476   4.381   0.510  17.023 -0.0093  0.8066 -0.4426
 5947SOL    HW129477   4.464   0.464  17.036 -0.7757  0.1185  2.0141
 5947SOL    HW229478   4.406   0.589  17.071 -0.1349  0.5354  0.0672
 5948SOL     OW29479   3.131   3.623   9.207 -0.2036  0.1210  0.4190
 5948SOL    HW129480   3.102   3.622   9.115  0.2223  1.2184  0.2854
 5948SOL    HW229481   3.102   3.709   9.235 -1.0702 -0.2968  0.8075
 5949SOL     OW29482   0.459   0.272   6.096  0.2368  0.4677 -0.1441
 5949SOL    HW129483   0.511   0.317   6.029 -0.5627 -1.1368 -1.8650
 5949SOL    HW229484   0.460   0.334   6.168 -0.7021 -1.1559  1.2639
 5950SOL     OW29485   3.867   1.033   8.208  0.2999 -0.4555 -0.4791
 5950SOL    HW129486   3.881   0.995   8.295  0.0298  1.1789  0.2763
 5950SOL    HW229487   3.877   1.119   8.249 -1.0497 -0.4251 -0.2240
 5951SOL     OW29488   1.758   2.519   9.921 -0.1267 -0.3066  0.4551
 5951SOL    HW129489   1.782   2.611   9.910  1.0771 -0.9188 -2.1310
 5951SOL    HW229490   1.744   2.496   9.829 -0.8007 -0.3680  0.5750
 5952SOL     OW29491   3.235   3.702   6.645 -0.3559 -0.2445 -0.1521
 5952SOL    HW129492   3.319   3.658   6.633 -0.4596 -0.8685  1.4651
 5952SOL    HW229493   3.255   3.744   6.728  1.9731 -0.5838 -0.5450
 5953SOL     OW29494   1.213   0.786  11.864  0.2842  0.4178 -0.5540
 5953SOL    HW129495   1.290   0.746  11.905  0.9631 -0.0368 -2.2334
 5953SOL    HW229496   1.224   0.752  11.775  1.9988 -1.5994  0.4177
 5954SOL     OW29497   3.596   0.316  15.409 -0.6387 -0.3420  0.2444
 5954SOL    HW129498   3.555   0.234  15.383 -2.1035 -0.0449  1.6211
 5954SOL    HW229499   3.657   0.278  15.472 -1.1631 -0.2369  0.8122
 5955SOL     OW29500   1.039   2.409   4.894  0.1979  0.3351  0.4726
 5955SOL    HW129501   1.078   2.490   4.927  1.8744  0.0175 -0.7530
 5955SOL    HW229502   1.120   2.359   4.884  1.2462  1.9827  0.7329
 5956SOL     OW29503   1.972   2.723  10.987  0.2914  0.2830  0.4580
 5956SOL    HW129504   1.991   2.793  10.926  0.0466  0.0554  0.1205
 5956SOL    HW229505   1.907   2.771  11.040 -0.1712 -1.5567  1.5701
 5957SOL     OW29506   3.139   0.065   1.561  0.4202 -0.1383  0.2710
 5957SOL    HW129507   3.141   0.161   1.568  1.6909 -0.0441 -1.4617
 5957SOL    HW229508   3.197   0.034   1.630  2.2007 -0.0013 -1.1854
 5958SOL     OW29509   3.584   3.890   1.424 -0.0530 -0.3549  0.7747
 5958SOL    HW129510   3.598   3.839   1.504  0.3593 -1.9457 -0.3297
 5958SOL    HW229511   3.586   3.978   1.463 -0.0175 -0.9215  2.0435
 5959SOL     OW29512   0.842   1.676   4.915 -0.4078 -0.5198 -0.0578
 5959SOL    HW129513   0.790   1.677   4.834  0.8825 -1.1082 -0.8909
 5959SOL    HW229514   0.897   1.752   4.896 -1.6177  0.6121  0.9544
 5960SOL     OW29515   2.097   2.251   3.426 -0.1286  0.3673 -0.3325
 5960SOL    HW129516   2.084   2.221   3.336 -1.4220 -2.0495  0.6746
 5960SOL    HW229517   2.102   2.342   3.397  0.4592 -0.1326 -1.8352
 5961SOL     OW29518   2.730   3.361   6.760 -0.0827  0.5648 -0.4066
 5961SOL    HW129519   2.711   3.361   6.666 -0.9553 -2.0914 -0.2325
 5961SOL    HW229520   2.671   3.289   6.778  1.5434 -0.2109  1.8277
 5962SOL     OW29521   0.498   0.789   7.822 -0.2821  0.2916  0.2994
 5962SOL    HW129522   0.408   0.789   7.789 -0.1734 -0.9923  0.0063
 5962SOL    HW229523   0.515   0.882   7.840 -2.0899  0.1083  3.0336
 5963SOL     OW29524   1.251   0.766   8.623 -0.3839  0.0824 -0.1823
 5963SOL    HW129525   1.218   0.715   8.697  0.0461  0.3249  0.1774
 5963SOL    HW229526   1.199   0.844   8.641 -0.3681 -0.3287  1.6604
 5964SOL     OW29527   0.995   1.772   5.268  0.1164 -0.6816 -0.5198
 5964SOL    HW129528   0.911   1.739   5.237  1.6452 -2.3824 -2.8822
 5964SOL    HW229529   1.001   1.718   5.346 -1.1484 -0.1046 -0.0203
 5965SOL     OW29530   2.382   1.250   9.178  0.2445 -0.1207 -0.2229
 5965SOL    HW129531   2.294   1.283   9.194  0.7803  0.7362  0.8930
 5965SOL    HW229532   2.365   1.163   9.215 -1.4924 -0.4406 -1.7944
 5966SOL     OW29533   4.537   0.209  11.870  0.0601  0.2188  0.0952
 5966SOL    HW129534   4.499   0.297  11.864  0.9251  0.5413 -0.6641
 5966SOL    HW229535   4.499   0.173  11.950 -0.9173  0.8540 -0.0904
 5967SOL     OW29536   3.300   0.377   0.951  0.1580 -0.3196 -0.3284
 5967SOL    HW129537   3.334   0.406   1.036  1.0548  0.4260 -0.9472
 5967SOL    HW229538   3.232   0.318   0.984 -0.3063  1.4119  1.8393
 5968SOL     OW29539   4.625   2.247   2.606  0.0071 -0.0412 -0.1797
 5968SOL    HW129540   4.612   2.198   2.687  0.3444  1.1458  0.5870
 5968SOL    HW229541   4.671   2.176   2.562 -2.0315 -0.0982 -2.2152
 5969SOL     OW29542   0.016   3.720   5.494  0.0292  0.5288  0.4584
 5969SOL    HW129543   4.735   3.664   5.421 -1.6121  1.1368  0.5288
 5969SOL    HW229544   4.699   3.679   5.557  1.0998  0.4835  1.4450
 5970SOL     OW29545   1.670   4.321   5.085  0.6105  0.4825 -0.4570
 5970SOL    HW129546   1.727   4.279   5.149  1.7856  1.5104 -0.8406
 5970SOL    HW229547   1.663   4.406   5.128  0.3849 -0.2856  1.0180
 5971SOL     OW29548   4.510   3.346  12.836 -0.6888 -0.0422 -0.3963
 5971SOL    HW129549   4.560   3.314  12.911 -1.9163 -2.0965 -0.4710
 5971SOL    HW229550   4.557   3.429  12.830  3.1652 -2.2648 -1.3996
 5972SOL     OW29551   4.139   4.227   5.819 -0.1656  0.4919  0.5695
 5972SOL    HW129552   4.118   4.305   5.767 -0.6836  0.3988  0.6391
 5972SOL    HW229553   4.178   4.182   5.744  1.5608 -0.3630  2.0132
 5973SOL     OW29554   0.130   0.545  16.157 -0.1306 -0.5933  0.2654
 5973SOL    HW129555   0.099   0.545  16.248  1.4583 -0.4592  0.7938
 5973SOL    HW229556   0.151   0.636  16.137  0.8316 -0.7892  0.4137
 5974SOL     OW29557   3.571   3.063   9.250  0.1240 -0.2372 -0.7405
 5974SOL    HW129558   3.530   3.132   9.302  1.4781  0.0881 -0.1056
 5974SOL    HW229559   3.649   3.044   9.301  0.7211  2.0616 -0.8347
 5975SOL     OW29560   3.446   0.475   9.265 -0.1786 -0.8250  0.2863
 5975SOL    HW129561   3.476   0.415   9.197 -0.7624 -0.1395 -0.5566
 5975SOL    HW229562   3.532   0.491   9.304 -0.7670  1.6614  0.5589
 5976SOL     OW29563   0.213   2.982   0.613 -0.5133 -0.4025 -0.1655
 5976SOL    HW129564   0.289   2.998   0.556 -0.2389  0.4400  0.4488
 5976SOL    HW229565   0.182   2.904   0.568 -0.3886 -0.3259 -0.3891
 5977SOL     OW29566   3.080   2.188   6.393  0.0071  0.1408  0.1034
 5977SOL    HW129567   3.064   2.101   6.357  0.5146 -0.3234  0.9785
 5977SOL    HW229568   3.095   2.167   6.485 -1.5161  1.4201  0.6283
 5978SOL     OW29569   1.124   1.324   7.598 -1.0050 -0.2012 -0.4244
 5978SOL    HW129570   1.130   1.250   7.538 -2.3283 -0.9732  0.3891
 5978SOL    HW229571   1.066   1.387   7.554  2.3062  1.3226 -2.6041
 5979SOL     OW29572   3.009   3.528   4.097 -0.2536  0.2443  0.0137
 5979SOL    HW129573   3.087   3.580   4.080  0.1163 -0.6867 -1.1775
 5979SOL    HW229574   3.015   3.527   4.192 -1.3926  0.2176  0.0878
 5980SOL     OW29575   3.695   1.907   2.289  0.1171 -0.0679 -0.5874
 5980SOL    HW129576   3.748   1.849   2.235 -1.7457 -1.4224 -0.9650
 5980SOL    HW229577   3.719   1.878   2.378  2.6905 -0.9148 -1.5492
 5981SOL     OW29578   2.121   3.798   2.952  0.1652 -0.2398 -0.4263
 5981SOL    HW129579   2.137   3.747   2.873  2.4143 -1.9661  1.1404
 5981SOL    HW229580   2.044   3.845   2.920  2.0593  2.9757 -0.2247
 5982SOL     OW29581   1.146   3.044   6.584 -0.3104 -0.1937  0.0676
 5982SOL    HW129582   1.191   2.998   6.513  0.1242 -0.3344  0.4329
 5982SOL    HW229583   1.109   2.969   6.631  0.5895 -1.4047 -1.1377
 5983SOL     OW29584   0.903   1.079   3.922 -0.3332 -0.6823 -0.2636
 5983SOL    HW129585   0.950   1.121   3.995  0.3323  0.0301 -1.1048
 5983SOL    HW229586   0.975   1.029   3.885  1.6001  1.0310  1.1694
 5984SOL     OW29587   0.835   3.684   3.476  0.4658 -0.3145  0.2302
 5984SOL    HW129588   0.843   3.617   3.543  1.7864  1.6087  1.9960
 5984SOL    HW229589   0.770   3.736   3.524  0.1030  1.2773 -1.9818
 5985SOL     OW29590   3.890   1.973   3.515  0.3084 -0.3756 -0.0356
 5985SOL    HW129591   3.982   1.991   3.495  0.4251  1.6795  2.3654
 5985SOL    HW229592   3.860   2.040   3.576 -1.6564 -0.4961 -0.8605
 5986SOL     OW29593   0.483   1.682  14.698  0.3015 -0.2012  0.1487
 5986SOL    HW129594   0.463   1.686  14.792 -3.1667  0.8437 -0.6419
 5986SOL    HW229595   0.538   1.758  14.679 -0.3532  0.9708  2.9447
 5987SOL     OW29596   2.898   0.585   0.872 -0.4116 -0.1064  0.2282
 5987SOL    HW129597   2.931   0.591   0.961  2.2520  0.2823 -0.7971
 5987SOL    HW229598   2.805   0.601   0.887 -0.3828 -1.2309  1.6086
 5988SOL     OW29599   1.806   2.290  14.625  0.5287  0.0432 -0.0203
 5988SOL    HW129600   1.856   2.327  14.698 -0.0235  0.8451 -0.0488
 5988SOL    HW229601   1.750   2.362  14.597 -0.0747 -0.1150  0.7695
 5989SOL     OW29602   0.473   1.708   3.960 -0.2617  0.1008 -0.3684
 5989SOL    HW129603   0.567   1.707   3.978 -0.0402  1.4686 -1.4510
 5989SOL    HW229604   0.450   1.785   4.012 -0.3896 -1.2163  1.4993
 5990SOL     OW29605   4.735   2.474   8.227  0.3163 -0.3336  0.3786
 5990SOL    HW129606   0.054   2.541   8.257 -0.3561  0.1982  0.5536
 5990SOL    HW229607   4.652   2.511   8.255 -0.2855  0.6053 -2.6552
 5991SOL     OW29608   0.441   3.254   3.348 -0.0031 -0.0771  0.6377
 5991SOL    HW129609   0.455   3.304   3.267  1.3094  0.5567  1.2512
 5991SOL    HW229610   0.397   3.313   3.410 -2.0303 -0.5639 -0.3248
 5992SOL     OW29611   1.413   1.031  13.970 -0.1279  0.0107  0.0685
 5992SOL    HW129612   1.448   1.012  14.057 -0.3635  0.2207  0.2110
 5992SOL    HW229613   1.415   1.126  13.975 -1.4864  0.0511  0.0673
 5993SOL     OW29614   4.452   2.993  12.994  0.3870  0.1126  0.0573
 5993SOL    HW129615   4.488   2.952  12.915  0.2561 -0.9621  0.5661
 5993SOL    HW229616   4.392   2.922  13.014  0.2265  0.4941  0.9180
 5994SOL     OW29617   1.867   2.702   5.106  0.2118 -0.2312 -0.1470
 5994SOL    HW129618   1.794   2.713   5.045 -0.0818 -0.9119  0.0886
 5994SOL    HW229619   1.830   2.732   5.189  1.9756  0.5674  0.3595
 5995SOL     OW29620   0.750   4.455   7.027  0.6814 -0.3184 -0.4524
 5995SOL    HW129621   0.803   4.376   7.039 -0.1479 -0.6881  0.7025
 5995SOL    HW229622   0.730   4.473   7.119  0.1506  1.9324 -1.0091
 5996SOL     OW29623   4.509   3.353  17.546 -0.3699  0.5823  0.4131
 5996SOL    HW129624   4.553   3.389  17.469 -0.4272 -1.3953 -0.5481
 5996SOL    HW229625   4.496   3.259  17.530 -2.2378  0.8582  0.3559
 5997SOL     OW29626   2.943   0.229   0.355  0.0300 -0.1877  0.4315
 5997SOL    HW129627   3.001   0.266   0.288  0.5719  1.8947  2.0477
 5997SOL    HW229628   2.979   0.145   0.383 -0.5156 -0.4520  0.3406
 5998SOL     OW29629   3.704   2.681   6.858 -0.2519 -0.3584  0.3287
 5998SOL    HW129630   3.722   2.678   6.952 -2.9603  1.4622  0.8968
 5998SOL    HW229631   3.791   2.671   6.820 -0.8183  0.2417 -1.0995
 5999SOL     OW29632   2.864   2.130   9.002 -0.0923 -0.2033  0.0869
 5999SOL    HW129633   2.781   2.084   8.986 -0.1888  0.5859 -1.6912
 5999SOL    HW229634   2.841   2.212   8.959  0.3595  0.0810  0.3810
 6000SOL     OW29635   2.793   3.341   2.008  0.2107  0.1530 -0.3384
 6000SOL    HW129636   2.699   3.357   2.004 -0.2657 -2.5713 -0.0416
 6000SOL    HW229637   2.805   3.370   2.098  1.6640  1.8184 -1.0523
 6001SOL     OW29638   2.014   3.084   4.313  0.3271  0.4319  0.1793
 6001SOL    HW129639   1.946   3.036   4.267 -0.0076  0.0184  1.1073
 6001SOL    HW229640   2.078   3.014   4.324  0.6254  0.9318  1.6072
 6002SOL     OW29641   3.153   3.645  17.453  0.1839 -0.3782 -0.4577
 6002SOL    HW129642   3.226   3.608  17.502 -0.5436 -0.0734  0.8472
 6002SOL    HW229643   3.111   3.693  17.524 -2.4527 -1.4360 -1.2836
 6003SOL     OW29644   0.795   3.963  13.600  0.3132  0.3486 -0.3496
 6003SOL    HW129645   0.870   4.010  13.564  1.0520 -0.2910  0.3595
 6003SOL    HW229646   0.759   3.940  13.514 -2.8600 -1.8192  1.5534
 6004SOL     OW29647   1.135   0.555  11.338  0.8942  0.4333  0.2498
 6004SOL    HW129648   1.068   0.546  11.406 -0.2190  0.5139 -0.8324
 6004SOL    HW229649   1.196   0.622  11.368 -0.5536  1.7398  0.2683
 6005SOL     OW29650   3.213   2.054   9.385  0.0978  0.1277 -0.2845
 6005SOL    HW129651   3.142   2.107   9.350  1.1233  0.0233 -2.5179
 6005SOL    HW229652   3.280   2.078   9.322  0.8694  0.8938  0.8262
 6006SOL     OW29653   3.171   3.897   1.839  0.5063  0.6355  0.8733
 6006SOL    HW129654   3.240   3.919   1.776  0.9696  0.4142  1.3021
 6006SOL    HW229655   3.107   3.857   1.779  1.3770 -1.6533  1.4566
 6007SOL     OW29656   4.266   3.220   3.673 -0.3198  0.4488 -0.2705
 6007SOL    HW129657   4.178   3.189   3.696  0.8343 -0.5761  2.7037
 6007SOL    HW229658   4.303   3.135   3.648  1.1112  0.8200  0.6190
 6008SOL     OW29659   0.399   4.053   6.773 -0.3654  0.9079  0.1557
 6008SOL    HW129660   0.435   4.110   6.840  1.6726  0.8933 -0.9244
 6008SOL    HW229661   0.460   3.980   6.768  0.1211  1.2312  1.5024
 6009SOL     OW29662   3.284   1.358   3.992 -0.3981 -0.1561  0.1272
 6009SOL    HW129663   3.244   1.440   4.021  1.8994  1.1262 -0.3624
 6009SOL    HW229664   3.364   1.397   3.958 -0.1625 -2.8653 -2.4877
 6010SOL     OW29665   3.677   3.675  11.223  0.6103  0.2889 -0.1945
 6010SOL    HW129666   3.618   3.749  11.212  1.2174  0.9129  0.7664
 6010SOL    HW229667   3.756   3.727  11.211  0.8228  0.2650  1.0576
 6011SOL     OW29668   3.097   4.137   2.940 -0.3836 -0.4120  0.0125
 6011SOL    HW129669   3.116   4.044   2.931 -0.1182 -0.4558  1.0942
 6011SOL    HW229670   3.149   4.178   2.870 -0.7181 -1.6369 -0.9535
 6012SOL     OW29671   4.243   2.043   2.574 -0.0216  0.0405  0.1389
 6012SOL    HW129672   4.196   2.094   2.640 -0.0434  0.5562 -0.2774
 6012SOL    HW229673   4.309   2.000   2.629  3.0162  2.4874 -1.6197
 6013SOL     OW29674   2.503   1.031  11.231 -0.6115  0.0928 -0.4734
 6013SOL    HW129675   2.499   1.110  11.285  0.2170  0.6338 -1.2060
 6013SOL    HW229676   2.449   0.968  11.279 -0.3683 -0.7038 -1.2506
 6014SOL     OW29677   1.018   4.491  17.028 -0.0110  0.4164  0.0766
 6014SOL    HW129678   1.093   4.503  17.086  0.0936 -0.5894  0.1421
 6014SOL    HW229679   0.965   4.429  17.077  0.5011  0.1473  0.2893
 6015SOL     OW29680   2.332   2.707   9.674  0.4494 -0.1023 -0.6852
 6015SOL    HW129681   2.277   2.785   9.678  1.7641  0.9351 -2.6639
 6015SOL    HW229682   2.274   2.644   9.631 -1.3194  0.3361  1.0290
 6016SOL     OW29683   2.031   2.938   0.522  0.0265  0.1931 -0.0878
 6016SOL    HW129684   2.074   2.931   0.607  2.2626 -0.9694 -1.3317
 6016SOL    HW229685   2.106   2.972   0.474  0.9358  0.2186  1.3508
 6017SOL     OW29686   4.409   3.068   8.926  0.0355  0.3519  0.5617
 6017SOL    HW129687   4.434   3.160   8.918  0.1708  0.1636 -1.1645
 6017SOL    HW229688   4.482   3.014   8.897  0.2659  1.4436 -0.8711
 6018SOL     OW29689   3.180   0.746   3.331 -0.6918 -0.5703 -0.0383
 6018SOL    HW129690   3.130   0.729   3.252 -0.9640  0.5581 -0.1108
 6018SOL    HW229691   3.225   0.665   3.354 -0.7526 -0.3837  0.7592
 6019SOL     OW29692   2.620   3.986   8.240  0.5367  0.0237 -0.6037
 6019SOL    HW129693   2.643   4.033   8.320 -0.0768 -1.3077  0.3457
 6019SOL    HW229694   2.542   3.946   8.277  1.6708 -0.1663  1.6316
 6020SOL     OW29695   0.492   4.087   5.863 -0.0608 -0.4675  0.1713
 6020SOL    HW129696   0.448   4.037   5.932 -1.4379 -2.0469 -1.8671
 6020SOL    HW229697   0.505   4.022   5.794  1.4266  0.6253 -0.5832
 6021SOL     OW29698   4.409   0.101   8.305 -0.3481 -0.4543 -0.2465
 6021SOL    HW129699   4.413   0.090   8.400 -0.9837  0.0342 -0.1658
 6021SOL    HW229700   4.409   0.194   8.283 -1.3516 -0.7489 -1.5264
 6022SOL     OW29701   0.029   2.627  15.088  0.3216 -0.2548  0.1671
 6022SOL    HW129702   4.728   2.683  15.024  0.1555  0.1683  0.6484
 6022SOL    HW229703   4.709   2.637  15.160 -0.2231 -0.4854 -0.2750
 6023SOL     OW29704   3.212   3.141   9.074  0.1068 -0.1033  0.6225
 6023SOL    HW129705   3.155   3.188   9.013  0.9666 -1.5200 -1.2557
 6023SOL    HW229706   3.213   3.194   9.154 -1.5536 -0.0860  0.6145
 6024SOL     OW29707   0.216   4.125   4.504 -0.1913 -0.5666  0.2903
 6024SOL    HW129708   0.270   4.047   4.488 -1.3322 -0.9787 -1.5088
 6024SOL    HW229709   0.199   4.146   4.412 -2.8647 -0.5615  0.7999
 6025SOL     OW29710   2.309   3.225   3.687  0.4548 -0.2305 -0.3345
 6025SOL    HW129711   2.384   3.198   3.740  0.8965  0.0447 -0.8160
 6025SOL    HW229712   2.292   3.147   3.635 -1.0084 -0.1722  0.0501
 6026SOL     OW29713   0.442   2.166   9.638  0.1137 -0.1858 -0.7544
 6026SOL    HW129714   0.411   2.217   9.563 -0.3144 -0.0796 -0.5074
 6026SOL    HW229715   0.409   2.225   9.706  0.3521 -2.9544  1.7996
 6027SOL     OW29716   0.236   2.434   6.856 -0.9629 -0.1517 -0.4227
 6027SOL    HW129717   0.253   2.416   6.763 -1.3465  1.1651 -0.7489
 6027SOL    HW229718   0.160   2.492   6.852  0.1257  1.2349 -1.4088
 6028SOL     OW29719   3.197   3.383   6.852 -0.4857  0.3488  0.2857
 6028SOL    HW129720   3.251   3.438   6.908  0.7256 -0.4998 -0.0648
 6028SOL    HW229721   3.117   3.377   6.905 -1.1621  0.7589 -0.6820
 6029SOL     OW29722   4.493   4.153  10.152  0.7048  1.1490 -0.1486
 6029SOL    HW129723   4.469   4.138  10.060  0.6861  2.7900 -0.4052
 6029SOL    HW229724   4.409   4.149  10.197  1.7046 -0.2311  1.5761
 6030SOL     OW29725   0.582   3.353   5.594  0.0735 -0.0072  0.3385
 6030SOL    HW129726   0.503   3.398   5.624  1.6901  2.0013  1.6035
 6030SOL    HW229727   0.565   3.363   5.500 -1.2091 -0.9458  0.4674
 6031SOL     OW29728   1.497   0.563  16.360  0.2358 -0.0627 -0.3107
 6031SOL    HW129729   1.524   0.634  16.418 -0.8625  0.5262 -0.5225
 6031SOL    HW229730   1.538   0.485  16.399  0.5370  0.8565  1.2042
 6032SOL     OW29731   1.405   2.222  10.406 -0.4560  0.4715  0.3290
 6032SOL    HW129732   1.417   2.207  10.499  1.6750 -0.8785 -0.1703
 6032SOL    HW229733   1.391   2.137  10.363  2.6716 -1.3079  2.8789
 6033SOL     OW29734   4.656   1.265  16.755 -0.4573  0.1114 -0.1671
 6033SOL    HW129735   4.665   1.183  16.802 -0.8499 -0.4470 -1.0786
 6033SOL    HW229736   4.563   1.270  16.777 -0.1134 -1.8256  1.6674
 6034SOL     OW29737   0.983   0.023   1.622  0.5722  0.0408  0.1695
 6034SOL    HW129738   1.067   0.011   1.579  0.0969 -1.6310 -0.2951
 6034SOL    HW229739   0.976   0.116   1.604 -1.1026 -0.2459 -0.6752
 6035SOL     OW29740   2.927   0.325   4.146 -0.7824  0.4780 -0.2693
 6035SOL    HW129741   2.974   0.244   4.168  0.6521  0.7935 -2.1942
 6035SOL    HW229742   2.911   0.314   4.053  0.0298  1.9653 -0.5928
 6036SOL     OW29743   2.028   0.045  15.640 -0.4044 -0.1372  0.0843
 6036SOL    HW129744   2.097   0.011  15.584 -1.1189 -1.8092  0.2182
 6036SOL    HW229745   1.949   0.065  15.590  0.0404  1.1654 -0.0882
 6037SOL     OW29746   3.956   3.339   8.654 -0.4088  0.1532  0.2266
 6037SOL    HW129747   4.014   3.346   8.730  0.8390  0.6958 -0.7730
 6037SOL    HW229748   3.880   3.329   8.710 -1.0891 -3.2472 -1.3575
 6038SOL     OW29749   1.920   0.740  14.225 -0.7891 -0.1971 -0.0913
 6038SOL    HW129750   1.939   0.833  14.212 -0.6854 -0.4452 -1.6555
 6038SOL    HW229751   1.843   0.738  14.281  1.5438 -0.0647  3.1407
 6039SOL     OW29752   1.935   1.198   5.636  0.4231 -0.2441 -0.0492
 6039SOL    HW129753   1.862   1.247   5.675  0.5215 -0.0978 -0.0494
 6039SOL    HW229754   1.996   1.213   5.708 -1.3677  1.1842  1.1821
 6040SOL     OW29755   0.468   2.416   1.510 -0.5388 -0.4970  0.1286
 6040SOL    HW129756   0.497   2.325   1.507 -2.6952 -1.1610 -0.7739
 6040SOL    HW229757   0.384   2.404   1.553 -0.4213 -0.5912  0.3311
 6041SOL     OW29758   1.604   1.288   9.105  0.2528 -0.4731 -0.1868
 6041SOL    HW129759   1.546   1.246   9.169  1.9992 -0.0126  1.6881
 6041SOL    HW229760   1.569   1.377   9.096  2.4715  0.2718 -1.3323
 6042SOL     OW29761   3.044   3.741   5.772 -0.0955  0.1948 -0.1424
 6042SOL    HW129762   3.048   3.667   5.833 -0.0218 -0.6924 -1.2369
 6042SOL    HW229763   3.099   3.712   5.699 -2.0137  1.4174 -2.0748
 6043SOL     OW29764   0.304   1.743   5.041  0.6965  0.5567 -0.0372
 6043SOL    HW129765   0.368   1.733   4.971 -1.2276 -0.3747 -1.6712
 6043SOL    HW229766   0.345   1.722   5.125  1.3842 -2.2567 -1.0899
 6044SOL     OW29767   2.252   3.988   7.943  0.2134  0.0678  0.0575
 6044SOL    HW129768   2.339   3.960   7.971 -1.0930 -0.9681  3.1178
 6044SOL    HW229769   2.270   4.040   7.865 -0.2889  1.5060  0.8979
 6045SOL     OW29770   1.414   1.332   0.676 -0.8011  0.0533  0.3813
 6045SOL    HW129771   1.494   1.281   0.670 -0.7018  0.3203 -0.4893
 6045SOL    HW229772   1.351   1.269   0.710 -0.1929 -1.3650 -1.1833
 6046SOL     OW29773   0.755   1.321   3.847  0.0671  0.4468 -0.1147
 6046SOL    HW129774   0.775   1.238   3.889 -0.1923  0.0975 -0.6743
 6046SOL    HW229775   0.838   1.349   3.808  0.6841 -0.6798  0.4055
 6047SOL     OW29776   3.011   3.964   6.814 -0.1130  0.7210 -0.6329
 6047SOL    HW129777   2.920   3.938   6.831 -0.6223  2.5609 -0.5254
 6047SOL    HW229778   3.052   3.929   6.893  1.4539  1.0436 -1.3196
 6048SOL     OW29779   4.554   4.568   4.764 -0.0330 -0.4378 -0.0719
 6048SOL    HW129780   4.572   4.526   4.680  2.7413  3.6847 -1.5753
 6048SOL    HW229781   4.486   4.508   4.793  2.5995 -2.2124  2.4372
 6049SOL     OW29782   0.093   2.584   4.352  0.4693 -0.1168 -0.4289
 6049SOL    HW129783   0.014   2.539   4.380  2.0428 -2.7782 -0.2464
 6049SOL    HW229784   0.131   2.612   4.436  0.8048  0.5387 -0.8001
 6050SOL     OW29785   3.926   1.061   1.702 -0.6808 -0.1132  0.1480
 6050SOL    HW129786   3.969   0.975   1.702 -0.0704  0.1895  0.6188
 6050SOL    HW229787   3.979   1.116   1.644  2.0699 -0.4727  2.3155
 6051SOL     OW29788   1.549   2.356   4.125 -0.8068  0.4396  0.7495
 6051SOL    HW129789   1.556   2.374   4.219 -0.5737 -1.9781  1.2166
 6051SOL    HW229790   1.631   2.394   4.093 -1.3369  0.4467 -0.6143
 6052SOL     OW29791   4.382   2.944   7.262 -0.6454  0.1067 -0.4783
 6052SOL    HW129792   4.322   2.964   7.333  0.5269  2.1821 -0.0438
 6052SOL    HW229793   4.466   2.947   7.308 -0.3197  1.5815 -1.1565
 6053SOL     OW29794   0.343   1.720  16.171 -0.2066  0.1823 -0.2079
 6053SOL    HW129795   0.420   1.686  16.217 -1.3139 -1.0236  0.7529
 6053SOL    HW229796   0.278   1.651  16.185  0.2347 -0.0934  0.4798
 6054SOL     OW29797   4.141   0.002   1.553  0.6009 -0.0971 -0.5506
 6054SOL    HW129798   4.235   0.022   1.557  0.4416  0.5309  0.0104
 6054SOL    HW229799   4.150   4.662   1.506  1.7069  0.5706 -1.5388
 6055SOL     OW29800   4.172   0.415   3.139  0.1818  0.6411 -0.0789
 6055SOL    HW129801   4.146   0.350   3.204  0.2168  1.6579  0.9473
 6055SOL    HW229802   4.120   0.491   3.162 -0.8184  0.9463 -3.2816
 6056SOL     OW29803   1.809   3.369   8.617  0.6710 -0.4001 -0.2399
 6056SOL    HW129804   1.806   3.463   8.634  1.7342 -0.8223  2.1871
 6056SOL    HW229805   1.830   3.331   8.702 -1.5401 -0.8877  0.0776
 6057SOL     OW29806   1.730   3.113   7.921 -0.2515  0.1532  0.2866
 6057SOL    HW129807   1.787   3.055   7.972 -2.4352 -1.0673  1.3267
 6057SOL    HW229808   1.779   3.106   7.840 -0.2141  3.1803  0.0621
 6058SOL     OW29809   0.562   3.072   1.050 -0.8106  0.1811  0.5868
 6058SOL    HW129810   0.624   3.000   1.039 -2.0766 -0.6158 -1.3477
 6058SOL    HW229811   0.609   3.136   1.104  0.0477  1.4016 -1.6236
 6059SOL     OW29812   1.017   3.033   2.009 -0.1351  0.1439  0.0863
 6059SOL    HW129813   0.995   3.104   2.069  0.2366  0.0368  0.3514
 6059SOL    HW229814   1.027   3.075   1.924  0.5603  1.7068  0.9483
 6060SOL     OW29815   4.283   3.947   8.450  0.3318 -0.0775 -0.3969
 6060SOL    HW129816   4.349   3.946   8.520 -0.1556  1.0926  0.0891
 6060SOL    HW229817   4.335   3.963   8.371  0.1031  2.7416  0.0243
 6061SOL     OW29818   0.962   2.114   7.903  0.1663  0.1991  0.2119
 6061SOL    HW129819   0.888   2.111   7.842  0.2919 -1.1191  0.1124
 6061SOL    HW229820   1.029   2.071   7.850  1.1242 -0.1404  1.7046
 6062SOL     OW29821   0.870   3.272  12.801 -0.0309  0.7956 -0.0507
 6062SOL    HW129822   0.941   3.330  12.827 -0.6510  1.2074  0.6967
 6062SOL    HW229823   0.818   3.337  12.753 -1.2695  0.0798  0.3281
 6063SOL     OW29824   0.728   4.297   4.632 -0.7290 -0.8393  0.8951
 6063SOL    HW129825   0.788   4.353   4.582 -1.3505 -3.0668 -2.3236
 6063SOL    HW229826   0.772   4.212   4.639 -1.8556 -1.5548 -0.8073
 6064SOL     OW29827   3.541   0.241   6.504 -0.0490  0.2276  0.2871
 6064SOL    HW129828   3.523   0.326   6.545  1.6900  0.5744  0.3681
 6064SOL    HW229829   3.476   0.245   6.434  0.4146  0.9522 -0.1122
 6065SOL     OW29830   0.373   1.881  13.595  0.6615  0.4971  0.0865
 6065SOL    HW129831   0.384   1.943  13.668 -0.7911 -0.0411  0.7516
 6065SOL    HW229832   0.360   1.945  13.525 -1.9852 -0.5683 -0.3936
 6066SOL     OW29833   4.420   0.774  16.957 -0.1423  0.0210  0.1937
 6066SOL    HW129834   4.381   0.832  16.891 -0.9058 -0.3241  0.3428
 6066SOL    HW229835   4.421   0.703  16.892 -0.5007 -2.1126  2.5134
 6067SOL     OW29836   3.663   3.957   1.069  0.0153  0.4874  0.0734
 6067SOL    HW129837   3.655   4.018   1.142 -0.4431 -1.2189  1.4246
 6067SOL    HW229838   3.661   3.871   1.110 -1.1534  0.0668 -0.8351
 6068SOL     OW29839   4.340   0.786   4.802 -0.7597  0.1399  0.4056
 6068SOL    HW129840   4.356   0.881   4.803  1.0454 -0.1663  1.9995
 6068SOL    HW229841   4.245   0.781   4.812 -0.6369  1.0210  2.1028
 6069SOL     OW29842   0.516   0.442  14.573  1.0945 -0.6632 -0.0670
 6069SOL    HW129843   0.437   0.490  14.549  1.4920  0.4735  0.8285
 6069SOL    HW229844   0.553   0.483  14.652 -0.0901  3.7325 -1.7918
 6070SOL     OW29845   1.142   0.751   0.921 -0.0249  0.2797 -0.4503
 6070SOL    HW129846   1.059   0.790   0.947 -0.3684 -1.0402  0.4364
 6070SOL    HW229847   1.196   0.819   0.960  0.3719 -0.4343  0.2394
 6071SOL     OW29848   1.713   1.090   6.137  0.1700 -0.4329  1.1353
 6071SOL    HW129849   1.699   1.170   6.086 -0.1096 -1.9605 -1.1685
 6071SOL    HW229850   1.808   1.104   6.142  0.0530  0.7425  0.0256
 6072SOL     OW29851   2.628   1.031   7.934 -0.5291  0.0972 -0.3264
 6072SOL    HW129852   2.602   0.963   7.873 -2.2202 -0.1034  0.6282
 6072SOL    HW229853   2.554   1.040   7.994 -1.1341 -0.1004 -1.0524
 6073SOL     OW29854   0.443   2.393   4.036 -0.0633  0.1252 -0.0472
 6073SOL    HW129855   0.494   2.402   4.117 -3.1212  0.0441  1.8720
 6073SOL    HW229856   0.352   2.408   4.060  0.3312  0.0468  1.4719
 6074SOL     OW29857   1.944   2.462  13.712 -0.6727 -0.2135  0.3519
 6074SOL    HW129858   1.892   2.542  13.716  1.8973  1.4528  0.8014
 6074SOL    HW229859   1.985   2.474  13.627 -1.6350  0.5646 -0.0062
 6075SOL     OW29860   3.578   2.960   6.061  0.5155  0.3605  0.0793
 6075SOL    HW129861   3.517   3.031   6.044  0.2553  0.3525  0.9546
 6075SOL    HW229862   3.534   2.897   6.118  0.6846 -0.0723 -0.2651
 6076SOL     OW29863   2.056   4.559  16.923  0.3133 -0.7051 -0.3114
 6076SOL    HW129864   2.134   4.508  16.901  1.0184 -0.5906  1.9050
 6076SOL    HW229865   2.086   4.646  16.895 -1.9461  0.4792  0.9830
 6077SOL     OW29866   0.893   3.207  12.349 -0.8689  0.0387 -0.4695
 6077SOL    HW129867   0.961   3.140  12.361 -1.4533 -0.6982 -1.2763
 6077SOL    HW229868   0.819   3.149  12.367 -1.1880  1.1443  1.7417
 6078SOL     OW29869   2.779   0.776   3.811  0.5958  0.2253  0.2403
 6078SOL    HW129870   2.786   0.863   3.771  1.0267  0.6150  1.1519
 6078SOL    HW229871   2.789   0.791   3.905  0.5463 -0.9478  0.4304
 6079SOL     OW29872   0.319   2.616  11.958 -0.4485 -0.4956  0.2220
 6079SOL    HW129873   0.273   2.694  11.991 -0.8359 -0.2241 -0.9763
 6079SOL    HW229874   0.327   2.637  11.865  1.8107  0.2052  0.5627
 6080SOL     OW29875   2.573   0.955   7.262  0.3260 -0.2308 -0.2779
 6080SOL    HW129876   2.535   0.906   7.335 -0.6025 -0.8028 -1.1425
 6080SOL    HW229877   2.622   0.891   7.210  1.1498  0.0310  0.1748
 6081SOL     OW29878   1.383   0.964  12.757  0.5360 -0.4356 -0.5821
 6081SOL    HW129879   1.337   0.961  12.841  0.1069  0.5950 -0.7825
 6081SOL    HW229880   1.359   0.877  12.726  0.5261 -0.4937 -0.4109
 6082SOL     OW29881   2.180   0.093  15.856 -0.2792  0.0700  0.2899
 6082SOL    HW129882   2.115   0.102  15.786 -0.1160 -1.6287 -0.0730
 6082SOL    HW229883   2.224   0.012  15.832  0.2117  0.3561  0.2170
 6083SOL     OW29884   4.438   1.749  11.106 -0.1146  0.0199 -0.0606
 6083SOL    HW129885   4.346   1.735  11.086  0.2073 -1.9322 -0.2311
 6083SOL    HW229886   4.479   1.683  11.049 -0.9109 -1.3094  0.9312
 6084SOL     OW29887   4.328   4.402   2.530  0.0076 -0.4172 -0.3500
 6084SOL    HW129888   4.333   4.497   2.546  4.2008 -0.8634  0.9535
 6084SOL    HW229889   4.248   4.387   2.580  1.7647 -0.4716  2.4584
 6085SOL     OW29890   0.017   3.498  12.034  0.5731  0.7207 -0.3052
 6085SOL    HW129891   0.068   3.422  12.005  1.9029  1.7175 -0.5683
 6085SOL    HW229892   0.084   3.557  12.070 -0.0073  1.4660 -0.4618
 6086SOL     OW29893   1.311   4.210   5.706 -0.2254  0.0538 -0.1169
 6086SOL    HW129894   1.267   4.227   5.623 -1.5034  2.6760  1.1078
 6086SOL    HW229895   1.371   4.139   5.684 -0.2890  0.7990 -2.6708
 6087SOL     OW29896   4.171   4.098   0.137  0.4084 -0.5886 -0.2715
 6087SOL    HW129897   4.089   4.129   0.098 -0.8118 -0.5512  2.3315
 6087SOL    HW229898   4.226   4.175   0.128 -1.0736  0.5772  0.5826
 6088SOL     OW29899   3.391   2.552   4.478 -0.5704  0.8135  0.5815
 6088SOL    HW129900   3.448   2.517   4.547  1.7069  1.0455 -1.1945
 6088SOL    HW229901   3.314   2.531   4.531 -2.3565 -2.4179 -3.2931
 6089SOL     OW29902   2.637   4.168   4.435 -0.5402 -1.1327 -0.0733
 6089SOL    HW129903   2.690   4.102   4.392 -0.0084  0.2046 -1.4629
 6089SOL    HW229904   2.550   4.134   4.413 -0.7618 -0.4776 -0.2220
 6090SOL     OW29905   3.005   0.127  17.633  0.2315 -0.0762 -0.0925
 6090SOL    HW129906   3.066   0.106  17.562  0.1495 -0.5769 -0.0156
 6090SOL    HW229907   3.015   0.222  17.629  0.0916 -0.1538 -2.3764
 6091SOL     OW29908   4.694   2.691   4.694 -0.4824 -0.0971  0.3545
 6091SOL    HW129909   4.675   2.626   4.626 -0.8891 -0.9324  1.2756
 6091SOL    HW229910   4.610   2.704   4.737  0.1609  1.0119  1.2718
 6092SOL     OW29911   1.264   3.251   6.269  0.3593 -0.0631 -0.0866
 6092SOL    HW129912   1.338   3.193   6.249  2.4484  2.4135  0.3734
 6092SOL    HW229913   1.191   3.213   6.221  1.5174 -0.0794 -1.8583
 6093SOL     OW29914   1.248   1.012   8.407  0.2507 -0.6809 -0.2513
 6093SOL    HW129915   1.168   0.999   8.356  0.9799  0.0477 -1.5569
 6093SOL    HW229916   1.254   0.920   8.433  1.1272 -0.3450  0.7082
 6094SOL     OW29917   1.157   2.704   4.956 -0.1344 -0.1851  0.2724
 6094SOL    HW129918   1.232   2.677   5.010  0.6694  0.6289 -0.4277
 6094SOL    HW229919   1.080   2.705   5.011 -1.0331 -0.6317 -0.9710
 6095SOL     OW29920   2.308   2.231  15.218 -0.4843 -0.5473 -0.0964
 6095SOL    HW129921   2.347   2.281  15.290 -2.0221 -0.4092  0.6473
 6095SOL    HW229922   2.288   2.148  15.261  1.1909 -1.1020 -0.3706
 6096SOL     OW29923   3.239   4.291   5.303 -0.1377  0.0749 -0.1894
 6096SOL    HW129924   3.317   4.301   5.248  0.1772  2.8648  0.7578
 6096SOL    HW229925   3.174   4.357   5.279 -1.4248 -0.6186  1.4567
 6097SOL     OW29926   3.226   4.634   8.708 -0.1610  0.4423 -0.4219
 6097SOL    HW129927   3.209   4.722   8.674  0.6042  0.0763 -1.7504
 6097SOL    HW229928   3.287   4.656   8.778  0.3446 -0.4263 -0.5923
 6098SOL     OW29929   4.639   2.525   1.007 -0.0781  0.5409  0.4888
 6098SOL    HW129930   4.699   2.474   0.952 -1.2461 -0.5060  0.1946
 6098SOL    HW229931   4.629   2.597   0.945 -0.4251  1.6276  1.8047
 6099SOL     OW29932   3.130   1.187   8.863 -0.1488  0.2059 -0.8818
 6099SOL    HW129933   3.208   1.138   8.889  0.4388  1.5621 -0.1165
 6099SOL    HW229934   3.080   1.110   8.834 -1.2545  0.3892  0.5447
 6100SOL     OW29935   2.851   3.120   6.988 -0.2005  0.4066  0.5099
 6100SOL    HW129936   2.943   3.098   6.971 -0.0779  0.9859  0.4319
 6100SOL    HW229937   2.801   3.040   6.971 -0.3056  1.3143 -3.2899
 6101SOL     OW29938   0.460   3.101   5.359 -0.2580  0.6845  0.4199
 6101SOL    HW129939   0.517   3.042   5.409 -0.5008 -0.7602 -1.0141
 6101SOL    HW229940   0.507   3.184   5.355  1.5831 -0.2707  1.8072
 6102SOL     OW29941   4.472   3.035   6.792 -0.1046  0.3386 -0.9241
 6102SOL    HW129942   4.551   2.987   6.768 -0.9849 -0.8137 -1.5162
 6102SOL    HW229943   4.428   2.978   6.855 -0.3315 -0.3569 -1.7158
 6103SOL     OW29944   3.133   3.434   8.725  0.1204  0.1618  0.1131
 6103SOL    HW129945   3.213   3.483   8.741 -1.0063  1.4122  1.9501
 6103SOL    HW229946   3.067   3.504   8.727  1.0222  0.9967  0.4472
 6104SOL     OW29947   3.425   2.842   4.450 -0.0463 -0.0915  0.3955
 6104SOL    HW129948   3.490   2.866   4.516 -0.3619 -0.0473  0.6910
 6104SOL    HW229949   3.424   2.747   4.462 -2.8693  0.0647  1.2299
 6105SOL     OW29950   0.334   1.256   7.637  0.3066 -0.1658 -0.1978
 6105SOL    HW129951   0.258   1.240   7.580  0.4012 -0.5483 -0.2172
 6105SOL    HW229952   0.413   1.237   7.587  1.5115 -0.6483  1.8964
 6106SOL     OW29953   3.382   1.377   2.220  0.3016  0.1478  0.0192
 6106SOL    HW129954   3.398   1.328   2.139  0.6924 -0.5363  0.5179
 6106SOL    HW229955   3.472   1.387   2.250  0.6411 -2.3763 -0.2180
 6107SOL     OW29956   4.228   3.060   9.142  0.1150  0.9024  0.1331
 6107SOL    HW129957   4.287   3.059   9.067 -0.1452  0.4011 -0.0660
 6107SOL    HW229958   4.198   3.151   9.145  0.4993  0.9240  3.4374
 6108SOL     OW29959   1.137   1.729   7.483 -0.0600  0.3099  0.0757
 6108SOL    HW129960   1.139   1.635   7.469  0.6419  0.6895 -2.3163
 6108SOL    HW229961   1.049   1.729   7.519  0.1497 -0.6741  0.5755
 6109SOL     OW29962   3.091   4.288   8.818 -0.3682  0.2843 -0.4044
 6109SOL    HW129963   3.152   4.302   8.890  1.1583  0.0813 -1.6686
 6109SOL    HW229964   3.035   4.223   8.861  1.0120 -0.5415  0.1327
 6110SOL     OW29965   4.050   2.726  11.291 -1.0468 -0.7775 -0.0571
 6110SOL    HW129966   4.070   2.642  11.251  1.0818 -0.4552  0.3647
 6110SOL    HW229967   4.059   2.789  11.219 -0.2447 -1.9583 -0.9979
 6111SOL     OW29968   2.139   0.191  12.793 -0.8367  1.0151  0.3447
 6111SOL    HW129969   2.185   0.206  12.876  0.6679  4.0319 -1.0280
 6111SOL    HW229970   2.204   0.214  12.727  0.2944  0.5747  1.2909
 6112SOL     OW29971   4.534   1.450   3.557 -0.2425  0.0437 -1.0057
 6112SOL    HW129972   4.487   1.367   3.553  0.3564 -0.2888 -1.1107
 6112SOL    HW229973   4.590   1.423   3.484  0.7770  0.2431 -0.3103
 6113SOL     OW29974   3.943   2.534  15.543  0.7609 -0.2727  0.1017
 6113SOL    HW129975   3.895   2.497  15.618  1.2280  0.6568  0.8600
 6113SOL    HW229976   3.936   2.467  15.475 -1.3928 -0.7604  0.7961
 6114SOL     OW29977   3.009   3.795   4.448  0.1521  0.3284 -0.0010
 6114SOL    HW129978   3.089   3.821   4.404 -0.2249  1.2018 -0.1591
 6114SOL    HW229979   3.001   3.703   4.421  0.1476  0.1394  0.6466
 6115SOL     OW29980   3.861   0.676   7.104  0.2116  0.1046 -0.0514
 6115SOL    HW129981   3.952   0.648   7.089 -0.3250 -0.1167 -2.9156
 6115SOL    HW229982   3.874   0.770   7.105  0.2731  0.0785  0.9871
 6116SOL     OW29983   3.619   2.116   6.707 -0.3197 -0.2694 -0.2031
 6116SOL    HW129984   3.696   2.109   6.651 -1.5050  0.6193 -1.9561
 6116SOL    HW229985   3.582   2.201   6.680  0.7798  1.0195  2.3214
 6117SOL     OW29986   4.218   0.595   0.942  0.1244  0.2652  0.1995
 6117SOL    HW129987   4.182   0.622   1.027  0.5286  2.0585 -0.1906
 6117SOL    HW229988   4.305   0.635   0.945  1.2474 -2.1331 -0.7667
 6118SOL     OW29989   0.925   2.031   7.446  0.9035 -0.4118  0.3111
 6118SOL    HW129990   0.870   2.063   7.375 -0.7318 -2.8123  0.4778
 6118SOL    HW229991   0.995   1.983   7.402  0.8781 -0.1236 -0.0363
 6119SOL     OW29992   3.513   4.555   9.114 -0.3138  0.5832  0.5404
 6119SOL    HW129993   3.479   4.510   9.191 -0.6696 -1.3791 -0.7650
 6119SOL    HW229994   3.602   4.519   9.106 -0.2619  0.3538  2.1514
 6120SOL     OW29995   2.602   2.301  14.424  0.0585 -0.7464 -0.5589
 6120SOL    HW129996   2.631   2.352  14.500  0.8841 -0.3412 -1.1563
 6120SOL    HW229997   2.669   2.317  14.357  1.8498  0.0799  1.4295
 6121SOL     OW29998   0.641   1.910   9.428 -0.4301 -0.3719 -0.0398
 6121SOL    HW129999   0.683   1.826   9.408  0.1965 -0.2612  0.8005
 6121SOL    HW230000   0.563   1.897   9.374 -0.5585  0.7922 -0.1332
 6122SOL     OW30001   2.374   3.710  10.075 -0.0266 -0.4929  0.2123
 6122SOL    HW130002   2.287   3.749  10.084 -0.3038 -1.0619  0.0133
 6122SOL    HW230003   2.345   3.630  10.030 -1.3763 -1.4155  2.6670
 6123SOL     OW30004   3.905   3.566   4.338  0.0900  0.1484 -0.6804
 6123SOL    HW130005   3.938   3.606   4.258 -0.7152  2.7935  0.3109
 6123SOL    HW230006   3.986   3.562   4.388 -0.5488 -0.3654  0.3104
 6124SOL     OW30007   0.655   3.602   7.235  0.2376  1.1307  0.0219
 6124SOL    HW130008   0.647   3.513   7.271  0.2738  0.6159 -1.2141
 6124SOL    HW230009   0.577   3.648   7.264 -1.1996 -1.9348  0.9856
 6125SOL     OW30010   3.663   4.388   8.285 -0.0816  0.0391 -0.1303
 6125SOL    HW130011   3.596   4.408   8.220 -0.2825  1.3931  0.4908
 6125SOL    HW230012   3.636   4.454   8.349  0.9657  0.6182 -0.2827
 6126SOL     OW30013   2.608   0.060  10.856 -0.1972 -0.2894 -0.2799
 6126SOL    HW130014   2.586   0.067  10.949  1.9985  0.6057  0.1583
 6126SOL    HW230015   2.596   4.709  10.837  0.5764 -0.5563  0.5291
 6127SOL     OW30016   4.249   2.447   4.604 -0.1659  0.4142 -0.0112
 6127SOL    HW130017   4.239   2.459   4.509  0.9220 -2.7047 -0.5178
 6127SOL    HW230018   4.270   2.536   4.633  0.4055  0.3557 -0.2464
 6128SOL     OW30019   2.591   3.036  10.481  0.0683  0.1562  0.5917
 6128SOL    HW130020   2.638   3.023  10.563  0.2458  2.1724  0.8011
 6128SOL    HW230021   2.509   3.068  10.519  0.8519 -1.5498  3.7298
 6129SOL     OW30022   2.377   3.821   2.160 -0.3772 -0.3093  0.0235
 6129SOL    HW130023   2.334   3.745   2.199 -2.7352  0.9887 -0.0324
 6129SOL    HW230024   2.413   3.859   2.240  1.0044  0.7776 -1.1234
 6130SOL     OW30025   3.111   2.737  13.249 -0.5086  0.7483  1.0673
 6130SOL    HW130026   3.120   2.817  13.301  0.9501  0.1774  1.6899
 6130SOL    HW230027   3.125   2.667  13.313 -0.9182  0.6991  1.1012
 6131SOL     OW30028   1.634   3.817   2.452 -0.4091  0.4700 -0.1993
 6131SOL    HW130029   1.550   3.863   2.450  0.0719  1.3818  0.5787
 6131SOL    HW230030   1.653   3.824   2.358  1.0148 -0.0131  0.0594
 6132SOL     OW30031   4.597   0.791   5.077 -0.1718  0.4267  0.0168
 6132SOL    HW130032   4.522   0.773   5.022 -0.0729  1.4897 -0.4573
 6132SOL    HW230033   4.580   0.880   5.107  0.3819  1.1082 -1.6883
 6133SOL     OW30034   1.247   2.905   8.837  0.4540 -0.1596  0.4601
 6133SOL    HW130035   1.160   2.866   8.830  0.3642  0.1188  0.0502
 6133SOL    HW230036   1.248   2.960   8.915 -0.1397  0.2838  0.1576
 6134SOL     OW30037   3.085   1.316   1.394  0.2104 -0.2007 -0.2537
 6134SOL    HW130038   3.068   1.310   1.300  0.4340  0.9834 -0.3622
 6134SOL    HW230039   3.009   1.268   1.429  0.3886 -1.0655 -1.0493
 6135SOL     OW30040   3.780   4.387   0.788 -0.1037 -0.9358 -0.2338
 6135SOL    HW130041   3.803   4.303   0.827  0.3142 -0.0654  1.3473
 6135SOL    HW230042   3.696   4.355   0.754 -0.0273 -1.6999  0.2965
 6136SOL     OW30043   0.644   3.770  16.836 -0.4502  0.0123  0.1090
 6136SOL    HW130044   0.578   3.813  16.890 -0.3576  0.5974 -0.2441
 6136SOL    HW230045   0.604   3.778  16.750 -0.8598 -1.1931  0.1939
 6137SOL     OW30046   2.857   2.824   5.122  0.0215  0.6463 -0.5451
 6137SOL    HW130047   2.842   2.732   5.104 -0.9536  0.6198  0.4253
 6137SOL    HW230048   2.808   2.863   5.050 -1.9900 -1.7044 -0.4183
 6138SOL     OW30049   0.897   0.534   5.117 -0.3749  0.0609 -0.1192
 6138SOL    HW130050   0.962   0.583   5.068 -0.6598 -0.2680 -0.8270
 6138SOL    HW230051   0.816   0.541   5.067 -1.0913  1.3291  1.1981
 6139SOL     OW30052   2.788   1.623   3.348  0.6953  0.5422  0.2779
 6139SOL    HW130053   2.855   1.636   3.415  0.4657 -0.5476  0.7285
 6139SOL    HW230054   2.848   1.592   3.281  1.5190  1.7853  0.4379
 6140SOL     OW30055   3.313   3.778  10.984  0.3055  0.4014  0.0958
 6140SOL    HW130056   3.406   3.755  10.983  0.0547 -0.6319  0.2715
 6140SOL    HW230057   3.326   3.865  10.946 -2.4649 -0.0217 -1.8442
 6141SOL     OW30058   1.844   1.128  14.990  0.5261  0.2249  0.1463
 6141SOL    HW130059   1.905   1.158  14.923  2.3891 -1.6493  0.9726
 6141SOL    HW230060   1.861   1.189  15.062 -0.5125  2.4460 -1.4961
 6142SOL     OW30061   1.528   4.590   4.329 -0.3806 -0.2306  0.2983
 6142SOL    HW130062   1.548   4.672   4.374 -2.4338  0.4825 -0.0898
 6142SOL    HW230063   1.616   4.556   4.310 -0.0940 -0.3457  1.8319
 6143SOL     OW30064   0.797   2.313   8.041 -0.2059 -0.2064 -0.0685
 6143SOL    HW130065   0.845   2.243   7.996  2.3922  1.9009 -0.5568
 6143SOL    HW230066   0.805   2.292   8.134 -2.1450  1.1939  0.4013
 6144SOL     OW30067   3.505   0.979  10.498 -0.4555 -0.8465  0.1974
 6144SOL    HW130068   3.456   1.061  10.501 -4.7813 -3.4481  0.5437
 6144SOL    HW230069   3.436   0.913  10.498  0.4623 -1.7950  2.7147
 6145SOL     OW30070   0.055   4.242   5.180  0.2081 -0.1624 -0.1051
 6145SOL    HW130071   0.049   4.198   5.265 -1.1503  1.2249  0.5119
 6145SOL    HW230072   0.151   4.240   5.169  0.2221 -1.3492  0.2085
 6146SOL     OW30073   4.186   4.506   8.847 -0.4838 -0.7457  0.0766
 6146SOL    HW130074   4.168   4.468   8.762 -0.1267 -0.8655  0.0555
 6146SOL    HW230075   4.274   4.537   8.826 -0.9471 -0.5294 -1.4934
 6147SOL     OW30076   4.490   1.689   3.404 -0.1930 -0.5471 -0.3615
 6147SOL    HW130077   4.409   1.718   3.446 -0.8374 -0.9598 -1.3153
 6147SOL    HW230078   4.537   1.650   3.477 -1.4452  0.6965  1.1218
 6148SOL     OW30079   2.874   0.337  10.893  0.2989  0.5158  0.4293
 6148SOL    HW130080   2.837   0.308  10.810  0.2831  0.1069  0.5809
 6148SOL    HW230081   2.793   0.350  10.944 -0.0157 -1.3967  0.3925
 6149SOL     OW30082   4.700   2.111   5.869  0.1867  0.0850  0.4252
 6149SOL    HW130083   4.698   2.025   5.827  0.8127  0.8408 -1.1834
 6149SOL    HW230084   4.684   2.092   5.961 -0.1361  2.1146  0.7875
 6150SOL     OW30085   2.056   0.556   7.068  0.1209  0.4579  0.4095
 6150SOL    HW130086   2.000   0.539   7.144  2.5895 -1.6291  1.7514
 6150SOL    HW230087   2.000   0.516   7.001  0.6769 -1.2465  0.9723
 6151SOL     OW30088   3.555   3.338   5.694  0.0546  0.5354 -0.6802
 6151SOL    HW130089   3.497   3.371   5.627  0.0541  0.9679 -0.4661
 6151SOL    HW230090   3.623   3.303   5.636  0.6921 -0.1217  0.4484
 6152SOL     OW30091   0.396   3.955  15.895 -0.2929  0.4633 -0.1408
 6152SOL    HW130092   0.419   4.026  15.836  1.0943 -0.2692 -0.5039
 6152SOL    HW230093   0.437   3.970  15.980  0.7920  2.0031 -0.9297
 6153SOL     OW30094   2.378   1.182   9.822  0.4020  0.0313 -0.0844
 6153SOL    HW130095   2.448   1.166   9.886 -1.0751 -2.8589  0.8309
 6153SOL    HW230096   2.432   1.239   9.767 -0.2457  0.8384  0.1355
 6154SOL     OW30097   4.419   3.247   1.551  0.0252 -0.1832 -0.1275
 6154SOL    HW130098   4.446   3.327   1.506  0.8641  0.2693  1.1742
 6154SOL    HW230099   4.500   3.204   1.578  0.0935 -1.5919 -2.5022
 6155SOL     OW30100   4.041   4.119   4.475 -0.1973  0.6465 -0.3780
 6155SOL    HW130101   4.065   4.168   4.396  0.4664 -0.2959 -0.7618
 6155SOL    HW230102   4.127   4.104   4.514  0.3999  2.9293 -0.7753
 6156SOL     OW30103   0.536   4.245  15.871  0.5964  0.1890  0.1668
 6156SOL    HW130104   0.537   4.294  15.953 -0.3393  1.5812 -0.6517
 6156SOL    HW230105   0.631   4.240  15.856  0.6986  2.5991  0.0513
 6157SOL     OW30106   4.395   0.959   1.941 -0.1282  0.5775  0.6242
 6157SOL    HW130107   4.303   0.977   1.958 -0.6658 -1.3354 -0.2761
 6157SOL    HW230108   4.431   0.940   2.027  0.3081  2.3810  0.8525
 6158SOL     OW30109   0.597   1.818  10.697 -0.4655 -0.3795 -0.3633
 6158SOL    HW130110   0.631   1.782  10.616 -1.2904  1.4929 -1.5366
 6158SOL    HW230111   0.581   1.740  10.751  1.1846  0.5363  1.4619
 6159SOL     OW30112   0.293   4.273  15.703 -0.5772 -0.4822  0.4252
 6159SOL    HW130113   0.362   4.224  15.746 -0.1720 -0.8056 -0.6010
 6159SOL    HW230114   0.231   4.282  15.775  0.5807 -0.0400  1.3633
 6160SOL     OW30115   0.264   4.082   3.902  0.0346 -0.0912  0.1236
 6160SOL    HW130116   0.210   4.028   3.960 -0.3050 -0.6920 -0.7587
 6160SOL    HW230117   0.308   4.020   3.843 -1.9020 -0.8859 -0.4850
 6161SOL     OW30118   0.318   3.735   2.201  0.2717 -0.6244  0.2455
 6161SOL    HW130119   0.294   3.715   2.291  0.7658  2.1119  0.9846
 6161SOL    HW230120   0.295   3.828   2.205 -2.2780 -1.3138  1.5108
 6162SOL     OW30121   3.286   4.195   6.357  0.1003  0.1614 -0.4281
 6162SOL    HW130122   3.287   4.179   6.263  1.4280  0.3046 -0.4410
 6162SOL    HW230123   3.193   4.174   6.359  0.5143 -1.7947 -1.4793
 6163SOL     OW30124   1.076   2.323  10.597 -0.1638  0.4149  0.6663
 6163SOL    HW130125   1.026   2.290  10.523  3.0844 -0.9971 -0.9091
 6163SOL    HW230126   1.061   2.417  10.594 -0.2831  0.3303 -1.0891
 6164SOL     OW30127   0.790   4.291   8.684  0.3354 -0.2505  0.2774
 6164SOL    HW130128   0.855   4.233   8.724 -0.3234 -0.7962  0.5377
 6164SOL    HW230129   0.720   4.299   8.748 -0.5999 -0.3000 -0.7315
 6165SOL     OW30130   4.540   3.937   6.664 -0.4977  0.0666  0.1058
 6165SOL    HW130131   4.466   3.991   6.638  0.4728  2.2017  1.7950
 6165SOL    HW230132   4.510   3.875   6.731 -0.2596 -0.3585 -0.1812
 6166SOL     OW30133   1.335   4.712  12.061 -0.4897  0.7147 -0.2979
 6166SOL    HW130134   1.255   4.683  12.018 -0.6940  1.2593 -0.2833
 6166SOL    HW230135   1.299   4.724  12.149 -1.2888 -0.1150 -0.5044
 6167SOL     OW30136   0.402   2.508   5.981  0.2147 -0.5578  0.8324
 6167SOL    HW130137   0.422   2.597   6.011 -0.6054 -0.2332  0.4090
 6167SOL    HW230138   0.477   2.465   6.022 -1.1796 -1.3248  2.5720
 6168SOL     OW30139   3.839   4.680   1.304 -0.2361 -0.5567 -0.6142
 6168SOL    HW130140   3.898   4.663   1.231 -0.2270  0.2784 -0.8056
 6168SOL    HW230141   3.837   0.033   1.291 -1.1651 -0.5393 -0.3628
 6169SOL     OW30142   4.499   1.521   4.716 -0.1757 -0.0630 -0.3177
 6169SOL    HW130143   4.522   1.445   4.770 -1.1951 -0.9190 -1.0826
 6169SOL    HW230144   4.514   1.488   4.627 -0.1201 -0.5180 -0.1391
 6170SOL     OW30145   3.149   4.086   7.169  0.7239 -0.2436  0.3400
 6170SOL    HW130146   3.072   4.125   7.211  1.0020  1.8237 -1.0867
 6170SOL    HW230147   3.209   4.159   7.153  0.2180  0.0450 -0.2435
 6171SOL     OW30148   3.312   1.224   1.531 -0.0506 -0.0058 -0.4777
 6171SOL    HW130149   3.231   1.246   1.485 -0.3122 -0.8292 -0.4094
 6171SOL    HW230150   3.355   1.191   1.452 -2.2644 -2.3740 -0.6699
 6172SOL     OW30151   0.957   3.860   5.357  0.3550 -0.2235  0.2660
 6172SOL    HW130152   1.037   3.815   5.383  0.8521  0.4202 -0.1315
 6172SOL    HW230153   0.903   3.789   5.325 -0.2584  0.7602 -0.8868
 6173SOL     OW30154   1.833   2.914   9.114 -0.5700 -0.4432 -0.2589
 6173SOL    HW130155   1.819   2.949   9.026  0.2637 -0.5964 -0.4548
 6173SOL    HW230156   1.759   2.854   9.123  1.5738 -2.8093  1.4265
 6174SOL     OW30157   2.350   3.244  12.397  0.5485  0.1524  0.1572
 6174SOL    HW130158   2.287   3.255  12.468 -0.8985 -0.3000 -1.0633
 6174SOL    HW230159   2.426   3.272  12.448 -0.1963  0.6088  1.0043
 6175SOL     OW30160   0.244   3.216   5.498 -0.1228  0.3202 -0.7940
 6175SOL    HW130161   0.302   3.154   5.453 -2.2999 -0.7308 -2.1331
 6175SOL    HW230162   0.301   3.293   5.496 -0.2634  0.4555  0.7600
 6176SOL     OW30163   1.051   0.810   2.273 -0.0378  0.4280 -0.4515
 6176SOL    HW130164   1.068   0.851   2.188 -0.4204 -0.7869 -1.1014
 6176SOL    HW230165   1.011   0.887   2.314 -0.2567  0.4691 -0.7424
 6177SOL     OW30166   2.676   4.621   1.357  0.0924 -0.4290  0.0335
 6177SOL    HW130167   2.620   4.674   1.301  1.6441 -0.1677 -1.2478
 6177SOL    HW230168   2.637   4.627   1.445 -0.1616  0.3361 -0.1317
 6178SOL     OW30169   4.225   3.431   5.069 -0.1547  0.5662  0.1275
 6178SOL    HW130170   4.280   3.495   5.025  0.1360  0.9470  1.0349
 6178SOL    HW230171   4.243   3.451   5.161  0.4166 -0.0536  0.1500
 6179SOL     OW30172   4.029   0.262   4.079  0.2420 -0.2825  0.0113
 6179SOL    HW130173   4.099   0.326   4.068 -0.3232  0.1807 -0.8094
 6179SOL    HW230174   4.078   0.184   4.107 -0.4664 -0.7282  0.0151
 6180SOL     OW30175   2.945   3.590   8.243  0.7642 -0.3972 -0.1146
 6180SOL    HW130176   2.953   3.499   8.217 -0.6134  0.0843 -2.2268
 6180SOL    HW230177   3.035   3.624   8.243  0.2496  0.9952  1.0804
 6181SOL     OW30178   1.166   3.421   2.483  0.6449 -0.3707 -0.5525
 6181SOL    HW130179   1.201   3.447   2.398 -0.4200 -0.3777 -0.9912
 6181SOL    HW230180   1.245   3.383   2.522  0.0297  0.2480  1.2993
 6182SOL     OW30181   2.629   4.398  11.100 -0.1550 -0.0007 -0.6030
 6182SOL    HW130182   2.621   4.304  11.082  1.8003 -0.3195  0.1025
 6182SOL    HW230183   2.570   4.403  11.176  0.3277 -3.4320 -0.0004
 6183SOL     OW30184   3.696   3.024   2.414  0.6030 -0.2298  0.5066
 6183SOL    HW130185   3.697   3.120   2.418  0.8150 -0.1164 -2.0695
 6183SOL    HW230186   3.776   3.006   2.463  1.0565  0.2399 -0.0547
 6184SOL     OW30187   2.498   3.139   8.016 -0.3212  0.1819 -0.0080
 6184SOL    HW130188   2.548   3.203   7.965  0.0389 -0.5879 -0.6262
 6184SOL    HW230189   2.427   3.195   8.046 -1.2229 -1.2552  0.5361
 6185SOL     OW30190   2.245   2.939   0.768  0.1862  0.0767  0.2989
 6185SOL    HW130191   2.295   2.863   0.797 -0.5025  0.4590  2.4729
 6185SOL    HW230192   2.281   2.954   0.680  0.7929  1.6325  0.8085
 6186SOL     OW30193   0.095   1.583  12.148 -0.3509  0.0425 -0.5818
 6186SOL    HW130194   0.011   1.555  12.184  0.1509 -0.8870 -0.1382
 6186SOL    HW230195   0.065   1.641  12.078 -2.1653  0.9376  0.9569
 6187SOL     OW30196   1.186   3.331   3.018 -0.0141 -0.2108 -0.2083
 6187SOL    HW130197   1.123   3.349   2.947  1.7065  3.1363 -0.9064
 6187SOL    HW230198   1.159   3.246   3.052  1.7956  0.0397  1.7844
 6188SOL     OW30199   3.739   2.283   4.410 -0.5218 -0.3743  0.1658
 6188SOL    HW130200   3.732   2.373   4.378 -2.7886 -1.1959 -1.6727
 6188SOL    HW230201   3.652   2.246   4.391 -0.8002  0.0150  0.6783
 6189SOL     OW30202   3.201   0.899   1.636 -0.2695  0.2241 -0.7726
 6189SOL    HW130203   3.223   0.923   1.546 -0.0126  1.9762 -0.2315
 6189SOL    HW230204   3.107   0.913   1.647 -0.6219 -2.2204 -0.5788
 6190SOL     OW30205   2.944   2.543   2.249  0.0993 -0.3582  0.3114
 6190SOL    HW130206   2.863   2.493   2.257  1.3691 -2.8875 -2.5571
 6190SOL    HW230207   2.977   2.519   2.162  0.9451  2.0985 -0.0571
 6191SOL     OW30208   3.236   0.268   3.040 -0.7110  0.5486 -0.0260
 6191SOL    HW130209   3.254   0.253   3.132 -0.3921  0.9959 -0.0172
 6191SOL    HW230210   3.144   0.243   3.032 -0.7888  1.1580 -1.0562
 6192SOL     OW30211   4.695   3.787  14.562 -0.0460  0.2050 -0.0105
 6192SOL    HW130212   4.640   3.864  14.551 -0.6084 -0.0629  0.9136
 6192SOL    HW230213   4.701   3.780  14.657 -2.1728 -1.0255  0.0251
 6193SOL     OW30214   0.856   0.285   0.141 -0.1526  0.0387 -0.6439
 6193SOL    HW130215   0.913   0.320   0.072  3.2684 -2.3717  0.9737
 6193SOL    HW230216   0.784   0.244   0.092 -1.3272  0.7307  0.5035
 6194SOL     OW30217   1.657   4.488   6.437 -0.3188  0.1365 -0.1405
 6194SOL    HW130218   1.738   4.539   6.432  1.2144 -2.0317  2.8990
 6194SOL    HW230219   1.585   4.549   6.454  0.1856  1.3051 -2.1451
 6195SOL     OW30220   0.435   2.797   4.800  0.5308  0.2117  0.2022
 6195SOL    HW130221   0.340   2.788   4.786  0.6500  1.6632 -1.4115
 6195SOL    HW230222   0.446   2.806   4.895 -0.5706 -2.6543  0.6158
 6196SOL     OW30223   3.024   3.169   0.058 -0.5242 -0.0666 -0.0681
 6196SOL    HW130224   2.967   3.181  17.749  0.4919  1.7449 -0.5484
 6196SOL    HW230225   3.046   3.076   0.048  3.5827  0.5909  2.9612
 6197SOL     OW30226   0.757   2.691   1.536  0.6263 -0.6767 -0.0990
 6197SOL    HW130227   0.775   2.784   1.542 -0.4659 -0.5002  0.5152
 6197SOL    HW230228   0.667   2.696   1.502  0.1068 -0.2100  1.3541
 6198SOL     OW30229   3.272   3.531  11.206  0.3369 -0.4344 -0.3409
 6198SOL    HW130230   3.217   3.453  11.220  0.0225 -0.2088 -0.3020
 6198SOL    HW230231   3.258   3.546  11.113  5.3002 -1.1904 -1.1872
 6199SOL     OW30232   1.799   0.972   4.850 -0.5067  0.8639  0.5785
 6199SOL    HW130233   1.844   1.024   4.916 -1.2783  2.3385 -0.0624
 6199SOL    HW230234   1.768   0.905   4.910 -1.3992  0.6458 -0.1116
 6200SOL     OW30235   4.631   3.546   6.707  0.5206  0.5773 -0.4184
 6200SOL    HW130236   4.639   3.451   6.715 -0.0832  0.7100  1.6311
 6200SOL    HW230237   4.602   3.548   6.616  0.2051  1.4345 -0.2998
 6201SOL     OW30238   0.765   3.561   4.489 -0.4341  0.4215  0.2018
 6201SOL    HW130239   0.710   3.612   4.430  0.7450  1.6654  0.1884
 6201SOL    HW230240   0.844   3.614   4.494 -0.2093  0.3009 -2.1412
 6202SOL     OW30241   2.689   0.326  15.703 -0.5210  0.1086 -0.1573
 6202SOL    HW130242   2.707   0.420  15.701  3.0443 -0.6443 -3.4312
 6202SOL    HW230243   2.775   0.291  15.679 -0.4702 -1.1804  1.8599
 6203SOL     OW30244   1.206   3.113   4.988  0.2986 -0.1631  0.4185
 6203SOL    HW130245   1.228   3.206   4.988 -2.2430  0.4449  0.4725
 6203SOL    HW230246   1.231   3.089   5.077 -0.0896 -0.0414  0.5604
 6204SOL     OW30247   0.253   0.545  13.255 -0.1397  0.2532  0.2431
 6204SOL    HW130248   0.247   0.636  13.283 -2.0059 -0.0297  0.7443
 6204SOL    HW230249   0.286   0.567  13.168  0.0863 -0.1495  0.2245
 6205SOL     OW30250   3.672   0.121  11.755  0.1257 -0.4446 -0.5610
 6205SOL    HW130251   3.713   0.195  11.709 -1.6830  0.3507 -0.9058
 6205SOL    HW230252   3.578   0.130  11.738 -0.1150 -0.4095  0.8268
 6206SOL     OW30253   0.372   0.877   4.011  0.4171  0.3796 -0.2569
 6206SOL    HW130254   0.302   0.935   3.982  0.7821  0.7276 -0.4451
 6206SOL    HW230255   0.444   0.938   3.994  0.0391  1.0450  0.5109
 6207SOL     OW30256   1.239   1.998   1.049 -0.1448  0.4769 -0.4871
 6207SOL    HW130257   1.200   1.974   0.964 -3.3209 -1.2993  1.4761
 6207SOL    HW230258   1.164   2.006   1.108  1.0583  3.2784  0.6577
 6208SOL     OW30259   3.415   4.221   1.893  0.0501  0.1643 -0.3507
 6208SOL    HW130260   3.431   4.148   1.952  0.6297  0.5699 -0.0092
 6208SOL    HW230261   3.500   4.255   1.866  0.3088 -0.6862 -0.5743
 6209SOL     OW30262   0.542   2.002  17.235 -0.2116 -0.4944 -0.5109
 6209SOL    HW130263   0.570   2.011  17.144 -2.1401 -2.5489 -1.2953
 6209SOL    HW230264   0.466   1.946  17.216  0.5994 -1.1479 -1.8746
 6210SOL     OW30265   3.054   0.378  17.569 -0.1302 -0.0236 -0.1086
 6210SOL    HW130266   3.038   0.437  17.495  0.4724  0.1312 -0.1119
 6210SOL    HW230267   2.987   0.417  17.626 -1.6071 -1.1195 -1.0680
 6211SOL     OW30268   3.044   1.754   3.841 -0.0831 -0.4542  0.3561
 6211SOL    HW130269   2.949   1.754   3.835  0.0717 -0.4109 -2.1845
 6211SOL    HW230270   3.067   1.845   3.822 -0.3552  0.4655  4.3715
 6212SOL     OW30271   4.719   2.334  10.384  0.2991  0.0975 -0.1428
 6212SOL    HW130272   0.030   2.390  10.328  0.9895 -0.9279 -0.5087
 6212SOL    HW230273   0.008   2.362  10.470 -1.3802  1.1767  0.1160
 6213SOL     OW30274   1.490   0.341  12.889 -0.1989  0.7671  0.5626
 6213SOL    HW130275   1.418   0.403  12.894 -2.8184 -2.1326 -1.7089
 6213SOL    HW230276   1.517   0.336  12.981 -2.6195 -0.7981  1.1897
 6214SOL     OW30277   2.396   3.971  14.665 -0.0732  0.1178  0.2506
 6214SOL    HW130278   2.383   4.036  14.596  1.7106  1.3741  1.0714
 6214SOL    HW230279   2.421   3.900  14.606 -1.9184  0.5712 -1.0580
 6215SOL     OW30280   3.949   1.356   3.465  0.2111  0.1737 -0.0779
 6215SOL    HW130281   3.892   1.280   3.470  0.1587  0.0952 -1.7079
 6215SOL    HW230282   4.008   1.331   3.394 -0.6560 -1.0030 -0.3727
 6216SOL     OW30283   1.429   2.503   3.106  0.2674  0.1598  0.0112
 6216SOL    HW130284   1.371   2.447   3.158  1.2791  0.8299  1.8713
 6216SOL    HW230285   1.364   2.568   3.082 -1.1473 -0.0893  3.1429
 6217SOL     OW30286   4.070   2.361   9.987  0.1341 -0.7724  0.3729
 6217SOL    HW130287   4.047   2.340  10.078  1.9118 -3.0718  0.2995
 6217SOL    HW230288   4.163   2.375  10.005 -0.0683  2.2465 -0.8893
 6218SOL     OW30289   3.615   2.846   5.001  0.0053  0.7964  0.0098
 6218SOL    HW130290   3.529   2.869   5.037  0.8368  1.4123  1.6075
 6218SOL    HW230291   3.575   2.785   4.940 -1.5657  1.0696  0.7700
 6219SOL     OW30292   2.979   3.651   5.071 -0.6082 -0.1086 -0.3476
 6219SOL    HW130293   2.900   3.603   5.097  0.6673 -0.6207  2.6253
 6219SOL    HW230294   3.011   3.689   5.153 -1.0436  3.1892 -1.6775
 6220SOL     OW30295   1.114   1.977  15.087 -0.0381 -0.6236 -0.5528
 6220SOL    HW130296   1.098   1.883  15.091 -0.4508 -0.5519 -0.4734
 6220SOL    HW230297   1.024   2.004  15.067 -0.5737 -1.3115  0.9260
 6221SOL     OW30298   0.652   0.540   7.663 -0.2252 -0.1304  0.0730
 6221SOL    HW130299   0.570   0.588   7.671  0.5423  1.2028 -0.0155
 6221SOL    HW230300   0.640   0.497   7.579  1.7985  0.1425 -0.3606
 6222SOL     OW30301   3.481   3.984   4.125  0.2502 -0.1894  0.2848
 6222SOL    HW130302   3.503   3.972   4.033  0.6258 -0.2637  0.3846
 6222SOL    HW230303   3.403   3.930   4.135 -0.8678  1.1535 -1.3577
 6223SOL     OW30304   4.197   1.631   7.320  0.4182 -0.4881 -0.1898
 6223SOL    HW130305   4.145   1.711   7.313 -0.8379 -1.4566 -1.8549
 6223SOL    HW230306   4.211   1.627   7.415  1.8539  1.3253 -0.3282
 6224SOL     OW30307   1.431   1.484   6.409  0.3374  0.1561 -0.1920
 6224SOL    HW130308   1.346   1.527   6.420  0.3773  0.7402 -2.1857
 6224SOL    HW230309   1.491   1.549   6.444 -0.1773 -0.9905  2.7704
 6225SOL     OW30310   1.857   1.446  16.927  0.0078  0.3130 -0.2802
 6225SOL    HW130311   1.867   1.518  16.989 -2.8610  0.1698  0.3571
 6225SOL    HW230312   1.940   1.457  16.881 -0.0049 -0.8914 -0.5745
 6226SOL     OW30313   2.109   4.708   6.849 -0.3227  0.3212 -0.1161
 6226SOL    HW130314   2.027   4.709   6.799 -1.5951  0.9522  1.9680
 6226SOL    HW230315   2.181   4.711   6.786  0.9969 -3.4332  1.2212
 6227SOL     OW30316   2.776   1.064  13.416 -0.1330 -0.2358  0.1723
 6227SOL    HW130317   2.774   0.978  13.458 -1.0774 -0.2542  0.0794
 6227SOL    HW230318   2.737   1.129  13.475 -1.9948  0.5104 -1.8846
 6228SOL     OW30319   2.969   3.939   8.954 -0.1491  0.6574 -0.4365
 6228SOL    HW130320   2.990   3.974   8.867 -1.2363  0.3408 -0.8146
 6228SOL    HW230321   2.900   3.876   8.939  0.1342  0.3740 -0.5434
 6229SOL     OW30322   4.266   0.086   6.399 -0.1174  0.1007  0.3555
 6229SOL    HW130323   4.292   0.026   6.469 -0.3981  0.8430  1.0951
 6229SOL    HW230324   4.173   0.070   6.385 -0.1790 -0.1558  1.0287
 6230SOL     OW30325   4.335   1.903   7.015 -0.2409  0.0166  0.5540
 6230SOL    HW130326   4.343   1.812   6.988 -0.7393 -0.3621  1.7120
 6230SOL    HW230327   4.401   1.947   6.960  0.7850  0.4857  2.1699
 6231SOL     OW30328   1.972   4.325   7.009  0.1095 -0.0070 -0.4147
 6231SOL    HW130329   2.010   4.399   7.056 -0.2643  1.5142 -2.5208
 6231SOL    HW230330   2.041   4.259   7.016 -0.0586 -0.1467 -0.1053
 6232SOL     OW30331   1.875   1.512   6.085  0.0491 -0.6652  0.5265
 6232SOL    HW130332   1.887   1.574   6.014  0.4741 -0.7415  0.5319
 6232SOL    HW230333   1.954   1.527   6.137  0.4214 -0.6135 -0.0597
 6233SOL     OW30334   0.568   2.583  14.950 -0.2080 -0.0618  0.5876
 6233SOL    HW130335   0.520   2.663  14.926  1.2895  0.3500 -1.0512
 6233SOL    HW230336   0.654   2.619  14.928  0.7123 -1.6391  1.6491
 6234SOL     OW30337   1.656   1.466   3.892 -0.6574  0.2161  0.0897
 6234SOL    HW130338   1.685   1.555   3.869 -1.2677  0.5331  0.5416
 6234SOL    HW230339   1.724   1.411   3.853  0.8049  0.6844  1.9647
 6235SOL     OW30340   0.773   4.207  16.952  0.0370 -0.1732 -0.6007
 6235SOL    HW130341   0.785   4.193  17.046 -0.0723 -0.1755 -0.5864
 6235SOL    HW230342   0.698   4.148  16.942  0.9418 -1.5007  0.3830
 6236SOL     OW30343   0.551   2.659   6.368  0.2792  0.4376 -0.4433
 6236SOL    HW130344   0.624   2.649   6.429  2.3554  1.4257 -2.7624
 6236SOL    HW230345   0.543   2.755   6.365 -1.8481  0.3003  0.5042
 6237SOL     OW30346   2.152   1.688   8.035  0.5580 -0.0725 -0.1217
 6237SOL    HW130347   2.170   1.715   8.125 -0.1308 -0.0728  0.0133
 6237SOL    HW230348   2.083   1.752   8.018  0.9254  0.1042 -0.9433
 6238SOL     OW30349   0.145   3.370   5.064  0.2375 -0.6305 -0.3912
 6238SOL    HW130350   0.206   3.331   5.001 -0.1262 -1.4069 -0.2582
 6238SOL    HW230351   0.107   3.288   5.095 -0.4388 -0.4528 -0.7577
 6239SOL     OW30352   2.384   0.371   4.923 -0.5486 -0.1410 -0.5401
 6239SOL    HW130353   2.413   0.445   4.976  0.5556 -1.4651  0.7361
 6239SOL    HW230354   2.470   0.347   4.888  0.3750  0.6145  1.2345
 6240SOL     OW30355   1.798   4.567   1.730  0.4871 -0.3251 -0.0322
 6240SOL    HW130356   1.719   4.568   1.785  0.6883  0.0754  0.2529
 6240SOL    HW230357   1.863   4.547   1.797  0.2807 -1.7890 -0.2865
 6241SOL     OW30358   0.970   2.818   8.760  0.2613  0.3415 -0.0400
 6241SOL    HW130359   0.893   2.788   8.807  0.3279 -0.7454 -0.6333
 6241SOL    HW230360   0.933   2.888   8.707 -0.6422  1.1155  1.5922
 6242SOL     OW30361   1.308   2.881  17.286 -0.0524 -0.0311  0.2817
 6242SOL    HW130362   1.262   2.939  17.226 -0.2029  0.3672  0.7750
 6242SOL    HW230363   1.227   2.839  17.313 -0.2026  0.2380  0.2555
 6243SOL     OW30364   4.223   2.989   8.145 -0.0251  0.2516 -0.0865
 6243SOL    HW130365   4.295   3.014   8.203 -0.1647 -0.2886  0.3102
 6243SOL    HW230366   4.204   2.903   8.181 -0.3421  0.2633 -0.2283
 6244SOL     OW30367   1.530   0.563   2.131  0.2922  0.1623 -0.4522
 6244SOL    HW130368   1.601   0.556   2.195 -1.3034 -1.1508  1.1428
 6244SOL    HW230369   1.487   0.639   2.170  0.2909  0.2568 -0.6367
 6245SOL     OW30370   1.642   0.994  12.624  0.8175 -0.0489  0.1496
 6245SOL    HW130371   1.551   0.976  12.649  0.6862 -0.8799 -0.9156
 6245SOL    HW230372   1.675   1.043  12.698 -0.7324  1.1866  0.0299
 6246SOL     OW30373   1.461   1.809   9.285 -0.2517 -0.3705  0.4311
 6246SOL    HW130374   1.443   1.719   9.258  0.6436 -0.8507  1.4457
 6246SOL    HW230375   1.536   1.810   9.344 -0.0875 -0.8905  0.2336
 6247SOL     OW30376   3.323   1.218   6.387  0.6055  0.4031 -0.4725
 6247SOL    HW130377   3.284   1.225   6.474  2.3755 -0.1822  0.3780
 6247SOL    HW230378   3.366   1.133   6.404 -0.0458  0.1006 -0.3505
 6248SOL     OW30379   3.341   0.196   7.143 -0.0247  0.5060 -0.1595
 6248SOL    HW130380   3.374   0.173   7.230  0.6246  0.5983 -0.3806
 6248SOL    HW230381   3.333   0.110   7.101  0.5855  0.5645 -0.3855
 6249SOL     OW30382   1.982   3.168   0.107  0.3756  0.0005  0.4071
 6249SOL    HW130383   1.898   3.171   0.152 -0.0231 -2.0554 -0.2008
 6249SOL    HW230384   1.966   3.145   0.016  1.4578 -0.6477  0.3742
 6250SOL     OW30385   0.553   3.609   7.819 -0.7862  0.0509 -0.1615
 6250SOL    HW130386   0.555   3.581   7.727 -0.1726  3.5325 -1.2283
 6250SOL    HW230387   0.459   3.593   7.829 -0.5108 -1.4039  0.0586
 6251SOL     OW30388   4.135   1.167   6.874  0.3152  0.0012  0.3047
 6251SOL    HW130389   4.220   1.212   6.880  0.5852 -0.8026  2.7835
 6251SOL    HW230390   4.093   1.199   6.954 -3.0714 -0.7985 -1.1483
 6252SOL     OW30391   3.094   0.292   7.836 -0.0789 -0.0146 -0.1084
 6252SOL    HW130392   3.118   0.344   7.913 -1.0083 -1.5925  1.2682
 6252SOL    HW230393   3.008   0.327   7.810 -0.9583 -2.0553  0.0353
 6253SOL     OW30394   4.117   0.087   8.262 -0.3367  0.3244 -0.5720
 6253SOL    HW130395   4.132   0.181   8.261  0.3531  0.1881 -2.4611
 6253SOL    HW230396   4.193   0.056   8.213 -0.7077 -0.1960 -0.8176
 6254SOL     OW30397   2.889   2.209   2.191 -0.3255 -0.4542  0.4187
 6254SOL    HW130398   2.828   2.145   2.153  0.7585 -1.7386  0.8651
 6254SOL    HW230399   2.956   2.222   2.124 -2.7333  1.4196 -1.6543
 6255SOL     OW30400   2.073   1.128   7.397  0.1910  0.0689 -0.4740
 6255SOL    HW130401   2.143   1.119   7.333 -0.0752 -0.7838 -0.6378
 6255SOL    HW230402   2.061   1.037   7.425  0.4902  0.1956  0.0750
 6256SOL     OW30403   0.317   4.619   8.578 -0.2477 -0.1343  0.6222
 6256SOL    HW130404   0.380   4.654   8.641  0.2982  0.4006 -0.2097
 6256SOL    HW230405   0.297   4.537   8.622  0.5059 -1.1173 -0.8948
 6257SOL     OW30406   2.680   3.846   8.554  0.6365  0.3942 -0.2365
 6257SOL    HW130407   2.631   3.922   8.525 -2.2629 -0.8153  1.5233
 6257SOL    HW230408   2.668   3.784   8.482  2.1902  1.7596 -1.6672
 6258SOL     OW30409   0.133   2.628   3.431 -1.4111 -0.0125 -0.2205
 6258SOL    HW130410   0.152   2.545   3.473  0.9184  0.7932  0.3066
 6258SOL    HW230411   0.157   2.610   3.340  0.4782 -1.0662  0.4886
 6259SOL     OW30412   3.330   0.633   1.571 -0.3395 -0.3608 -0.2021
 6259SOL    HW130413   3.276   0.567   1.529 -0.2510 -0.1724 -0.6159
 6259SOL    HW230414   3.276   0.710   1.555 -2.5862 -1.9362 -0.1351
 6260SOL     OW30415   1.517   4.282  14.772 -0.4464  0.1883  0.6487
 6260SOL    HW130416   1.466   4.218  14.723  0.9523  0.6674 -1.4659
 6260SOL    HW230417   1.509   4.361  14.718  2.0148 -0.0487 -0.0648
 6261SOL     OW30418   4.128   2.702   3.259 -0.4149 -0.1420  0.1601
 6261SOL    HW130419   4.191   2.679   3.327 -0.8510  0.8861  0.9111
 6261SOL    HW230420   4.192   2.731   3.193  0.7790 -1.9493  0.5174
 6262SOL     OW30421   2.910   0.356  11.294 -0.5209 -0.2392 -0.7959
 6262SOL    HW130422   2.897   0.326  11.384 -0.8033  0.3663 -0.6366
 6262SOL    HW230423   2.828   0.319  11.260  0.3506 -3.0066  0.0917
 6263SOL     OW30424   4.061   3.649   4.713  0.3761 -0.1119  0.0526
 6263SOL    HW130425   3.989   3.710   4.700  0.2952 -0.6058 -1.8092
 6263SOL    HW230426   4.026   3.582   4.772 -0.9071  0.9508  0.4826
 6264SOL     OW30427   1.509   1.478   7.691  0.1362 -0.3463  0.0354
 6264SOL    HW130428   1.583   1.453   7.747 -1.3642  0.5360  2.3998
 6264SOL    HW230429   1.543   1.459   7.604  0.1890  1.6602 -0.3838
 6265SOL     OW30430   1.064   2.807  17.345 -0.2101  0.4680  0.3486
 6265SOL    HW130431   0.992   2.869  17.336 -1.0681 -0.2405  2.2564
 6265SOL    HW230432   1.024   2.723  17.365  0.4622  0.2312  0.7070
 6266SOL     OW30433   1.379   1.637   5.090 -0.1643 -0.2457  0.7200
 6266SOL    HW130434   1.391   1.731   5.106 -0.5779  0.0213 -0.4812
 6266SOL    HW230435   1.348   1.609   5.176  1.2611 -1.2431  0.8954
 6267SOL     OW30436   4.074   0.464  10.408  0.2365  0.1255  0.1430
 6267SOL    HW130437   4.026   0.455  10.325  0.0653  0.2503  0.2304
 6267SOL    HW230438   4.026   0.405  10.466 -1.1171  2.8988  1.7973
 6268SOL     OW30439   3.117   1.454   1.679  0.0483 -0.5343 -0.2617
 6268SOL    HW130440   3.066   1.393   1.626  0.4565  0.9636 -2.3719
 6268SOL    HW230441   3.181   1.476   1.611  1.8659  0.1840  1.6946
 6269SOL     OW30442   1.012   0.075   5.777 -0.5183  0.0473 -0.5910
 6269SOL    HW130443   1.021   0.083   5.682 -1.7066 -0.4031 -0.7373
 6269SOL    HW230444   1.048   4.730   5.794 -1.3168 -0.0043  0.8694
 6270SOL     OW30445   1.885   3.309   4.754  0.3480  0.9954 -0.1518
 6270SOL    HW130446   1.886   3.302   4.659  0.7892  0.8117 -0.1378
 6270SOL    HW230447   1.977   3.333   4.770  1.2649 -2.8331  0.3929
 6271SOL     OW30448   2.951   3.721   2.012  0.1081  0.4060 -0.2356
 6271SOL    HW130449   2.877   3.780   2.025 -0.5439 -1.0493  2.8010
 6271SOL    HW230450   2.983   3.703   2.101  1.0407  0.2221 -0.6030
 6272SOL     OW30451   1.810   0.025   9.884 -0.2638  0.3261 -0.2100
 6272SOL    HW130452   1.848   4.726   9.962  0.5382 -1.5595 -1.5799
 6272SOL    HW230453   1.837   4.702   9.819  1.3496  2.6266 -1.8139
 6273SOL     OW30454   0.123   3.207   0.753 -0.6440  0.3913 -0.4639
 6273SOL    HW130455   0.153   3.165   0.673 -1.0028  0.9208 -0.8736
 6273SOL    HW230456   0.030   3.192   0.740 -0.4544 -1.6955  0.5873
 6274SOL     OW30457   3.929   1.408   4.166 -0.0613  0.6196 -0.0429
 6274SOL    HW130458   3.949   1.450   4.082  1.1769  0.3405  0.1194
 6274SOL    HW230459   3.866   1.340   4.142  3.4059 -2.2125 -0.9873
 6275SOL     OW30460   1.396   1.687  10.411 -0.1605 -0.8594 -0.1176
 6275SOL    HW130461   1.374   1.672  10.319  1.4330  0.6554 -0.7230
 6275SOL    HW230462   1.470   1.628  10.422 -0.2667 -0.6611  1.6423
 6276SOL     OW30463   0.603   4.584   4.497  0.1196  0.1373  0.1292
 6276SOL    HW130464   0.521   4.632   4.507 -0.2283 -0.5362  0.4857
 6276SOL    HW230465   0.607   4.565   4.403  0.9563  0.0686  0.1796
 6277SOL     OW30466   2.411   1.266  12.904  0.4342 -0.8349 -0.2651
 6277SOL    HW130467   2.410   1.340  12.843  0.0762 -2.0896 -1.7833
 6277SOL    HW230468   2.507   1.263  12.905  0.4359 -0.8771 -0.5080
 6278SOL     OW30469   3.704   1.294   2.236 -0.1693 -0.3363  0.0612
 6278SOL    HW130470   3.721   1.387   2.220 -1.1954 -0.2799 -0.6805
 6278SOL    HW230471   3.665   1.252   2.160  3.1859  0.9058 -2.3763
 6279SOL     OW30472   2.437   3.707  11.994  0.0920  0.0241  0.1059
 6279SOL    HW130473   2.456   3.620  11.960 -1.5226  0.3861 -1.8122
 6279SOL    HW230474   2.512   3.724  12.050 -1.3191 -0.0593  1.9991
 6280SOL     OW30475   1.574   1.385   1.734  0.3011  0.0110  0.0746
 6280SOL    HW130476   1.528   1.385   1.649 -1.6613 -0.8758  1.1217
 6280SOL    HW230477   1.550   1.303   1.778  1.5456  0.7286  2.0687
 6281SOL     OW30478   1.137   3.655  14.921 -0.0405  0.0308  0.1940
 6281SOL    HW130479   1.125   3.746  14.948  1.2304  0.4944 -0.8206
 6281SOL    HW230480   1.059   3.639  14.868  2.2865 -2.7491 -2.3536
 6282SOL     OW30481   4.521   3.305  15.349 -0.0600  0.3780 -0.1946
 6282SOL    HW130482   4.576   3.228  15.367 -1.0553  0.0440  1.4633
 6282SOL    HW230483   4.589   3.352  15.301  0.8180 -1.9120 -1.2357
 6283SOL     OW30484   2.469   2.327  14.036 -0.0381 -0.2527  0.3183
 6283SOL    HW130485   2.516   2.409  14.020  0.8426 -0.5793  1.2436
 6283SOL    HW230486   2.448   2.311  13.944 -1.5817  0.0970  0.6106
 6284SOL     OW30487   0.996   3.487   2.899 -0.5396 -0.5246  0.5272
 6284SOL    HW130488   1.055   3.560   2.918 -0.5418 -0.7544  1.4538
 6284SOL    HW230489   0.913   3.533   2.908  1.5122  3.1032  0.6724
 6285SOL     OW30490   1.465   1.043   2.630  0.0027  0.1100 -0.0538
 6285SOL    HW130491   1.501   0.957   2.611 -0.0604 -0.3049  1.6426
 6285SOL    HW230492   1.503   1.098   2.562  0.9240 -0.4158  0.0312
 6286SOL     OW30493   3.637   2.565   2.121 -0.8833  0.4488  0.4266
 6286SOL    HW130494   3.730   2.568   2.142 -0.6561  0.2450 -0.5204
 6286SOL    HW230495   3.624   2.510   2.043  0.6387  1.2380 -0.3857
 6287SOL     OW30496   1.101   4.564  17.655 -0.0747  0.5297 -0.6398
 6287SOL    HW130497   1.180   4.609  17.623 -0.5014  1.4142 -0.4400
 6287SOL    HW230498   1.063   4.643  17.691 -2.0029 -0.4316 -0.5681
 6288SOL     OW30499   3.662   3.745   6.886  0.8989  0.2467 -0.2696
 6288SOL    HW130500   3.708   3.664   6.910 -1.3963 -1.2913 -0.9980
 6288SOL    HW230501   3.720   3.785   6.820  0.2588 -1.6500 -1.9965
 6289SOL     OW30502   4.634   0.988   3.591  0.3662  0.0454 -0.1465
 6289SOL    HW130503   4.695   0.932   3.640 -0.3086  0.0217  0.6616
 6289SOL    HW230504   4.637   1.071   3.639  0.9066  1.5061 -2.7404
 6290SOL     OW30505   3.260   2.746   1.496  0.2542  0.1188  0.2927
 6290SOL    HW130506   3.182   2.742   1.550  0.8247  0.0787  1.1102
 6290SOL    HW230507   3.242   2.827   1.447  0.4811  1.6389  2.7268
 6291SOL     OW30508   1.719   1.523   7.244 -0.2771  0.2901  0.3255
 6291SOL    HW130509   1.786   1.520   7.176 -1.6145 -3.7286 -0.7620
 6291SOL    HW230510   1.733   1.607   7.288  2.6463  0.0068 -0.0922
 6292SOL     OW30511   3.338   0.490   2.888  0.2603 -0.5740 -0.0234
 6292SOL    HW130512   3.352   0.547   2.964 -0.1730  0.4605 -0.7154
 6292SOL    HW230513   3.324   0.406   2.931  0.1814 -0.5732 -0.0486
 6293SOL     OW30514   2.200   1.634  14.386  0.1506  0.2329  0.6635
 6293SOL    HW130515   2.285   1.634  14.340 -0.0184  1.6184  0.3373
 6293SOL    HW230516   2.167   1.724  14.387 -0.2049  0.1416 -2.1520
 6294SOL     OW30517   1.721   2.480  11.637  0.2555 -0.6385 -0.2274
 6294SOL    HW130518   1.782   2.414  11.671 -0.3109 -1.3218 -0.5332
 6294SOL    HW230519   1.782   2.554  11.639  1.7512 -1.8409 -1.3721
 6295SOL     OW30520   0.739   3.354   7.854  0.2840  0.4500 -0.4227
 6295SOL    HW130521   0.822   3.378   7.812  0.4512  1.3329  0.4007
 6295SOL    HW230522   0.715   3.440   7.889 -0.3136  0.2971 -0.4543
 6296SOL     OW30523   3.272   4.532  11.998  0.1567 -0.5338  0.1796
 6296SOL    HW130524   3.247   4.590  12.070  1.0313  1.1803 -0.8826
 6296SOL    HW230525   3.289   4.445  12.033 -0.1835 -0.5758  0.2343
 6297SOL     OW30526   0.849   1.230   8.912 -0.0116  0.0884  0.2511
 6297SOL    HW130527   0.942   1.213   8.922  0.1459  0.1964 -0.9679
 6297SOL    HW230528   0.821   1.139   8.915  0.0980  0.0363 -0.2655
 6298SOL     OW30529   0.150   1.797   5.668  0.3796 -0.0264  0.0431
 6298SOL    HW130530   0.231   1.746   5.670  1.1492  1.1083 -2.1826
 6298SOL    HW230531   0.123   1.784   5.577  2.4491 -2.3428 -0.2334
 6299SOL     OW30532   2.220   1.504  17.257  0.4814 -0.2772 -0.0152
 6299SOL    HW130533   2.242   1.450  17.181 -1.6564  0.7378 -1.3351
 6299SOL    HW230534   2.125   1.489  17.254  0.1023  2.1635 -0.3998
 6300SOL     OW30535   2.567   0.392  13.248 -0.3465 -0.0620  0.5966
 6300SOL    HW130536   2.541   0.422  13.161 -0.2513 -1.9737 -0.0853
 6300SOL    HW230537   2.484   0.394  13.294  0.3077 -3.0483  1.9565
 6301SOL     OW30538   3.149   0.024   0.263 -0.6710  0.1543 -0.5233
 6301SOL    HW130539   3.150   0.114   0.294 -2.8947  0.3453 -1.0436
 6301SOL    HW230540   3.214   0.040   0.194 -0.6631 -0.9653 -0.7724
 6302SOL     OW30541   1.864   0.890   2.863 -0.0636 -0.3034 -0.0921
 6302SOL    HW130542   1.812   0.929   2.793  0.9717  0.9258 -0.1905
 6302SOL    HW230543   1.857   0.798   2.836 -2.5945 -0.9970  2.9466
 6303SOL     OW30544   4.172   2.578   6.927  0.0194  0.3995  0.2563
 6303SOL    HW130545   4.111   2.504   6.924  2.3292 -1.5293  0.7275
 6303SOL    HW230546   4.223   2.544   7.000 -1.3975 -0.7851  0.6803
 6304SOL     OW30547   2.440   2.249   7.212 -0.0216  0.1354  0.0255
 6304SOL    HW130548   2.447   2.154   7.220  2.3610  0.3559  0.4591
 6304SOL    HW230549   2.348   2.251   7.187  0.5320  1.5586 -1.9435
 6305SOL     OW30550   2.649   3.312   0.587 -0.0046  0.6928 -0.2522
 6305SOL    HW130551   2.646   3.342   0.678  2.2140  0.5333 -0.1313
 6305SOL    HW230552   2.744   3.314   0.574  0.3232  0.9787  2.1257
 6306SOL     OW30553   1.362   1.921  15.978  0.2677  0.5375  0.5940
 6306SOL    HW130554   1.455   1.936  15.959  0.1321  1.0890  0.3591
 6306SOL    HW230555   1.332   2.008  16.006 -1.5776 -0.0438  0.3886
 6307SOL     OW30556   2.484   2.998   4.061  0.8123 -0.5063  0.3557
 6307SOL    HW130557   2.454   2.981   4.150 -1.9918  1.7588 -0.1669
 6307SOL    HW230558   2.507   2.908   4.039 -0.0003 -0.4421 -0.7543
 6308SOL     OW30559   1.561   0.295  17.263  0.2062 -0.5660  0.0223
 6308SOL    HW130560   1.557   0.245  17.182  2.1004 -1.5907  0.5500
 6308SOL    HW230561   1.649   0.330  17.271 -0.3295  0.6554  0.5240
 6309SOL     OW30562   3.714   0.407   3.375  0.1050 -0.4979 -0.2883
 6309SOL    HW130563   3.765   0.406   3.294 -1.7822  0.2794 -1.4876
 6309SOL    HW230564   3.638   0.367   3.333  0.0555 -2.3749  1.5906
 6310SOL     OW30565   1.820   2.611   8.281 -0.6225 -0.0222 -0.1279
 6310SOL    HW130566   1.867   2.576   8.357 -0.1376 -0.9140 -0.8363
 6310SOL    HW230567   1.879   2.587   8.210  0.4686 -1.4533  1.2553
 6311SOL     OW30568   0.875   0.559  11.826  0.3183 -0.0898  0.0031
 6311SOL    HW130569   0.788   0.546  11.866  0.5742 -0.1315  0.5473
 6311SOL    HW230570   0.889   0.650  11.851  1.5831  0.0886 -1.3878
 6312SOL     OW30571   4.029   2.756   1.021 -0.0176 -0.0275 -0.0290
 6312SOL    HW130572   4.042   2.790   0.933  0.1839  0.8164  0.3317
 6312SOL    HW230573   4.116   2.770   1.060 -0.1089  1.3271 -0.3320
 6313SOL     OW30574   4.445   4.255  16.951  0.2556  0.0704 -0.1246
 6313SOL    HW130575   4.523   4.257  16.896 -0.7221  3.5946 -1.4267
 6313SOL    HW230576   4.419   4.347  16.953  3.1282  0.8455  2.1013
 6314SOL     OW30577   1.620   0.150   1.898  0.1363 -0.0892  0.2332
 6314SOL    HW130578   1.556   0.133   1.828  1.0230 -1.5527 -0.2167
 6314SOL    HW230579   1.576   0.199   1.967 -2.1827 -0.1217 -1.2078
 6315SOL     OW30580   1.620   1.657   5.348 -0.0259  0.2836  0.2841
 6315SOL    HW130581   1.683   1.604   5.397 -0.2072  0.9944  1.2784
 6315SOL    HW230582   1.560   1.588   5.320 -0.3322  0.6044  0.1489
 6316SOL     OW30583   4.432   1.108  12.192  0.2828 -0.0823 -0.2338
 6316SOL    HW130584   4.431   1.120  12.098 -2.3210  0.8647 -0.0770
 6316SOL    HW230585   4.522   1.121  12.220  0.3304 -1.6284  0.3855
 6317SOL     OW30586   3.289   3.798   4.350 -0.0639 -0.0920  0.0423
 6317SOL    HW130587   3.311   3.855   4.423  2.4483 -2.2462  0.9789
 6317SOL    HW230588   3.335   3.724   4.389  0.4778 -0.1657 -0.7277
 6318SOL     OW30589   2.572   3.074   5.232 -0.1676 -0.0827 -0.6277
 6318SOL    HW130590   2.579   2.980   5.251  0.5065 -0.4228 -2.4638
 6318SOL    HW230591   2.514   3.096   5.304  0.2470  1.1745 -0.6863
 6319SOL     OW30592   0.976   2.018   8.412  0.0859 -0.1040 -0.0390
 6319SOL    HW130593   1.022   1.971   8.481  1.4113 -0.5885 -1.2513
 6319SOL    HW230594   0.997   1.970   8.331  0.6305  0.4693 -0.2314
 6320SOL     OW30595   2.433   1.968   6.194 -0.8952 -0.1630 -0.3166
 6320SOL    HW130596   2.496   1.995   6.261 -1.0559 -0.2334 -0.1377
 6320SOL    HW230597   2.467   1.878   6.188 -0.2127  0.1569 -1.2517
 6321SOL     OW30598   2.095   4.047   8.571 -0.1430 -0.5071 -0.1842
 6321SOL    HW130599   2.176   4.029   8.620  1.2111 -0.1282 -2.2708
 6321SOL    HW230600   2.059   3.959   8.572 -0.5772 -0.3199  1.4346
 6322SOL     OW30601   3.912   3.310   3.365 -0.6595  0.0645 -0.0955
 6322SOL    HW130602   3.872   3.366   3.300  2.2247  2.7361  0.4326
 6322SOL    HW230603   3.852   3.309   3.439 -2.0952  2.1620 -1.2611
 6323SOL     OW30604   4.178   4.513   6.561  0.0853  0.2545 -0.0621
 6323SOL    HW130605   4.212   4.598   6.590  1.3715 -0.2468 -0.1299
 6323SOL    HW230606   4.248   4.458   6.595  1.2255  0.1452 -2.6157
 6324SOL     OW30607   1.695   3.350   6.207 -0.3091 -0.0205 -0.1418
 6324SOL    HW130608   1.658   3.342   6.295  0.8634 -2.9807  0.0769
 6324SOL    HW230609   1.628   3.392   6.153  0.5629  0.7241 -0.6518
 6325SOL     OW30610   3.225   3.380   0.641 -0.2505  0.3151 -0.2762
 6325SOL    HW130611   3.147   3.325   0.634  0.3525 -0.3873 -1.4861
 6325SOL    HW230612   3.223   3.433   0.561 -0.5532  1.1429  0.2930
 6326SOL     OW30613   2.276   4.349  11.506  0.2789 -0.2700 -0.2490
 6326SOL    HW130614   2.311   4.409  11.571 -0.2615 -0.2936  0.0669
 6326SOL    HW230615   2.183   4.354  11.530  0.3888 -0.3334  0.1858
 6327SOL     OW30616   3.391   2.190  12.671 -0.1900  0.2524  0.2238
 6327SOL    HW130617   3.436   2.274  12.657  2.1977 -1.0986 -0.0850
 6327SOL    HW230618   3.313   2.223  12.717  0.0015 -1.4288  1.7529
 6328SOL     OW30619   3.522   1.426   7.609  0.6923  0.5164  0.0932
 6328SOL    HW130620   3.547   1.469   7.527  0.2134  0.5811 -0.0199
 6328SOL    HW230621   3.575   1.347   7.619 -1.4896 -1.0842 -0.9112
 6329SOL     OW30622   3.596   2.317  15.112  0.6433  0.1015 -0.2197
 6329SOL    HW130623   3.619   2.340  15.202  1.1519  1.5593 -0.7219
 6329SOL    HW230624   3.556   2.402  15.091  1.6618  0.5257 -0.4652
 6330SOL     OW30625   1.619   1.812   9.879  0.0302 -0.1895  0.2302
 6330SOL    HW130626   1.585   1.832   9.792 -0.2481 -1.5852  0.0249
 6330SOL    HW230627   1.539   1.768   9.906 -0.4220  0.3163 -0.2845
 6331SOL     OW30628   2.969   4.504   4.480  0.7336 -0.1064  0.2686
 6331SOL    HW130629   2.986   4.508   4.386  1.2096 -1.2181  0.3054
 6331SOL    HW230630   2.964   4.410   4.494 -0.9146 -0.0181  0.2891
 6332SOL     OW30631   3.176   2.281   8.054  0.5658  0.3368 -0.3577
 6332SOL    HW130632   3.111   2.221   8.018  0.1222  0.5891  0.0217
 6332SOL    HW230633   3.202   2.232   8.131  3.1891  0.1408 -1.3583
 6333SOL     OW30634   1.079   1.091   6.577 -0.6261 -0.4262 -0.1913
 6333SOL    HW130635   1.116   1.175   6.603  1.9751 -1.6990  0.1898
 6333SOL    HW230636   1.155   1.049   6.537  0.9400  0.7543  1.5681
 6334SOL     OW30637   1.378   0.323   3.096 -0.5562  0.4866  0.2039
 6334SOL    HW130638   1.303   0.381   3.109  0.2327  1.5472 -0.0210
 6334SOL    HW230639   1.448   0.387   3.107  0.2305 -0.5650  1.2019
 6335SOL     OW30640   2.673   2.245   3.261 -0.5857 -0.2233  0.9332
 6335SOL    HW130641   2.760   2.231   3.224 -1.7147  2.9820 -2.8822
 6335SOL    HW230642   2.629   2.171   3.218  0.2990 -1.5705  2.3257
 6336SOL     OW30643   3.842   0.586  10.625 -0.5377  0.1137  0.0337
 6336SOL    HW130644   3.751   0.561  10.643 -0.3956 -0.0992  0.4580
 6336SOL    HW230645   3.867   0.510  10.573  2.3015  0.0680  1.5086
 6337SOL     OW30646   2.956   0.575   6.286  0.1862  0.6304 -0.1402
 6337SOL    HW130647   2.917   0.565   6.373  1.2291 -1.0306  0.1403
 6337SOL    HW230648   2.881   0.611   6.240 -0.3333  0.0664  0.2760
 6338SOL     OW30649   3.948   0.186   9.152  0.0937 -0.6140  0.3825
 6338SOL    HW130650   3.989   0.146   9.076  0.9267 -0.3307  0.6779
 6338SOL    HW230651   3.904   0.258   9.108  0.0796 -0.4791  0.6131
 6339SOL     OW30652   3.943   3.733   1.354 -0.3336  0.1766 -0.5507
 6339SOL    HW130653   3.893   3.751   1.433 -0.9661 -1.0452 -0.6655
 6339SOL    HW230654   4.023   3.696   1.391  0.5943 -0.2922 -3.0294
 6340SOL     OW30655   4.178   1.840   5.762  0.2184 -0.4490  0.0682
 6340SOL    HW130656   4.253   1.851   5.822 -0.7397  0.2289  1.1369
 6340SOL    HW230657   4.212   1.880   5.682 -1.6754 -1.5171 -1.2680
 6341SOL     OW30658   2.778   1.095   2.029 -0.5269 -0.2351 -0.1210
 6341SOL    HW130659   2.686   1.082   2.050 -0.4147 -0.8178  0.0227
 6341SOL    HW230660   2.806   1.094   2.121  0.6219 -1.3061 -0.4702
 6342SOL     OW30661   2.131   3.589  11.644 -0.4637  0.0894  0.5743
 6342SOL    HW130662   2.078   3.527  11.595 -0.2192 -0.6371  1.2338
 6342SOL    HW230663   2.056   3.625  11.692  0.6551 -0.6033  2.8627
 6343SOL     OW30664   2.279   3.258   5.250 -0.5614 -0.3984 -0.1996
 6343SOL    HW130665   2.249   3.255   5.341  0.0727 -0.1600  0.0206
 6343SOL    HW230666   2.276   3.352   5.234  0.9946 -0.1463  0.9232
 6344SOL     OW30667   1.513   2.723   5.454  0.0732 -0.3385  0.0465
 6344SOL    HW130668   1.455   2.669   5.507  0.6679 -0.9226  0.1010
 6344SOL    HW230669   1.535   2.791   5.517 -1.2687 -0.1269  0.3061
 6345SOL     OW30670   4.270   3.938  13.759 -0.2464  0.0628  0.8104
 6345SOL    HW130671   4.231   4.024  13.770 -0.7637 -0.1147  0.3614
 6345SOL    HW230672   4.231   3.898  13.836 -1.2836 -0.6137 -0.0586
 6346SOL     OW30673   4.658   3.952  12.713  0.7299 -0.2330  0.2344
 6346SOL    HW130674   4.659   3.961  12.618 -2.9047 -0.6746  0.1487
 6346SOL    HW230675   4.721   3.882  12.728 -0.7279 -2.3481 -3.7489
 6347SOL     OW30676   2.463   1.457  15.120 -0.3447  0.5203 -0.5678
 6347SOL    HW130677   2.417   1.493  15.044 -0.7278  0.4201 -0.3857
 6347SOL    HW230678   2.503   1.379  15.080  0.9681  0.3181  1.1698
 6348SOL     OW30679   2.521   4.377   6.964 -0.3911  0.1405  0.2697
 6348SOL    HW130680   2.548   4.455   7.012 -0.7899  0.3509  0.1473
 6348SOL    HW230681   2.571   4.389   6.883  1.3677 -0.6027  1.2345
 6349SOL     OW30682   2.119   1.237   7.702 -0.3212  0.1835 -0.0855
 6349SOL    HW130683   2.064   1.247   7.625 -1.1523  1.6605  0.6917
 6349SOL    HW230684   2.209   1.240   7.670 -0.3135 -0.2577 -0.0988
 6350SOL     OW30685   3.634   0.760   4.695  0.9370 -0.5414 -0.8192
 6350SOL    HW130686   3.571   0.790   4.629  0.7674 -0.4042 -0.5960
 6350SOL    HW230687   3.712   0.751   4.641  0.6857  0.0848 -1.2886
 6351SOL     OW30688   2.710   0.686   2.568  0.0864  0.4199  0.0413
 6351SOL    HW130689   2.740   0.629   2.638  2.6288 -1.5093 -2.5948
 6351SOL    HW230690   2.614   0.680   2.568  0.2340 -1.5923  1.4472
 6352SOL     OW30691   2.585   0.970   3.610  0.3595  0.3506  0.4087
 6352SOL    HW130692   2.582   0.927   3.525 -0.1774  0.2547  0.4739
 6352SOL    HW230693   2.529   0.915   3.665  1.6891  0.0683  1.4717
 6353SOL     OW30694   2.312   0.518   2.787 -0.0642 -0.0174 -0.3482
 6353SOL    HW130695   2.254   0.486   2.718  0.4337  0.5548 -1.0350
 6353SOL    HW230696   2.246   0.539   2.853 -2.5157  2.1299 -3.4961
 6354SOL     OW30697   2.776   2.819   3.857  0.3251  0.3585 -0.2873
 6354SOL    HW130698   2.734   2.792   3.775  0.4846  0.1523 -0.3016
 6354SOL    HW230699   2.835   2.745   3.871  1.2743  0.8887 -1.4365
 6355SOL     OW30700   1.478   1.364   1.478 -0.3206 -0.4441  0.3084
 6355SOL    HW130701   1.460   1.271   1.470 -0.7461 -0.4060  0.8185
 6355SOL    HW230702   1.389   1.400   1.481 -0.0362  0.2255  0.7780
 6356SOL     OW30703   0.502   2.343   5.115  0.0006 -0.0240  0.3172
 6356SOL    HW130704   0.456   2.411   5.068 -0.7789 -0.2359  0.7759
 6356SOL    HW230705   0.445   2.320   5.188 -2.3874 -0.9758 -1.8700
 6357SOL     OW30706   0.584   3.307   6.115  0.0442  0.1663 -0.0529
 6357SOL    HW130707   0.662   3.305   6.060 -0.3502  1.2688 -0.6645
 6357SOL    HW230708   0.554   3.396   6.098  2.2032  0.9708  0.3999
 6358SOL     OW30709   3.537   0.838   3.654  0.2900 -0.0740 -0.1530
 6358SOL    HW130710   3.609   0.812   3.711 -0.5646 -2.0925 -0.0050
 6358SOL    HW230711   3.541   0.777   3.580 -0.8288  0.1526 -0.4029
 6359SOL     OW30712   1.694   2.464   4.776  0.4702 -0.0263  0.0574
 6359SOL    HW130713   1.780   2.461   4.735  0.7147 -1.9193  0.6802
 6359SOL    HW230714   1.707   2.534   4.839 -1.6249  1.0326 -0.6858
 6360SOL     OW30715   1.728   2.384  16.276  0.2596  0.3252  0.0288
 6360SOL    HW130716   1.746   2.466  16.320  2.8958 -1.7841  2.8982
 6360SOL    HW230717   1.755   2.324  16.346  1.2699  0.6754 -0.0533
 6361SOL     OW30718   2.390   3.022   6.953  0.3293  0.2753  0.6586
 6361SOL    HW130719   2.331   2.949   6.934 -0.5968  0.7721  1.5959
 6361SOL    HW230720   2.358   3.037   7.042  0.9648 -2.9925  1.4375
 6362SOL     OW30721   0.804   1.711   6.248 -0.5480  0.3817  0.0397
 6362SOL    HW130722   0.857   1.684   6.322  1.3784 -0.5047 -1.6813
 6362SOL    HW230723   0.868   1.753   6.191  0.3707  0.7792  1.3501
 6363SOL     OW30724   4.294   2.908   3.860  0.3435 -0.2511 -0.0533
 6363SOL    HW130725   4.350   2.958   3.919  0.6172 -0.9090  0.2416
 6363SOL    HW230726   4.338   2.913   3.775  0.6945 -1.4687  0.0548
 6364SOL     OW30727   2.547   0.536   8.337 -0.5992 -1.1221  0.5132
 6364SOL    HW130728   2.631   0.574   8.363  0.1925 -0.8872 -2.4484
 6364SOL    HW230729   2.531   0.577   8.252 -1.3562 -0.6522  0.8812
 6365SOL     OW30730   3.898   4.673   5.609  0.7596  0.2514 -0.2684
 6365SOL    HW130731   3.963   4.739   5.632  0.9161 -0.4877  1.4818
 6365SOL    HW230732   3.833   4.690   5.677  1.1090 -2.9970  0.9052
 6366SOL     OW30733   3.046   3.153   1.082  0.1616  0.6232 -0.4490
 6366SOL    HW130734   3.025   3.198   1.164 -2.7869 -1.4929 -0.0613
 6366SOL    HW230735   3.141   3.152   1.088  0.0671  1.7118  1.3501
 6367SOL     OW30736   2.860   3.354   7.723  0.3767 -0.5089  0.6922
 6367SOL    HW130737   2.872   3.281   7.784  0.0788 -1.0983  0.0393
 6367SOL    HW230738   2.922   3.325   7.656  2.0080  2.9483  0.6772
 6368SOL     OW30739   3.117   1.838   8.703  0.3767 -0.4508  0.4613
 6368SOL    HW130740   3.124   1.820   8.610 -0.9589  0.2392  0.2303
 6368SOL    HW230741   3.048   1.777   8.731 -0.1321 -0.4235 -0.7544
 6369SOL     OW30742   0.414   0.889  12.996  0.2318  0.0489  0.4149
 6369SOL    HW130743   0.478   0.906  12.926 -0.8975 -0.0978 -0.6519
 6369SOL    HW230744   0.485   0.888  13.061  1.6353 -3.1296 -1.1346
 6370SOL     OW30745   1.115   4.163   3.889 -0.1430  0.2947 -0.0272
 6370SOL    HW130746   1.171   4.087   3.878  2.7729  2.1963  1.8732
 6370SOL    HW230747   1.079   4.139   3.975 -0.9884  1.0290 -0.1713
 6371SOL     OW30748   0.674   3.751   8.372 -0.3921  0.4001 -0.1344
 6371SOL    HW130749   0.767   3.748   8.395 -0.7369  1.1547  1.3843
 6371SOL    HW230750   0.647   3.836   8.409  1.3491  0.7306  0.3909
 6372SOL     OW30751   3.713   2.243   1.269  0.2496 -0.1235 -0.3445
 6372SOL    HW130752   3.703   2.163   1.321  0.6981 -0.4142 -0.7041
 6372SOL    HW230753   3.691   2.203   1.184  2.6019  1.6597 -1.7709
 6373SOL     OW30754   2.331   4.448  14.304 -0.1187 -0.0463  0.3331
 6373SOL    HW130755   2.368   4.408  14.382  0.0225  0.8885  0.7409
 6373SOL    HW230756   2.289   4.365  14.283  2.7411 -1.3953 -0.1580
 6374SOL     OW30757   1.669   2.443  14.880  0.1645  0.2076  0.3554
 6374SOL    HW130758   1.615   2.451  14.801 -0.2621  0.1880  0.6401
 6374SOL    HW230759   1.666   2.351  14.904  0.1082 -0.5722 -2.7220
 6375SOL     OW30760   1.963   1.201   6.141  0.0206 -0.3311  0.0596
 6375SOL    HW130761   1.994   1.236   6.225 -0.9689  0.1584  0.2308
 6375SOL    HW230762   1.989   1.264   6.073 -1.3760 -0.4986 -0.6312
 6376SOL     OW30763   2.238   3.172  14.401 -0.6084 -0.3005  0.8541
 6376SOL    HW130764   2.235   3.229  14.325 -0.0297  0.1354  1.1549
 6376SOL    HW230765   2.331   3.149  14.399 -0.5012  0.2966 -0.9095
 6377SOL     OW30766   1.053   0.956   8.620 -0.0326 -0.1565  0.0093
 6377SOL    HW130767   1.044   0.982   8.528  1.2295 -1.4894 -0.4828
 6377SOL    HW230768   0.970   0.910   8.631 -0.5188  0.6052 -0.4018
 6378SOL     OW30769   3.761   3.220   5.515  0.4950  0.7198 -0.2471
 6378SOL    HW130770   3.761   3.135   5.469 -1.3129  0.3498  0.4313
 6378SOL    HW230771   3.852   3.216   5.545  0.4636 -0.5441 -0.3055
 6379SOL     OW30772   1.393   3.960   5.551  0.6889 -0.1975 -0.1225
 6379SOL    HW130773   1.419   3.888   5.609 -0.1462 -0.3552  0.0512
 6379SOL    HW230774   1.418   3.928   5.464 -1.5652  0.1910 -0.9188
 6380SOL     OW30775   3.064   0.417   9.469 -0.3744  0.2993  0.1337
 6380SOL    HW130776   3.143   0.364   9.473 -1.5108 -1.7028 -4.2675
 6380SOL    HW230777   3.028   0.418   9.558  0.9070  0.2255  0.6503
 6381SOL     OW30778   0.121   0.088   2.531  0.1366 -0.2734  0.3632
 6381SOL    HW130779   0.094   0.048   2.614 -3.0645 -0.6205 -0.8580
 6381SOL    HW230780   0.104   0.181   2.544 -2.2224 -0.6586  0.0003
 6382SOL     OW30781   1.959   2.748   3.033  0.1799 -0.8543 -0.5702
 6382SOL    HW130782   2.029   2.782   3.089 -0.1953 -0.4342 -0.3595
 6382SOL    HW230783   1.922   2.828   2.998 -0.0849 -0.0307  1.5884
 6383SOL     OW30784   3.189   2.426   2.361  0.3728  0.4462  0.0049
 6383SOL    HW130785   3.252   2.465   2.300  0.2909 -0.4487 -0.6656
 6383SOL    HW230786   3.115   2.483   2.341  0.9868  0.5116 -2.0797
 6384SOL     OW30787   2.914   0.269   1.653  0.0591  0.0925 -0.4410
 6384SOL    HW130788   2.939   0.193   1.705 -1.9141  1.3144  2.3294
 6384SOL    HW230789   2.839   0.226   1.614  1.7720 -1.1877 -2.3231
 6385SOL     OW30790   1.994   2.592   6.702  0.6507 -0.3344  0.4771
 6385SOL    HW130791   2.077   2.608   6.746  1.2013 -0.0010 -0.6830
 6385SOL    HW230792   2.002   2.657   6.632  2.5110  0.1684  1.1623
 6386SOL     OW30793   4.242   1.682  12.229  0.2294  0.0658 -0.0532
 6386SOL    HW130794   4.157   1.694  12.185  0.2388  2.1247  0.4615
 6386SOL    HW230795   4.226   1.725  12.313  0.5187  2.1069 -1.0452
 6387SOL     OW30796   1.154   4.115   5.486 -0.0854  0.7978  0.0019
 6387SOL    HW130797   1.092   4.058   5.440  0.7512  2.3351 -3.0497
 6387SOL    HW230798   1.201   4.047   5.534 -1.9267  0.0220  0.6920
 6388SOL     OW30799   1.114   0.624   5.922  0.1222 -0.4639 -0.0642
 6388SOL    HW130800   1.112   0.564   5.847 -0.3209 -0.0787 -0.3615
 6388SOL    HW230801   1.030   0.662   5.896  0.4859  0.5851  0.3104
 6389SOL     OW30802   3.404   3.381  10.906  0.0035 -0.3930 -0.5620
 6389SOL    HW130803   3.441   3.348  10.988  0.9135  0.6694 -0.5445
 6389SOL    HW230804   3.464   3.353  10.838  1.5846  0.6702  0.3859
 6390SOL     OW30805   0.840   2.436  14.568 -0.5321 -0.3958  0.3822
 6390SOL    HW130806   0.871   2.377  14.500  1.3937 -2.9265  3.4351
 6390SOL    HW230807   0.747   2.416  14.577 -0.7952  1.1374  1.0846
 6391SOL     OW30808   0.209   0.460   2.799  0.4155 -0.8089 -0.3496
 6391SOL    HW130809   0.156   0.389   2.836  0.3843 -0.2881  0.5783
 6391SOL    HW230810   0.170   0.536   2.841  1.4495 -0.8398  0.6565
 6392SOL     OW30811   0.237   3.353   2.808  0.1158 -0.2056  0.0504
 6392SOL    HW130812   0.226   3.279   2.748 -2.6226  0.4252 -0.2203
 6392SOL    HW230813   0.182   3.321   2.880  1.3955 -0.6547  0.8346
 6393SOL     OW30814   3.708   2.188   2.727  0.6062  0.1354  0.3976
 6393SOL    HW130815   3.765   2.120   2.762 -0.3412 -0.9940 -0.2543
 6393SOL    HW230816   3.721   2.181   2.633 -0.8699  0.0553  0.1952
 6394SOL     OW30817   4.311   4.277  12.524  0.1264 -0.5081 -0.3555
 6394SOL    HW130818   4.353   4.328  12.455  0.7378  1.5623  1.5584
 6394SOL    HW230819   4.381   4.213  12.540  0.2588 -1.1365 -3.5773
 6395SOL     OW30820   0.121   4.361   4.786 -0.0345 -0.2443 -0.5021
 6395SOL    HW130821   0.202   4.354   4.735 -0.8276  1.8990 -2.0003
 6395SOL    HW230822   0.053   4.334   4.725 -0.2383  0.3984 -0.5557
 6396SOL     OW30823   1.116   2.469   9.492 -0.1041 -0.0881 -0.1446
 6396SOL    HW130824   1.122   2.516   9.575  0.6107 -2.0400  0.9245
 6396SOL    HW230825   1.066   2.539   9.451 -1.4289 -1.8748 -1.6009
 6397SOL     OW30826   2.620   1.425   7.357 -0.3555  0.0940 -0.3059
 6397SOL    HW130827   2.664   1.494   7.407  0.9801 -2.1030  1.5344
 6397SOL    HW230828   2.539   1.412   7.406 -0.9228 -2.3684 -1.9234
 6398SOL     OW30829   3.897   2.673   9.156 -0.8188 -0.4164  0.2237
 6398SOL    HW130830   3.821   2.724   9.127 -1.3077 -1.4250 -0.2776
 6398SOL    HW230831   3.975   2.700   9.108 -0.2628  0.0051  1.3740
 6399SOL     OW30832   2.458   3.999   1.726 -0.1686 -0.3914 -0.2195
 6399SOL    HW130833   2.481   3.975   1.816  0.4022  1.1759  0.0643
 6399SOL    HW230834   2.531   3.961   1.677 -0.8045 -0.0837 -1.3922
 6400SOL     OW30835   1.224   3.427   7.451  0.1242 -0.1389 -0.3598
 6400SOL    HW130836   1.214   3.495   7.383 -1.2468  0.1752  0.1548
 6400SOL    HW230837   1.134   3.396   7.462 -0.0308  0.2974 -0.4085
 6401SOL     OW30838   4.054   4.618   6.108 -0.0830 -0.2741  0.6606
 6401SOL    HW130839   3.987   4.565   6.066  0.2505  0.2410 -0.5178
 6401SOL    HW230840   4.084   4.557   6.175  0.5551  0.8282  1.3850
 6402SOL     OW30841   1.809   0.092  10.252  0.1995  0.2478 -0.1189
 6402SOL    HW130842   1.827   0.029  10.182 -0.7759  0.8337 -0.9067
 6402SOL    HW230843   1.752   0.044  10.311  0.6788 -3.0904 -2.3443
 6403SOL     OW30844   0.923   1.297  13.008 -0.0518  0.0177  0.6446
 6403SOL    HW130845   0.873   1.370  12.971  2.0022  0.3795 -1.3982
 6403SOL    HW230846   1.001   1.347  13.033  0.1822 -0.2700  0.4858
 6404SOL     OW30847   3.326   1.540   4.314 -0.7170  0.3883  0.3231
 6404SOL    HW130848   3.398   1.476   4.311 -0.6263  0.5032  0.0506
 6404SOL    HW230849   3.289   1.537   4.226 -0.8054  1.9604  0.3081
 6405SOL     OW30850   1.432   2.558  10.390  0.1407  0.4763 -0.1712
 6405SOL    HW130851   1.503   2.579  10.328  0.3581  0.8105  0.1918
 6405SOL    HW230852   1.370   2.539  10.319  1.0176  1.3722 -1.1955
 6406SOL     OW30853   2.794   1.990   1.838 -0.2687 -0.1566  0.1260
 6406SOL    HW130854   2.875   2.029   1.871 -0.7037  1.7834 -1.1125
 6406SOL    HW230855   2.813   1.896   1.834  2.5281  0.4525 -0.5582
 6407SOL     OW30856   2.597   1.450  15.379 -0.3211 -0.3476 -0.2088
 6407SOL    HW130857   2.651   1.513  15.427  0.6560  0.9724 -3.0506
 6407SOL    HW230858   2.583   1.485  15.291 -0.7297  0.4732  0.1821
 6408SOL     OW30859   4.274   1.753  15.325 -0.3731 -1.1319  0.2986
 6408SOL    HW130860   4.210   1.690  15.290 -0.6602 -1.6334  1.7307
 6408SOL    HW230861   4.353   1.726  15.280  0.9671  1.1904  1.2617
 6409SOL     OW30862   1.491   0.797  17.451 -0.2113 -0.2918  0.4486
 6409SOL    HW130863   1.460   0.715  17.413  0.9911 -0.2080 -0.7169
 6409SOL    HW230864   1.409   0.836  17.480  0.7105  0.4454  2.0740
 6410SOL     OW30865   0.529   1.527   4.363  0.6005  0.2297  0.6518
 6410SOL    HW130866   0.576   1.513   4.445 -0.9293  0.0108  1.4881
 6410SOL    HW230867   0.541   1.437   4.333  0.4883  0.7746 -0.9988
 6411SOL     OW30868   3.000   2.457   3.127  0.2659  0.4255 -0.1359
 6411SOL    HW130869   3.053   2.471   3.048  1.0206 -0.6987  0.1844
 6411SOL    HW230870   3.022   2.533   3.181 -0.5506 -1.0964  2.3017
 6412SOL     OW30871   3.734   3.769   2.179  0.3848 -0.1428  0.1184
 6412SOL    HW130872   3.731   3.855   2.139 -1.4068  0.8588  2.4142
 6412SOL    HW230873   3.642   3.743   2.185  1.1651 -3.3322 -1.6604
 6413SOL     OW30874   3.333   3.811   5.056  0.0818 -0.4807  0.4987
 6413SOL    HW130875   3.405   3.863   5.021 -1.0670 -0.0877 -1.2812
 6413SOL    HW230876   3.334   3.744   4.988 -2.4263 -1.4027  1.3740
 6414SOL     OW30877   2.700   1.461   4.560  0.4422  0.1860  0.2801
 6414SOL    HW130878   2.728   1.428   4.475  0.2164 -0.3734  0.4201
 6414SOL    HW230879   2.707   1.555   4.544  2.2235  0.5359  3.1009
 6415SOL     OW30880   0.799   0.084   9.480  0.2103 -0.5579  0.4341
 6415SOL    HW130881   0.891   0.056   9.476  0.6774  0.8406  1.5786
 6415SOL    HW230882   0.793   0.098   9.574 -1.5284 -0.5694  0.3309
 6416SOL     OW30883   3.756   4.112   5.562  0.1918 -0.3908  0.1830
 6416SOL    HW130884   3.797   4.140   5.644  0.1782  2.8627 -0.9126
 6416SOL    HW230885   3.689   4.050   5.592  0.9277 -1.1914  0.1861
 6417SOL     OW30886   1.614   0.122   6.935  0.4479 -0.7646  0.1006
 6417SOL    HW130887   1.658   0.043   6.966  0.2736  0.5982  3.7529
 6417SOL    HW230888   1.692   0.171   6.908  0.5039 -1.5145 -1.1463
 6418SOL     OW30889   3.184   3.203   4.368  0.1321  0.0433 -0.1783
 6418SOL    HW130890   3.183   3.108   4.358 -1.5780  0.0521 -0.1313
 6418SOL    HW230891   3.261   3.227   4.318  0.0978  1.2956  0.3775
 6419SOL     OW30892   2.267   4.421   8.527 -0.7438 -0.9790 -0.2105
 6419SOL    HW130893   2.341   4.395   8.472 -1.5830 -2.9752 -0.4091
 6419SOL    HW230894   2.304   4.423   8.615 -1.2083  3.9360 -0.1731
 6420SOL     OW30895   1.827   2.191   6.386 -0.2733 -0.3329  0.2850
 6420SOL    HW130896   1.762   2.207   6.455 -1.7403 -1.6756 -0.7629
 6420SOL    HW230897   1.783   2.112   6.354  1.4370 -0.3686 -1.9326
 6421SOL     OW30898   2.043   2.183   4.158 -0.2111 -0.0957 -0.1961
 6421SOL    HW130899   2.065   2.241   4.085 -1.3869  1.2246  0.4986
 6421SOL    HW230900   2.113   2.119   4.143 -0.5349 -0.3361 -0.7082
 6422SOL     OW30901   1.154   1.076  17.295  0.5115  0.2300  0.5825
 6422SOL    HW130902   1.086   1.057  17.231  1.6273 -2.8626  0.2763
 6422SOL    HW230903   1.226   1.061  17.234  2.1280 -1.1939  2.8180
 6423SOL     OW30904   0.365   2.873   6.829 -0.1579  0.6098  0.1256
 6423SOL    HW130905   0.277   2.907   6.845  0.5247  1.3103  2.3087
 6423SOL    HW230906   0.381   2.830   6.913  1.6471  0.5525 -0.2407
 6424SOL     OW30907   1.168   3.898  15.498 -0.2770 -0.8567  0.3909
 6424SOL    HW130908   1.248   3.854  15.469 -1.9354 -2.1307 -2.2533
 6424SOL    HW230909   1.142   3.949  15.422  1.3711  1.6153  1.4981
 6425SOL     OW30910   4.564   2.698   0.799  0.0072 -0.4868 -0.1917
 6425SOL    HW130911   4.591   2.787   0.778  1.0096 -1.1285 -1.5950
 6425SOL    HW230912   4.483   2.685   0.749  0.3802 -2.4904 -0.2814
 6426SOL     OW30913   2.909   4.447   7.547 -0.5991 -0.0470  0.0897
 6426SOL    HW130914   2.984   4.387   7.548 -1.7385 -1.4920 -2.5689
 6426SOL    HW230915   2.939   4.506   7.617 -1.4618 -0.6952  1.0012
 6427SOL     OW30916   0.604   1.081   1.105  0.0996 -0.3234 -0.6333
 6427SOL    HW130917   0.511   1.077   1.082 -0.3920  1.0376  1.1380
 6427SOL    HW230918   0.604   1.123   1.191  2.2591  0.5086 -1.0354
 6428SOL     OW30919   4.456   1.948   8.661  0.0528  0.0478  0.5055
 6428SOL    HW130920   4.505   2.012   8.712 -1.1977 -0.9198  2.9341
 6428SOL    HW230921   4.467   1.865   8.708  1.1589 -0.6916 -1.0699
 6429SOL     OW30922   0.170   1.362   2.597  0.0598 -0.5578  0.2777
 6429SOL    HW130923   0.136   1.450   2.581 -2.5202 -1.8553 -1.3066
 6429SOL    HW230924   0.254   1.388   2.635  0.3746  0.0404 -0.8333
 6430SOL     OW30925   3.458   3.678   7.870  0.2500 -0.1375 -0.2163
 6430SOL    HW130926   3.404   3.749   7.905 -1.4476 -2.0903  1.1369
 6430SOL    HW230927   3.533   3.684   7.929 -2.2630 -0.1615  2.9672
 6431SOL     OW30928   1.190   2.878   4.475  0.6185 -0.1285  0.2883
 6431SOL    HW130929   1.218   2.788   4.493  1.5048 -0.4551 -2.6179
 6431SOL    HW230930   1.108   2.897   4.520  0.9295  3.4546 -0.6736
 6432SOL     OW30931   0.587   1.596  13.415  0.1898  0.1827  0.3420
 6432SOL    HW130932   0.615   1.656  13.483  1.4880 -1.2898  1.1083
 6432SOL    HW230933   0.573   1.659  13.345  0.2217 -1.6697 -1.3519
 6433SOL     OW30934   0.282   2.870   4.449  0.2194 -0.5250  0.0853
 6433SOL    HW130935   0.323   2.955   4.441  1.0069 -0.8186  1.1434
 6433SOL    HW230936   0.360   2.818   4.429 -0.0703 -0.2978 -1.6113
 6434SOL     OW30937   4.321   2.388  10.981  0.6231  0.3154 -0.3465
 6434SOL    HW130938   4.387   2.455  10.962 -0.5682  1.0552 -1.8583
 6434SOL    HW230939   4.371   2.309  11.003 -0.0991  0.0642  0.3623
 6435SOL     OW30940   2.792   3.170   0.895 -0.2315  0.1466 -0.7198
 6435SOL    HW130941   2.760   3.260   0.903  1.5917  0.8659 -1.5112
 6435SOL    HW230942   2.845   3.153   0.973  1.8929  0.2000 -2.1693
 6436SOL     OW30943   3.465   1.870   4.063  0.5511 -0.3193 -0.0459
 6436SOL    HW130944   3.499   1.960   4.056 -2.4077  0.5544 -3.2181
 6436SOL    HW230945   3.372   1.883   4.081  0.5533 -0.5554  0.1266
 6437SOL     OW30946   4.012   1.283   4.788 -0.2482  0.4320 -0.1445
 6437SOL    HW130947   3.934   1.241   4.752  0.6658 -1.7876  0.4739
 6437SOL    HW230948   3.984   1.374   4.794  2.2924  1.0678  2.2913
 6438SOL     OW30949   0.415   0.857   1.311  0.0319  0.2257 -0.3030
 6438SOL    HW130950   0.403   0.892   1.399 -3.0135  0.5222 -0.8295
 6438SOL    HW230951   0.336   0.900   1.278  1.5648  1.9276 -1.8096
 6439SOL     OW30952   3.592   1.274  17.692  0.1729  0.1308 -0.3242
 6439SOL    HW130953   3.625   1.230   0.005 -0.2769 -0.0281 -0.2276
 6439SOL    HW230954   3.648   1.351  17.684 -0.6186  0.8500  0.9546
 6440SOL     OW30955   2.836   3.223   4.144  0.0854  0.2921 -0.3852
 6440SOL    HW130956   2.840   3.137   4.187 -0.9525  0.5319  0.1817
 6440SOL    HW230957   2.929   3.221   4.121  0.9042 -2.1460  3.1135
 6441SOL     OW30958   3.310   2.303   1.475  0.4099 -0.3438  0.0247
 6441SOL    HW130959   3.339   2.303   1.566  0.2280 -0.2872  0.0823
 6441SOL    HW230960   3.367   2.365   1.430  0.2008 -1.0436 -1.2043
 6442SOL     OW30961   3.937   4.731   4.836 -0.0825 -0.3349  0.3048
 6442SOL    HW130962   3.857   0.042   4.829 -0.9227 -1.5391  0.7177
 6442SOL    HW230963   3.907   4.652   4.791 -0.0399  0.7498 -1.6078
 6443SOL     OW30964   3.693   0.636   1.859 -0.0683 -0.0327 -0.0442
 6443SOL    HW130965   3.647   0.719   1.867 -0.5729 -0.3831  0.6072
 6443SOL    HW230966   3.731   0.644   1.947  3.0956 -4.1628 -1.0168
 6444SOL     OW30967   4.566   1.860   1.278 -0.8027 -0.0345  0.1402
 6444SOL    HW130968   4.485   1.879   1.325 -0.0708 -0.2392  1.4780
 6444SOL    HW230969   4.531   1.879   1.191 -1.2598 -2.9034 -0.3149
 6445SOL     OW30970   2.290   2.699  11.491  0.1433  0.0184  0.0499
 6445SOL    HW130971   2.245   2.657  11.417 -0.8684  0.0479  0.6436
 6445SOL    HW230972   2.309   2.786  11.457  0.8092  0.1527  0.7801
 6446SOL     OW30973   3.763   2.669   6.271 -0.1154 -0.4359 -0.9710
 6446SOL    HW130974   3.851   2.675   6.236  1.0152  0.2415  1.9501
 6446SOL    HW230975   3.720   2.662   6.186 -1.7236 -1.8358 -0.0581
 6447SOL     OW30976   2.394   0.465   6.421  0.1119  0.1775  0.6219
 6447SOL    HW130977   2.375   0.543   6.473  2.0875 -0.6507  2.6068
 6447SOL    HW230978   2.462   0.416   6.468 -2.1245 -0.8673  2.7394
 6448SOL     OW30979   4.658   3.378   1.954  0.0588  0.2865 -0.0387
 6448SOL    HW130980   4.652   3.375   2.050  1.6872 -1.4300 -0.0150
 6448SOL    HW230981   4.625   3.467   1.937  2.2569  0.5400 -2.9983
 6449SOL     OW30982   1.364   0.700   4.830 -0.5641  1.0447 -0.0697
 6449SOL    HW130983   1.334   0.616   4.865  1.8292  0.1569 -0.1238
 6449SOL    HW230984   1.450   0.707   4.872  0.1110 -3.1877 -0.7653
 6450SOL     OW30985   2.780   4.095   4.799  0.1052  0.2357  0.2018
 6450SOL    HW130986   2.753   4.051   4.880 -0.8348 -0.6535 -0.6021
 6450SOL    HW230987   2.843   4.029   4.768 -0.8378 -1.9458  2.8830
 6451SOL     OW30988   1.129   2.549   6.471  0.3492  0.7167  0.1287
 6451SOL    HW130989   1.181   2.480   6.431 -0.7784 -0.2305  0.3084
 6451SOL    HW230990   1.068   2.563   6.399  1.7805 -0.8652 -1.3854
 6452SOL     OW30991   4.573   2.751   7.835  0.0620 -0.3552  0.2020
 6452SOL    HW130992   4.568   2.812   7.909  1.2172  0.8076 -0.6801
 6452SOL    HW230993   4.501   2.785   7.782 -0.2517 -0.9462  0.2566
 6453SOL     OW30994   4.393   2.516   8.639 -0.3976  0.5594  0.2952
 6453SOL    HW130995   4.375   2.591   8.696 -0.3057 -0.3671  1.5555
 6453SOL    HW230996   4.306   2.479   8.649 -0.4122  0.0381 -1.9329
 6454SOL     OW30997   0.510   3.073   8.406  0.0784 -0.1679  0.1419
 6454SOL    HW130998   0.538   2.983   8.423 -1.0921 -0.6398 -0.4727
 6454SOL    HW230999   0.499   3.078   8.311 -3.4011 -0.8413  0.5257
 6455SOL     OW31000   0.548   0.091   8.494 -0.2115  0.3523  0.8349
 6455SOL    HW131001   0.506   0.176   8.506  0.4883  0.7976  0.1454
 6455SOL    HW231002   0.486   0.048   8.435 -0.9696 -0.4924  2.2687
 6456SOL     OW31003   0.613   0.361   2.619 -0.3646 -0.0206  0.3522
 6456SOL    HW131004   0.611   0.270   2.649  3.6654 -0.5296 -0.9571
 6456SOL    HW231005   0.609   0.347   2.525 -1.2954 -0.1356  0.4027
 6457SOL     OW31006   0.655   2.672   3.393  0.3549 -0.0326  0.2671
 6457SOL    HW131007   0.674   2.600   3.454 -0.4534 -0.3824  0.1108
 6457SOL    HW231008   0.703   2.740   3.439  0.1304  0.5043 -0.2915
 6458SOL     OW31009   0.065   0.101   5.507  0.3112  0.7269 -0.2978
 6458SOL    HW131010   0.024   0.127   5.424 -1.5935 -0.4571  0.2626
 6458SOL    HW231011   4.730   0.089   5.563 -0.0258  1.8584 -0.5229
 6459SOL     OW31012   3.210   2.192   5.882 -0.1599 -0.2271 -0.3743
 6459SOL    HW131013   3.224   2.207   5.975 -2.3646  0.9163 -0.2292
 6459SOL    HW231014   3.220   2.281   5.847  0.8991 -0.0602  0.3583
 6460SOL     OW31015   3.878   4.557  15.398  0.0183  0.0906  0.3808
 6460SOL    HW131016   3.927   4.478  15.423 -0.4376 -0.1812  0.4356
 6460SOL    HW231017   3.938   4.623  15.433 -0.4975  0.7054  0.0937
 6461SOL     OW31018   2.857   1.727   9.034  0.0370  0.4708  0.2982
 6461SOL    HW131019   2.919   1.783   9.079 -0.7660  2.3027 -0.8819
 6461SOL    HW231020   2.880   1.641   9.070 -2.1921  0.9555  2.8086
 6462SOL     OW31021   3.819   2.648   7.308 -0.3058 -0.0623 -0.3931
 6462SOL    HW131022   3.796   2.605   7.225  0.4372  0.4696 -0.8664
 6462SOL    HW231023   3.757   2.615   7.373 -1.2757  3.3000  0.3428
 6463SOL     OW31024   2.947   2.416   7.713  0.1021  0.1201  0.5950
 6463SOL    HW131025   3.040   2.440   7.708  0.0930  0.1563  0.5956
 6463SOL    HW231026   2.907   2.483   7.658 -2.4141 -2.8850 -1.2281
 6464SOL     OW31027   4.233   0.891   2.641  0.5642  0.0889  0.1872
 6464SOL    HW131028   4.321   0.856   2.656 -0.5740 -2.4786  0.9886
 6464SOL    HW231029   4.253   0.940   2.562 -1.5192  0.7309  0.0705
 6465SOL     OW31030   1.868   1.760   6.835 -0.1156 -0.1180  0.7266
 6465SOL    HW131031   1.877   1.673   6.798 -1.5450 -0.5828  1.4720
 6465SOL    HW231032   1.958   1.773   6.864 -0.3906 -0.3670  1.6866
 6466SOL     OW31033   3.505   4.338   6.487 -0.0540  0.0544 -0.0152
 6466SOL    HW131034   3.507   4.269   6.553 -3.0575 -0.2155 -0.1720
 6466SOL    HW231035   3.452   4.290   6.423 -2.1024 -3.2479  4.1384
 6467SOL     OW31036   0.819   0.243   6.839 -0.1271 -0.0688 -0.3346
 6467SOL    HW131037   0.885   0.213   6.902  0.6722  0.2695 -1.0224
 6467SOL    HW231038   0.829   0.182   6.766 -1.0095 -1.0639  0.3657
 6468SOL     OW31039   2.328   3.567   8.105  0.0702  0.4134 -0.1815
 6468SOL    HW131040   2.295   3.549   8.193 -2.3736  4.8459 -0.1761
 6468SOL    HW231041   2.256   3.613   8.061  0.5607  1.0985 -0.2751
 6469SOL     OW31042   0.398   4.559   4.051 -0.5695  0.5290  0.2333
 6469SOL    HW131043   0.473   4.568   4.110  0.3281 -0.0904 -0.8049
 6469SOL    HW231044   0.426   4.499   3.982 -2.5927  0.4630 -0.5211
 6470SOL     OW31045   0.800   2.420   7.249  0.4107 -0.1580  0.1800
 6470SOL    HW131046   0.736   2.382   7.308 -0.3814 -1.0792 -1.2814
 6470SOL    HW231047   0.780   2.393   7.159 -1.2140 -0.7995  0.7434
 6471SOL     OW31048   1.371   2.222   4.538 -0.7582 -0.6193  0.5563
 6471SOL    HW131049   1.427   2.185   4.605  0.4794 -0.1398 -0.2145
 6471SOL    HW231050   1.438   2.256   4.478 -2.2583 -1.4558 -1.6335
 6472SOL     OW31051   0.971   0.480   7.319 -0.5045 -0.2762  0.6249
 6472SOL    HW131052   0.888   0.528   7.320 -0.1312  0.3909 -1.5982
 6472SOL    HW231053   0.975   0.470   7.414 -0.0128 -4.0482  0.2231
 6473SOL     OW31054   0.163   0.944   6.027 -0.3196 -0.3272  0.4661
 6473SOL    HW131055   0.181   0.853   6.004  2.3163  0.1246  0.7574
 6473SOL    HW231056   0.226   0.955   6.099  0.0377 -1.6217  0.3351
 6474SOL     OW31057   0.451   0.124   4.171  0.0457 -0.6970 -0.7313
 6474SOL    HW131058   0.441   0.130   4.266  0.0522 -1.4908 -0.6835
 6474SOL    HW231059   0.540   0.090   4.167  0.9051  1.3796  0.7199
 6475SOL     OW31060   4.508   3.255  10.480  0.0791  0.0065  0.1988
 6475SOL    HW131061   4.498   3.221  10.569  0.3739  2.0110  0.9978
 6475SOL    HW231062   4.467   3.341  10.480 -0.1233 -0.0872 -1.3976
 6476SOL     OW31063   1.593   0.811   2.524  0.4384 -0.5492 -0.3787
 6476SOL    HW131064   1.610   0.794   2.432  3.8921  2.0947 -0.2426
 6476SOL    HW231065   1.683   0.796   2.554  0.6313 -0.6290 -1.0078
 6477SOL     OW31066   2.405   2.841   8.132  0.2742 -0.0187 -0.0440
 6477SOL    HW131067   2.408   2.751   8.100 -2.7266  0.3107 -1.2629
 6477SOL    HW231068   2.440   2.834   8.221  1.7741 -0.9713 -0.7165
 6478SOL     OW31069   2.418   1.438   1.562 -0.2701 -0.0883 -0.1338
 6478SOL    HW131070   2.440   1.354   1.601 -0.2922  0.6564  1.4992
 6478SOL    HW231071   2.425   1.416   1.469  4.4704  0.7207  0.0727
 6479SOL     OW31072   4.741   2.401   4.860 -0.0151 -0.1766  0.0355
 6479SOL    HW131073   0.037   2.410   4.947 -0.3330 -3.7248  0.5301
 6479SOL    HW231074   4.659   2.355   4.877 -1.3011  2.8261  1.8884
 6480SOL     OW31075   0.468   0.200   6.768 -0.4587  0.0010  0.3979
 6480SOL    HW131076   0.437   0.127   6.715 -1.4180 -1.2266  2.6469
 6480SOL    HW231077   0.443   0.276   6.715 -1.5466  0.9522  2.2594
 6481SOL     OW31078   4.579   1.114   9.208 -0.1244 -0.4717 -0.1187
 6481SOL    HW131079   4.498   1.150   9.245  0.8945  1.9306 -0.2126
 6481SOL    HW231080   4.571   1.176   9.135  3.0700  0.8221  0.6581
 6482SOL     OW31081   4.343   1.781  12.663 -0.2036 -0.2574  0.0751
 6482SOL    HW131082   4.294   1.782  12.581 -0.5340  1.5442  0.2901
 6482SOL    HW231083   4.407   1.851  12.652  1.6266 -1.5871  2.2266
 6483SOL     OW31084   0.063   3.664   0.922 -0.4084  0.0518  0.4204
 6483SOL    HW131085   0.107   3.586   0.888  0.2610  1.0015 -0.9021
 6483SOL    HW231086   0.081   3.654   1.015 -1.6179 -1.4933  0.4951
 6484SOL     OW31087   1.275   0.387   7.385 -0.4012  0.4329 -0.5234
 6484SOL    HW131088   1.303   0.367   7.296 -0.5107  0.4405 -0.5594
 6484SOL    HW231089   1.216   0.457   7.357 -1.2192 -0.5650 -1.3228
 6485SOL     OW31090   1.948   1.248  15.202  0.0593  0.2613  0.1192
 6485SOL    HW131091   2.018   1.208  15.254 -1.6288 -1.3757  1.1386
 6485SOL    HW231092   1.975   1.340  15.206  3.7881 -0.7570 -1.5217
 6486SOL     OW31093   0.799   0.579   5.620  0.5516  1.1278 -0.1088
 6486SOL    HW131094   0.748   0.647   5.578 -0.0634  1.5773  1.3635
 6486SOL    HW231095   0.821   0.522   5.546  0.5881  2.2842 -0.9871
 6487SOL     OW31096   0.211   1.984   4.539 -0.2209 -0.6022 -0.1011
 6487SOL    HW131097   0.295   1.942   4.556  0.6996  1.0671 -0.5746
 6487SOL    HW231098   0.218   2.076   4.567 -3.1010  0.8462 -4.1530
 6488SOL     OW31099   4.629   2.956   8.346 -0.1270  0.4033 -0.4281
 6488SOL    HW131100   4.650   3.031   8.402 -0.6788 -1.0538  1.7205
 6488SOL    HW231101   4.546   2.932   8.386  0.9056 -1.0583  0.8203
 6489SOL     OW31102   4.466   0.301  13.151  0.2394  0.4974 -0.5639
 6489SOL    HW131103   4.421   0.371  13.105 -0.8630  0.1043 -0.0809
 6489SOL    HW231104   4.547   0.348  13.172 -0.6205  1.6066  0.2834
 6490SOL     OW31105   2.748   0.015   5.510 -0.2322 -0.2605  0.5523
 6490SOL    HW131106   2.749   4.666   5.538  0.6869 -1.0510 -2.0081
 6490SOL    HW231107   2.712   0.010   5.421 -2.2460 -0.8497  1.4043
 6491SOL     OW31108   1.831   1.780   7.409  0.6400 -0.2258 -0.1973
 6491SOL    HW131109   1.874   1.838   7.346 -0.0520 -0.3275 -0.7607
 6491SOL    HW231110   1.902   1.739   7.459  0.3190 -1.0804 -0.4533
 6492SOL     OW31111   0.367   2.499   4.966  0.5484  0.2755 -0.5830
 6492SOL    HW131112   0.312   2.574   4.986 -0.7745 -1.0307  0.7099
 6492SOL    HW231113   0.376   2.513   4.872  0.1125  0.3423 -0.6169
 6493SOL     OW31114   1.921   2.727  16.705 -0.3349  0.2777  0.3980
 6493SOL    HW131115   1.918   2.786  16.780 -0.5108  1.0289 -0.1953
 6493SOL    HW231116   1.878   2.769  16.631 -0.6949 -0.8229 -0.0290
 6494SOL     OW31117   1.861   3.725   7.888  0.5669  0.1735  0.4027
 6494SOL    HW131118   1.791   3.669   7.853  1.3579 -2.1119  2.4844
 6494SOL    HW231119   1.810   3.803   7.911 -1.7652 -0.9166 -1.0584
 6495SOL     OW31120   0.174   4.291  13.121 -0.6746 -0.2931  0.4979
 6495SOL    HW131121   0.106   4.347  13.158  1.5521  1.2747  2.2378
 6495SOL    HW231122   0.114   4.223  13.090  1.8260 -1.5128 -1.7005
 6496SOL     OW31123   2.926   0.927   4.453  0.0499  0.1398  0.0840
 6496SOL    HW131124   2.967   0.886   4.376  0.4627  1.3208 -0.3199
 6496SOL    HW231125   2.985   1.001   4.462  1.2177 -0.6416 -1.0585
 6497SOL     OW31126   2.265   0.307   9.756 -0.0771 -0.6902 -0.4072
 6497SOL    HW131127   2.292   0.243   9.822 -1.7031 -1.6203 -0.6286
 6497SOL    HW231128   2.309   0.384   9.792  0.2014  0.5897 -3.5094
 6498SOL     OW31129   2.396   4.231   5.716  0.4473 -0.3166 -0.0381
 6498SOL    HW131130   2.368   4.323   5.722 -0.7973 -0.5422 -2.3405
 6498SOL    HW231131   2.422   4.229   5.624 -0.1739 -0.8574 -0.1997
 6499SOL     OW31132   2.162   4.662   5.519  0.1697  0.0226  0.2966
 6499SOL    HW131133   2.240   4.712   5.495  0.2970  0.7007  2.1742
 6499SOL    HW231134   2.125   4.718   5.587 -0.6436  0.8506 -0.8138
 6500SOL     OW31135   1.497   0.405   1.738  0.1078 -0.4470  0.7369
 6500SOL    HW131136   1.415   0.445   1.767  0.4979 -0.5804  2.0146
 6500SOL    HW231137   1.477   0.343   1.668  0.8498  0.1881 -0.0397
 6501SOL     OW31138   1.812   2.871  11.181 -0.1259 -0.1441 -0.3099
 6501SOL    HW131139   1.743   2.804  11.171  0.7106 -0.8395 -1.4515
 6501SOL    HW231140   1.766   2.922  11.248  0.1272 -0.5419  0.1709
 6502SOL     OW31141   4.590   3.632   1.943 -0.4635 -0.7595 -0.3782
 6502SOL    HW131142   4.643   3.667   2.015 -1.0361  0.2354 -0.4543
 6502SOL    HW231143   4.572   3.715   1.899 -0.2668 -1.3491 -1.5823
 6503SOL     OW31144   2.092   1.077   9.553 -0.3873 -0.2116  0.0636
 6503SOL    HW131145   2.168   1.020   9.566  0.0206  0.2238 -0.3948
 6503SOL    HW231146   2.032   1.009   9.522 -0.1693 -0.1166 -0.5590
 6504SOL     OW31147   1.414   4.734  13.414  0.7904  0.4296  0.1415
 6504SOL    HW131148   1.468   4.657  13.394 -0.1994 -0.3345  0.4258
 6504SOL    HW231149   1.408   0.037  13.330  0.7471  1.6927  0.8250
 6505SOL     OW31150   0.566   0.204   5.448 -0.1919 -0.1272  0.0470
 6505SOL    HW131151   0.538   0.276   5.505 -1.0739 -0.6511  0.2705
 6505SOL    HW231152   0.648   0.233   5.408 -0.0211 -0.8216 -0.1078
 6506SOL     OW31153   0.496   3.832  16.580 -0.0765  0.8781  0.4362
 6506SOL    HW131154   0.407   3.833  16.545  0.1572  0.6725 -0.1651
 6506SOL    HW231155   0.535   3.780  16.510  0.7914 -1.3548  2.5752
 6507SOL     OW31156   3.810   3.437   4.708 -0.2740  0.5059  0.3559
 6507SOL    HW131157   3.822   3.357   4.657  2.7388  1.2393 -0.0683
 6507SOL    HW231158   3.885   3.432   4.767 -0.1973 -1.0929  0.1243
 6508SOL     OW31159   4.241   3.232   6.870  0.2229  0.0016  0.0276
 6508SOL    HW131160   4.254   3.195   6.958 -0.9265  0.5401  0.4187
 6508SOL    HW231161   4.247   3.151   6.820  0.3474  0.3506 -0.5182
 6509SOL     OW31162   3.916   3.983   7.316  0.4965 -0.2954  0.1186
 6509SOL    HW131163   3.963   4.034   7.382 -0.1942 -1.0086  1.1445
 6509SOL    HW231164   3.855   4.045   7.276  1.4113 -0.0676 -0.9514
 6510SOL     OW31165   4.072   4.134   7.504 -0.1374  0.2480  0.0025
 6510SOL    HW131166   4.065   4.219   7.460 -0.9968 -0.6514 -1.6011
 6510SOL    HW231167   4.136   4.168   7.566  0.4487  0.0694 -0.4995
 6511SOL     OW31168   0.653   4.511   8.864  0.3390  0.5070  0.4046
 6511SOL    HW131169   0.740   4.521   8.902 -0.6821 -1.4843  3.2629
 6511SOL    HW231170   0.618   4.599   8.876  0.5465  0.9883 -2.5247
 6512SOL     OW31171   4.124   1.366  13.070  0.1312  0.0385  0.8708
 6512SOL    HW131172   4.100   1.304  13.139  0.7308 -1.1971 -0.0166
 6512SOL    HW231173   4.090   1.317  12.994 -1.5166 -0.4055  1.8929
 6513SOL     OW31174   1.777   1.175  13.979  0.0525  0.3301  0.2602
 6513SOL    HW131175   1.728   1.219  14.048 -0.1451  0.1087  0.2605
 6513SOL    HW231176   1.784   1.088  14.020 -2.5445 -0.6775 -1.4388
 6514SOL     OW31177   1.358   1.789   6.210 -0.4651  0.5714  0.2033
 6514SOL    HW131178   1.379   1.696   6.225 -0.2305  0.4968 -0.6305
 6514SOL    HW231179   1.363   1.800   6.115 -0.3428 -2.8904 -0.2248
 6515SOL     OW31180   4.262   3.756  11.730  0.7208 -0.6601  0.7585
 6515SOL    HW131181   4.274   3.753  11.825  0.0332  3.1500  0.9839
 6515SOL    HW231182   4.352   3.776  11.703  0.4125  0.8845  0.8781
 6516SOL     OW31183   0.151   4.201   8.024 -0.4984  0.2603  0.0936
 6516SOL    HW131184   0.135   4.111   8.054  0.8920 -0.5275 -1.4833
 6516SOL    HW231185   0.240   4.197   7.988  0.2427 -0.4757  1.9976
 6517SOL     OW31186   1.109   0.334   8.380  0.5342 -0.8095 -0.3921
 6517SOL    HW131187   1.194   0.339   8.425  2.0506 -2.5545 -3.0276
 6517SOL    HW231188   1.114   0.254   8.327 -2.2080  0.2438 -2.2407
 6518SOL     OW31189   3.644   2.599  16.654 -0.4875 -0.3422  0.0285
 6518SOL    HW131190   3.674   2.627  16.568 -0.5473 -0.2828  0.0273
 6518SOL    HW231191   3.564   2.649  16.664  0.4105  0.9238  0.8332
 6519SOL     OW31192   0.175   2.363  17.539 -0.2466  0.3784  0.0178
 6519SOL    HW131193   0.246   2.306  17.571  0.8515 -0.2091 -3.4090
 6519SOL    HW231194   0.101   2.305  17.556  1.2922 -0.9963  2.1142
 6520SOL     OW31195   1.213   2.526   0.048  0.3419  0.6934  0.4290
 6520SOL    HW131196   1.168   2.486   0.123 -4.4965 -0.0992 -2.8839
 6520SOL    HW231197   1.165   2.608   0.060  3.7841  2.6017  1.0597
 6521SOL     OW31198   0.996   4.372   4.595 -0.6174  0.3408 -0.0757
 6521SOL    HW131199   1.051   4.371   4.517 -1.8621 -0.3478 -0.9544
 6521SOL    HW231200   1.044   4.314   4.655  0.6052  0.9119 -0.5032
 6522SOL     OW31201   1.299   0.570   7.643 -0.1892  0.0876  0.1363
 6522SOL    HW131202   1.211   0.547   7.612  0.4905 -1.7265 -0.4688
 6522SOL    HW231203   1.332   0.636   7.583  0.5052 -0.8497 -0.4982
 6523SOL     OW31204   4.661   2.097   1.565 -0.2540 -0.2397 -0.3777
 6523SOL    HW131205   4.716   2.021   1.582  0.0875  0.4065  1.3893
 6523SOL    HW231206   4.702   2.169   1.612 -0.0412 -0.7423  0.2101
 6524SOL     OW31207   3.017   1.576   5.024  0.0166 -0.0852  0.3953
 6524SOL    HW131208   3.101   1.620   5.035  0.6038 -0.8547 -1.0083
 6524SOL    HW231209   3.005   1.533   5.108  0.5756  0.5167  0.7838
 6525SOL     OW31210   1.839   2.573   8.963  0.1891  0.3334  0.5904
 6525SOL    HW131211   1.929   2.544   8.948  0.5643  0.8130  1.9476
 6525SOL    HW231212   1.834   2.543   9.053  0.5127  0.8049  0.7651
 6526SOL     OW31213   2.158   3.874  10.123 -0.0001  0.0115  0.4172
 6526SOL    HW131214   2.127   3.914  10.204 -2.7044  0.6081 -0.9116
 6526SOL    HW231215   2.073   3.853  10.086  0.4466  1.6811 -1.6178
 6527SOL     OW31216   1.583   1.716   8.061  0.2906  0.4360 -0.3208
 6527SOL    HW131217   1.498   1.733   8.019  1.2061  1.5045 -1.7285
 6527SOL    HW231218   1.566   1.639   8.115  0.9006  0.4953 -0.0543
 6528SOL     OW31219   1.863   4.595   1.462  0.6188  0.1877 -0.0419
 6528SOL    HW131220   1.805   4.654   1.414 -0.2395  0.7005  1.6230
 6528SOL    HW231221   1.842   4.612   1.554 -0.8373 -0.5112 -0.2521
 6529SOL     OW31222   2.753   4.199   1.689 -0.0493 -0.5772  0.3321
 6529SOL    HW131223   2.821   4.267   1.689  0.8926 -1.5126 -1.3954
 6529SOL    HW231224   2.709   4.207   1.604 -0.9520 -0.4269  0.8265
 6530SOL     OW31225   0.912   4.670   1.919  0.0465 -0.7195 -0.6312
 6530SOL    HW131226   0.970   4.647   1.992  0.9360  1.8501 -0.5539
 6530SOL    HW231227   0.835   4.702   1.966  0.6784 -1.6117  1.0139
 6531SOL     OW31228   4.442   4.509   3.843  0.0091  0.0172 -0.2339
 6531SOL    HW131229   4.348   4.490   3.844 -0.7491  3.8218  0.3376
 6531SOL    HW231230   4.450   4.597   3.879  0.2814 -0.6893  1.4457
 6532SOL     OW31231   0.026   4.678   3.325  0.6362  0.4802  0.3669
 6532SOL    HW131232   4.687   4.627   3.321  0.1526  1.2868  0.0045
 6532SOL    HW231233   0.015   4.730   3.405 -2.6628 -0.1063  0.2836
 6533SOL     OW31234   0.315   0.915   8.998 -0.1588 -0.1774  0.0039
 6533SOL    HW131235   0.398   0.961   8.987  0.1227 -0.1852  2.2915
 6533SOL    HW231236   0.320   0.886   9.088  2.9241  0.7424  0.1213
 6534SOL     OW31237   4.404   4.368   4.838  0.5149  0.1306 -0.2948
 6534SOL    HW131238   4.314   4.379   4.807 -0.3790 -1.8974  1.5443
 6534SOL    HW231239   4.391   4.326   4.923 -1.0630 -0.0371 -0.6164
 6535SOL     OW31240   3.996   1.755  12.095  0.1889 -0.1173 -0.0799
 6535SOL    HW131241   4.036   1.837  12.125  1.8677 -0.1357 -2.2274
 6535SOL    HW231242   3.932   1.790  12.034 -1.6700 -1.8487  0.8795
 6536SOL     OW31243   3.300   0.104  13.869  0.6897  0.1728 -0.4642
 6536SOL    HW131244   3.219   0.148  13.841  0.3211 -0.3462 -0.1932
 6536SOL    HW231245   3.316   0.048  13.792  1.8337  0.4796 -0.4538
 6537SOL     OW31246   1.187   2.610   4.007  0.1969 -0.0811  0.5501
 6537SOL    HW131247   1.212   2.520   4.030  0.1392 -0.4567 -0.8430
 6537SOL    HW231248   1.095   2.591   3.991  0.4711  0.1470 -1.2471
 6538SOL     OW31249   3.590   3.496   8.472 -0.5867  0.8722 -0.1940
 6538SOL    HW131250   3.601   3.529   8.383 -0.7410 -0.5197 -0.7373
 6538SOL    HW231251   3.672   3.451   8.491 -0.7704  1.0125  0.9447
 6539SOL     OW31252   0.735   0.282   4.241  0.1276 -0.1849  0.5721
 6539SOL    HW131253   0.663   0.311   4.298  0.3707 -1.0987  1.3290
 6539SOL    HW231254   0.741   0.190   4.265 -1.6729  0.1193  2.1996
 6540SOL     OW31255   0.500   0.712   2.389 -0.4690  0.4937 -0.1490
 6540SOL    HW131256   0.493   0.789   2.445 -0.2504  0.2807  0.1643
 6540SOL    HW231257   0.494   0.642   2.454  1.4671 -0.4021 -0.9415
 6541SOL     OW31258   2.303   0.929  10.450  0.7077 -0.2613 -0.2328
 6541SOL    HW131259   2.332   1.020  10.456 -1.0398  0.2263  0.8243
 6541SOL    HW231260   2.360   0.902  10.378  1.5807 -1.7158  1.0135
 6542SOL     OW31261   3.926   3.984  17.640  0.5959  0.9755  0.7315
 6542SOL    HW131262   3.834   3.964  17.621  0.8769  1.7692 -1.4020
 6542SOL    HW231263   3.917   4.069  17.684  1.1136  2.0433 -1.2296
 6543SOL     OW31264   3.311   1.119   7.225  0.1402  0.1344  0.0267
 6543SOL    HW131265   3.311   1.202   7.272 -1.5265 -2.1672  4.1055
 6543SOL    HW231266   3.274   1.055   7.287  0.2488 -0.1553 -0.2077
 6544SOL     OW31267   4.698   0.721   4.449 -0.3272 -0.2100 -0.1484
 6544SOL    HW131268   4.638   0.717   4.523  0.9027  1.1491  0.9157
 6544SOL    HW231269   4.709   0.628   4.427  0.0776 -0.3189  0.5340
 6545SOL     OW31270   2.928   4.564  15.154  0.0204 -0.3850 -0.4693
 6545SOL    HW131271   2.916   4.582  15.061  0.8691 -0.5785 -0.6181
 6545SOL    HW231272   2.955   4.473  15.140  0.5463 -0.3502  0.3122
 6546SOL     OW31273   4.135   3.274   8.870  0.5682  0.3980  0.3814
 6546SOL    HW131274   4.124   3.292   8.964  0.8164  0.2815  0.4343
 6546SOL    HW231275   4.226   3.303   8.855 -0.2054  3.0937  0.7864
 6547SOL     OW31276   3.417   1.015  12.899  0.8840 -0.2915 -0.1677
 6547SOL    HW131277   3.420   0.926  12.863  2.0361 -0.6763  0.8693
 6547SOL    HW231278   3.404   1.063  12.818  0.7436  1.7703  1.0787
 6548SOL     OW31279   1.696   0.237   2.865 -0.3410  0.0642 -0.6675
 6548SOL    HW131280   1.601   0.231   2.868 -0.3416 -0.1264 -1.0248
 6548SOL    HW231281   1.713   0.200   2.778  4.1840 -0.6657  0.5008
 6549SOL     OW31282   0.292   1.430  12.018  1.0086  0.3519  0.3810
 6549SOL    HW131283   0.223   1.489  12.052  0.2674 -0.0016 -0.4980
 6549SOL    HW231284   0.308   1.378  12.096  0.3977 -1.2376 -0.5640
 6550SOL     OW31285   3.325   4.524  15.231 -0.0035  0.4867  0.3496
 6550SOL    HW131286   3.275   4.452  15.271 -0.5411  1.3629  1.2545
 6550SOL    HW231287   3.352   4.496  15.144  0.7570 -0.3373  0.8479
 6551SOL     OW31288   0.681   3.313   2.570  0.9582 -0.0347 -0.0603
 6551SOL    HW131289   0.726   3.311   2.485 -0.6810 -0.1631 -0.9216
 6551SOL    HW231290   0.762   3.319   2.621  1.4263  1.6465 -0.9787
 6552SOL     OW31291   4.473   1.194   5.400  0.1463 -0.8069 -0.0044
 6552SOL    HW131292   4.385   1.167   5.374  0.2409 -3.0200  1.9170
 6552SOL    HW231293   4.477   1.196   5.496  3.2551 -0.4076 -0.1647
 6553SOL     OW31294   2.672   2.158   3.565 -0.3776  0.3739  0.3205
 6553SOL    HW131295   2.754   2.108   3.552 -1.2486 -1.0666  0.3449
 6553SOL    HW231296   2.678   2.219   3.492 -0.3015 -1.1071 -0.9050
 6554SOL     OW31297   3.023   0.511   4.880  0.1897  0.1965  0.4257
 6554SOL    HW131298   3.116   0.512   4.858  0.6426 -1.0412  2.3054
 6554SOL    HW231299   3.027   0.535   4.973  0.3289 -0.2306  0.5269
 6555SOL     OW31300   4.572   4.378   6.156  0.0940 -0.0933 -0.1186
 6555SOL    HW131301   4.510   4.361   6.084 -0.0439 -0.6595  0.1309
 6555SOL    HW231302   4.530   4.457   6.189 -0.5499  0.6448 -2.6802
 6556SOL     OW31303   1.798   0.356  12.882  0.5592 -0.1128  0.2162
 6556SOL    HW131304   1.847   0.437  12.864 -1.2010  0.9331  0.1487
 6556SOL    HW231305   1.706   0.380  12.874  0.0546 -2.5161 -1.1304
 6557SOL     OW31306   1.013   3.219   5.349 -0.3921 -0.1358  0.1667
 6557SOL    HW131307   1.015   3.314   5.343 -2.1807 -0.2263 -1.7521
 6557SOL    HW231308   1.042   3.215   5.440  2.4722  0.8782 -0.6871
 6558SOL     OW31309   4.176   3.692   0.915  0.2705 -0.1277  0.5264
 6558SOL    HW131310   4.264   3.728   0.929  0.7137 -1.0803  0.1754
 6558SOL    HW231311   4.152   3.664   1.003 -1.3310  1.0088  0.4645
 6559SOL     OW31312   2.435   3.134   7.249  0.3307 -0.2409  0.8704
 6559SOL    HW131313   2.411   3.162   7.338  3.0791  1.5539  1.0795
 6559SOL    HW231314   2.513   3.190   7.239  0.8496 -0.8929  1.2671
 6560SOL     OW31315   0.626   3.745   4.853  0.5508  0.5776  0.5139
 6560SOL    HW131316   0.715   3.717   4.874  1.0281  0.5757 -1.4865
 6560SOL    HW231317   0.639   3.812   4.786  0.5142 -0.4720 -0.5462
 6561SOL     OW31318   1.872   1.645  11.575  0.3259  0.5898  0.8393
 6561SOL    HW131319   1.830   1.584  11.636  1.4553  0.8630  1.8960
 6561SOL    HW231320   1.798   1.665  11.517  1.3133  0.9840 -0.2762
 6562SOL     OW31321   2.988   1.576   5.554  0.9701  0.1960  0.1208
 6562SOL    HW131322   2.945   1.566   5.469  0.2740 -3.6607  0.9696
 6562SOL    HW231323   3.010   1.489   5.586 -1.0365  0.1801  1.4200
 6563SOL     OW31324   3.388   1.532  13.332 -0.2133 -0.3066  0.2856
 6563SOL    HW131325   3.423   1.483  13.407  0.9946 -0.3884 -0.3333
 6563SOL    HW231326   3.307   1.485  13.314 -0.2509 -0.9454  2.1165
 6564SOL     OW31327   0.945   1.033  13.709  0.3115  0.0538 -0.5388
 6564SOL    HW131328   0.994   0.992  13.780  0.3361  0.6353 -0.2211
 6564SOL    HW231329   0.884   1.070  13.773  0.9270  0.6918 -0.3309
 6565SOL     OW31330   3.817   1.894   6.379  0.4500  0.0474  0.2797
 6565SOL    HW131331   3.751   1.824   6.377 -1.0767  1.5048 -0.2646
 6565SOL    HW231332   3.796   1.936   6.295 -1.6327 -0.0561  0.7435
 6566SOL     OW31333   0.268   1.421   3.984 -1.1453  0.0238 -0.4528
 6566SOL    HW131334   0.271   1.489   3.916  1.3223  0.3029 -0.0809
 6566SOL    HW231335   0.271   1.473   4.064 -1.2647 -0.9593  0.1890
 6567SOL     OW31336   2.769   0.651  17.449 -0.0814 -0.1362 -0.4841
 6567SOL    HW131337   2.849   0.602  17.465 -0.5055 -0.9419 -0.7805
 6567SOL    HW231338   2.806   0.708  17.381  1.0890  0.3497  0.5788
 6568SOL     OW31339   4.018   4.574   4.336 -0.2831  0.4841  0.3157
 6568SOL    HW131340   4.054   4.511   4.399 -1.2774 -1.3818 -1.0038
 6568SOL    HW231341   3.999   4.530   4.253 -0.7868  2.2140 -0.4896
 6569SOL     OW31342   4.397   1.709   9.798 -0.6724 -0.1587  0.4473
 6569SOL    HW131343   4.473   1.661   9.764  0.8567  0.7503  2.5824
 6569SOL    HW231344   4.366   1.636   9.851 -2.5962  0.3575  0.0177
 6570SOL     OW31345   4.035   4.550   6.960  0.3580  0.2912  0.0346
 6570SOL    HW131346   3.982   4.557   6.881 -2.4773  1.0092  2.0219
 6570SOL    HW231347   3.989   4.616   7.011  0.3440  0.9885 -0.8959
 6571SOL     OW31348   4.582   0.682  13.330  0.1298 -0.1715  0.4519
 6571SOL    HW131349   4.627   0.730  13.400  0.6698  0.7813 -0.5555
 6571SOL    HW231350   4.493   0.715  13.338  0.8898  1.9237  0.1390
 6572SOL     OW31351   2.000   0.968  10.434  0.2808  0.2767 -0.7888
 6572SOL    HW131352   1.962   0.961  10.347 -3.0949  2.5082  0.5155
 6572SOL    HW231353   2.090   0.937  10.423  0.3415  0.3062 -0.3966
 6573SOL     OW31354   2.744   1.678  16.703  0.5998 -0.5802 -0.1204
 6573SOL    HW131355   2.838   1.664  16.692  0.4077 -0.9225 -1.3520
 6573SOL    HW231356   2.707   1.590  16.695  0.2480 -0.4647  0.2119
 6574SOL     OW31357   1.948   0.384   2.829  0.2099  0.4974 -0.4463
 6574SOL    HW131358   2.000   0.432   2.892  0.1347 -0.8120  0.6009
 6574SOL    HW231359   1.864   0.374   2.874 -0.4846  1.0217 -1.6319
 6575SOL     OW31360   4.517   4.676  10.158  0.5534 -0.0135 -0.4977
 6575SOL    HW131361   4.500   4.692  10.251  0.6075  1.5032 -0.7496
 6575SOL    HW231362   4.494   0.020  10.124 -2.6861 -2.0124 -3.3240
 6576SOL     OW31363   0.612   1.328   2.117 -0.3236  0.1125  0.1119
 6576SOL    HW131364   0.567   1.278   2.049  2.1260  0.9794 -2.1870
 6576SOL    HW231365   0.555   1.318   2.193  1.2544 -1.4891  1.0792
 6577SOL     OW31366   1.500   2.110   3.117  0.0189  0.0562 -0.3591
 6577SOL    HW131367   1.479   2.076   3.204  0.3818 -1.2043 -0.7596
 6577SOL    HW231368   1.547   2.033   3.083 -0.1985  0.0170 -0.5737
 6578SOL     OW31369   3.918   2.102   7.573  1.2146 -0.4524 -0.4372
 6578SOL    HW131370   3.935   2.119   7.666  1.1092 -1.3411 -0.2641
 6578SOL    HW231371   3.846   2.040   7.578  0.7122  0.2673  1.2638
 6579SOL     OW31372   1.791   1.851   8.202 -0.2069  0.8058  0.4866
 6579SOL    HW131373   1.742   1.922   8.243  1.1272  1.4625  0.9335
 6579SOL    HW231374   1.725   1.793   8.164 -0.2400  0.4277  1.1335
 6580SOL     OW31375   3.531   0.104   1.824  0.2874  0.1972 -0.1966
 6580SOL    HW131376   3.573   0.178   1.868  1.7284  0.0929 -1.3818
 6580SOL    HW231377   3.585   0.096   1.745 -0.1872 -0.9070 -0.3929
 6581SOL     OW31378   2.686   2.744   9.323  0.4092  0.0670  0.5998
 6581SOL    HW131379   2.606   2.697   9.345 -0.4409  0.2551 -2.0114
 6581SOL    HW231380   2.747   2.720   9.392  1.5766 -0.3489 -0.5669
 6582SOL     OW31381   2.124   0.907   8.070  0.6526 -0.2475 -0.8341
 6582SOL    HW131382   2.058   0.940   8.009 -0.4159 -0.1733  0.3359
 6582SOL    HW231383   2.081   0.932   8.152  1.2514 -0.5261 -0.4392
 6583SOL     OW31384   1.584   3.996   4.004 -0.6150 -0.2312  0.2556
 6583SOL    HW131385   1.622   4.084   4.012  0.8039 -0.7057 -1.2364
 6583SOL    HW231386   1.630   3.957   4.079 -1.1528  0.0169  0.7139
 6584SOL     OW31387   0.150   2.279   3.345  0.1286 -0.1930 -0.1646
 6584SOL    HW131388   0.223   2.340   3.355  0.7090 -0.4588 -2.8881
 6584SOL    HW231389   0.084   2.329   3.297  0.0564  0.3491  0.5073
 6585SOL     OW31390   2.107   3.351  12.242 -0.0965  0.1355 -0.2557
 6585SOL    HW131391   2.081   3.352  12.334 -2.1420 -0.7916 -0.8138
 6585SOL    HW231392   2.028   3.396  12.213  0.4214  0.8831 -0.5217
 6586SOL     OW31393   1.335   2.502   7.921  0.0765  0.5487 -0.2061
 6586SOL    HW131394   1.256   2.493   7.974  1.1022 -0.3792  1.1502
 6586SOL    HW231395   1.294   2.495   7.835 -1.5582 -0.7873  0.6843
 6587SOL     OW31396   4.699   3.531   4.564  0.5671  0.1420 -0.6910
 6587SOL    HW131397   4.682   3.543   4.657 -0.1453  0.5319 -0.8690
 6587SOL    HW231398   0.030   3.469   4.561 -0.4090 -0.9647 -1.9430
 6588SOL     OW31399   0.339   2.281   5.315 -0.5632 -0.3414 -0.5487
 6588SOL    HW131400   0.377   2.281   5.403  0.0068  0.1601 -0.7934
 6588SOL    HW231401   0.313   2.189   5.320  3.7612 -1.5384 -0.7684
 6589SOL     OW31402   3.988   3.331  17.387 -0.1787 -0.5026  0.0716
 6589SOL    HW131403   4.023   3.397  17.447 -1.9910  2.0502 -1.7002
 6589SOL    HW231404   4.069   3.304  17.344 -1.2935 -0.6411 -1.9318
 6590SOL     OW31405   2.422   2.882   8.464  0.4168  0.5763 -0.3740
 6590SOL    HW131406   2.393   2.893   8.554  1.0643  0.3418 -0.1344
 6590SOL    HW231407   2.389   2.964   8.427  1.5535  1.3077  0.2320
 6591SOL     OW31408   0.429   0.202   8.140  0.4069 -0.2129  0.0497
 6591SOL    HW131409   0.411   0.138   8.209 -0.0045 -0.5298 -0.3431
 6591SOL    HW231410   0.479   0.270   8.185  0.4742 -0.8067  0.8683
 6592SOL     OW31411   2.986   1.739   2.222  1.0793 -0.4569  0.0485
 6592SOL    HW131412   3.056   1.675   2.209  2.9698  1.7228 -0.5076
 6592SOL    HW231413   2.913   1.677   2.232 -0.9722  1.8508 -0.4526
 6593SOL     OW31414   4.519   3.546  11.838  0.4505  0.3170 -0.8260
 6593SOL    HW131415   4.607   3.541  11.876  0.0592 -0.0330  0.0243
 6593SOL    HW231416   4.527   3.625  11.784 -0.2765  1.8777  1.3136
 6594SOL     OW31417   1.781   4.607   5.328  0.2574 -0.0776  0.1172
 6594SOL    HW131418   1.742   4.668   5.266 -3.0985 -0.1443  2.1977
 6594SOL    HW231419   1.728   4.628   5.405 -2.1613 -1.0509 -1.2852
 6595SOL     OW31420   1.726   2.881   2.485 -0.2860  0.2037 -0.3611
 6595SOL    HW131421   1.676   2.919   2.558  0.9281  1.3382 -0.1326
 6595SOL    HW231422   1.664   2.885   2.412 -2.1999 -1.4984  1.1536
 6596SOL     OW31423   4.557   3.451   3.326 -0.4099  0.0047 -0.5643
 6596SOL    HW131424   4.566   3.523   3.263 -1.4116  1.6456  1.1336
 6596SOL    HW231425   4.492   3.406   3.273  2.3505  0.7536 -4.5290
 6597SOL     OW31426   0.748   0.947  11.616  0.2703 -0.6081 -0.1182
 6597SOL    HW131427   0.718   0.856  11.612  1.3471 -0.9810  0.3254
 6597SOL    HW231428   0.837   0.951  11.582  0.3371  1.6531  0.3407
 6598SOL     OW31429   3.351   2.963   6.472  0.4187 -0.1590 -0.9566
 6598SOL    HW131430   3.414   2.898   6.440  1.8228 -0.4066  2.3243
 6598SOL    HW231431   3.353   3.032   6.406 -1.3046  0.0763 -0.7693
 6599SOL     OW31432   2.406   0.626   2.265  0.3355 -0.8990 -0.1164
 6599SOL    HW131433   2.396   0.721   2.257  1.6016 -0.7184  0.5120
 6599SOL    HW231434   2.361   0.602   2.184 -0.5584  1.7571 -0.4284
 6600SOL     OW31435   0.464   2.785   7.056 -0.1682  0.4505 -0.1073
 6600SOL    HW131436   0.544   2.836   7.040  0.5791 -0.5284  0.5176
 6600SOL    HW231437   0.459   2.774   7.151 -0.4431 -2.8023 -0.4980
 6601SOL     OW31438   2.545   4.084   4.710 -0.1526 -0.4302  0.4854
 6601SOL    HW131439   2.636   4.076   4.738  0.0109  1.3675  0.4784
 6601SOL    HW231440   2.563   4.132   4.629 -2.1807  0.7321  0.7269
 6602SOL     OW31441   1.395   4.054   3.494 -0.5179  0.1679 -0.3534
 6602SOL    HW131442   1.383   4.149   3.495  0.1310  0.2442  0.6404
 6602SOL    HW231443   1.431   4.040   3.582 -0.6707 -0.5432 -0.4083
 6603SOL     OW31444   2.746   1.378   4.289 -0.3346  0.1310 -0.2862
 6603SOL    HW131445   2.707   1.365   4.203  0.4921  0.3535 -0.6946
 6603SOL    HW231446   2.813   1.311   4.300 -0.6091 -0.3066 -1.2545
 6604SOL     OW31447   0.247   2.930   5.908 -0.3258 -0.9496  0.1267
 6604SOL    HW131448   0.170   2.905   5.857  0.5218 -0.1630 -1.5612
 6604SOL    HW231449   0.218   3.006   5.958 -1.7177 -3.3371  2.9750
 6605SOL     OW31450   0.694   0.692   1.309 -0.0101 -0.8335 -0.0534
 6605SOL    HW131451   0.639   0.764   1.279  0.6907 -0.8221 -1.3391
 6605SOL    HW231452   0.784   0.718   1.287  0.6320 -4.0111 -1.1553
 6606SOL     OW31453   1.893   4.710   8.580 -0.6024 -0.2237 -0.1420
 6606SOL    HW131454   1.921   4.723   8.490 -0.0208 -0.1375  0.0489
 6606SOL    HW231455   1.871   4.617   8.579 -1.3522 -0.0472  0.2414
 6607SOL     OW31456   4.560   1.430   5.257  0.1237  0.6921 -0.1950
 6607SOL    HW131457   4.534   1.370   5.327 -0.4184 -0.0990 -1.0803
 6607SOL    HW231458   4.482   1.471   5.220 -0.4551  2.1556  2.6090
 6608SOL     OW31459   3.920   0.747  10.304  0.1499 -0.2850  0.4056
 6608SOL    HW131460   3.912   0.655  10.329 -0.8948  0.4048  2.6297
 6608SOL    HW231461   4.004   0.762  10.346  0.6752 -0.5969 -0.5264
 6609SOL     OW31462   0.429   1.454   8.786 -0.2791  0.0076  0.6594
 6609SOL    HW131463   0.376   1.509   8.728 -0.2431  0.0108  0.6296
 6609SOL    HW231464   0.363   1.390   8.812 -1.5610  0.7872 -0.7398
 6610SOL     OW31465   1.149   1.907   3.835 -0.0949  0.4622 -0.0441
 6610SOL    HW131466   1.220   1.961   3.872 -1.7392  0.9391  2.4008
 6610SOL    HW231467   1.123   1.964   3.762 -0.0917  1.8552  1.0324
 6611SOL     OW31468   0.832   3.279   1.426 -0.5351  0.1156  0.3573
 6611SOL    HW131469   0.856   3.365   1.461 -1.3612  0.6511 -0.4270
 6611SOL    HW231470   0.918   3.241   1.445 -1.4771 -0.5295  3.4285
 6612SOL     OW31471   2.752   2.395   6.528  0.5379 -0.5164 -0.3069
 6612SOL    HW131472   2.791   2.394   6.440  1.7522 -2.0056  0.2456
 6612SOL    HW231473   2.808   2.341   6.583 -0.2271 -1.4511 -0.4367
 6613SOL     OW31474   1.546   2.241   9.726  0.3963  0.1830 -0.1137
 6613SOL    HW131475   1.525   2.328   9.693 -0.4521  0.4155  1.0698
 6613SOL    HW231476   1.608   2.210   9.659  2.0580 -0.3269  1.6748
 6614SOL     OW31477   0.165   3.942   6.859  0.3329  0.1839  0.4302
 6614SOL    HW131478   0.156   3.867   6.800 -0.2286  0.3396  0.3210
 6614SOL    HW231479   0.252   3.976   6.835 -0.1205  1.3737  0.4954
 6615SOL     OW31480   4.176   3.758  10.826  0.5161  0.4417 -0.3788
 6615SOL    HW131481   4.260   3.794  10.854 -0.1379  1.6681  0.0236
 6615SOL    HW231482   4.176   3.686  10.889  1.0013  0.4183 -0.4098
 6616SOL     OW31483   1.040   0.745  10.992 -0.1207  0.4163 -0.2812
 6616SOL    HW131484   1.029   0.695  10.910 -1.6514  1.2395 -0.5766
 6616SOL    HW231485   1.070   0.827  10.954  0.6275 -0.4402 -1.5554
 6617SOL     OW31486   2.437   1.665   6.734  0.3997  0.0037 -0.1084
 6617SOL    HW131487   2.399   1.628   6.814  0.4127  0.4054  0.0824
 6617SOL    HW231488   2.530   1.645   6.743  0.0720 -1.5723 -0.1977
 6618SOL     OW31489   3.597   0.452   2.948 -0.1591 -0.4039 -0.2535
 6618SOL    HW131490   3.529   0.495   2.896 -0.3359  0.3156  0.5670
 6618SOL    HW231491   3.653   0.529   2.962 -0.0649 -0.6962  0.9738
 6619SOL     OW31492   4.619   2.515   4.483  0.6421 -0.1035  0.1841
 6619SOL    HW131493   4.559   2.574   4.437 -0.3694 -0.5787  0.9009
 6619SOL    HW231494   4.562   2.438   4.495  1.2268 -0.1933  2.3352
 6620SOL     OW31495   2.511   4.618  16.779  0.4238 -1.0884  0.3206
 6620SOL    HW131496   2.441   4.552  16.777 -1.7079  1.1803 -0.6148
 6620SOL    HW231497   2.583   4.558  16.761  0.8965 -0.4099 -0.0462
 6621SOL     OW31498   3.169   1.458  15.871  0.3894  0.4518 -0.0949
 6621SOL    HW131499   3.210   1.377  15.839  0.9240  1.4687 -2.0012
 6621SOL    HW231500   3.130   1.431  15.954  0.8921 -0.9584 -0.3245
 6622SOL     OW31501   0.435   1.188  13.148 -0.3225 -0.2856 -0.1939
 6622SOL    HW131502   0.511   1.244  13.154  0.3040 -1.1866  0.3319
 6622SOL    HW231503   0.417   1.186  13.054  1.5420  1.9943 -0.5879
 6623SOL     OW31504   2.225   0.430   4.024  0.2408 -0.2857  0.2778
 6623SOL    HW131505   2.318   0.434   4.003  0.2519 -0.5954  0.2674
 6623SOL    HW231506   2.231   0.398   4.114  2.0267 -1.8244 -0.3976
 6624SOL     OW31507   3.824   3.878   4.206 -0.1349 -0.5733  0.2159
 6624SOL    HW131508   3.800   3.855   4.295 -2.6426  0.3155 -0.2286
 6624SOL    HW231509   3.919   3.866   4.209 -0.1038  0.1092  1.7940
 6625SOL     OW31510   3.378   3.975   2.013 -0.6311  0.3584  0.2127
 6625SOL    HW131511   3.394   3.887   2.046  3.5607  1.1968  0.4842
 6625SOL    HW231512   3.301   3.961   1.959  0.2570 -0.2491 -0.8844
 6626SOL     OW31513   1.895   0.516   0.685 -0.6464  0.2654 -0.9573
 6626SOL    HW131514   1.972   0.573   0.678  0.5433 -1.3374 -0.8448
 6626SOL    HW231515   1.916   0.474   0.768 -3.0394  0.3849 -0.2796
 6627SOL     OW31516   1.872   3.990   3.092  0.3852 -0.0546  0.2911
 6627SOL    HW131517   1.814   4.043   3.038 -1.0355 -1.1795  0.7326
 6627SOL    HW231518   1.827   3.908   3.077  0.9514 -0.2096 -0.5267
 6628SOL     OW31519   0.721   0.020   4.092 -0.5750 -0.4373  0.2538
 6628SOL    HW131520   0.813   0.038   4.113  0.5739 -3.2795 -2.3262
 6628SOL    HW231521   0.708   0.085   4.023  0.5402 -2.4060 -1.8286
 6629SOL     OW31522   4.662   0.983   4.822 -0.5649 -0.0579 -0.2874
 6629SOL    HW131523   4.730   0.977   4.889 -0.2206  0.0813 -0.6176
 6629SOL    HW231524   4.667   0.890   4.801  0.9677 -0.4883  1.9440
 6630SOL     OW31525   1.421   0.286  14.364  0.3891 -0.1367 -0.5345
 6630SOL    HW131526   1.434   0.235  14.284  0.4162 -0.2177 -0.4784
 6630SOL    HW231527   1.507   0.325  14.385  0.3910 -0.1673 -0.4840
 6631SOL     OW31528   0.553   3.897   2.364 -0.9251 -0.4176 -0.1948
 6631SOL    HW131529   0.579   3.979   2.405  1.9271 -1.0080 -0.8337
 6631SOL    HW231530   0.457   3.894   2.367 -0.9580  0.4649 -0.2144
 6632SOL     OW31531   0.955   3.559  16.141 -0.0832 -0.4760  0.4915
 6632SOL    HW131532   0.979   3.625  16.077  1.4175 -0.9439  0.5507
 6632SOL    HW231533   0.883   3.601  16.187 -1.1596  2.0477 -3.5929
 6633SOL     OW31534   0.239   1.049   9.298  0.2713  0.4328  0.4206
 6633SOL    HW131535   0.224   1.109   9.372  2.0679  2.0069 -0.4974
 6633SOL    HW231536   0.317   1.088   9.259 -1.3458  1.5962 -1.6126
 6634SOL     OW31537   3.892   0.279   5.066  0.3737  0.1689 -0.1014
 6634SOL    HW131538   3.824   0.213   5.071  0.4771 -0.0334 -1.2620
 6634SOL    HW231539   3.958   0.223   5.024 -0.9040 -0.7289 -0.9040
 6635SOL     OW31540   0.499   0.179   2.949  0.0789 -0.0718  0.3615
 6635SOL    HW131541   0.460   0.091   2.955  1.0389 -0.7196 -3.2180
 6635SOL    HW231542   0.570   0.157   2.889  0.0882 -1.2917  0.8151
 6636SOL     OW31543   1.795   2.679  14.559  0.3354  0.2946 -0.3635
 6636SOL    HW131544   1.727   2.614  14.546 -0.1208  0.5098  0.9336
 6636SOL    HW231545   1.844   2.643  14.633 -1.1004  1.8798  1.3939
 6637SOL     OW31546   4.625   0.898   5.517 -0.1051  0.1867 -0.1428
 6637SOL    HW131547   4.530   0.906   5.509 -0.1948 -1.3306 -0.4845
 6637SOL    HW231548   4.635   0.829   5.452  1.3654 -1.0871  1.4417
 6638SOL     OW31549   4.210   1.211   7.822 -0.1665 -0.5495  0.5304
 6638SOL    HW131550   4.122   1.239   7.848  0.5079  1.2358  0.8960
 6638SOL    HW231551   4.248   1.228   7.908 -2.0380 -0.3922  1.3359
 6639SOL     OW31552   1.508   1.475   9.353  0.7115  0.1715 -0.0428
 6639SOL    HW131553   1.514   1.381   9.338  1.3356  0.3159 -0.6965
 6639SOL    HW231554   1.592   1.487   9.398  1.2079  0.0750 -0.9334
 6640SOL     OW31555   3.903   0.381   6.464  0.7426  0.6359  0.3262
 6640SOL    HW131556   3.899   0.475   6.478 -0.1270  0.7929 -0.9173
 6640SOL    HW231557   3.969   0.381   6.395  1.1430 -2.2393  0.6948
 6641SOL     OW31558   1.902   1.389   2.558 -0.0919 -0.1559  0.0359
 6641SOL    HW131559   1.811   1.375   2.533 -0.3196 -0.8771  1.3092
 6641SOL    HW231560   1.899   1.352   2.646  0.6017  0.2576  0.2366
 6642SOL     OW31561   2.991   1.673   4.269  0.5428  0.3013 -0.5683
 6642SOL    HW131562   2.906   1.683   4.227 -0.4412  0.1640  1.4361
 6642SOL    HW231563   2.992   1.749   4.327 -0.8125  1.4478 -2.0386
 6643SOL     OW31564   4.414   2.002   5.661 -0.1245  0.5497  0.1634
 6643SOL    HW131565   4.462   1.977   5.582  0.5303  2.3902 -0.0192
 6643SOL    HW231566   4.419   1.916   5.704 -0.6128  1.3242  1.7584
 6644SOL     OW31567   4.551   3.766  11.696  0.7366 -0.1182 -0.2863
 6644SOL    HW131568   4.565   3.861  11.687 -0.3535 -0.1214 -1.9447
 6644SOL    HW231569   4.570   3.726  11.611  0.1264  3.2159 -2.0178
 6645SOL     OW31570   0.134   1.543   4.967 -0.1665  0.1026 -0.4070
 6645SOL    HW131571   0.180   1.544   4.882 -0.7541 -0.5939 -0.7299
 6645SOL    HW231572   0.176   1.614   5.015  3.1332 -2.6258  0.7471
 6646SOL     OW31573   1.471   3.066   6.778 -0.3062  0.3857  0.0653
 6646SOL    HW131574   1.376   3.061   6.787 -0.4475 -0.6382 -1.9057
 6646SOL    HW231575   1.480   3.076   6.683  0.6040  0.8767  0.2079
 6647SOL     OW31576   0.203   0.164  11.466 -0.3800  0.5541  0.5729
 6647SOL    HW131577   0.259   0.236  11.437 -0.9392  0.7946  0.0912
 6647SOL    HW231578   0.192   0.177  11.561 -0.1614  0.0198  0.6716
 6648SOL     OW31579   3.557   0.050  16.653 -0.0336 -0.1878 -0.1775
 6648SOL    HW131580   3.479   0.102  16.636  0.6597  1.4928  1.9340
 6648SOL    HW231581   3.616   0.118  16.622  1.0005  0.1687  2.5882
 6649SOL     OW31582   1.470   0.144  12.335 -1.0084 -0.0996  0.8453
 6649SOL    HW131583   1.378   0.119  12.339 -0.5676 -1.9347 -0.3203
 6649SOL    HW231584   1.490   0.118  12.425  1.0953 -0.8739  0.1571
 6650SOL     OW31585   4.387   2.313   5.593  0.3270 -0.1777 -0.8712
 6650SOL    HW131586   4.406   2.294   5.685  0.8277 -1.4503 -1.2428
 6650SOL    HW231587   4.368   2.227   5.557 -4.8727  1.3415 -1.8236
 6651SOL     OW31588   1.460   1.259   3.872  0.3920  0.7775  0.1779
 6651SOL    HW131589   1.525   1.191   3.854 -3.9641 -2.9865 -1.2735
 6651SOL    HW231590   1.512   1.337   3.891  0.5103  0.9280 -0.8021
 6652SOL     OW31591   0.409   2.371   3.610 -0.3639  0.3130  0.0928
 6652SOL    HW131592   0.418   2.425   3.532  2.7062  1.1647  1.0323
 6652SOL    HW231593   0.314   2.377   3.620  0.2254  3.4874  3.4378
 6653SOL     OW31594   0.983   2.986  17.061 -0.6074 -0.6705 -0.6176
 6653SOL    HW131595   0.905   3.010  17.010  0.0450  0.8311 -0.9116
 6653SOL    HW231596   1.042   2.947  16.996  1.4368 -0.8670  1.3588
 6654SOL     OW31597   1.617   3.196   4.421  0.0439 -0.0042 -0.3745
 6654SOL    HW131598   1.596   3.270   4.363 -0.5154 -0.0531 -0.2302
 6654SOL    HW231599   1.542   3.137   4.412 -0.1373  0.3492 -1.2263
 6655SOL     OW31600   1.737   2.959   6.266 -0.7843 -0.2671 -0.0262
 6655SOL    HW131601   1.788   2.976   6.345  0.1356  0.3162 -0.7471
 6655SOL    HW231602   1.758   2.867   6.250  1.9311  0.4076 -0.2515
 6656SOL     OW31603   4.207   2.326   8.958 -0.6422 -0.1816 -0.7814
 6656SOL    HW131604   4.193   2.379   8.879  0.3996  2.0999  0.5667
 6656SOL    HW231605   4.144   2.254   8.951 -1.0735 -0.0582  1.8919
 6657SOL     OW31606   1.769   1.929   5.515 -0.0945  0.0384 -1.1343
 6657SOL    HW131607   1.831   1.977   5.570  0.0131  0.5824 -1.7331
 6657SOL    HW231608   1.772   1.996   5.447  1.8607 -0.0760 -1.1535
 6658SOL     OW31609   0.958   3.242   6.927  0.0125  0.2416  0.1948
 6658SOL    HW131610   0.935   3.149   6.934 -0.2064  0.5022  2.8536
 6658SOL    HW231611   0.893   3.271   6.863  0.6231  1.5340  0.1728
 6659SOL     OW31612   2.136   1.383   4.589  0.1548 -0.3652  0.1592
 6659SOL    HW131613   2.152   1.438   4.666  1.6732 -0.0607 -0.3788
 6659SOL    HW231614   2.044   1.372   4.614  0.0335 -0.6859 -0.4334
 6660SOL     OW31615   3.199   2.857   6.080  0.1812  0.0554 -0.6687
 6660SOL    HW131616   3.151   2.914   6.140  1.1608 -0.8218  0.9540
 6660SOL    HW231617   3.211   2.919   6.008  1.0519  0.6186 -0.0413
 6661SOL     OW31618   2.958   2.034   4.714  0.2658  0.1506  0.2314
 6661SOL    HW131619   2.871   2.052   4.751 -0.0405  0.4428 -0.6217
 6661SOL    HW231620   3.012   2.011   4.789  0.9437 -1.6181 -0.8100
 6662SOL     OW31621   0.872   1.901  13.489  0.0496 -0.0838 -0.6504
 6662SOL    HW131622   0.807   1.938  13.430 -0.7234 -2.3156 -1.2059
 6662SOL    HW231623   0.843   1.936  13.573  1.1216 -0.8984  0.0586
 6663SOL     OW31624   0.896   2.574   8.075 -0.6949 -0.2927  0.4532
 6663SOL    HW131625   0.841   2.499   8.052 -1.2617 -0.1219  1.2709
 6663SOL    HW231626   0.857   2.642   8.020 -2.3817 -0.6696  1.2058
 6664SOL     OW31627   1.502   0.309   4.760  0.4193 -0.1483 -0.3778
 6664SOL    HW131628   1.442   0.281   4.691  0.5121 -0.0513 -0.4977
 6664SOL    HW231629   1.454   0.390   4.777  0.4226 -0.4084  0.9012
 6665SOL     OW31630   4.232   0.013   6.674  0.8719  0.1006  0.1177
 6665SOL    HW131631   4.154   0.062   6.699  0.3647 -0.1503 -0.9516
 6665SOL    HW231632   4.275   0.026   6.758  1.5936  1.7583 -0.5027
 6666SOL     OW31633   3.346   1.237   2.712 -0.1603  0.0824 -0.1613
 6666SOL    HW131634   3.277   1.203   2.769  1.2726 -2.6610 -0.0808
 6666SOL    HW231635   3.292   1.287   2.651 -0.3688 -0.4749 -0.4239
 6667SOL     OW31636   1.891   3.636   6.290  0.3160  0.2134 -0.1935
 6667SOL    HW131637   1.885   3.551   6.248  1.2003  0.1859 -0.2786
 6667SOL    HW231638   1.877   3.619   6.383  2.9163  0.4600  0.2501
 6668SOL     OW31639   1.423   3.768   5.323  0.0217  0.2576  0.0996
 6668SOL    HW131640   1.464   3.684   5.305  1.3732  0.6255  1.4361
 6668SOL    HW231641   1.430   3.809   5.237 -0.2695 -1.2914 -0.6485
 6669SOL     OW31642   3.979   0.021   7.564  0.0998 -0.0402  0.7918
 6669SOL    HW131643   3.926   0.086   7.518 -0.3294  0.4945  2.0473
 6669SOL    HW231644   3.968   4.695   7.498 -0.1680  0.1817  0.6033
 6670SOL     OW31645   2.586   1.322   8.697 -0.3809  0.1429 -0.4520
 6670SOL    HW131646   2.599   1.344   8.789  0.2168 -0.1070 -0.4783
 6670SOL    HW231647   2.636   1.240   8.700  0.9634  0.9733 -0.2293
 6671SOL     OW31648   1.518   0.102   3.346  0.7835  0.1642  0.0754
 6671SOL    HW131649   1.455   0.140   3.406 -0.2884 -1.8561  0.2425
 6671SOL    HW231650   1.467   0.095   3.265  0.5460  0.6722  0.1807
 6672SOL     OW31651   2.198   4.668   8.451 -0.0079 -0.1498  0.4884
 6672SOL    HW131652   2.210   4.669   8.356 -1.1322 -3.8689  0.3508
 6672SOL    HW231653   2.229   4.582   8.478 -1.3873 -0.6175  0.5861
 6673SOL     OW31654   1.844   2.021  15.729  0.3241  0.2469 -0.4627
 6673SOL    HW131655   1.892   2.100  15.753  0.0492  0.3186 -0.1467
 6673SOL    HW231656   1.780   2.055  15.668 -1.7101 -0.2939  1.3674
 6674SOL     OW31657   0.215   0.886  10.022  0.0819 -0.1708  0.0917
 6674SOL    HW131658   0.236   0.830   9.948  1.1452  1.6917 -1.0202
 6674SOL    HW231659   0.166   0.822  10.073  1.4240 -1.5312 -0.3365
 6675SOL     OW31660   2.875   1.827   1.442  0.2680 -0.3040 -0.1148
 6675SOL    HW131661   2.792   1.804   1.485  0.4719  1.5967  1.2785
 6675SOL    HW231662   2.884   1.910   1.489  2.0347 -0.3813 -0.3208
 6676SOL     OW31663   3.985   2.129   4.335 -0.4292  0.6091 -0.8322
 6676SOL    HW131664   3.920   2.197   4.347 -1.7857 -0.6076 -1.2988
 6676SOL    HW231665   3.930   2.062   4.294  0.2665 -0.6150  0.2237
 6677SOL     OW31666   0.002   0.899   9.243  0.5626  0.3625 -0.5486
 6677SOL    HW131667   0.086   0.946   9.250  1.1563 -0.6894 -0.6503
 6677SOL    HW231668   4.687   0.973   9.264 -0.6410  0.1847 -3.1971
 6678SOL     OW31669   4.178   2.054   8.730  0.8497 -0.6880  0.2561
 6678SOL    HW131670   4.104   2.015   8.776  1.1136 -1.4032  0.0793
 6678SOL    HW231671   4.258   2.020   8.772 -0.0391 -1.1679  1.5610
 6679SOL     OW31672   0.191   0.289   3.839 -0.3230 -0.4705 -0.0011
 6679SOL    HW131673   0.192   0.201   3.876 -0.0331 -0.5022 -0.0803
 6679SOL    HW231674   0.217   0.338   3.917 -0.1869 -1.7792  0.7815
 6680SOL     OW31675   4.587   4.338   2.689  0.0692  0.1233 -0.1809
 6680SOL    HW131676   4.554   4.305   2.773  1.9874 -3.4185 -0.8063
 6680SOL    HW231677   4.511   4.373   2.643  1.0226  2.5683  0.0913
 6681SOL     OW31678   1.336   2.227  10.661  0.7770  0.1932  0.0737
 6681SOL    HW131679   1.377   2.312  10.645  0.2499  0.3941 -0.1996
 6681SOL    HW231680   1.246   2.255  10.678 -0.1520 -0.8380 -3.2280
 6682SOL     OW31681   4.603   1.004   6.855  0.0500 -0.2693 -0.2681
 6682SOL    HW131682   4.542   1.031   6.787  0.3776 -1.2846 -0.9529
 6682SOL    HW231683   4.686   1.012   6.809 -0.7800 -0.5019 -1.7832
 6683SOL     OW31684   3.562   3.488  13.587  0.7042 -0.1776 -0.0630
 6683SOL    HW131685   3.560   3.416  13.523 -2.4755  0.5012 -0.6838
 6683SOL    HW231686   3.550   3.568  13.537 -1.6136  0.1852  1.1006
 6684SOL     OW31687   3.443   0.754  16.819 -0.0624  0.0053 -0.4177
 6684SOL    HW131688   3.408   0.682  16.871  0.1154 -0.3611 -0.8101
 6684SOL    HW231689   3.382   0.751  16.746 -1.5408  0.5494  0.7859
 6685SOL     OW31690   0.918   1.418   5.427 -0.3300 -0.5727  0.2997
 6685SOL    HW131691   0.857   1.490   5.410  1.1296  0.5710 -0.0524
 6685SOL    HW231692   0.856   1.347   5.442 -1.3868  0.3995  0.6039
 6686SOL     OW31693   0.391   3.913   6.064  0.0797  0.0180  0.8225
 6686SOL    HW131694   0.314   3.894   6.118  0.5152  0.2201  1.5196
 6686SOL    HW231695   0.458   3.879   6.123  1.8612  1.9067 -0.1391
 6687SOL     OW31696   0.725   4.127  10.482  0.4025 -0.8004 -0.2074
 6687SOL    HW131697   0.801   4.122  10.539 -0.0413  0.3386  0.4727
 6687SOL    HW231698   0.664   4.165  10.545 -0.5661 -1.9233 -0.4511
 6688SOL     OW31699   0.294   3.653   4.351  0.6924 -0.0796 -0.6414
 6688SOL    HW131700   0.288   3.643   4.446  0.2222  1.7845 -0.4782
 6688SOL    HW231701   0.378   3.609   4.336 -0.0601 -1.8545  0.2891
 6689SOL     OW31702   4.174   4.271   5.157  0.1454 -0.0198  0.0808
 6689SOL    HW131703   4.258   4.225   5.152  0.8797  1.3938 -0.4450
 6689SOL    HW231704   4.122   4.193   5.138  0.4322 -0.4151  0.9148
 6690SOL     OW31705   2.179   2.276  16.289 -0.4723 -0.2434  0.1936
 6690SOL    HW131706   2.219   2.191  16.274 -1.0298 -0.1563 -1.7632
 6690SOL    HW231707   2.151   2.270  16.380 -2.7254 -2.9531 -0.6861
 6691SOL     OW31708   4.225   1.147   6.075  0.3052 -0.3554 -0.7649
 6691SOL    HW131709   4.211   1.181   5.987 -3.0063  2.0385  0.6658
 6691SOL    HW231710   4.281   1.072   6.054  1.1079  0.2194 -0.7058
 6692SOL     OW31711   3.616   1.604   0.140 -0.0007  0.1135  0.3577
 6692SOL    HW131712   3.699   1.564   0.115  0.4159  0.1171  1.7532
 6692SOL    HW231713   3.648   1.636   0.224 -0.1838  0.9024  0.1286
 6693SOL     OW31714   1.012   0.008   7.262 -0.3932  0.1261 -0.0531
 6693SOL    HW131715   1.069   4.697   7.317  0.3239  0.0591 -0.8665
 6693SOL    HW231716   1.014   4.696   7.184  2.1168  1.3667 -0.8354
 6694SOL     OW31717   1.872   2.795   2.207 -0.6414 -0.0036  0.2272
 6694SOL    HW131718   1.785   2.831   2.191 -0.3669  0.7675  0.4969
 6694SOL    HW231719   1.855   2.760   2.295 -1.8801  0.3553  0.1302
 6695SOL     OW31720   3.335   1.413   7.329 -0.0968 -0.1494 -0.0731
 6695SOL    HW131721   3.422   1.452   7.333  0.4781 -1.5465  0.8955
 6695SOL    HW231722   3.321   1.426   7.236  1.3099  2.0981  0.0112
 6696SOL     OW31723   2.260   3.306   8.010  0.6157 -0.7308  0.1726
 6696SOL    HW131724   2.295   3.395   8.001 -3.2700  0.8754  1.1801
 6696SOL    HW231725   2.188   3.309   8.072 -0.1395  0.4541 -0.7593
 6697SOL     OW31726   4.532   1.704   8.169 -0.1900 -0.0048  0.4354
 6697SOL    HW131727   4.527   1.787   8.121 -1.3937  0.4775  1.3971
 6697SOL    HW231728   4.570   1.738   8.250  3.1477 -1.5787 -0.4646
 6698SOL     OW31729   1.511   1.832  12.782  0.0791  0.0831 -0.3206
 6698SOL    HW131730   1.500   1.892  12.709  1.2680  0.9890  0.2445
 6698SOL    HW231731   1.424   1.790  12.784 -0.9730  2.3355  2.1577
 6699SOL     OW31732   2.871   3.948  16.948  0.1638 -0.5497  0.3025
 6699SOL    HW131733   2.880   3.854  16.929  1.5621 -0.1363 -1.0510
 6699SOL    HW231734   2.956   3.958  16.990  0.5885  0.8112 -0.9038
 6700SOL     OW31735   1.960   3.788   3.583 -0.5765 -0.3999  0.6410
 6700SOL    HW131736   2.002   3.702   3.590  1.4997  0.4145 -2.0291
 6700SOL    HW231737   1.947   3.809   3.491 -0.9865  0.1139  0.8097
 6701SOL     OW31738   3.104   4.279   3.996  0.3301 -0.1640  0.2040
 6701SOL    HW131739   3.095   4.210   4.062  2.3439 -0.5494  0.0751
 6701SOL    HW231740   3.013   4.281   3.965  0.2372  2.4181  0.6395
 6702SOL     OW31741   2.988   4.231   3.159  0.0081 -0.1846 -0.1727
 6702SOL    HW131742   3.029   4.182   3.088  0.2222 -1.0050  0.5078
 6702SOL    HW231743   3.035   4.313   3.144  1.4150 -0.4952  2.4081
 6703SOL     OW31744   3.623   3.400   0.147 -0.0694  0.4184 -0.2985
 6703SOL    HW131745   3.559   3.470   0.156 -0.5874  0.0990 -1.6442
 6703SOL    HW231746   3.699   3.423   0.202  0.1653  0.4994 -0.6585
 6704SOL     OW31747   4.439   3.441   5.281  0.0307 -1.0267  0.4477
 6704SOL    HW131748   4.414   3.349   5.290 -0.2442 -1.0865 -0.9217
 6704SOL    HW231749   4.381   3.479   5.347  2.2336  1.3079  1.0456
 6705SOL     OW31750   1.812   4.130   3.360  0.5304 -0.6301  0.3505
 6705SOL    HW131751   1.765   4.064   3.308 -2.1111  1.6896 -0.2287
 6705SOL    HW231752   1.749   4.199   3.383  1.0663  0.2265 -0.7439
 6706SOL     OW31753   1.064   2.754  15.012  0.2116  0.2267  0.5740
 6706SOL    HW131754   1.134   2.715  15.065  0.7866  0.7107  0.1825
 6706SOL    HW231755   1.081   2.842  15.047 -1.0805  0.5844  0.2757
 6707SOL     OW31756   0.627   2.642   5.698  0.3624  0.3017 -0.2981
 6707SOL    HW131757   0.636   2.595   5.780  4.0178  1.9726  0.2598
 6707SOL    HW231758   0.668   2.588   5.630  1.1045 -0.7866  1.0041
 6708SOL     OW31759   1.046   2.610   9.050 -0.2948  0.0540 -0.1375
 6708SOL    HW131760   1.037   2.547   8.980 -1.8405  0.4311 -0.2834
 6708SOL    HW231761   1.021   2.695   9.012 -1.3776  1.5344  3.7836
 6709SOL     OW31762   4.335   2.550   0.351  0.2555  0.2230  0.5499
 6709SOL    HW131763   4.348   2.589   0.438 -1.2756  0.4725  0.6590
 6709SOL    HW231764   4.367   2.612   0.287 -2.8321  2.8722  1.5730
 6710SOL     OW31765   2.511   3.414   1.975  0.3477 -0.1593 -0.1475
 6710SOL    HW131766   2.524   3.336   2.029 -0.0923  1.1269  1.8118
 6710SOL    HW231767   2.425   3.442   2.005  0.4462  2.7402 -2.5428
 6711SOL     OW31768   2.708   0.081   8.299 -0.1322 -0.0412 -0.0178
 6711SOL    HW131769   2.633   0.060   8.244  0.3302  1.5013 -1.2256
 6711SOL    HW231770   2.669   0.166   8.318 -2.2009 -0.1594 -3.7364
 6712SOL     OW31771   2.211   4.713   2.822 -0.1933  0.2875  0.0996
 6712SOL    HW131772   2.274   0.022   2.771  0.6563 -1.7893 -0.9494
 6712SOL    HW231773   2.175   4.661   2.750  2.5929  0.9920 -1.8197
 6713SOL     OW31774   2.076   3.847   6.361 -0.1156 -0.0450  0.0775
 6713SOL    HW131775   2.020   3.782   6.319  0.7345 -1.2959  0.9179
 6713SOL    HW231776   2.017   3.884   6.426  0.7339 -0.2274  0.9389
 6714SOL     OW31777   3.086   3.096   2.139 -0.4512 -0.3547 -0.2574
 6714SOL    HW131778   3.109   3.003   2.145  1.0954 -0.0157 -1.1909
 6714SOL    HW231779   3.117   3.109   2.050 -2.7353 -1.5513 -1.2207
 6715SOL     OW31780   4.604   4.667  15.768  0.3782 -0.6406 -0.8981
 6715SOL    HW131781   4.610   4.706  15.681  1.7674  0.3045 -0.3754
 6715SOL    HW231782   4.592   0.006  15.818  0.9609 -1.3981  0.4885
 6716SOL     OW31783   3.894   1.360   9.312  0.7646 -0.1129 -0.5676
 6716SOL    HW131784   3.958   1.329   9.376  0.3228 -0.5009 -0.3236
 6716SOL    HW231785   3.909   1.455   9.312 -1.5201  0.2490  1.9874
 6717SOL     OW31786   2.684   2.327   2.870  0.5557  0.3520 -0.0140
 6717SOL    HW131787   2.620   2.387   2.830 -0.6309  0.0923  1.5008
 6717SOL    HW231788   2.765   2.354   2.827 -0.3446  1.3599 -1.0845
 6718SOL     OW31789   4.545   4.165   6.951 -0.0542 -0.0815  0.3183
 6718SOL    HW131790   4.489   4.155   7.029 -1.7206  0.8256 -0.7659
 6718SOL    HW231791   4.487   4.164   6.875 -1.6919 -1.0737  1.5758
 6719SOL     OW31792   2.793   0.962  11.198 -0.4014 -0.5058  0.0038
 6719SOL    HW131793   2.810   0.927  11.286  0.1544 -0.0605  0.0721
 6719SOL    HW231794   2.714   1.016  11.208  0.6039  0.8657  0.4722
 6720SOL     OW31795   1.041   0.825  15.482  0.7212 -0.6324  0.4926
 6720SOL    HW131796   0.973   0.868  15.534 -0.6788  0.0890 -1.9050
 6720SOL    HW231797   1.062   0.757  15.546 -0.1307 -0.9161  0.4665
 6721SOL     OW31798   0.940   4.085  13.405 -0.1848 -0.1803  0.2299
 6721SOL    HW131799   1.026   4.064  13.370 -0.3280 -0.1595 -0.1366
 6721SOL    HW231800   0.952   4.171  13.444 -0.8780  0.0839 -0.1352
 6722SOL     OW31801   2.097   2.305   9.174 -0.6002  0.6078  0.4462
 6722SOL    HW131802   2.095   2.310   9.078 -2.3247 -1.8294  0.3548
 6722SOL    HW231803   2.103   2.211   9.190  0.1778  0.8392  1.5133
 6723SOL     OW31804   4.304   2.830  16.141 -0.5178  0.5259  0.7857
 6723SOL    HW131805   4.315   2.802  16.050 -2.0617  0.4831  0.6010
 6723SOL    HW231806   4.388   2.805  16.179  0.4633  1.2859 -0.8883
 6724SOL     OW31807   3.501   0.694  13.674  0.1874  0.4003  0.3608
 6724SOL    HW131808   3.474   0.610  13.636  0.9031  0.3165  0.0341
 6724SOL    HW231809   3.516   0.738  13.590  1.0654  2.1270  1.4322
 6725SOL     OW31810   0.621   3.333   4.138 -0.0260 -0.5011 -0.2595
 6725SOL    HW131811   0.708   3.314   4.173 -0.7682 -1.5387  1.0335
 6725SOL    HW231812   0.596   3.266   4.074  1.8028  0.9771 -2.5161
 6726SOL     OW31813   1.010   3.054  10.863 -0.3169 -0.3765  0.1251
 6726SOL    HW131814   0.914   3.054  10.863 -0.3152 -0.1619  0.4534
 6726SOL    HW231815   1.030   3.051  10.956 -0.1350  2.3588  0.1689
 6727SOL     OW31816   3.815   3.807   2.495 -0.4144  0.1046 -0.8322
 6727SOL    HW131817   3.833   3.742   2.427 -0.2638  0.3374 -1.0154
 6727SOL    HW231818   3.843   3.880   2.440  1.5315 -0.2463 -0.2893
 6728SOL     OW31819   2.440   0.835   8.564 -0.3585 -0.0463  0.4878
 6728SOL    HW131820   2.362   0.799   8.523 -0.9823  1.3747  0.4150
 6728SOL    HW231821   2.452   0.922   8.526 -1.5062 -0.3231 -0.4712
 6729SOL     OW31822   0.921   2.937   6.924  0.0723 -0.0275 -0.1944
 6729SOL    HW131823   1.007   2.896   6.920 -0.1145 -0.2838 -1.6256
 6729SOL    HW231824   0.895   2.940   6.832 -0.5493  0.1693 -0.0124
 6730SOL     OW31825   2.718   4.679   4.245 -0.3385 -0.1232  0.5859
 6730SOL    HW131826   2.692   4.589   4.267  0.1831 -0.5019 -0.3524
 6730SOL    HW231827   2.790   4.665   4.184 -1.3042 -0.9972 -0.3347
 6731SOL     OW31828   4.052   2.882   9.749 -0.5527  0.4791  0.4160
 6731SOL    HW131829   4.109   2.924   9.814  1.2599 -0.5399 -0.5092
 6731SOL    HW231830   4.034   2.793   9.777 -1.4145  0.0430 -1.5284
 6732SOL     OW31831   3.425   1.910   5.183 -0.0563 -0.5691 -0.2707
 6732SOL    HW131832   3.451   1.973   5.116  0.0498 -0.7519 -0.4004
 6732SOL    HW231833   3.513   1.889   5.216  0.1216 -0.1705 -0.4968
 6733SOL     OW31834   1.869   2.307  12.536 -0.1139 -0.4088  0.2586
 6733SOL    HW131835   1.829   2.298  12.449 -0.5163 -3.2902  0.7345
 6733SOL    HW231836   1.956   2.335  12.508 -0.6186  1.6136  0.6767
 6734SOL     OW31837   2.222   3.826   4.995 -0.0426  0.0892 -0.5184
 6734SOL    HW131838   2.279   3.843   5.070 -1.0494 -4.0138  1.1854
 6734SOL    HW231839   2.266   3.871   4.924  0.9218 -1.5998 -0.9800
 6735SOL     OW31840   3.358   1.529   8.623 -0.3572 -0.2904 -0.6142
 6735SOL    HW131841   3.297   1.456   8.615 -0.2507 -0.6271  1.7082
 6735SOL    HW231842   3.310   1.587   8.564  0.1602  0.1234 -0.6309
 6736SOL     OW31843   1.671   0.041   2.683  0.3082  0.2804 -0.6114
 6736SOL    HW131844   1.623   0.081   2.610 -2.7426 -3.3125 -0.5572
 6736SOL    HW231845   1.630   4.698   2.693  2.3278 -0.6125 -0.0752
 6737SOL     OW31846   0.253   0.048   3.974  0.9656  0.0176  0.6279
 6737SOL    HW131847   0.282   4.700   3.961  0.9605  0.4079 -2.1046
 6737SOL    HW231848   0.320   0.076   4.036  0.2620  2.3685  0.3480
 6738SOL     OW31849   3.679   1.835   3.748  0.1734 -0.1974 -0.0100
 6738SOL    HW131850   3.644   1.747   3.764 -0.3428  0.0111  0.0043
 6738SOL    HW231851   3.747   1.852   3.814  1.0616 -0.1112 -0.9529
 6739SOL     OW31852   1.611   1.500   9.990 -0.3269  0.1880 -0.1419
 6739SOL    HW131853   1.643   1.590   9.986 -0.7312  0.4076  1.3175
 6739SOL    HW231854   1.681   1.465   9.936 -1.5644 -1.1148 -0.9111
 6740SOL     OW31855   4.499   1.189   0.966 -0.1557 -0.4053 -0.8395
 6740SOL    HW131856   4.481   1.279   0.995  0.0226 -0.2894 -1.0870
 6740SOL    HW231857   4.542   1.211   0.883 -1.8881  3.4714 -0.7009
 6741SOL     OW31858   4.471   4.297   0.553  0.0598 -0.7174  0.9952
 6741SOL    HW131859   4.395   4.345   0.519 -0.4738 -0.9888  1.7895
 6741SOL    HW231860   4.492   4.224   0.496 -1.9261 -1.9395  1.8001
 6742SOL     OW31861   4.460   0.123  12.126 -0.4176 -0.5987 -0.0372
 6742SOL    HW131862   4.428   0.062  12.192  1.6734 -1.3762  0.2788
 6742SOL    HW231863   4.437   0.206  12.168  2.3691 -1.7437  3.6770
 6743SOL     OW31864   2.140   0.025   7.254  0.3052 -0.4218 -0.2696
 6743SOL    HW131865   2.092   0.052   7.332  0.4122  1.1937 -0.7766
 6743SOL    HW231866   2.222   4.730   7.287  0.6479  1.1056  0.6051
 6744SOL     OW31867   0.300   4.638   9.925 -0.4130 -0.2649  0.0250
 6744SOL    HW131868   0.382   4.603   9.960  1.6144  0.9044 -3.5620
 6744SOL    HW231869   0.323   4.633   9.832  2.3389 -3.2940  0.8570
 6745SOL     OW31870   4.200   3.034   9.521  0.1227 -0.8286 -0.3352
 6745SOL    HW131871   4.150   2.959   9.489  0.4613 -1.8922  1.6294
 6745SOL    HW231872   4.279   3.014   9.469  0.8145 -2.1451  1.2134
 6746SOL     OW31873   4.059   1.272   1.593  0.1016 -0.3163  0.7207
 6746SOL    HW131874   3.977   1.299   1.551 -1.3327 -2.7419  1.9460
 6746SOL    HW231875   4.114   1.300   1.520 -0.7118 -1.7945 -0.4601
 6747SOL     OW31876   2.531   3.125   3.813  0.5684 -0.2816 -0.1481
 6747SOL    HW131877   2.619   3.160   3.801  1.3036 -1.3901  1.9452
 6747SOL    HW231878   2.543   3.082   3.898  2.0768 -0.3039 -0.3805
 6748SOL     OW31879   4.545   2.007   6.862  0.0502 -0.1010  0.0773
 6748SOL    HW131880   4.584   2.094   6.873  1.4860 -0.6637 -0.5004
 6748SOL    HW231881   4.504   2.028   6.778 -0.7018  1.3334  0.8087
 6749SOL     OW31882   2.249   0.310   7.760 -0.1633  0.4087 -0.1094
 6749SOL    HW131883   2.162   0.350   7.764 -0.5248 -0.2411 -1.3495
 6749SOL    HW231884   2.305   0.385   7.782  1.4039 -0.6479 -0.5369
 6750SOL     OW31885   0.806   1.786   6.679 -0.1296 -0.2330  0.5893
 6750SOL    HW131886   0.784   1.837   6.601 -2.3007 -1.5445  0.3391
 6750SOL    HW231887   0.871   1.731   6.635  0.1799  1.9349 -1.6238
 6751SOL     OW31888   2.041   3.293  13.478  0.1431  0.7305  0.1950
 6751SOL    HW131889   2.001   3.268  13.394  0.6346 -1.6400  0.6602
 6751SOL    HW231890   2.040   3.211  13.527 -0.2509  0.5382 -0.1378
 6752SOL     OW31891   3.557   3.999   3.123 -0.1409 -0.5689  0.7975
 6752SOL    HW131892   3.532   4.075   3.176  1.0844  0.5642 -0.2598
 6752SOL    HW231893   3.606   4.039   3.052 -0.3649 -1.4732  0.1253
 6753SOL     OW31894   3.062   3.789   5.284  0.0125  0.7965  0.2295
 6753SOL    HW131895   3.079   3.779   5.378  0.8717  1.5407  0.1472
 6753SOL    HW231896   3.118   3.861   5.255  0.1657  0.0638 -1.3362
 6754SOL     OW31897   1.981   0.657   6.083  0.0843 -0.1206 -0.3228
 6754SOL    HW131898   2.040   0.633   6.012 -1.9895  3.6928 -3.3231
 6754SOL    HW231899   1.896   0.640   6.043  0.0420  0.8787 -0.6629
 6755SOL     OW31900   3.939   3.527   9.798 -0.1195 -0.4422  0.1319
 6755SOL    HW131901   3.934   3.454   9.860 -2.4508 -0.1332  0.3126
 6755SOL    HW231902   3.890   3.491   9.723 -1.8277 -0.3250  1.1803
 6756SOL     OW31903   2.468   3.755   6.403  0.3968  0.2252  0.0098
 6756SOL    HW131904   2.486   3.661   6.408  0.3643  0.2589  0.7975
 6756SOL    HW231905   2.502   3.783   6.488  3.0951 -2.9218 -0.0307
 6757SOL     OW31906   1.627   1.144   2.429 -0.2852  0.0207 -0.0319
 6757SOL    HW131907   1.636   1.239   2.437  1.9066 -0.1297 -0.7479
 6757SOL    HW231908   1.678   1.127   2.350 -2.6284 -3.1503 -0.8386
 6758SOL     OW31909   3.654   4.540   1.748  0.4253  0.2327  0.3753
 6758SOL    HW131910   3.674   4.561   1.656 -0.8387 -0.7267 -0.1128
 6758SOL    HW231911   3.561   4.523   1.737  0.8588 -1.4931 -0.5508
 6759SOL     OW31912   0.411   3.885   1.910  0.5989  0.5959 -0.1077
 6759SOL    HW131913   0.333   3.875   1.965  1.4550  3.4391  1.6033
 6759SOL    HW231914   0.479   3.838   1.957  0.0021 -2.0824 -1.8925
 6760SOL     OW31915   2.011   2.350  16.832  0.3023  0.2590 -0.0626
 6760SOL    HW131916   2.035   2.433  16.874 -0.0003 -0.0502  0.7335
 6760SOL    HW231917   2.005   2.381  16.742 -1.6479 -0.6366 -0.2432
 6761SOL     OW31918   3.020   2.439  12.178  0.0340  0.2180 -1.3330
 6761SOL    HW131919   3.042   2.453  12.086  3.2345 -0.2039 -0.6403
 6761SOL    HW231920   3.079   2.494  12.229  0.2720 -0.9652 -0.3155
 6762SOL     OW31921   0.749   2.890  17.669  0.4700 -0.2544  0.5713
 6762SOL    HW131922   0.745   2.841  17.587  0.3001  0.9409 -0.1383
 6762SOL    HW231923   0.826   2.946  17.661  0.5782 -0.9556 -3.2798
 6763SOL     OW31924   4.402   2.059   3.781 -0.2496  0.1377 -0.3379
 6763SOL    HW131925   4.477   2.040   3.837 -0.6343  0.0053  0.1419
 6763SOL    HW231926   4.434   2.136   3.736  0.2339 -1.3053 -2.4572
 6764SOL     OW31927   2.989   1.751  17.518  0.2099 -0.1263 -0.3352
 6764SOL    HW131928   3.020   1.841  17.504 -1.6145  0.4224 -0.8411
 6764SOL    HW231929   2.934   1.764  17.595 -0.4148  1.0375 -0.9628
 6765SOL     OW31930   3.521   1.714   1.792 -0.2161 -0.9054 -0.0208
 6765SOL    HW131931   3.553   1.760   1.715  1.9613 -2.4042 -0.0117
 6765SOL    HW231932   3.570   1.631   1.792  1.6780  0.2094  0.0079
 6766SOL     OW31933   1.680   1.242   8.837 -0.5633 -0.2808 -0.2882
 6766SOL    HW131934   1.687   1.337   8.836  0.5039 -0.3490  1.3348
 6766SOL    HW231935   1.674   1.241   8.932  2.1239  0.8491 -0.1324
 6767SOL     OW31936   1.191   4.152   6.982  0.5108 -0.3859  0.6601
 6767SOL    HW131937   1.215   4.194   7.064 -0.4596 -0.6983  1.1045
 6767SOL    HW231938   1.251   4.204   6.929 -1.2445  0.6303 -0.3201
 6768SOL     OW31939   0.177   3.504   4.148 -0.3624 -0.2764 -0.5634
 6768SOL    HW131940   0.139   3.557   4.077  0.2597  0.2359 -0.5118
 6768SOL    HW231941   0.203   3.570   4.212  1.6357 -0.1414 -1.5203
 6769SOL     OW31942   3.344   1.623   8.223 -0.3172 -0.2502 -0.2605
 6769SOL    HW131943   3.327   1.613   8.130 -1.8179  0.0625 -0.0253
 6769SOL    HW231944   3.430   1.664   8.223 -0.4164 -0.0332  0.4057
 6770SOL     OW31945   1.149   0.568   3.651  0.9541  0.4201  0.1555
 6770SOL    HW131946   1.233   0.615   3.660  1.6761 -0.9485  0.5241
 6770SOL    HW231947   1.161   0.527   3.565 -1.7177  1.3610 -0.6742
 6771SOL     OW31948   0.910   4.686   8.433  0.0343 -0.4670 -0.1860
 6771SOL    HW131949   0.931   0.029   8.469 -2.2113  0.2833 -0.6399
 6771SOL    HW231950   0.957   4.686   8.350  1.2585 -1.4385  0.5070
 6772SOL     OW31951   2.126   1.002   2.699 -0.0984 -0.3606 -0.3997
 6772SOL    HW131952   2.083   0.958   2.772 -0.2505 -2.4149 -1.7421
 6772SOL    HW231953   2.056   1.013   2.636 -1.3291 -1.5450  0.7713
 6773SOL     OW31954   4.400   0.621  10.466  0.2368 -0.0258  0.0730
 6773SOL    HW131955   4.423   0.688  10.530  1.5690  0.2854 -0.7085
 6773SOL    HW231956   4.357   0.551  10.515 -0.0791 -0.2602 -0.5409
 6774SOL     OW31957   3.939   0.233  11.486 -0.2136 -0.7144  0.2698
 6774SOL    HW131958   3.889   0.219  11.405 -1.3302 -0.9369  0.9985
 6774SOL    HW231959   3.875   0.272  11.545 -0.7398 -1.0063 -0.1039
 6775SOL     OW31960   3.349   2.908  14.128 -0.4246  0.3671 -0.5615
 6775SOL    HW131961   3.298   2.911  14.209  0.8651 -0.5390  0.2981
 6775SOL    HW231962   3.284   2.872  14.069  0.1286 -0.8556 -0.4182
 6776SOL     OW31963   2.554   4.640  11.678 -0.2156 -0.4632 -0.1314
 6776SOL    HW131964   2.528   4.554  11.711 -1.1272 -0.3189 -0.4815
 6776SOL    HW231965   2.476   4.684  11.714 -0.3501  0.3350 -1.4227
 6777SOL     OW31966   1.554   0.815   5.016  0.0749 -0.5307 -0.3257
 6777SOL    HW131967   1.602   0.833   5.097  0.1174  1.0493 -0.7011
 6777SOL    HW231968   1.613   0.764   4.960  1.2419  1.3139 -0.7710
 6778SOL     OW31969   1.845   1.400   9.891  0.7334 -0.0191 -0.6700
 6778SOL    HW131970   1.872   1.312   9.865  0.1759 -0.0766 -1.0669
 6778SOL    HW231971   1.929   1.445   9.885  0.9307 -0.6025 -2.2046
 6779SOL     OW31972   4.671   4.467   4.993  0.6653  0.3853  0.0258
 6779SOL    HW131973   4.736   4.414   4.948 -3.3974 -1.9466 -3.0678
 6779SOL    HW231974   4.618   4.497   4.920 -0.1912  0.1440  0.5485
 6780SOL     OW31975   3.077   0.332   9.975 -0.4748  0.0956  0.1640
 6780SOL    HW131976   3.036   0.391  10.039  1.2126 -1.1772  2.4169
 6780SOL    HW231977   3.039   0.249  10.003 -0.6270 -0.0273 -0.4038
 6781SOL     OW31978   2.164   2.139   6.928 -0.1084  0.3227  0.5207
 6781SOL    HW131979   2.220   2.083   6.982 -0.3702 -1.9778 -1.5951
 6781SOL    HW231980   2.220   2.216   6.917  2.4083 -0.9752  4.0850
 6782SOL     OW31981   0.989   4.721   3.792  0.2242 -0.2253 -0.2474
 6782SOL    HW131982   0.932   0.018   3.858 -1.4070  0.3369 -2.0127
 6782SOL    HW231983   1.048   4.667   3.846 -1.5548 -1.3815  0.5461
 6783SOL     OW31984   2.156   1.160   6.552  0.3992  0.7399  0.2058
 6783SOL    HW131985   2.133   1.204   6.470 -2.9945 -0.6317  0.4328
 6783SOL    HW231986   2.208   1.227   6.596 -0.4635  1.6586 -0.1825
 6784SOL     OW31987   0.955   3.710  10.671  0.0506  0.2022  0.6163
 6784SOL    HW131988   0.992   3.658  10.600 -2.0275 -1.3133  0.6196
 6784SOL    HW231989   0.879   3.750  10.628  1.3958  1.7239 -0.3012
 6785SOL     OW31990   3.143   2.634   5.912  0.6607  0.2232  0.0956
 6785SOL    HW131991   3.048   2.638   5.917  0.5680 -0.8414 -0.9628
 6785SOL    HW231992   3.158   2.701   5.978  0.2385 -0.9455  1.3677
 6786SOL     OW31993   2.636   4.611   3.196  0.3538  0.0647 -0.1297
 6786SOL    HW131994   2.598   4.566   3.272  0.4451  1.0284  0.4830
 6786SOL    HW231995   2.675   4.532   3.158  1.2373  2.0856 -3.3739
 6787SOL     OW31996   2.442   2.563   5.573  0.6777 -0.0667 -0.7077
 6787SOL    HW131997   2.411   2.649   5.546 -0.2132  0.4003  1.7973
 6787SOL    HW231998   2.537   2.577   5.578  0.5624 -0.3168  1.9290
 6788SOL     OW31999   2.266   4.676  12.746 -0.3176 -0.1728  0.1332
 6788SOL    HW132000   2.196   4.742  12.750 -0.1295  0.0890 -0.8945
 6788SOL    HW232001   2.232   4.609  12.806  0.4055  0.5812  1.3960
 6789SOL     OW32002   4.498   1.588   9.297  0.3768  0.7682  0.2398
 6789SOL    HW132003   4.506   1.541   9.380 -0.5118  0.5510  0.2025
 6789SOL    HW232004   4.443   1.660   9.326 -1.0481 -1.5158  3.1672
 6790SOL     OW32005   4.342   2.934   0.535  0.6565  0.5531  0.0519
 6790SOL    HW132006   4.328   3.026   0.557  1.4667  0.7605 -0.3118
 6790SOL    HW232007   4.430   2.936   0.497 -0.5879  0.3934 -2.8465
 6791SOL     OW32008   4.727   3.056   5.378  0.1507  0.1738  0.2175
 6791SOL    HW132009   4.642   3.015   5.395 -0.7790  1.6575 -0.9085
 6791SOL    HW232010   0.029   3.055   5.463  0.3214  1.8996  0.1419
 6792SOL     OW32011   3.438   2.623   6.876 -0.3721 -0.1103 -0.1879
 6792SOL    HW132012   3.431   2.636   6.971  0.5406  1.3089 -0.2989
 6792SOL    HW232013   3.532   2.642   6.868 -1.0455  3.4986  0.4103
 6793SOL     OW32014   0.899   3.057   0.315  0.1381  0.4120 -0.1189
 6793SOL    HW132015   0.826   3.002   0.287  0.1909  0.7273 -0.8900
 6793SOL    HW232016   0.916   3.105   0.234  1.2790 -1.9724 -1.2968
 6794SOL     OW32017   2.760   2.977   8.024  0.6719 -0.4319 -0.3899
 6794SOL    HW132018   2.769   2.992   7.930  2.4104  3.0177  0.2997
 6794SOL    HW232019   2.666   2.987   8.035  0.5131 -4.4147  1.8770
 6795SOL     OW32020   1.372   1.868   2.350 -0.7546 -0.3050 -0.2149
 6795SOL    HW132021   1.413   1.802   2.295  0.5005  1.5762 -1.5154
 6795SOL    HW232022   1.370   1.948   2.297  1.3189  0.4449  0.8172
 6796SOL     OW32023   1.503   0.180   2.489 -0.1081 -0.0028 -0.3416
 6796SOL    HW132024   1.556   0.154   2.414 -1.1977  0.5992 -1.3254
 6796SOL    HW232025   1.419   0.168   2.443  0.6070  1.6881 -2.1080
 6797SOL     OW32026   0.273   3.563   1.996 -0.0108  0.0878 -0.2110
 6797SOL    HW132027   0.288   3.619   2.072 -0.1769  1.2930 -1.0685
 6797SOL    HW232028   0.178   3.553   2.000 -0.1076  0.7269 -0.8212
 6798SOL     OW32029   2.212   4.667  16.254  0.0401 -0.6055  0.0105
 6798SOL    HW132030   2.215   4.574  16.276 -1.1195 -0.9954 -1.4761
 6798SOL    HW232031   2.283   4.650  16.192  1.0557  1.8460  0.5082
 6799SOL     OW32032   0.048   4.237   2.415  0.2488  0.0743 -0.1967
 6799SOL    HW132033   0.069   4.324   2.378 -2.1995 -0.3771 -2.6525
 6799SOL    HW232034   4.699   4.259   2.430  0.0223 -1.6537  0.9055
 6800SOL     OW32035   0.991   3.027  17.592 -0.0495  0.4637 -0.4167
 6800SOL    HW132036   0.984   3.119  17.567  1.4826  1.0861  1.3990
 6800SOL    HW232037   1.083   3.011  17.575 -0.2817 -0.5391 -0.7286
 6801SOL     OW32038   2.892   4.215   4.523 -0.3821 -0.1792  0.2817
 6801SOL    HW132039   2.801   4.197   4.497 -0.5032  0.8940 -0.0103
 6801SOL    HW232040   2.882   4.236   4.616 -0.7595  1.1566 -0.0631
 6802SOL     OW32041   2.302   2.915   7.502  0.4846  0.1557 -0.3197
 6802SOL    HW132042   2.382   2.868   7.528  0.0781 -0.8093 -0.7949
 6802SOL    HW232043   2.296   2.991   7.559  0.8257  0.4998 -0.7356
 6803SOL     OW32044   1.983   1.355   7.908 -0.2663  0.5048  0.1584
 6803SOL    HW132045   1.939   1.418   7.850  0.5975  0.5733 -0.4184
 6803SOL    HW232046   2.032   1.314   7.837 -0.0233  0.8412  0.1343
 6804SOL     OW32047   1.964   0.423   8.516 -0.2540  0.1592 -0.0250
 6804SOL    HW132048   1.914   0.396   8.594  1.4589  1.6456  1.5993
 6804SOL    HW232049   1.897   0.444   8.451 -0.8396  0.0985  0.5556
 6805SOL     OW32050   3.298   1.010   3.322  0.0161  0.1341  0.2012
 6805SOL    HW132051   3.255   0.925   3.335  0.5982 -0.2449 -0.3483
 6805SOL    HW232052   3.315   1.020   3.228  2.0715 -0.4776  0.5181
 6806SOL     OW32053   1.732   4.611  13.145  0.0773 -0.0521 -0.0055
 6806SOL    HW132054   1.770   4.673  13.207 -0.0699 -0.4965  0.5296
 6806SOL    HW232055   1.728   4.676  13.074  1.2194  0.2382  0.2061
 6807SOL     OW32056   3.899   2.069   9.489  0.0907  0.2918 -0.5536
 6807SOL    HW132057   3.827   2.084   9.428 -0.4009  0.1382 -0.0051
 6807SOL    HW232058   3.885   2.138   9.553  0.6919  0.9011 -1.0719
 6808SOL     OW32059   1.971   4.348   4.070  0.0598  0.0778  0.2133
 6808SOL    HW132060   2.000   4.390   4.151  0.1486 -0.3242  0.3909
 6808SOL    HW232061   2.041   4.378   4.012  1.7376 -2.3030  0.9895
 6809SOL     OW32062   2.733   0.369   7.307 -0.1493  0.0405  0.0656
 6809SOL    HW132063   2.700   0.386   7.218 -1.1665 -1.0963  0.2273
 6809SOL    HW232064   2.655   0.371   7.362  0.1152 -1.3540  0.4893
 6810SOL     OW32065   1.732   3.628   7.611 -0.4113 -0.2352 -0.4993
 6810SOL    HW132066   1.766   3.538   7.609  1.1070  0.4004 -3.4421
 6810SOL    HW232067   1.642   3.621   7.577 -1.0812  0.6098  1.1014
 6811SOL     OW32068   0.415   0.091   4.938  0.5164 -0.5183  0.0324
 6811SOL    HW132069   0.407   0.140   5.020 -1.5431 -1.3152  0.2817
 6811SOL    HW232070   0.401   0.001   4.967 -1.9928  0.1285  0.8052
 6812SOL     OW32071   0.116   2.451   0.242  0.3072 -0.0731 -0.1712
 6812SOL    HW132072   0.092   2.455   0.150 -0.7727  0.4375  0.1401
 6812SOL    HW232073   0.185   2.517   0.244 -0.7155  0.9766 -0.0952
 6813SOL     OW32074   0.365   0.709   3.550 -0.6345 -0.4143 -0.3880
 6813SOL    HW132075   0.293   0.664   3.504 -0.5503 -0.5870 -0.3522
 6813SOL    HW232076   0.330   0.730   3.637 -0.6163  1.6723 -0.8852
 6814SOL     OW32077   1.573   2.523   8.003  1.2861 -0.5698 -0.4805
 6814SOL    HW132078   1.480   2.527   7.982  1.1649  0.9201  0.3575
 6814SOL    HW232079   1.585   2.609   8.043  1.7284 -1.1415  0.5984
 6815SOL     OW32080   4.306   1.634   7.557  0.4255 -0.3356 -0.0981
 6815SOL    HW132081   4.373   1.698   7.581  1.2764 -2.3108  2.7290
 6815SOL    HW232082   4.328   1.554   7.604 -1.5289 -0.9547 -0.2304
 6816SOL     OW32083   1.009   4.625   4.890  0.5660  0.4323  0.0914
 6816SOL    HW132084   0.920   4.601   4.917  1.0071 -1.4393 -0.1405
 6816SOL    HW232085   1.036   4.550   4.838  0.0859  1.1028 -1.1331
 6817SOL     OW32086   2.949   3.638   4.784  0.1452 -0.0891 -0.1949
 6817SOL    HW132087   3.024   3.610   4.731 -0.4623 -0.0070 -1.0940
 6817SOL    HW232088   2.975   3.603   4.869 -2.2502 -0.0214  0.5340
 6818SOL     OW32089   3.874   1.691   3.980  0.6216  0.6707  0.2143
 6818SOL    HW132090   3.810   1.671   4.049 -0.0901  3.0098  0.2067
 6818SOL    HW232091   3.912   1.607   3.954 -0.3319 -0.0205  1.0214
 6819SOL     OW32092   2.662   4.156   2.773 -0.4693 -0.5171  0.5691
 6819SOL    HW132093   2.670   4.247   2.802 -1.5190 -0.2027 -0.0797
 6819SOL    HW232094   2.571   4.158   2.742 -0.3807 -0.4922  0.3113
 6820SOL     OW32095   4.580   1.858   3.027 -0.2583 -0.6543  0.3356
 6820SOL    HW132096   4.584   1.873   3.121  0.0145 -2.9721  0.6880
 6820SOL    HW232097   4.522   1.929   2.999  0.5714 -0.0317  0.2050
 6821SOL     OW32098   0.865   1.752   1.878  0.1247  0.4158  0.3498
 6821SOL    HW132099   0.778   1.759   1.917 -0.9248 -0.2570 -1.8547
 6821SOL    HW232100   0.846   1.769   1.786 -1.5218 -2.5993  0.1389
 6822SOL     OW32101   4.239   3.749  12.356 -0.5258  0.0664 -0.2074
 6822SOL    HW132102   4.224   3.810  12.428 -0.5413 -0.7294  0.4519
 6822SOL    HW232103   4.332   3.751  12.332 -0.8148  0.1837 -1.3169
 6823SOL     OW32104   2.379   3.709   3.264 -0.1954 -0.0164 -0.9793
 6823SOL    HW132105   2.432   3.636   3.234  1.8157  0.3371  1.6358
 6823SOL    HW232106   2.292   3.680   3.236 -0.2023 -0.6889 -0.2666
 6824SOL     OW32107   2.992   0.444   6.733  0.4328 -0.1527 -0.2578
 6824SOL    HW132108   3.036   0.379   6.677 -2.2343  0.2007 -2.7915
 6824SOL    HW232109   3.056   0.460   6.802 -1.4324  1.9331  0.9571
 6825SOL     OW32110   4.510   0.671   6.582  0.4488 -0.1588 -0.1922
 6825SOL    HW132111   4.597   0.654   6.618  0.3718 -2.1552 -0.9507
 6825SOL    HW232112   4.517   0.637   6.493  2.0830  2.6693 -1.1453
 6826SOL     OW32113   3.155   2.912   9.435  1.1266  0.0925  0.2708
 6826SOL    HW132114   3.081   2.891   9.493 -0.4701 -0.3515 -1.9521
 6826SOL    HW232115   3.209   2.976   9.482 -0.0842  1.7795 -0.6473
 6827SOL     OW32116   1.612   0.536  15.438 -0.0811 -0.2320 -0.1699
 6827SOL    HW132117   1.632   0.550  15.345 -1.8521  1.0317 -0.3579
 6827SOL    HW232118   1.518   0.540  15.421 -0.0238  0.3946 -0.3419
 6828SOL     OW32119   0.831   2.778   7.545  0.4658  0.3053  0.0966
 6828SOL    HW132120   0.750   2.809   7.504  0.0311 -1.6875 -0.5475
 6828SOL    HW232121   0.811   2.779   7.639 -0.4150  0.3873 -0.0887
 6829SOL     OW32122   2.680   4.399   5.041  0.1626  0.6159 -0.9493
 6829SOL    HW132123   2.750   4.464   5.043  2.2736 -1.6526 -0.6565
 6829SOL    HW232124   2.617   4.430   4.977 -1.5784 -1.1854 -0.1116
 6830SOL     OW32125   1.479   4.154  17.356 -0.3418 -0.1448  0.2592
 6830SOL    HW132126   1.453   4.176  17.446  1.1545 -2.0778  1.1727
 6830SOL    HW232127   1.555   4.209  17.338 -0.5455 -0.3849 -1.3839
 6831SOL     OW32128   2.709   0.353   3.099  0.1862 -0.0104  0.1797
 6831SOL    HW132129   2.657   0.305   3.163 -0.9982  1.0881  0.0351
 6831SOL    HW232130   2.649   0.359   3.025 -0.0419  2.3510  0.5570
 6832SOL     OW32131   0.681   2.117  14.542  0.3203 -0.2983 -0.4476
 6832SOL    HW132132   0.622   2.077  14.605  0.2908 -0.6138 -0.6739
 6832SOL    HW232133   0.633   2.197  14.520 -1.0198 -0.9654  0.0679
 6833SOL     OW32134   0.599   2.169   4.149  0.3076 -0.2385 -0.1341
 6833SOL    HW132135   0.602   2.073   4.155  0.8612 -0.4282 -3.3195
 6833SOL    HW232136   0.512   2.187   4.182  0.6427  2.1900 -0.6280
 6834SOL     OW32137   3.785   2.469   9.718  0.6647 -0.1539 -0.5345
 6834SOL    HW132138   3.867   2.504   9.752 -0.4783  0.7654  1.2469
 6834SOL    HW232139   3.809   2.376   9.723  1.8997  0.1973 -0.1983
 6835SOL     OW32140   3.307   3.903   9.512  0.0947 -0.2589  0.5226
 6835SOL    HW132141   3.273   3.953   9.586 -0.9350  0.1884 -0.2570
 6835SOL    HW232142   3.298   3.811   9.536 -1.3877  0.2049  1.7414
 6836SOL     OW32143   2.987   3.521   8.997 -0.7469  0.2317 -0.3152
 6836SOL    HW132144   2.993   3.428   9.016 -0.6259  0.3949  0.4574
 6836SOL    HW232145   2.894   3.533   9.012 -0.6351 -0.7945  1.1324
 6837SOL     OW32146   0.190   3.380  15.194  0.0619  0.5611  0.1031
 6837SOL    HW132147   0.247   3.451  15.164  0.8146 -0.9469 -1.9971
 6837SOL    HW232148   0.101   3.407  15.169  0.5542  3.6341  1.5874
 6838SOL     OW32149   0.836   3.343   8.213 -0.4365  0.1494 -0.1347
 6838SOL    HW132150   0.773   3.414   8.206  0.5729  0.9669 -0.8055
 6838SOL    HW232151   0.921   3.383   8.230  0.2460 -1.2449 -0.3037
 6839SOL     OW32152   3.730   2.737   9.710  0.3462  0.8074  0.1150
 6839SOL    HW132153   3.636   2.753   9.713  0.0098 -0.8467 -1.8533
 6839SOL    HW232154   3.735   2.644   9.688  0.0572  0.2631  2.3865
 6840SOL     OW32155   0.240   0.046  15.602  0.2254 -0.6989 -0.1560
 6840SOL    HW132156   0.252   4.694  15.596  1.9448 -0.4684 -0.4292
 6840SOL    HW232157   0.144   0.051  15.599  0.1125 -3.3477 -1.1486
 6841SOL     OW32158   0.872   2.825   3.454 -0.5838  0.0515 -0.0944
 6841SOL    HW132159   0.856   2.880   3.531 -0.7600  0.6252 -0.5422
 6841SOL    HW232160   0.959   2.790   3.471 -0.9673 -0.1427  1.4582
 6842SOL     OW32161   0.336   1.806   0.024 -0.3756  0.1329 -0.0796
 6842SOL    HW132162   0.249   1.767   0.025  0.6851 -2.2354 -1.3907
 6842SOL    HW232163   0.372   1.776  17.707 -0.1501  0.6349 -0.1660
 6843SOL     OW32164   2.266   1.910   2.280  0.2090  0.8517  0.7326
 6843SOL    HW132165   2.227   1.830   2.316 -1.0219  0.8260 -0.6650
 6843SOL    HW232166   2.203   1.941   2.215  3.7107  2.2926 -1.9417
 6844SOL     OW32167   1.615   3.184   3.573 -0.3267 -0.1561 -0.4179
 6844SOL    HW132168   1.585   3.216   3.658 -0.0804  0.7439 -0.6680
 6844SOL    HW232169   1.661   3.107   3.608  2.7339  1.9588  0.2569
 6845SOL     OW32170   3.816   1.252   8.437  0.0830  0.8093 -0.1325
 6845SOL    HW132171   3.853   1.186   8.495 -2.9115 -2.0888 -1.4840
 6845SOL    HW232172   3.729   1.259   8.476  0.5525  0.3799  0.9657
 6846SOL     OW32173   2.552   1.762   7.040 -0.1633 -0.1198  0.0707
 6846SOL    HW132174   2.631   1.816   7.033  1.0437 -1.6306  2.2332
 6846SOL    HW232175   2.533   1.776   7.133 -1.3141  1.4826 -0.4042
 6847SOL     OW32176   4.183   1.845   1.726 -0.2723 -0.1603 -0.1699
 6847SOL    HW132177   4.222   1.782   1.786 -0.5475 -1.9189 -1.8367
 6847SOL    HW232178   4.250   1.913   1.719 -0.4429 -0.0034 -0.3073
 6848SOL     OW32179   2.555   4.674   5.286  0.3045 -0.3367 -0.4938
 6848SOL    HW132180   2.492   4.725   5.336  3.2277  2.3773  0.4481
 6848SOL    HW232181   2.563   4.726   5.206 -1.4755 -2.4728 -2.0391
 6849SOL     OW32182   2.821   2.762   5.387 -0.2914 -0.0883  0.5430
 6849SOL    HW132183   2.884   2.818   5.433  1.4209 -1.3046 -0.3154
 6849SOL    HW232184   2.839   2.788   5.297  0.1748 -0.7423  0.4452
 6850SOL     OW32185   1.272   4.578   1.903  0.0419 -0.2862 -0.0928
 6850SOL    HW132186   1.324   4.631   1.842  0.3243 -1.2077 -0.6581
 6850SOL    HW232187   1.268   4.494   1.857 -0.0771  0.1967 -0.9671
 6851SOL     OW32188   2.970   4.388   5.146 -0.4654 -0.0313  0.1838
 6851SOL    HW132189   3.006   4.395   5.057  0.5610 -0.5410  0.5630
 6851SOL    HW232190   2.908   4.461   5.143 -1.3816 -0.8424 -0.5409
 6852SOL     OW32191   4.148   0.219   3.358  0.3699  0.3141  0.1328
 6852SOL    HW132192   4.095   0.246   3.434 -0.3954  0.0788 -0.3140
 6852SOL    HW232193   4.079   0.166   3.319  1.0304 -0.0403 -0.5449
 6853SOL     OW32194   1.682   3.262   1.862  0.0602  0.1123  0.0235
 6853SOL    HW132195   1.734   3.226   1.789 -1.0600 -0.4927 -0.4766
 6853SOL    HW232196   1.689   3.354   1.837 -0.1434  0.1580  0.1389
 6854SOL     OW32197   0.745   0.824   8.646 -0.5890  0.5785 -0.2242
 6854SOL    HW132198   0.724   0.853   8.557  1.2100  0.5596 -0.6502
 6854SOL    HW232199   0.792   0.742   8.633  1.7224  1.7134  1.0238
 6855SOL     OW32200   3.073   0.133   7.136 -0.4652  0.0095 -0.1116
 6855SOL    HW132201   3.142   0.194   7.110  0.7102 -1.6915 -0.9766
 6855SOL    HW232202   3.114   0.058   7.179  1.7524  2.3352  1.8417
 6856SOL     OW32203   4.621   2.607   2.410  0.1701  0.4893  0.1080
 6856SOL    HW132204   4.567   2.686   2.399  0.1869  0.4208 -0.4371
 6856SOL    HW232205   4.579   2.547   2.349  3.8564 -0.6171 -1.3724
 6857SOL     OW32206   3.382   0.627  14.512  0.1486  0.3929 -0.9054
 6857SOL    HW132207   3.427   0.562  14.566 -0.6689  1.4336  1.0166
 6857SOL    HW232208   3.410   0.582  14.431  0.0453 -3.4679  1.1879
 6858SOL     OW32209   2.984   2.682   6.413 -0.5085  0.0226  0.6035
 6858SOL    HW132210   2.893   2.655   6.425 -0.3435 -0.3567  1.0144
 6858SOL    HW232211   2.972   2.777   6.412  2.0902  0.3776  3.2433
 6859SOL     OW32212   1.734   0.560  11.962 -0.0052  0.2203  0.3971
 6859SOL    HW132213   1.656   0.509  11.980 -0.4018  0.8989  0.5905
 6859SOL    HW232214   1.713   0.638  12.013 -2.2048 -0.2883  0.2548
 6860SOL     OW32215   3.737   1.132   0.124  0.2070  0.4128  0.1478
 6860SOL    HW132216   3.688   1.058   0.089  1.4140  0.6768 -2.1009
 6860SOL    HW232217   3.766   1.100   0.210 -1.1676  2.4144  1.3720
 6861SOL     OW32218   1.490   1.721   2.874  0.3650  0.3079  0.5632
 6861SOL    HW132219   1.397   1.726   2.895  0.7098  2.6143  1.4968
 6861SOL    HW232220   1.487   1.654   2.805  0.6587 -0.4628  1.2933
 6862SOL     OW32221   3.518   0.176   9.969 -0.7718  0.4854 -0.4377
 6862SOL    HW132222   3.462   0.253   9.981 -1.5337 -0.3529  1.4025
 6862SOL    HW232223   3.451   0.108   9.970 -0.6708  0.3869 -0.4222
 6863SOL     OW32224   3.356   1.609   5.508  0.2685 -1.1648  0.3116
 6863SOL    HW132225   3.382   1.617   5.600 -0.2006  0.8712  0.2730
 6863SOL    HW232226   3.352   1.700   5.476  0.8502 -0.5240  2.0497
 6864SOL     OW32227   1.354   2.393   6.948  0.2423 -0.0304 -0.2122
 6864SOL    HW132228   1.369   2.482   6.979  3.2105 -1.4944  2.5020
 6864SOL    HW232229   1.436   2.361   6.910  0.1755  0.4849 -0.7905
 6865SOL     OW32230   2.291   3.650   8.659  0.0488  0.4636 -0.0215
 6865SOL    HW132231   2.212   3.611   8.697  0.4547  2.2435  2.5925
 6865SOL    HW232232   2.286   3.618   8.568  0.4726 -0.2315  0.1967
 6866SOL     OW32233   2.645   3.046   8.718  0.1712  0.0227 -0.6071
 6866SOL    HW132234   2.709   2.985   8.680 -0.2641 -0.6590 -0.2506
 6866SOL    HW232235   2.662   3.113   8.652  0.6744  1.6960  1.2318
 6867SOL     OW32236   2.311   1.761  11.050  0.1608 -0.0552 -0.3304
 6867SOL    HW132237   2.275   1.672  11.053  1.5937 -0.6437 -0.3820
 6867SOL    HW232238   2.402   1.755  11.079  0.4664 -0.5862 -1.3725
 6868SOL     OW32239   0.769   3.373   4.949  0.4300 -0.4805 -0.1357
 6868SOL    HW132240   0.810   3.309   4.891 -0.5965  0.2594 -1.6721
 6868SOL    HW232241   0.851   3.399   4.991 -0.4108  0.3821  0.9682
 6869SOL     OW32242   3.873   1.992   5.125 -0.3505  0.2933 -0.6732
 6869SOL    HW132243   3.860   2.082   5.097  0.3722  0.2878 -1.0409
 6869SOL    HW232244   3.882   1.958   5.036 -4.5309 -1.9990 -0.1963
 6870SOL     OW32245   2.986   2.737  15.025 -0.0806 -0.1192 -0.6993
 6870SOL    HW132246   3.017   2.657  14.984 -1.0648  0.5734 -2.7679
 6870SOL    HW232247   2.997   2.793  14.949 -0.4505  1.0337  0.0957
 6871SOL     OW32248   2.029   0.253   9.281  0.3724  0.0481  0.2738
 6871SOL    HW132249   2.112   0.254   9.235 -0.6898 -2.0001 -1.6633
 6871SOL    HW232250   2.049   0.233   9.372 -0.8618  2.6205  1.1230
 6872SOL     OW32251   0.477   0.072  11.472  0.1910 -0.2283  0.1192
 6872SOL    HW132252   0.407   0.132  11.447  1.1536  0.0423 -1.8914
 6872SOL    HW232253   0.427   4.741  11.507 -1.5767  1.2612  0.7423
 6873SOL     OW32254   3.243   2.401   1.057  0.1373  0.3554 -0.0612
 6873SOL    HW132255   3.208   2.481   1.017 -1.5069  0.4748  1.6363
 6873SOL    HW232256   3.332   2.434   1.071  0.4057 -0.9148  1.2995
 6874SOL     OW32257   2.841   1.863   8.529  0.4729  0.0676  0.3821
 6874SOL    HW132258   2.747   1.849   8.540  0.5915  0.1466  1.5079
 6874SOL    HW232259   2.874   1.814   8.604 -0.1401 -0.4188  0.3377
 6875SOL     OW32260   0.460   2.168   3.044 -0.4836  0.4134 -0.1162
 6875SOL    HW132261   0.433   2.260   3.050  2.5857  1.2148  0.9915
 6875SOL    HW232262   0.384   2.138   2.993  0.8493  0.6381 -2.2318
 6876SOL     OW32263   1.628   3.314   2.361 -0.3729 -0.1477 -0.1147
 6876SOL    HW132264   1.604   3.407   2.359 -0.4303 -0.1462  0.5310
 6876SOL    HW232265   1.682   3.298   2.283 -1.2007 -1.1763 -0.4754
 6877SOL     OW32266   0.845   4.159   6.117  0.7499 -0.0929 -0.3418
 6877SOL    HW132267   0.791   4.144   6.195  0.3648  0.6199 -0.4714
 6877SOL    HW232268   0.881   4.071   6.105 -0.2876 -0.3864 -1.3863
 6878SOL     OW32269   0.390   0.657   7.214 -0.0605  0.3270 -0.5697
 6878SOL    HW132270   0.366   0.661   7.307 -1.0455 -2.8282 -0.6873
 6878SOL    HW232271   0.398   0.562   7.201 -1.1179 -0.0944  1.7232
 6879SOL     OW32272   2.559   0.595   3.345 -0.0057  0.3616 -0.3045
 6879SOL    HW132273   2.544   0.584   3.439  0.4582  1.9535 -0.0437
 6879SOL    HW232274   2.476   0.557   3.315 -0.0581  1.4504 -1.5359
 6880SOL     OW32275   0.201   2.708  17.261 -0.4826  0.1360  0.3473
 6880SOL    HW132276   0.117   2.678  17.295 -1.9116  1.7536 -1.7465
 6880SOL    HW232277   0.257   2.646  17.308 -0.6931  0.3359  0.8637
 6881SOL     OW32278   1.679   2.311   2.815 -0.0958  0.5592  0.1391
 6881SOL    HW132279   1.725   2.325   2.733  2.5363  0.4224  1.5989
 6881SOL    HW232280   1.674   2.216   2.810 -0.1732  0.6697 -2.0359
 6882SOL     OW32281   2.005   2.581   2.681  0.3575 -0.1650 -0.0717
 6882SOL    HW132282   2.021   2.666   2.641 -1.4005  0.0646 -0.3035
 6882SOL    HW232283   1.930   2.608   2.735 -0.7670 -4.0735  0.3033
 6883SOL     OW32284   3.311   1.112   1.803  0.2322  0.2388 -0.0337
 6883SOL    HW132285   3.326   1.023   1.772  1.6207 -0.3894  2.4515
 6883SOL    HW232286   3.301   1.153   1.717  1.4712  0.2525 -0.1759
 6884SOL     OW32287   2.043   1.333   6.359  0.3341  0.0621  0.8901
 6884SOL    HW132288   1.956   1.330   6.399  0.0331 -1.2725  0.1276
 6884SOL    HW232289   2.055   1.427   6.345  1.3976  0.0736  1.8836
 6885SOL     OW32290   4.493   0.831   2.592  0.1160  0.4623  0.3403
 6885SOL    HW132291   4.554   0.854   2.663  0.1050  1.1535  0.1260
 6885SOL    HW232292   4.564   0.810   2.531 -0.0289  0.2268  0.2529
 6886SOL     OW32293   3.516   1.301   5.195  0.1620 -0.2758  0.1917
 6886SOL    HW132294   3.465   1.382   5.200 -0.1481 -0.5307  1.0210
 6886SOL    HW232295   3.579   1.325   5.263 -0.3831  2.1785 -0.1677
 6887SOL     OW32296   1.386   3.759   6.723 -0.0907  0.0564  0.0566
 6887SOL    HW132297   1.320   3.692   6.706  0.7026 -0.6653 -0.2017
 6887SOL    HW232298   1.373   3.827   6.656 -0.2714  0.4020  0.4431
 6888SOL     OW32299   2.323   3.873   2.700 -0.4235 -0.3454  0.2822
 6888SOL    HW132300   2.324   3.965   2.676  0.9455 -0.1335  1.1648
 6888SOL    HW232301   2.379   3.894   2.774  0.1380  3.4273 -1.2339
 6889SOL     OW32302   1.321   2.888   1.950 -0.2914 -0.1941 -0.7020
 6889SOL    HW132303   1.342   2.981   1.958  0.6002 -0.2217 -2.5898
 6889SOL    HW232304   1.411   2.855   1.953 -0.3343 -0.1829  1.0184
 6890SOL     OW32305   2.967   2.138   9.278 -0.8694  0.2389  0.0806
 6890SOL    HW132306   2.898   2.192   9.316 -0.4560  0.0185  1.1472
 6890SOL    HW232307   2.942   2.127   9.186 -1.3995 -0.1132  0.2719
 6891SOL     OW32308   1.708   3.308   5.351  0.1740  0.2344  0.5472
 6891SOL    HW132309   1.732   3.389   5.306 -0.5937 -0.0838 -0.4268
 6891SOL    HW232310   1.676   3.256   5.277 -0.8988 -0.5554  1.5710
 6892SOL     OW32311   1.588   3.482   3.070 -0.0175  0.5199 -0.0399
 6892SOL    HW132312   1.682   3.463   3.063  0.1577  1.5138 -0.4337
 6892SOL    HW232313   1.570   3.570   3.105  1.5831 -0.4162  3.1178
 6893SOL     OW32314   2.253   0.195  10.843  0.5039 -0.5139  0.5594
 6893SOL    HW132315   2.171   0.244  10.856  1.6662  1.0967  1.7682
 6893SOL    HW232316   2.286   0.245  10.768  0.2708  0.7791  1.3271
 6894SOL     OW32317   4.408   1.488  10.182 -0.8242  0.9086 -0.1962
 6894SOL    HW132318   4.337   1.549  10.203 -2.7188 -0.7860 -1.5849
 6894SOL    HW232319   4.418   1.433  10.260 -1.1117  0.6312 -0.3504
 6895SOL     OW32320   4.159   3.213   2.301 -0.2514 -0.2719  0.3076
 6895SOL    HW132321   4.081   3.224   2.355 -0.6512  2.3627 -0.8462
 6895SOL    HW232322   4.129   3.230   2.212 -0.4293  1.4186  0.6932
 6896SOL     OW32323   2.989   4.097   5.687 -0.4711 -0.3417 -0.2367
 6896SOL    HW132324   2.974   4.005   5.664  1.3774 -0.6841 -0.0552
 6896SOL    HW232325   2.948   4.133   5.608 -0.4001 -0.3126 -0.2606
 6897SOL     OW32326   2.782   1.459   9.612  0.0381 -0.6807 -0.1668
 6897SOL    HW132327   2.841   1.430   9.543  1.0695 -0.0646  0.4694
 6897SOL    HW232328   2.768   1.553   9.599 -0.0698 -0.8284 -1.1531
 6898SOL     OW32329   0.039   0.271   2.908  0.8624  0.2751 -0.4094
 6898SOL    HW132330   0.069   0.224   2.986 -2.4350 -2.7076 -0.9646
 6898SOL    HW232331   4.723   0.209   2.864  0.6485 -0.3130  0.6892
 6899SOL     OW32332   1.971   1.529   6.745 -0.0176  0.9690 -0.1342
 6899SOL    HW132333   1.898   1.490   6.697  1.2519 -1.5482 -0.0069
 6899SOL    HW232334   2.054   1.495   6.712  0.0743  1.1481 -0.0859
 6900SOL     OW32335   0.772   4.114  14.041 -0.4986  0.2099  0.4635
 6900SOL    HW132336   0.707   4.120  14.112 -1.1132 -0.4530 -0.0400
 6900SOL    HW232337   0.841   4.059  14.079 -2.1679 -0.8946  1.9431
 6901SOL     OW32338   2.709   0.304  11.120 -0.4820 -0.4567 -0.2423
 6901SOL    HW132339   2.621   0.321  11.155  1.5991  2.9639  3.2720
 6901SOL    HW232340   2.704   0.209  11.121 -1.5255 -0.4142 -0.7941
 6902SOL     OW32341   4.735   0.165  17.745  0.1423 -0.3404  0.1462
 6902SOL    HW132342   4.741   0.107   0.055  1.9888 -0.8215 -0.3690
 6902SOL    HW232343   4.662   0.222   0.004  0.0940 -0.5881  0.5678
 6903SOL     OW32344   2.061   0.459  11.175  0.1169 -0.5180 -0.1641
 6903SOL    HW132345   2.060   0.417  11.089 -1.4682  1.5474 -1.1658
 6903SOL    HW232346   2.003   0.536  11.169  0.5818 -0.0389  1.4899
 6904SOL     OW32347   3.272   2.434  11.803  0.2254 -0.1211  0.0895
 6904SOL    HW132348   3.261   2.339  11.797  0.2360 -0.1025 -0.2264
 6904SOL    HW232349   3.343   2.448  11.741  1.2539  1.0958  1.5600
 6905SOL     OW32350   3.504   2.248   5.550 -0.2713 -0.0016 -0.7250
 6905SOL    HW132351   3.561   2.177   5.582 -3.8404 -3.2517 -1.5571
 6905SOL    HW232352   3.416   2.225   5.579 -1.1887  2.0868 -1.8921
 6906SOL     OW32353   0.788   1.247   4.220 -0.0615  0.4246 -0.3341
 6906SOL    HW132354   0.724   1.190   4.264 -0.2828  1.0834  0.1996
 6906SOL    HW232355   0.867   1.207   4.256 -0.6559 -0.4774 -0.0295
 6907SOL     OW32356   3.947   2.852   6.600  0.5387 -0.3516 -0.1041
 6907SOL    HW132357   3.966   2.802   6.679  1.8140 -0.1612 -0.2875
 6907SOL    HW232358   3.989   2.937   6.616 -0.1402 -0.1911  0.7804
 6908SOL     OW32359   0.675   2.007   5.481  0.2983 -0.4429 -0.2690
 6908SOL    HW132360   0.724   2.053   5.413 -2.0662  0.1726 -1.5627
 6908SOL    HW232361   0.711   2.049   5.560  0.0310  1.3451 -1.0935
 6909SOL     OW32362   2.848   1.975   4.068 -0.2738 -0.0111  0.4466
 6909SOL    HW132363   2.832   1.919   3.992 -0.8369  0.4085  0.2593
 6909SOL    HW232364   2.787   1.942   4.134  0.4669  0.1266  1.2039
 6910SOL     OW32365   1.285   1.410  13.442 -0.6606  0.2173  0.3184
 6910SOL    HW132366   1.238   1.444  13.518  0.0124 -0.1366  0.9031
 6910SOL    HW232367   1.281   1.491  13.392 -0.2071  1.0050  1.5396
 6911SOL     OW32368   3.819   0.321   8.730 -0.6601  0.1399  0.6383
 6911SOL    HW132369   3.874   0.396   8.751  0.4281 -0.1123 -1.2174
 6911SOL    HW232370   3.774   0.344   8.649 -1.1609  1.3498  1.2722
 6912SOL     OW32371   0.692   0.579   7.286  0.5710 -0.2101  0.2725
 6912SOL    HW132372   0.672   0.492   7.321 -2.1254  0.6433  0.8587
 6912SOL    HW232373   0.606   0.609   7.257  1.3218  0.6044 -1.1209
 6913SOL     OW32374   2.442   3.238   4.956  0.5271 -0.3216 -0.2732
 6913SOL    HW132375   2.521   3.284   4.984  0.0990 -0.0532  0.4937
 6913SOL    HW232376   2.414   3.208   5.042 -0.7096 -0.9515 -0.8926
 6914SOL     OW32377   3.170   2.454   9.058  0.4713 -0.3996 -0.5619
 6914SOL    HW132378   3.163   2.537   9.010 -3.3551 -0.3885 -0.0286
 6914SOL    HW232379   3.195   2.486   9.144 -0.7872  0.2315 -0.4190
 6915SOL     OW32380   3.950   2.180   1.521 -0.3514  0.3011  0.3199
 6915SOL    HW132381   3.980   2.270   1.506  0.5430 -0.0232  0.1492
 6915SOL    HW232382   3.951   2.179   1.617  3.6193 -1.1791  0.2769
 6916SOL     OW32383   4.726   3.988   1.797  0.0982  0.0461  0.6185
 6916SOL    HW132384   0.055   4.013   1.855 -0.6709  1.2598  1.0399
 6916SOL    HW232385   4.649   3.981   1.853 -1.3362  1.5459 -1.1349
 6917SOL     OW32386   2.137   0.739   1.854  0.4026  0.3067  0.4145
 6917SOL    HW132387   2.223   0.722   1.815  0.2838 -0.8292  0.6409
 6917SOL    HW232388   2.071   0.701   1.797 -0.1604  2.9758 -0.6958
 6918SOL     OW32389   0.491   3.792   7.489  0.1316 -0.0118 -0.0242
 6918SOL    HW132390   0.434   3.861   7.524 -2.0168 -1.5759 -0.4922
 6918SOL    HW232391   0.571   3.843   7.474 -0.8361  1.6131  0.2570
 6919SOL     OW32392   0.825   2.089  16.699  0.0513  0.4355 -0.1728
 6919SOL    HW132393   0.842   2.141  16.778  1.8265 -0.1721 -0.1548
 6919SOL    HW232394   0.733   2.105  16.678 -0.1982 -0.6298  0.0747
 6920SOL     OW32395   0.458   1.623   3.311  0.0148  0.2159  0.1708
 6920SOL    HW132396   0.482   1.544   3.261  0.4443  0.6826 -0.3595
 6920SOL    HW232397   0.386   1.662   3.262 -1.0840 -0.5643  1.1583
 6921SOL     OW32398   4.432   0.036   3.566 -0.2259  0.1818  0.4342
 6921SOL    HW132399   4.424   0.056   3.473 -0.9701  2.6927  1.0256
 6921SOL    HW232400   4.355   4.724   3.584 -0.2094  0.3409  0.9896
 6922SOL     OW32401   0.976   4.723   6.404  0.1069 -0.1887 -0.3877
 6922SOL    HW132402   1.026   0.058   6.377 -0.0881  0.4605  1.1217
 6922SOL    HW232403   0.908   4.724   6.337 -1.7423 -0.4717  1.4678
 6923SOL     OW32404   4.218   3.578   1.182 -0.6892  0.2737 -0.1673
 6923SOL    HW132405   4.272   3.523   1.126  1.1710  1.1675  0.7439
 6923SOL    HW232406   4.177   3.501   1.221 -1.1778 -0.1968 -1.6166
 6924SOL     OW32407   0.819   1.685   4.624 -0.7414 -0.4484 -0.3120
 6924SOL    HW132408   0.827   1.650   4.536 -1.1789  1.8915 -1.2967
 6924SOL    HW232409   0.911   1.700   4.647 -1.0172  0.9439 -0.0893
 6925SOL     OW32410   3.837   4.458   2.133 -0.6333  0.6079 -0.3258
 6925SOL    HW132411   3.908   4.463   2.068 -0.3007  2.8351  0.2098
 6925SOL    HW232412   3.802   4.546   2.123 -0.3708  0.8756  1.1890
 6926SOL     OW32413   4.315   1.867   1.393 -0.2394  0.3962 -0.1597
 6926SOL    HW132414   4.347   1.914   1.470 -1.0687  0.3067  0.2443
 6926SOL    HW232415   4.270   1.797   1.440  0.6838 -2.4687 -3.5230
 6927SOL     OW32416   3.388   2.812   2.169  0.2082  0.3147  0.1221
 6927SOL    HW132417   3.331   2.804   2.245  0.9263  0.4937  0.6755
 6927SOL    HW232418   3.322   2.839   2.106  0.7708  1.0784 -0.1427
 6928SOL     OW32419   1.001   0.377   3.449  0.0581 -0.0473  0.9244
 6928SOL    HW132420   0.958   0.352   3.368  0.4557  0.0292  0.6887
 6928SOL    HW232421   1.089   0.406   3.423 -0.4999 -0.7893 -1.8033
 6929SOL     OW32422   4.232   4.050   2.645 -0.4402  0.4706  0.1638
 6929SOL    HW132423   4.276   4.058   2.730 -0.9387  0.2269  0.4439
 6929SOL    HW232424   4.192   3.963   2.646 -0.0814  0.2941 -1.1779
 6930SOL     OW32425   3.767   0.934   4.021 -0.1588 -0.4758  0.3602
 6930SOL    HW132426   3.776   0.881   3.942 -2.8976 -1.1763  0.5140
 6930SOL    HW232427   3.860   0.938   4.046 -0.4393  1.8353  1.0657
 6931SOL     OW32428   3.404   0.705   6.784 -0.1957 -0.3742  0.5488
 6931SOL    HW132429   3.390   0.791   6.824  0.2224  0.0608 -0.2409
 6931SOL    HW232430   3.498   0.718   6.768 -0.2225 -2.0312 -1.0795
 6932SOL     OW32431   4.192   4.479   0.175 -0.3733  0.8188  0.3798
 6932SOL    HW132432   4.204   4.408   0.112  0.5507  1.1189  0.2216
 6932SOL    HW232433   4.218   4.552   0.119 -1.2494  2.0287  1.5559
 6933SOL     OW32434   0.542   0.146  14.226  0.3196  0.0628 -0.1515
 6933SOL    HW132435   0.461   0.174  14.184  0.8451  0.9935 -0.5408
 6933SOL    HW232436   0.510   0.068  14.271  1.7810 -0.5642 -0.2152
 6934SOL     OW32437   4.304   0.120  15.043 -0.3465  0.1063 -0.3726
 6934SOL    HW132438   4.323   0.029  15.062  1.5284  0.3949 -0.8529
 6934SOL    HW232439   4.224   0.106  14.992 -0.2784 -2.1264  0.1693
 6935SOL     OW32440   1.082   1.845   8.594 -0.0159 -0.1023  0.4483
 6935SOL    HW132441   1.022   1.781   8.631  0.2026 -1.3859 -1.4024
 6935SOL    HW232442   1.135   1.863   8.672  0.2097 -1.5836  0.6432
 6936SOL     OW32443   3.311   2.705  15.310 -0.6494  0.2242  0.1231
 6936SOL    HW132444   3.366   2.783  15.318 -1.1486  0.9048 -3.2106
 6936SOL    HW232445   3.373   2.638  15.339  0.9140  0.8002 -1.9033
 6937SOL     OW32446   4.011   2.864   7.464  0.4549  0.2216 -0.2817
 6937SOL    HW132447   3.994   2.772   7.483  1.1167  0.2376  0.3529
 6937SOL    HW232448   3.932   2.897   7.420 -0.0812 -1.4377 -0.5684
 6938SOL     OW32449   1.372   3.844  16.500  0.2841 -0.2196 -0.0442
 6938SOL    HW132450   1.409   3.819  16.415  1.2076  1.1526 -0.0569
 6938SOL    HW232451   1.446   3.886  16.544  1.1806 -1.7563 -0.0535
 6939SOL     OW32452   3.442   2.224   9.536 -0.5483  0.0040  0.3681
 6939SOL    HW132453   3.391   2.264   9.606 -0.1980 -0.2047  0.7417
 6939SOL    HW232454   3.488   2.305   9.513 -0.4251 -1.0079 -2.9521
 6940SOL     OW32455   3.151   1.852   2.886  0.2867  0.3065 -0.6956
 6940SOL    HW132456   3.078   1.915   2.890  0.7326  0.6504  1.8284
 6940SOL    HW232457   3.106   1.768   2.886 -2.3220  1.7060  2.5016
 6941SOL     OW32458   1.596   0.746  16.524  0.5390 -0.4198 -0.4980
 6941SOL    HW132459   1.613   0.769  16.615  0.3887  0.9418 -0.8156
 6941SOL    HW232460   1.642   0.816  16.478  0.3026 -0.3844 -0.6815
 6942SOL     OW32461   1.305   4.227   8.094  0.7519  0.0691  0.9532
 6942SOL    HW132462   1.300   4.320   8.071 -0.5742  0.2600  2.0325
 6942SOL    HW232463   1.215   4.195   8.086  1.3944 -1.8332  1.4163
 6943SOL     OW32464   1.008   1.048   3.335 -0.5730  0.2055  0.0919
 6943SOL    HW132465   1.056   1.015   3.411 -0.2586  2.7199  0.9941
 6943SOL    HW232466   1.082   1.087   3.289 -0.4218  0.2925  0.4066
 6944SOL     OW32467   1.005   3.977  17.261  0.2170 -0.2374  0.2491
 6944SOL    HW132468   1.050   3.948  17.341 -3.0219 -2.5030  1.2520
 6944SOL    HW232469   1.077   4.015  17.211  0.6879 -1.7901 -0.2418
 6945SOL     OW32470   3.493   1.436   3.473  0.4441 -0.3607 -0.4793
 6945SOL    HW132471   3.519   1.351   3.436 -1.7057 -1.4964  0.6294
 6945SOL    HW232472   3.400   1.425   3.490  0.5329  1.9057  1.4373
 6946SOL     OW32473   1.826   1.040   2.212 -0.0083 -0.4411  0.4565
 6946SOL    HW132474   1.891   1.111   2.217 -1.3736  0.8982 -0.8787
 6946SOL    HW232475   1.841   1.005   2.124  0.5292  1.3891 -0.1836
 6947SOL     OW32476   3.251   1.572   1.485 -0.0805  0.0523 -0.3082
 6947SOL    HW132477   3.344   1.549   1.487 -0.6301 -2.2676 -1.0003
 6947SOL    HW232478   3.239   1.586   1.391  1.8713  0.4846 -0.4943
 6948SOL     OW32479   2.474   2.043   3.129 -0.0378  0.3805 -0.0897
 6948SOL    HW132480   2.498   1.967   3.075 -0.6670  0.4535 -0.4722
 6948SOL    HW232481   2.444   2.106   3.064 -0.9460 -0.1008 -0.1284
 6949SOL     OW32482   4.314   3.028  11.852 -0.7145  0.0389 -0.0055
 6949SOL    HW132483   4.336   3.073  11.771  1.4552 -1.2840 -0.1424
 6949SOL    HW232484   4.397   3.030  11.900  0.0008 -1.7001 -1.1805
 6950SOL     OW32485   3.251   4.235   2.752  0.4926 -0.0872  0.0132
 6950SOL    HW132486   3.306   4.178   2.698 -0.1023 -1.1193  0.4905
 6950SOL    HW232487   3.298   4.317   2.740  1.4290 -0.6562 -0.2139
 6951SOL     OW32488   4.670   0.576   8.395  0.3724 -0.1170  0.0106
 6951SOL    HW132489   4.608   0.645   8.373 -0.1536 -1.3351 -2.3166
 6951SOL    HW232490   4.737   0.625   8.442 -0.6203  1.6351 -0.4163
 6952SOL     OW32491   3.729   2.226   1.894  0.1058 -0.1168 -0.1130
 6952SOL    HW132492   3.823   2.238   1.879  0.3746 -0.8052  1.0392
 6952SOL    HW232493   3.695   2.302   1.847 -0.0160 -0.4155 -0.5073
 6953SOL     OW32494   0.183   1.730  10.777 -0.0033  0.1784  0.4410
 6953SOL    HW132495   0.117   1.749  10.844  0.7900  0.8164  1.0389
 6953SOL    HW232496   0.154   1.642  10.753  2.3316 -0.0273 -1.5883
 6954SOL     OW32497   2.204   2.463   3.273 -0.0233  0.2447  1.0072
 6954SOL    HW132498   2.159   2.466   3.189 -0.6648 -0.0314  1.3415
 6954SOL    HW232499   2.295   2.444   3.250 -0.5624  0.8848 -1.6839
 6955SOL     OW32500   0.991   2.549   2.453  0.8180 -0.2621 -0.1647
 6955SOL    HW132501   1.035   2.606   2.517 -1.5851 -1.2498  2.3473
 6955SOL    HW232502   1.052   2.476   2.440 -0.0640 -0.7188 -1.7742
 6956SOL     OW32503   1.513   1.834   9.012 -0.1349 -0.3358 -0.4501
 6956SOL    HW132504   1.496   1.744   8.985 -2.0887 -0.2513  0.4858
 6956SOL    HW232505   1.500   1.826   9.106 -0.0250 -1.2050 -0.5115
 6957SOL     OW32506   1.284   3.558   2.835 -0.0815  0.2602  0.3227
 6957SOL    HW132507   1.286   3.552   2.930  1.4787  2.8744  0.4604
 6957SOL    HW232508   1.280   3.464   2.819  0.7413  0.0278  1.4721
 6958SOL     OW32509   2.573   4.646   8.721  0.0806 -0.5307 -0.0585
 6958SOL    HW132510   2.479   4.643   8.701  0.3634 -1.2090 -1.2882
 6958SOL    HW232511   2.583   4.731   8.679  4.2705 -0.1458  1.6796
 6959SOL     OW32512   3.640   4.527  12.209 -0.5270  0.6372 -0.2741
 6959SOL    HW132513   3.696   4.469  12.260 -1.5542 -0.5536 -0.5161
 6959SOL    HW232514   3.645   4.487  12.123 -0.1192 -1.8167  0.8773
 6960SOL     OW32515   0.759   0.741  12.400  0.2185  0.8678  0.1475
 6960SOL    HW132516   0.674   0.736  12.442  1.2128  2.4537  2.3190
 6960SOL    HW232517   0.761   0.825  12.355 -0.4167  0.6017 -0.3667
 6961SOL     OW32518   4.335   3.931  16.713  0.0514 -0.6612  0.4008
 6961SOL    HW132519   4.373   3.845  16.733  1.7783  0.3881  1.7046
 6961SOL    HW232520   4.382   3.980  16.780  1.6330  0.5676 -1.5911
 6962SOL     OW32521   1.055   1.318   4.066 -0.0008  0.0031 -0.0027
 6962SOL    HW132522   1.047   1.362   3.982  1.3722  0.6009  0.1709
 6962SOL    HW232523   1.150   1.330   4.066  0.0074 -0.0493  1.7889
 6963SOL     OW32524   0.607   2.260  14.871  0.1697 -0.0524 -0.4393
 6963SOL    HW132525   0.514   2.284  14.877  0.5704  1.4287 -0.2440
 6963SOL    HW232526   0.645   2.270  14.958 -0.9535 -0.1463  0.0607
 6964SOL     OW32527   3.674   1.815   1.228 -0.3046  0.2559 -0.1472
 6964SOL    HW132528   3.711   1.877   1.290 -0.5998  1.9848 -1.6980
 6964SOL    HW232529   3.604   1.871   1.194 -1.1834 -0.0575  1.1293
 6965SOL     OW32530   3.756   3.907   6.311 -0.5057  0.0872 -0.5743
 6965SOL    HW132531   3.778   3.852   6.386  0.0799  0.7168 -0.2919
 6965SOL    HW232532   3.834   3.958   6.291  1.1071 -1.9935  0.4570
 6966SOL     OW32533   3.806   1.525   7.851 -0.3872  0.5326 -0.3457
 6966SOL    HW132534   3.829   1.614   7.876  0.9415  0.0935 -0.0150
 6966SOL    HW232535   3.712   1.534   7.834 -0.4654  0.8275  0.2494
 6967SOL     OW32536   1.505   3.838   8.485  0.0185 -0.1165 -0.4528
 6967SOL    HW132537   1.575   3.836   8.420  0.7698 -1.4962  0.4011
 6967SOL    HW232538   1.521   3.923   8.527 -2.2846 -0.1149  0.4358
 6968SOL     OW32539   4.314   2.098   8.465 -0.0427 -0.3743 -0.6661
 6968SOL    HW132540   4.306   2.059   8.553 -2.4819 -1.6258 -1.4485
 6968SOL    HW232541   4.408   2.093   8.451  0.0508 -2.8999  0.8849
 6969SOL     OW32542   2.323   3.513   3.733  0.0095 -0.0002 -0.5164
 6969SOL    HW132543   2.330   3.430   3.686 -2.2040 -0.5802  0.1601
 6969SOL    HW232544   2.288   3.494   3.820  0.5281 -1.0497 -0.5403
 6970SOL     OW32545   3.756   3.243   5.921  0.3559  0.6580  0.5082
 6970SOL    HW132546   3.686   3.253   5.856  1.6125 -0.2008 -0.9924
 6970SOL    HW232547   3.720   3.182   5.986  2.4896 -0.6144  0.4932
 6971SOL     OW32548   3.558   3.515   1.496  0.4419  0.4989 -0.2139
 6971SOL    HW132549   3.652   3.501   1.501  0.3092  0.1929  1.5909
 6971SOL    HW232550   3.540   3.477   1.410 -0.4205 -2.5550  1.2768
 6972SOL     OW32551   3.678   2.028   1.677  0.4541 -0.4196 -0.6240
 6972SOL    HW132552   3.719   2.089   1.739 -1.4149 -0.9156  1.0708
 6972SOL    HW232553   3.742   1.957   1.677 -0.1635 -0.9619  1.2469
 6973SOL     OW32554   1.664   1.397  13.753  0.2270 -0.0741 -0.2642
 6973SOL    HW132555   1.714   1.433  13.826  2.3822 -0.9420 -1.3059
 6973SOL    HW232556   1.723   1.322  13.741  1.3097  0.7922 -0.3491
 6974SOL     OW32557   0.179   2.147   2.175  0.6558 -0.2738  0.0288
 6974SOL    HW132558   0.260   2.101   2.201  0.3800  0.1805  1.7060
 6974SOL    HW232559   0.225   2.227   2.149  1.5461 -0.3312  1.3588
 6975SOL     OW32560   1.802   4.665   4.874 -0.7521 -0.6806 -0.0742
 6975SOL    HW132561   1.711   4.693   4.864 -0.5071 -0.2856 -1.1932
 6975SOL    HW232562   1.852   4.726   4.928 -1.3271 -0.1953 -0.0925
 6976SOL     OW32563   3.782   1.528  13.908 -0.1986  0.7163 -0.4293
 6976SOL    HW132564   3.725   1.567  13.974 -2.7279 -0.6694 -1.7954
 6976SOL    HW232565   3.851   1.595  13.911  1.8014 -1.3691  0.6068
 6977SOL     OW32566   3.477   2.157  14.922  0.5981 -0.6221 -0.3739
 6977SOL    HW132567   3.526   2.220  14.975  1.1788 -0.4039 -1.1644
 6977SOL    HW232568   3.519   2.167  14.837  1.4707 -0.9897  0.0230
 6978SOL     OW32569   0.567   1.512   5.657  0.3622 -0.1372 -0.1073
 6978SOL    HW132570   0.587   1.475   5.571  1.0981  0.5671 -0.2333
 6978SOL    HW232571   0.500   1.446   5.674 -1.7241  1.3295 -2.7753
 6979SOL     OW32572   0.285   4.173   2.796  0.1474 -0.8182 -0.4120
 6979SOL    HW132573   0.276   4.267   2.785 -2.5939 -0.4737  5.0238
 6979SOL    HW232574   0.344   4.150   2.724  1.8862 -0.5665  0.9116
 6980SOL     OW32575   4.104   3.501   2.960 -0.6854  0.1107  0.2276
 6980SOL    HW132576   4.140   3.552   3.032 -0.0455  1.9249 -1.3892
 6980SOL    HW232577   4.068   3.424   3.005  1.1557  0.1066  1.6829
 6981SOL     OW32578   1.566   2.393  12.555 -0.6123  0.2196  0.5076
 6981SOL    HW132579   1.646   2.412  12.505 -0.4034  3.3567  2.0421
 6981SOL    HW232580   1.571   2.449  12.632  0.6799 -0.3987  0.8772
 6982SOL     OW32581   2.847   0.972   6.895 -0.3788 -0.2439  0.2019
 6982SOL    HW132582   2.841   1.063   6.925  0.9933  0.0962 -0.5202
 6982SOL    HW232583   2.765   0.979   6.847  0.0920  1.8574 -0.3052
 6983SOL     OW32584   0.207   3.795   7.170  0.0663 -0.4576  0.6115
 6983SOL    HW132585   0.147   3.813   7.242 -0.8814 -0.9296 -0.0628
 6983SOL    HW232586   0.147   3.806   7.096 -0.6255  1.2982  1.4459
 6984SOL     OW32587   3.990   2.386   4.702  0.0135 -0.0628  0.0030
 6984SOL    HW132588   3.964   2.294   4.701  1.7346 -0.5417  0.2204
 6984SOL    HW232589   4.061   2.393   4.639  0.0306  1.4296  0.1917
 6985SOL     OW32590   0.808   0.853  14.856  1.0993 -0.2414  0.5964
 6985SOL    HW132591   0.902   0.866  14.861  1.1339 -1.1255  2.1780
 6985SOL    HW232592   0.801   0.830  14.949  0.0804  1.3067  0.9073
 6986SOL     OW32593   1.625   3.186  16.038 -0.1307 -0.1502 -0.3044
 6986SOL    HW132594   1.697   3.168  15.977 -2.1460 -0.9920 -2.4282
 6986SOL    HW232595   1.571   3.241  15.981  1.5584  1.4894 -0.3079
 6987SOL     OW32596   4.438   3.385   9.205  0.3388  0.8551  0.1081
 6987SOL    HW132597   4.525   3.345   9.212  0.2664  0.3371 -2.0597
 6987SOL    HW232598   4.402   3.377   9.293 -1.8841 -1.5389 -1.0126
 6988SOL     OW32599   1.277   1.653  13.341 -0.4424 -0.0312  0.3406
 6988SOL    HW132600   1.210   1.700  13.291  1.1242  2.2971  0.4196
 6988SOL    HW232601   1.338   1.727  13.340 -0.8266  0.2803 -0.9152
 6989SOL     OW32602   2.640   1.702  11.182  0.5260  0.2637  0.3524
 6989SOL    HW132603   2.699   1.670  11.114  1.4858 -0.3174  1.4778
 6989SOL    HW232604   2.622   1.790  11.148 -0.7855  0.1328  0.7066
 6990SOL     OW32605   2.990   0.049  13.802  0.2401 -0.1176 -0.0112
 6990SOL    HW132606   2.949   0.109  13.865 -0.5064 -0.1117 -0.4986
 6990SOL    HW232607   2.935   4.714  13.804  0.5006 -0.2592  1.7075
 6991SOL     OW32608   3.060   0.097   4.276 -0.4066  0.1559 -0.1659
 6991SOL    HW132609   3.146   0.139   4.272  0.4800 -1.5456  0.9348
 6991SOL    HW232610   3.091   0.006   4.268 -0.4820  0.3162 -2.2052
 6992SOL     OW32611   4.279   0.466   7.757  0.2749 -0.8766  0.6098
 6992SOL    HW132612   4.261   0.375   7.731  2.1633 -0.6739 -1.3987
 6992SOL    HW232613   4.370   0.471   7.728 -0.3404 -0.0906 -1.1357
 6993SOL     OW32614   0.542   3.214   0.269  0.0982 -0.1267 -0.3579
 6993SOL    HW132615   0.563   3.291   0.217  1.0002 -1.5308 -2.0834
 6993SOL    HW232616   0.482   3.176   0.204 -0.6891  0.1119  0.2243
 6994SOL     OW32617   0.042   3.960   2.548 -0.4938  0.0139 -0.3941
 6994SOL    HW132618   4.740   3.898   2.489 -0.1169 -1.1568  0.5529
 6994SOL    HW232619   4.711   3.991   2.602  0.3645  1.7358 -0.2398
 6995SOL     OW32620   4.735   3.024  11.473  0.1311 -0.4528  0.0396
 6995SOL    HW132621   4.741   3.079  11.395 -1.4218  0.6683  0.7320
 6995SOL    HW232622   4.642   3.004  11.477  0.3499 -0.9701  2.4018
 6996SOL     OW32623   2.777   3.963   2.044 -0.0817  0.2578 -0.2795
 6996SOL    HW132624   2.765   3.983   2.137 -0.0059  0.5342 -0.3280
 6996SOL    HW232625   2.691   3.922   2.036 -0.3486  0.7026  0.3064
 6997SOL     OW32626   3.263   2.101   6.908  0.4307  0.1369 -0.3782
 6997SOL    HW132627   3.212   2.087   6.988  2.0955 -4.0077 -0.0611
 6997SOL    HW232628   3.327   2.167   6.937 -0.3946  0.1140  1.5434
 6998SOL     OW32629   2.503   3.182  16.567  0.1218  0.9539  0.0982
 6998SOL    HW132630   2.446   3.200  16.643  0.7834 -0.6040  0.9609
 6998SOL    HW232631   2.455   3.108  16.529 -0.5686  1.9343 -0.9562
 6999SOL     OW32632   2.630   2.997   9.465 -0.2225 -0.2171  0.1653
 6999SOL    HW132633   2.710   3.050   9.459  0.0295 -0.8962 -2.2147
 6999SOL    HW232634   2.660   2.919   9.419 -2.3730 -0.2998 -1.0932
 7000SOL     OW32635   1.116   1.161   9.202 -0.6189  0.9931  0.0890
 7000SOL    HW132636   1.056   1.230   9.231 -1.0395  0.2346  1.0070
 7000SOL    HW232637   1.136   1.124   9.288  0.2724 -1.6409 -1.2699
 7001SOL     OW32638   2.767   0.614  13.803  0.5703 -0.4681  0.5593
 7001SOL    HW132639   2.720   0.696  13.788  0.0754 -0.7563  0.5738
 7001SOL    HW232640   2.697   0.555  13.778  1.6081 -1.5049  0.1077
 7002SOL     OW32641   0.673   2.136   6.635  0.1814 -0.0956  0.2415
 7002SOL    HW132642   0.721   2.218   6.645  0.4071 -0.2089  0.1020
 7002SOL    HW232643   0.597   2.169   6.587 -0.6383 -0.7242  1.1015
 7003SOL     OW32644   3.265   0.022   1.289  0.1919  0.5309  0.5381
 7003SOL    HW132645   3.357   0.043   1.271 -0.4459  1.7119 -1.5037
 7003SOL    HW232646   3.264   0.047   1.381  0.7150 -0.5669  0.8330
 7004SOL     OW32647   4.363   0.584   2.474  0.3946 -1.2211 -0.8553
 7004SOL    HW132648   4.445   0.563   2.430  0.5430 -0.4677 -0.9256
 7004SOL    HW232649   4.393   0.632   2.551 -0.4568 -0.3092 -1.0897
 7005SOL     OW32650   4.268   1.255   0.428  0.2336  0.6656  0.0055
 7005SOL    HW132651   4.239   1.346   0.421  0.4422  0.6275 -1.3669
 7005SOL    HW232652   4.268   1.256   0.523  0.9185  0.2458  0.0058
 7006SOL     OW32653   4.266   0.039  13.419 -0.5608 -0.1003 -0.1276
 7006SOL    HW132654   4.256   4.690  13.444  1.5392 -0.4719 -0.6136
 7006SOL    HW232655   4.357   0.051  13.446 -0.9842  2.7439  0.0854
 7007SOL     OW32656   0.001   0.238   8.742 -0.3710  0.3284 -0.3297
 7007SOL    HW132657   4.715   0.212   8.654 -0.1374 -2.8136  0.5368
 7007SOL    HW232658   0.096   0.230   8.740 -0.4217 -0.7120  1.4543
 7008SOL     OW32659   2.382   1.982   3.602  0.7983  0.1414 -0.1213
 7008SOL    HW132660   2.469   2.005   3.570  0.2527  0.2415 -1.5580
 7008SOL    HW232661   2.330   2.034   3.539  0.4023  1.5182  1.3441
 7009SOL     OW32662   4.741   0.387   9.425  0.5073  0.7113  0.3157
 7009SOL    HW132663   0.014   0.293   9.418 -1.5783  0.3562  0.5873
 7009SOL    HW232664   4.691   0.420   9.350  0.9093  0.3174 -0.1324
 7010SOL     OW32665   1.494   4.177  12.646  0.3579 -0.5721 -0.1173
 7010SOL    HW132666   1.455   4.164  12.560 -1.1969 -0.2622  0.5451
 7010SOL    HW232667   1.418   4.159  12.701 -0.5684  0.1626 -1.1758
 7011SOL     OW32668   1.272   4.295   2.056  0.0216 -0.6507 -0.3395
 7011SOL    HW132669   1.290   4.321   1.966  3.7547  2.2442  1.2390
 7011SOL    HW232670   1.362   4.268   2.076  1.2384  2.9610 -1.0120
 7012SOL     OW32671   4.269   2.298   9.581  0.0984 -0.9447 -0.3218
 7012SOL    HW132672   4.198   2.304   9.645  1.3708 -0.8461  1.0907
 7012SOL    HW232673   4.300   2.209   9.596  0.4097 -0.9045 -0.7133
 7013SOL     OW32674   1.935   2.263   2.352 -0.7067  0.2901  0.3913
 7013SOL    HW132675   1.914   2.312   2.431 -1.2640  1.8827 -0.7389
 7013SOL    HW232676   1.956   2.334   2.291  2.9711 -0.0490  1.2431
 7014SOL     OW32677   4.230   1.561   8.908  0.1678 -0.0973 -0.0016
 7014SOL    HW132678   4.210   1.522   8.993 -1.0520  0.8719  0.1711
 7014SOL    HW232679   4.140   1.556   8.874  0.0795 -1.5543  0.4621
 7015SOL     OW32680   3.233   1.664   1.238 -0.0535 -0.2772  0.3989
 7015SOL    HW132681   3.282   1.736   1.198 -0.5578 -0.9453 -1.4192
 7015SOL    HW232682   3.235   1.587   1.182  0.6515  0.5022 -0.6507
 7016SOL     OW32683   1.308   2.924   9.705  0.4008 -0.6359 -1.0606
 7016SOL    HW132684   1.241   2.859   9.685  1.1681 -2.8672  3.6488
 7016SOL    HW232685   1.338   2.893   9.790  1.4423  0.0695 -1.1648
 7017SOL     OW32686   2.579   3.410   4.721 -0.0886  0.3549  0.0643
 7017SOL    HW132687   2.485   3.408   4.702 -0.2782 -0.8802  1.1438
 7017SOL    HW232688   2.575   3.435   4.813  0.0320  0.6765 -0.0176
 7018SOL     OW32689   3.210   0.986  14.018  0.6424 -0.3642  0.0675
 7018SOL    HW132690   3.266   0.974  14.095 -0.4645 -2.4396  0.5395
 7018SOL    HW232691   3.266   0.941  13.954  0.6692 -0.2221 -0.0098
 7019SOL     OW32692   0.567   4.188   4.432  0.0304 -0.8720  0.0816
 7019SOL    HW132693   0.608   4.237   4.361  1.5387 -0.7322  1.0392
 7019SOL    HW232694   0.615   4.222   4.507 -1.1779  1.9559 -0.4307
 7020SOL     OW32695   0.687   2.250   3.271  0.3089  0.1251 -0.5693
 7020SOL    HW132696   0.610   2.245   3.328  2.4677 -1.5342  2.2092
 7020SOL    HW232697   0.638   2.205   3.202  0.9491  0.0354 -0.9653
 7021SOL     OW32698   4.473   1.898   4.713 -0.1013  0.8350  0.0259
 7021SOL    HW132699   4.465   1.993   4.712 -1.4397  0.7185  0.2046
 7021SOL    HW232700   4.569   1.890   4.720 -0.1360 -1.1223 -1.7707
 7022SOL     OW32701   1.999   4.509   1.908  0.1267  0.1655 -0.6297
 7022SOL    HW132702   2.093   4.517   1.897 -0.0133  3.0563  0.1182
 7022SOL    HW232703   1.993   4.419   1.875 -0.7657  1.0394 -2.8982
 7023SOL     OW32704   1.060   3.325   4.763 -0.1404  0.1810  0.5548
 7023SOL    HW132705   0.978   3.349   4.720 -0.4219 -0.5576  0.6707
 7023SOL    HW232706   1.104   3.409   4.779  0.0494  0.3166 -0.6851
 7024SOL     OW32707   0.848   0.416  15.406 -0.5819 -0.1711 -0.0500
 7024SOL    HW132708   0.818   0.334  15.366  2.1837 -2.3734  2.3515
 7024SOL    HW232709   0.821   0.397  15.496  0.0915  0.1191  0.2148
 7025SOL     OW32710   1.622   3.316   6.486  0.3518 -0.3998 -0.3878
 7025SOL    HW132711   1.568   3.392   6.509 -0.0595 -0.7790 -0.1013
 7025SOL    HW232712   1.564   3.243   6.506  1.1004 -0.7354  0.6041
 7026SOL     OW32713   1.085   0.128  13.283 -0.0389 -0.1225 -0.5477
 7026SOL    HW132714   1.002   0.085  13.260  0.7749 -0.6166 -2.6238
 7026SOL    HW232715   1.119   0.158  13.198  0.6383  0.0664 -0.2116
 7027SOL     OW32716   2.654   0.247   6.879  0.0813 -0.7968 -0.2924
 7027SOL    HW132717   2.608   0.173   6.841 -0.5074 -0.6945  0.2272
 7027SOL    HW232718   2.712   0.194   6.933  2.2450  1.1311 -0.7124
 7028SOL     OW32719   3.365   1.551   2.459 -0.3925  0.3324 -0.0232
 7028SOL    HW132720   3.389   1.626   2.405  0.1683 -0.5166 -0.9512
 7028SOL    HW232721   3.360   1.476   2.400  2.6625 -1.7433  2.3504
 7029SOL     OW32722   2.926   0.840   2.025  0.4584 -0.3772  0.5840
 7029SOL    HW132723   2.846   0.868   1.980 -0.0344  0.1380  1.8118
 7029SOL    HW232724   2.926   0.746   2.003  0.6202 -0.5812  1.4565
 7030SOL     OW32725   4.478   3.697  12.234  0.1562  0.8130 -0.0111
 7030SOL    HW132726   4.501   3.608  12.262  1.6729  1.2752  0.2112
 7030SOL    HW232727   4.569   3.725  12.245  0.2489 -0.0425  1.4760
 7031SOL     OW32728   3.918   1.639   9.281  0.7574 -0.3957  0.6005
 7031SOL    HW132729   3.888   1.713   9.334 -0.5739  0.4590 -1.3621
 7031SOL    HW232730   3.860   1.641   9.205  0.6200 -1.8766  0.6617
 7032SOL     OW32731   3.148   4.574   4.252 -1.1776 -0.3109 -0.2942
 7032SOL    HW132732   3.204   4.511   4.299  0.5506 -0.4443 -2.5560
 7032SOL    HW232733   3.179   4.551   4.165 -0.5446  0.8262 -0.3740
 7033SOL     OW32734   2.880   2.646   5.981  0.8563  0.1331  0.3474
 7033SOL    HW132735   2.794   2.688   5.969  0.8238 -0.1768 -0.4459
 7033SOL    HW232736   2.856   2.577   6.043  0.2652  1.4109  1.5577
 7034SOL     OW32737   3.754   3.596   1.205 -0.2390 -0.1494  0.3952
 7034SOL    HW132738   3.818   3.640   1.261 -0.1093 -0.8702  0.8201
 7034SOL    HW232739   3.789   3.507   1.201 -0.3721 -0.2299  0.9382
 7035SOL     OW32740   1.260   0.611   6.171 -0.3732 -0.1528 -0.0773
 7035SOL    HW132741   1.197   0.635   6.103 -0.1501 -0.3250 -0.3403
 7035SOL    HW232742   1.265   0.519   6.145 -0.3260  0.0722 -0.8651
 7036SOL     OW32743   4.690   2.742   0.239  0.1769  0.3160 -0.3867
 7036SOL    HW132744   4.628   2.698   0.182 -1.8015  0.4851  1.6452
 7036SOL    HW232745   0.034   2.723   0.201  0.8500  0.2872  1.1180
 7037SOL     OW32746   3.776   3.036   3.553  0.3966  0.5307 -0.1882
 7037SOL    HW132747   3.836   2.970   3.519 -0.3101  0.7045 -1.8195
 7037SOL    HW232748   3.725   3.056   3.474 -1.0772  0.0271  0.6219
 7038SOL     OW32749   2.704   4.553   8.962  0.1804 -0.0478 -0.0672
 7038SOL    HW132750   2.695   4.571   8.868  1.0126 -0.8226 -0.2938
 7038SOL    HW232751   2.611   4.559   8.983 -0.0717  1.2983 -1.5461
 7039SOL     OW32752   1.985   4.140   9.793 -0.4138 -0.1761 -0.5147
 7039SOL    HW132753   1.999   4.138   9.888 -0.3751  0.9570 -0.4983
 7039SOL    HW232754   1.980   4.048   9.767 -0.4367 -0.7847  1.5853
 7040SOL     OW32755   3.679   0.175   4.835  0.5896  0.5686 -0.9491
 7040SOL    HW132756   3.601   0.121   4.832  0.4987  0.6770 -0.4353
 7040SOL    HW232757   3.644   0.254   4.794 -1.7457 -0.0311 -0.0611
 7041SOL     OW32758   2.945   3.965   3.230  0.4502  0.5440 -0.6119
 7041SOL    HW132759   2.951   4.057   3.204 -1.9843  0.5168 -1.3320
 7041SOL    HW232760   2.908   3.976   3.318 -1.7428 -1.0580 -1.3233
 7042SOL     OW32761   1.670   0.623  14.122 -0.0626  0.0166  0.3324
 7042SOL    HW132762   1.590   0.584  14.087  0.3440  0.4336 -1.0351
 7042SOL    HW232763   1.646   0.637  14.214  1.1684 -2.3844  1.0440
 7043SOL     OW32764   2.893   2.446  13.337 -0.0423 -0.2094 -1.1411
 7043SOL    HW132765   2.984   2.473  13.344 -0.8354  2.2594 -0.3106
 7043SOL    HW232766   2.901   2.359  13.298  1.3895 -0.3391 -0.5518
 7044SOL     OW32767   4.403   4.320   3.399  0.2678 -0.8284  0.4597
 7044SOL    HW132768   4.495   4.329   3.423  0.2535 -0.4511  0.3795
 7044SOL    HW232769   4.377   4.239   3.442 -0.4105 -0.3744  0.8888
 7045SOL     OW32770   3.308   0.183   7.688 -0.5653  0.8064 -0.5406
 7045SOL    HW132771   3.277   0.097   7.717  0.8473  0.2481 -0.6687
 7045SOL    HW232772   3.258   0.241   7.745  0.0985 -0.1091  0.9874
 7046SOL     OW32773   4.051   1.099  11.076  0.4498 -0.0558  0.2189
 7046SOL    HW132774   4.126   1.158  11.079  1.7418 -1.7642  1.3119
 7046SOL    HW232775   4.015   1.108  10.988 -0.1573  1.4401  0.6180
 7047SOL     OW32776   0.420   3.743   4.096  0.9262  0.2522  0.3987
 7047SOL    HW132777   0.468   3.660   4.096  0.4509 -0.0274 -0.4764
 7047SOL    HW232778   0.469   3.793   4.030 -0.8449 -1.0609 -1.9221
 7048SOL     OW32779   1.985   2.422   7.081 -0.2292  0.2275 -0.0629
 7048SOL    HW132780   1.941   2.500   7.046 -0.4491 -0.4656 -1.3259
 7048SOL    HW232781   2.068   2.467   7.070  1.0637 -1.5875  2.3870
 7049SOL     OW32782   1.629   4.306   3.468 -0.1421  0.0740 -0.6372
 7049SOL    HW132783   1.657   4.396   3.453  1.8073 -0.2270  1.0995
 7049SOL    HW232784   1.552   4.309   3.412 -0.0240  0.7166 -0.7725
 7050SOL     OW32785   1.286   0.563   5.609  0.8911 -0.5264  0.3064
 7050SOL    HW132786   1.359   0.525   5.660 -0.5050 -1.4250  1.6415
 7050SOL    HW232787   1.238   0.482   5.592 -0.9872  0.6129  0.2816
 7051SOL     OW32788   3.363   2.952   7.093  0.4668  0.1599 -0.1419
 7051SOL    HW132789   3.355   2.982   7.183 -3.6573 -0.7194 -0.2157
 7051SOL    HW232790   3.271   2.926   7.086  0.8151 -1.0042 -0.4284
 7052SOL     OW32791   3.599   2.776   7.142 -0.6893  0.7898  0.3464
 7052SOL    HW132792   3.544   2.854   7.137  0.7922  1.8559  0.5883
 7052SOL    HW232793   3.535   2.715   7.180 -0.2831 -0.5292 -1.1405
 7053SOL     OW32794   1.874   3.477   6.604  0.1189  0.0570  0.1061
 7053SOL    HW132795   1.838   3.566   6.607 -0.4574 -0.1226 -1.4214
 7053SOL    HW232796   1.809   3.428   6.554  0.6457  0.8341 -1.3317
 7054SOL     OW32797   3.622   1.003   4.826 -0.2455 -0.1268 -0.3463
 7054SOL    HW132798   3.619   0.909   4.810 -0.8920 -0.2228  0.3601
 7054SOL    HW232799   3.528   1.015   4.844 -0.1648 -2.1221  1.3904
 7055SOL     OW32800   4.080   0.071   4.460  1.0826 -0.7136 -0.5426
 7055SOL    HW132801   4.035   0.151   4.431  1.0832 -0.1890  0.8830
 7055SOL    HW232802   4.045   4.741   4.408 -1.5889  0.4258 -0.3074
 7056SOL     OW32803   2.848   0.302  16.759  0.1648 -0.0507 -0.1275
 7056SOL    HW132804   2.772   0.331  16.809  0.9741  0.5713  0.7383
 7056SOL    HW232805   2.818   0.217  16.727 -1.1679  0.0968  0.7499
 7057SOL     OW32806   0.256   2.018   2.908  0.4781  0.2583 -0.1456
 7057SOL    HW132807   0.229   2.026   2.816 -0.5326 -0.6825  0.0815
 7057SOL    HW232808   0.200   1.950   2.944  0.5407  1.1584  1.6402
 7058SOL     OW32809   3.430   0.158   1.474 -0.2578  0.2320  0.3768
 7058SOL    HW132810   3.480   0.204   1.407  0.2835 -0.7963  0.0705
 7058SOL    HW232811   3.451   0.228   1.536 -0.7994  0.7405 -0.0202
 7059SOL     OW32812   2.592   2.844   4.462 -0.3549  0.3736 -0.8342
 7059SOL    HW132813   2.668   2.900   4.470 -0.2781 -0.0931  1.5546
 7059SOL    HW232814   2.596   2.783   4.536 -1.7058  2.6553  1.1084
 7060SOL     OW32815   3.031   2.638  12.506 -0.1420 -0.0610 -0.9022
 7060SOL    HW132816   3.126   2.646  12.498 -0.0225  0.3089  0.9698
 7060SOL    HW232817   3.015   2.664  12.596  0.5606  0.6970 -0.9970
 7061SOL     OW32818   2.986   1.311   5.613 -0.4451  0.2829  0.2182
 7061SOL    HW132819   3.060   1.260   5.581  0.4549  0.3040  2.2709
 7061SOL    HW232820   2.931   1.252   5.665  0.2268  0.5191  1.2017
 7062SOL     OW32821   0.329   2.310  14.835  0.0996  0.3369 -0.0918
 7062SOL    HW132822   0.277   2.356  14.769 -1.1632 -0.1165  0.5703
 7062SOL    HW232823   0.323   2.218  14.807 -0.4577 -0.0652  1.3210
 7063SOL     OW32824   1.759   0.660  15.640  0.3306  0.0790 -0.6283
 7063SOL    HW132825   1.697   0.614  15.584 -0.9875  1.0398  0.0660
 7063SOL    HW232826   1.724   0.749  15.637 -1.0947 -0.2909  4.5427
 7064SOL     OW32827   3.975   1.322   7.975 -0.4203  0.0802 -0.1567
 7064SOL    HW132828   3.925   1.377   7.915 -0.8655  0.0430  0.1779
 7064SOL    HW232829   3.935   1.358   8.054 -0.2628 -3.4403  1.5185
 7065SOL     OW32830   3.558   1.330   6.917 -0.0234  0.3634 -0.5429
 7065SOL    HW132831   3.591   1.280   6.992 -0.1431  1.0990  0.0053
 7065SOL    HW232832   3.483   1.381   6.949 -0.1960 -1.8143  2.5776
 7066SOL     OW32833   2.051   3.786  16.025  0.0432 -0.2874  0.6651
 7066SOL    HW132834   2.131   3.803  15.974 -0.8282 -0.6661 -0.8301
 7066SOL    HW232835   2.079   3.736  16.102 -0.0157 -1.2215  0.0739
 7067SOL     OW32836   1.181   0.343   2.368 -0.4822  1.0997 -0.2405
 7067SOL    HW132837   1.196   0.430   2.330 -1.7751  1.5793  0.3420
 7067SOL    HW232838   1.141   0.294   2.297 -1.6248  0.5526  0.8036
 7068SOL     OW32839   0.126   2.928   8.668  0.4001 -0.4166  0.3998
 7068SOL    HW132840   0.203   2.977   8.696  2.0096 -1.6417 -1.8995
 7068SOL    HW232841   0.145   2.903   8.578  2.1567  0.2923  0.5780
 7069SOL     OW32842   1.564   3.740  16.284  0.5858 -0.4058 -0.0614
 7069SOL    HW132843   1.579   3.660  16.335 -0.4168  1.1750  2.6929
 7069SOL    HW232844   1.640   3.740  16.225  1.2491 -0.8891  0.7877
 7070SOL     OW32845   4.532   1.562  13.705  0.4878  0.5002 -0.6370
 7070SOL    HW132846   4.594   1.625  13.741  1.1822 -0.8853  0.5892
 7070SOL    HW232847   4.542   1.587  13.613 -0.4960 -0.2249 -0.9483
 7071SOL     OW32848   4.094   1.371  14.421  0.3401  0.5663 -0.1655
 7071SOL    HW132849   4.047   1.292  14.447  0.4428  0.1165 -1.3182
 7071SOL    HW232850   4.023   1.432  14.442  0.8419  1.4371 -0.9505
 7072SOL     OW32851   0.994   4.439   1.761  0.0962  0.6808  0.2485
 7072SOL    HW132852   0.991   4.522   1.808 -0.3391  0.3239  0.8421
 7072SOL    HW232853   1.011   4.382   1.835 -0.9344 -0.8778 -0.7156
 7073SOL     OW32854   2.510   1.754   1.885 -0.0240 -0.6103 -0.4474
 7073SOL    HW132855   2.417   1.752   1.862  0.6620 -0.7818 -3.2988
 7073SOL    HW232856   2.508   1.799   1.969 -0.4034 -1.1938 -0.1435
 7074SOL     OW32857   1.105   3.506   1.190  0.1330  0.7466  0.0632
 7074SOL    HW132858   1.169   3.451   1.144 -0.0077  0.9551 -0.3805
 7074SOL    HW232859   1.127   3.587   1.144  3.1611  0.1637  0.4953
 7075SOL     OW32860   0.516   1.549   7.970 -0.0170  0.2308 -0.4371
 7075SOL    HW132861   0.467   1.615   8.018 -0.0942  0.5681 -0.9886
 7075SOL    HW232862   0.488   1.562   7.879  0.8160  0.5592 -0.6433
 7076SOL     OW32863   0.952   0.701   6.642  0.0567 -0.5171  0.1675
 7076SOL    HW132864   1.043   0.731   6.651  1.4172 -4.1217 -1.1310
 7076SOL    HW232865   0.964   0.606   6.646 -0.7886 -0.7074 -2.3269
 7077SOL     OW32866   4.543   2.482   2.178 -0.2621 -0.1603  0.7888
 7077SOL    HW132867   4.460   2.523   2.154 -0.2744  0.1441  1.3391
 7077SOL    HW232868   4.514   2.391   2.180 -0.9391  0.0522  0.2000
 7078SOL     OW32869   1.090   1.946   5.097  0.4211  0.3262 -0.7265
 7078SOL    HW132870   1.061   1.877   5.157  0.8423 -0.1490 -1.0771
 7078SOL    HW232871   1.178   1.967   5.129  0.0814 -1.4605  1.3941
 7079SOL     OW32872   3.887   4.302  13.920  0.2664 -0.4575 -0.1719
 7079SOL    HW132873   3.852   4.337  13.838  0.4034  2.4102  0.9818
 7079SOL    HW232874   3.893   4.378  13.978  0.5379 -0.5627 -0.0627
 7080SOL     OW32875   4.030   2.607   9.822  0.0454  0.1376  0.3104
 7080SOL    HW132876   3.998   2.551   9.892 -1.1994  0.1715 -0.2318
 7080SOL    HW232877   4.124   2.612   9.839 -0.0055 -0.2662  0.7031
 7081SOL     OW32878   2.397   2.006   7.316  0.2411 -0.2072 -0.0436
 7081SOL    HW132879   2.459   1.942   7.349  1.3791 -0.3450 -2.5285
 7081SOL    HW232880   2.344   2.000   7.396 -0.5726 -1.7880 -0.7016
 7082SOL     OW32881   0.442   2.624  12.191 -0.0700 -0.5563  0.2447
 7082SOL    HW132882   0.388   2.609  12.114  2.7205 -2.8868 -1.2583
 7082SOL    HW232883   0.411   2.550  12.244 -2.2926  1.2442  1.4728
 7083SOL     OW32884   4.368   0.878   8.806 -0.6204  0.4346  0.0987
 7083SOL    HW132885   4.463   0.884   8.818 -0.5129 -0.4277 -0.3293
 7083SOL    HW232886   4.362   0.902   8.714 -1.8678 -0.6526 -0.1067
 7084SOL     OW32887   1.266   2.268   4.973  0.2049  0.0804 -0.0302
 7084SOL    HW132888   1.359   2.250   4.961  0.6332  0.7378  2.2814
 7084SOL    HW232889   1.280   2.312   5.057 -0.6868  1.4336 -0.5907
 7085SOL     OW32890   2.825   1.764   2.915  0.0768  0.1060 -0.2765
 7085SOL    HW132891   2.768   1.841   2.913  0.4099  0.3303 -1.3000
 7085SOL    HW232892   2.882   1.787   2.989  0.4827 -0.3130 -0.4558
 7086SOL     OW32893   4.184   0.263   5.840  0.1141 -0.1285  0.1764
 7086SOL    HW132894   4.142   0.330   5.786 -1.3380  0.7941  2.4335
 7086SOL    HW232895   4.272   0.295   5.857 -0.6920  1.3657  1.4621
 7087SOL     OW32896   0.259   1.707  13.239 -0.3901  0.4170 -0.1848
 7087SOL    HW132897   0.213   1.781  13.200  0.3402 -0.3564 -2.4840
 7087SOL    HW232898   0.193   1.691  13.307 -0.2410 -2.0337 -0.6030
 7088SOL     OW32899   2.220   0.422   0.497 -0.3699 -0.2024  0.0688
 7088SOL    HW132900   2.301   0.417   0.445  0.9057 -0.9089  2.1374
 7088SOL    HW232901   2.222   0.510   0.532  2.4592 -0.6378  1.0399
 7089SOL     OW32902   0.508   0.833   7.511 -0.2032  0.4458  0.0165
 7089SOL    HW132903   0.499   0.753   7.460  0.0743 -0.3943  1.2843
 7089SOL    HW232904   0.435   0.825   7.573 -0.2142  2.1160  0.2420
 7090SOL     OW32905   1.071   0.563   4.721 -0.3528  0.4327 -0.3514
 7090SOL    HW132906   1.031   0.634   4.671 -0.7678  0.0032 -0.6162
 7090SOL    HW232907   1.108   0.518   4.645  0.6964  2.1848 -0.8750
 7091SOL     OW32908   2.700   3.757  10.933  0.1729  0.1128 -0.8941
 7091SOL    HW132909   2.731   3.747  11.023 -2.0990  0.9814 -0.0336
 7091SOL    HW232910   2.613   3.791  10.953  0.2193 -0.0879 -0.3594
 7092SOL     OW32911   0.159   1.616   7.307  0.0003  0.0023 -0.6388
 7092SOL    HW132912   0.141   1.634   7.399 -1.3127 -0.4042 -0.8122
 7092SOL    HW232913   0.240   1.667   7.301 -0.6811  0.9964 -1.3640
 7093SOL     OW32914   0.967   0.880  16.276  0.6761  0.5572 -0.3786
 7093SOL    HW132915   0.922   0.910  16.355  1.2375  0.8605 -0.1706
 7093SOL    HW232916   0.930   0.792  16.272  1.6109  0.2874 -2.9236
 7094SOL     OW32917   2.088   3.711   9.596  0.2246  0.0130 -0.0586
 7094SOL    HW132918   2.145   3.652   9.645 -1.2194  0.8242  2.6058
 7094SOL    HW232919   2.149   3.737   9.526  1.7519 -0.6389  1.0309
 7095SOL     OW32920   4.690   1.134   3.026 -0.0852 -0.6774  0.0739
 7095SOL    HW132921   0.029   1.092   2.999 -0.0035 -1.9406  2.2690
 7095SOL    HW232922   4.709   1.221   2.992 -0.3111 -2.0006 -3.4499
 7096SOL     OW32923   3.483   2.827   7.400 -0.0121  0.3919 -0.0075
 7096SOL    HW132924   3.567   2.871   7.414 -0.3388  1.5952 -1.8314
 7096SOL    HW232925   3.423   2.902   7.396  2.2118  2.1566 -0.6263
 7097SOL     OW32926   2.686   4.242   8.949 -0.8014  0.2684 -0.0671
 7097SOL    HW132927   2.669   4.235   8.855 -1.3359  0.5361  0.0092
 7097SOL    HW232928   2.678   4.338   8.953 -0.6361  0.2538  0.5410
 7098SOL     OW32929   2.576   3.290   4.180 -0.0937 -0.0539 -0.2524
 7098SOL    HW132930   2.671   3.278   4.179  0.1701  2.0768 -1.3773
 7098SOL    HW232931   2.552   3.234   4.254  0.5106 -0.9193 -0.7149
 7099SOL     OW32932   2.974   2.848   9.632  0.0220 -0.2899 -0.2292
 7099SOL    HW132933   2.903   2.875   9.690 -0.8532 -1.3947 -0.7794
 7099SOL    HW232934   2.942   2.766   9.595  1.2694 -0.7544 -0.2786
 7100SOL     OW32935   0.508   3.644   5.241  0.5717 -0.4660 -0.1141
 7100SOL    HW132936   0.437   3.708   5.245  0.1856 -0.8348 -0.8449
 7100SOL    HW232937   0.476   3.603   5.160 -1.9264 -1.2079  1.2237
 7101SOL     OW32938   0.660   3.106   2.095 -0.0250 -0.1272  0.2710
 7101SOL    HW132939   0.689   3.016   2.107  0.3616  0.0998  1.0694
 7101SOL    HW232940   0.591   3.108   2.162 -0.1281  0.4599  0.1482
 7102SOL     OW32941   1.569   4.223   8.248  0.1690 -0.5008 -0.0213
 7102SOL    HW132942   1.501   4.243   8.185  0.0858  1.7304  0.7832
 7102SOL    HW232943   1.519   4.248   8.326  1.1610 -2.7666  1.3586
 7103SOL     OW32944   2.330   1.946   7.049  0.2980  0.0642  0.0869
 7103SOL    HW132945   2.360   1.961   7.139 -2.4583  1.6976  0.7365
 7103SOL    HW232946   2.399   1.893   7.010 -1.1426 -0.7966 -1.2649
 7104SOL     OW32947   4.048   2.668   4.168  0.0159 -0.0833  0.1127
 7104SOL    HW132948   4.077   2.663   4.077  0.1150 -0.2067  0.1516
 7104SOL    HW232949   4.120   2.718   4.205 -0.4392 -0.6769  1.7948
 7105SOL     OW32950   4.188   3.054   1.010  0.6589  0.1426  0.0236
 7105SOL    HW132951   4.272   3.007   1.007 -0.6285 -2.0559 -1.2011
 7105SOL    HW232952   4.171   3.089   0.923 -0.7388  0.1379  0.3077
 7106SOL     OW32953   4.462   4.253   7.368 -0.6681 -0.1557 -0.1300
 7106SOL    HW132954   4.433   4.175   7.416 -1.3201  0.8989  1.2200
 7106SOL    HW232955   4.558   4.245   7.367 -0.6984 -0.7288  0.7737
 7107SOL     OW32956   3.675   3.984  16.295 -0.0236 -0.0317 -0.2041
 7107SOL    HW132957   3.707   4.027  16.215 -0.8253  1.4574  0.2664
 7107SOL    HW232958   3.584   3.963  16.274 -0.6812  1.9054  0.7501
 7108SOL     OW32959   1.476   2.703   9.583  0.3292  0.1118 -0.2002
 7108SOL    HW132960   1.422   2.761   9.636 -0.7302  0.4639 -1.6489
 7108SOL    HW232961   1.423   2.673   9.508 -1.4347  1.1749  0.6270
 7109SOL     OW32962   0.346   0.373  12.985 -0.1541  0.0358 -0.5683
 7109SOL    HW132963   0.382   0.451  13.025  0.9495 -0.0893 -1.3251
 7109SOL    HW232964   0.278   0.417  12.933 -1.8614 -1.0062  0.7738
 7110SOL     OW32965   3.175   1.795   3.532 -0.0087 -0.2907  0.7408
 7110SOL    HW132966   3.205   1.848   3.458  0.2995  0.5795  1.5036
 7110SOL    HW232967   3.196   1.849   3.608  0.9424 -0.0642  0.3157
 7111SOL     OW32968   3.244   2.038   8.979  1.2609 -1.3345  0.0287
 7111SOL    HW132969   3.202   2.114   9.020  0.3408 -1.4413 -0.7063
 7111SOL    HW232970   3.333   2.048   9.011  0.9019 -3.1532  1.6256
 7112SOL     OW32971   4.276   0.683   1.560 -0.3152 -0.3155 -0.0320
 7112SOL    HW132972   4.258   0.589   1.555  1.5788 -0.6744 -0.2748
 7112SOL    HW232973   4.285   0.696   1.466 -2.1417 -1.4545 -0.3561
 7113SOL     OW32974   3.351   1.949   1.541  0.1164  0.2778 -0.1957
 7113SOL    HW132975   3.268   1.905   1.558 -0.0699  0.1227 -1.4499
 7113SOL    HW232976   3.379   1.976   1.628 -3.0859 -0.4968  1.0887
 7114SOL     OW32977   2.735   1.006   4.036 -0.2167 -0.1487  0.0133
 7114SOL    HW132978   2.664   0.947   4.062  1.4248 -0.9228  2.7324
 7114SOL    HW232979   2.678   1.075   4.001  1.2324  0.8281 -0.3963
 7115SOL     OW32980   3.626   1.912   5.386  0.2502  0.6064 -0.2182
 7115SOL    HW132981   3.667   1.828   5.406 -0.4098  0.2513 -0.3459
 7115SOL    HW232982   3.635   1.954   5.471  2.7157  2.4060 -1.3289
 7116SOL     OW32983   1.266   0.160   4.314  0.1414 -0.6345  0.0270
 7116SOL    HW132984   1.311   0.085   4.277  0.7166 -0.5621  0.5761
 7116SOL    HW232985   1.304   0.224   4.254  0.3443 -1.2991 -0.5412
 7117SOL     OW32986   4.375   2.332  11.968 -0.3944  0.0651 -0.2425
 7117SOL    HW132987   4.327   2.269  12.021 -0.1590 -1.1344 -1.4518
 7117SOL    HW232988   4.438   2.374  12.027 -0.1818  0.8959 -1.0653
 7118SOL     OW32989   2.124   4.248  15.267 -0.1265 -0.2024  0.1535
 7118SOL    HW132990   2.141   4.338  15.241  0.8533  0.1615  2.1229
 7118SOL    HW232991   2.211   4.207  15.266  0.1799  0.4421  0.6940
 7119SOL     OW32992   3.844   1.775  17.622 -0.4017  0.5669  0.4145
 7119SOL    HW132993   3.918   1.835  17.630 -0.4833  0.2744  3.2495
 7119SOL    HW232994   3.802   1.819  17.548 -2.2373 -1.8328  0.0185
 7120SOL     OW32995   3.508   2.164   4.373  0.1420 -0.6919  0.2129
 7120SOL    HW132996   3.486   2.110   4.449 -1.6131 -0.3715 -0.0760
 7120SOL    HW232997   3.426   2.212   4.366  2.2895  2.9537 -0.0713
 7121SOL     OW32998   0.965   1.982   8.959 -0.1354 -0.0310 -0.2822
 7121SOL    HW132999   0.942   2.004   9.049  4.2039 -0.9228  1.0389
 7121SOL    HW233000   0.877   1.969   8.923 -0.1431  0.9899 -0.6503
 7122SOL     OW33001   4.607   0.240   4.487 -0.1725  1.1389 -0.3892
 7122SOL    HW133002   4.662   0.204   4.556  0.6944  3.4269  0.1342
 7122SOL    HW233003   4.520   0.214   4.516 -0.1817  0.6022 -0.9140
 7123SOL     OW33004   2.661   2.948   4.957  0.0357 -0.0222  0.0461
 7123SOL    HW133005   2.619   3.001   5.024 -0.2752  0.7776 -0.7795
 7123SOL    HW233006   2.665   3.010   4.884 -1.4448 -0.0893 -0.0967
 7124SOL     OW33007   0.447   1.803  15.927 -0.6035  0.6828  0.0909
 7124SOL    HW133008   0.528   1.800  15.977 -0.4953  0.3374 -0.1027
 7124SOL    HW233009   0.390   1.758  15.990 -1.3286 -1.2454 -1.9392
 7125SOL     OW33010   4.656   1.871   3.294 -0.2849  0.1903  0.3501
 7125SOL    HW133011   4.608   1.796   3.329 -2.0554 -0.3674 -3.2639
 7125SOL    HW233012   4.667   1.931   3.368 -1.2130  1.1941 -0.3278
 7126SOL     OW33013   4.657   1.288   5.016  0.2755  0.2563 -0.3540
 7126SOL    HW133014   4.633   1.295   5.108 -1.5568  0.3572 -0.8272
 7126SOL    HW233015   4.726   1.354   5.010 -1.3113  2.1416  2.1935
 7127SOL     OW33016   2.089   0.183   3.670  0.0254 -0.1444 -0.1774
 7127SOL    HW133017   1.996   0.163   3.676  0.0437 -0.4609 -1.0053
 7127SOL    HW233018   2.118   0.190   3.761 -2.0282 -1.1947  0.5549
 7128SOL     OW33019   1.716   2.039  14.579  0.3303 -0.2937  0.2588
 7128SOL    HW133020   1.732   2.133  14.577 -1.4002 -0.0403 -3.2260
 7128SOL    HW233021   1.705   2.029  14.673 -0.7743  0.6041  0.2254
 7129SOL     OW33022   0.212   0.186   0.429  0.1116  0.0980 -0.0569
 7129SOL    HW133023   0.139   0.242   0.403 -1.3353 -2.1007 -0.6689
 7129SOL    HW233024   0.193   0.178   0.522 -0.9693 -0.4996 -0.3328
 7130SOL     OW33025   3.432   1.847   2.376  0.5607  0.5045  0.0355
 7130SOL    HW133026   3.507   1.851   2.317  0.8891  0.9849  0.4793
 7130SOL    HW233027   3.471   1.807   2.454  1.1799  3.0586  1.0239
 7131SOL     OW33028   2.766   4.374   2.495  0.3928 -0.1483  0.2017
 7131SOL    HW133029   2.752   4.412   2.582 -1.7005  1.0489 -0.6678
 7131SOL    HW233030   2.801   4.444   2.442  2.1627 -0.3069  1.1528
 7132SOL     OW33031   3.687   2.430   2.832 -0.4138 -0.5740  0.0046
 7132SOL    HW133032   3.680   2.340   2.801  0.3888 -0.5995 -0.1030
 7132SOL    HW233033   3.653   2.474   2.754  1.4852  1.2720  0.2119
 7133SOL     OW33034   1.839   2.561   2.381 -0.3453 -0.6041 -0.3074
 7133SOL    HW133035   1.749   2.565   2.415  0.0270  1.2969  0.4452
 7133SOL    HW233036   1.820   2.535   2.291  0.2456 -0.8158 -0.3709
 7134SOL     OW33037   4.052   1.039   8.750  0.3891  0.4912  0.2132
 7134SOL    HW133038   4.144   1.057   8.731  0.2148  1.2203  0.0575
 7134SOL    HW233039   4.010   1.106   8.805  0.2364 -0.4350  1.2284
 7135SOL     OW33040   2.457   1.327  10.197  0.1332 -0.2283  0.2373
 7135SOL    HW133041   2.506   1.258  10.153  0.7472  0.7945 -0.6978
 7135SOL    HW233042   2.433   1.287  10.280  2.7979 -0.9614  0.6506
 7136SOL     OW33043   1.414   4.483   7.934  0.1912  0.5226  0.5157
 7136SOL    HW133044   1.470   4.543   7.984  1.0167  0.1546  0.0386
 7136SOL    HW233045   1.481   4.414   7.932 -0.2404  0.1277 -0.3141
 7137SOL     OW33046   3.856   0.457   3.994  0.5991 -0.3372 -0.1900
 7137SOL    HW133047   3.921   0.392   4.018 -1.6241 -2.2714  0.6243
 7137SOL    HW233048   3.828   0.481   4.082  1.9998  0.5101  0.0269
 7138SOL     OW33049   2.509   4.578   2.952 -0.4770  0.3321  0.5790
 7138SOL    HW133050   2.569   4.594   3.025  0.8886  1.6500 -0.8280
 7138SOL    HW233051   2.437   4.637   2.973 -2.0219 -0.7688 -1.5386
 7139SOL     OW33052   3.405   2.135   2.613 -0.1970  0.3126 -0.0498
 7139SOL    HW133053   3.497   2.116   2.633 -0.9603 -2.6718  0.6371
 7139SOL    HW233054   3.361   2.062   2.657 -2.8386  1.3795 -0.9328
 7140SOL     OW33055   2.249   1.117   3.374 -0.3594  0.1416  0.8675
 7140SOL    HW133056   2.270   1.027   3.400 -4.9622 -1.1019  0.2502
 7140SOL    HW233057   2.290   1.179   3.434  0.4062 -1.4373  1.9869
 7141SOL     OW33058   1.376   1.484   6.117 -0.2501 -0.0918  0.2479
 7141SOL    HW133059   1.298   1.463   6.066  0.6244  0.8025 -1.4513
 7141SOL    HW233060   1.378   1.417   6.185  0.5897  0.3137  0.6273
 7142SOL     OW33061   1.387   4.558   8.556 -0.6650 -0.5584  0.2721
 7142SOL    HW133062   1.313   4.559   8.616 -0.8369  0.7213  0.0242
 7142SOL    HW233063   1.355   4.634   8.507 -0.4095  0.3749  1.5676
 7143SOL     OW33064   1.271   0.358  16.541 -0.2719  0.3753  0.4014
 7143SOL    HW133065   1.346   0.374  16.599 -0.4472 -2.1482  1.3560
 7143SOL    HW233066   1.199   0.328  16.597  0.9198 -0.4024  1.5383
 7144SOL     OW33067   0.626   3.841   6.234 -0.2547  0.4467  0.5022
 7144SOL    HW133068   0.592   3.754   6.256 -1.8495  0.8714 -0.3305
 7144SOL    HW233069   0.686   3.864   6.305  0.4916  1.7656 -0.5327
 7145SOL     OW33070   2.254   2.881   3.858  0.4814 -0.5514 -0.4945
 7145SOL    HW133071   2.330   2.833   3.828  0.4468 -1.9953  1.7428
 7145SOL    HW233072   2.228   2.927   3.778 -0.5751 -0.5081 -0.1357
 7146SOL     OW33073   3.813   3.571   8.302 -0.4071  0.0335 -0.6388
 7146SOL    HW133074   3.807   3.483   8.340  0.1223 -0.3080 -1.3480
 7146SOL    HW233075   3.899   3.562   8.261  0.6714  2.0538  1.1944
 7147SOL     OW33076   1.352   2.992   0.950 -0.4621 -0.0098 -0.2364
 7147SOL    HW133077   1.265   2.962   0.925  0.3242 -1.8869 -0.6964
 7147SOL    HW233078   1.337   3.040   1.031  1.7468 -1.3048  0.9344
 7148SOL     OW33079   1.218   3.414   0.925 -0.2907  0.8076 -0.3093
 7148SOL    HW133080   1.312   3.410   0.911  0.0885 -0.2092  2.3967
 7148SOL    HW233081   1.183   3.332   0.891 -0.7895  0.3296  1.3479
 7149SOL     OW33082   4.675   0.201  14.220  0.1419 -0.3605 -0.2667
 7149SOL    HW133083   4.654   0.261  14.291  0.1357  0.1529 -0.7003
 7149SOL    HW233084   0.024   0.187  14.244 -0.4976 -1.7908  1.3341
 7150SOL     OW33085   1.859   2.634  16.338  0.0947 -0.1189 -0.0086
 7150SOL    HW133086   1.936   2.673  16.296 -0.3240 -1.6901 -2.2306
 7150SOL    HW233087   1.794   2.704  16.324  0.5115 -0.5464 -4.0786
 7151SOL     OW33088   1.479   2.558   6.366  0.5377  0.7956 -0.6709
 7151SOL    HW133089   1.535   2.495   6.320 -1.5267 -0.1163 -1.9244
 7151SOL    HW233090   1.424   2.592   6.295 -0.7457 -1.1999 -0.6357
 7152SOL     OW33091   0.069   0.004   0.172 -0.2710  0.3382 -0.6441
 7152SOL    HW133092   0.042   0.028   0.261 -3.7548 -1.4924 -1.1712
 7152SOL    HW233093   0.148   4.693   0.181  0.2346  0.8955 -1.8562
 7153SOL     OW33094   0.886   4.009   2.891 -0.2616 -0.1228 -0.2374
 7153SOL    HW133095   0.918   3.921   2.872 -2.7854 -1.2310  0.5718
 7153SOL    HW233096   0.891   4.012   2.987 -0.9769 -2.4862 -0.1245
 7154SOL     OW33097   2.639   3.944   6.290 -0.5194 -0.0960  0.1435
 7154SOL    HW133098   2.581   4.016   6.317  0.3902  1.1911 -1.2832
 7154SOL    HW233099   2.577   3.874   6.308 -0.6856  0.5289  2.0161
 7155SOL     OW33100   0.434   1.284   8.073 -0.3812  0.9381 -0.1453
 7155SOL    HW133101   0.485   1.348   8.023  1.8798  0.8135  1.9600
 7155SOL    HW233102   0.346   1.320   8.067 -0.5324  0.6075  0.1006
 7156SOL     OW33103   0.631   4.714   5.757  0.4423 -0.2495  0.6961
 7156SOL    HW133104   0.588   4.700   5.673 -2.5055 -3.1978  2.7073
 7156SOL    HW233105   0.589   4.639   5.799 -0.8903 -0.5047 -1.1220
 7157SOL     OW33106   1.430   3.967   7.970 -0.1678  0.1130  0.3257
 7157SOL    HW133107   1.408   4.048   8.015  0.7333 -0.0471  1.0685
 7157SOL    HW233108   1.369   3.904   8.009 -1.8506  0.9470 -0.9952
 7158SOL     OW33109   4.172   1.774   3.365 -0.5819 -0.2696 -0.1076
 7158SOL    HW133110   4.130   1.850   3.324 -0.2053  0.8070  1.4793
 7158SOL    HW233111   4.189   1.799   3.456 -0.4300 -0.9718  0.0553
 7159SOL     OW33112   3.114   0.394   8.101 -0.0517 -0.4956  0.0010
 7159SOL    HW133113   3.150   0.422   8.185  2.0638 -1.0644 -0.7067
 7159SOL    HW233114   3.098   0.304   8.127  0.6484 -0.9736 -1.2269
 7160SOL     OW33115   3.108   0.762  15.382  0.0150  0.1918  0.2729
 7160SOL    HW133116   3.025   0.716  15.369  1.1486 -1.7433 -0.2161
 7160SOL    HW233117   3.086   0.833  15.321 -0.7049 -0.5704 -0.3642
 7161SOL     OW33118   1.639   2.885   9.843  0.1992 -0.3318 -0.3888
 7161SOL    HW133119   1.705   2.843   9.898  0.1686  0.4924  0.2828
 7161SOL    HW233120   1.570   2.919   9.900  1.7180 -2.6660  2.8509
 7162SOL     OW33121   3.865   3.575   7.419 -0.2775 -0.2120 -0.4899
 7162SOL    HW133122   3.824   3.525   7.489  1.4994  0.1419  0.8136
 7162SOL    HW233123   3.798   3.638   7.391 -0.7726  0.3248  1.8809
 7163SOL     OW33124   1.086   2.805   1.807 -1.0755 -0.0386  0.3283
 7163SOL    HW133125   1.013   2.794   1.869 -0.0456  1.4956  1.7867
 7163SOL    HW233126   1.146   2.851   1.865 -0.2610  1.7190 -1.9076
 7164SOL     OW33127   4.438   0.207   6.208 -0.2584  0.2360  0.0078
 7164SOL    HW133128   4.453   0.151   6.131 -1.6634  0.6152 -0.5450
 7164SOL    HW233129   4.356   0.170   6.241  0.9027 -1.8630  0.5436
 7165SOL     OW33130   1.305   2.939  14.606 -0.3969  0.1454 -0.2308
 7165SOL    HW133131   1.262   2.856  14.629  1.0172 -0.6840 -0.5809
 7165SOL    HW233132   1.391   2.900  14.589 -0.7478 -0.0900 -1.4263
 7166SOL     OW33133   4.229   2.843  12.786 -0.1846 -0.3315 -0.4624
 7166SOL    HW133134   4.272   2.761  12.761 -0.2574 -0.2081 -1.0024
 7166SOL    HW233135   4.145   2.838  12.742 -1.5129 -2.6580  2.3780
 7167SOL     OW33136   3.174   3.227   7.146 -0.2552  0.0848 -0.3673
 7167SOL    HW133137   3.188   3.187   7.232  0.4260 -1.0956 -1.0363
 7167SOL    HW233138   3.262   3.235   7.109 -0.0454 -1.9802 -0.2903
 7168SOL     OW33139   0.023   2.267   3.950  0.1055 -0.9454  0.2174
 7168SOL    HW133140   4.686   2.280   4.002 -0.4281  1.3523 -1.1963
 7168SOL    HW233141   0.091   2.312   4.000 -0.6032  1.5373 -1.0642
 7169SOL     OW33142   1.458   1.741   3.657 -0.2736 -0.4194  0.1979
 7169SOL    HW133143   1.539   1.724   3.704 -0.7973  2.2325  2.0933
 7169SOL    HW233144   1.442   1.652   3.625 -4.0137 -0.1650  1.3325
 7170SOL     OW33145   1.073   3.667   7.758 -0.1671 -0.2047 -0.4074
 7170SOL    HW133146   1.048   3.759   7.757 -2.4262 -0.8079  0.3095
 7170SOL    HW233147   1.073   3.640   7.850  0.3368  1.7992  0.1713
 7171SOL     OW33148   1.521   1.363   6.848  0.2482 -0.0212 -0.0256
 7171SOL    HW133149   1.588   1.345   6.782  1.0804 -1.8397  1.3077
 7171SOL    HW233150   1.521   1.288   6.907 -0.4250  0.6955  0.8908
 7172SOL     OW33151   1.479   3.646   7.878  0.2371  0.2981  0.5928
 7172SOL    HW133152   1.538   3.689   7.816 -0.1616  1.6536  1.1701
 7172SOL    HW233153   1.421   3.600   7.817 -1.0772  1.0563  1.2554
 7173SOL     OW33154   3.335   0.710   8.590  0.0781 -0.0516  0.1837
 7173SOL    HW133155   3.400   0.703   8.660 -0.9732 -2.4280  0.9183
 7173SOL    HW233156   3.253   0.738   8.631  0.0701  2.4215 -1.5536
 7174SOL     OW33157   0.166   2.464  16.162 -0.2724  0.1010 -0.5382
 7174SOL    HW133158   0.215   2.392  16.199  1.7152  1.8324  0.2163
 7174SOL    HW233159   0.078   2.429  16.155  0.3640 -0.9961 -3.1988
 7175SOL     OW33160   2.647   2.086   0.542 -0.3992 -0.1711  0.2807
 7175SOL    HW133161   2.561   2.099   0.583  0.2577 -0.1086  1.6311
 7175SOL    HW233162   2.713   2.105   0.608 -1.0234 -0.5932  1.0375
 7176SOL     OW33163   0.217   3.691   4.613 -0.1490  0.1001  0.4725
 7176SOL    HW133164   0.150   3.653   4.671  0.3130  0.2231  1.0810
 7176SOL    HW233165   0.167   3.765   4.578  0.8029  1.7505  2.6120
 7177SOL     OW33166   3.695   2.155   3.138 -0.1900 -0.8904  0.6001
 7177SOL    HW133167   3.615   2.108   3.159 -0.3432 -1.1968 -0.6731
 7177SOL    HW233168   3.658   2.242   3.149  2.4808  0.3867 -0.2688
 7178SOL     OW33169   0.295   2.707   9.338 -0.1435 -0.1226  0.7111
 7178SOL    HW133170   0.237   2.631   9.348 -0.7739  0.3107  0.3720
 7178SOL    HW233171   0.223   2.769   9.322  0.0177 -0.3461 -0.9338
 7179SOL     OW33172   4.596   3.939   8.055  0.6290 -0.0354 -0.0015
 7179SOL    HW133173   4.575   3.889   7.977 -0.2221 -1.3669  1.0771
 7179SOL    HW233174   4.674   3.892   8.087  2.6844  2.3731 -1.4377
 7180SOL     OW33175   4.292   3.118   4.219 -0.3270  0.2073 -0.2490
 7180SOL    HW133176   4.290   3.213   4.229  4.4909  0.4272 -1.3590
 7180SOL    HW233177   4.371   3.102   4.167  0.9446  1.4772  1.2770
 7181SOL     OW33178   3.928   1.850   8.071  0.6586  0.4971 -0.3788
 7181SOL    HW133179   3.910   1.781   8.135  0.8637  0.3780 -0.4491
 7181SOL    HW233180   4.015   1.830   8.038 -0.1285 -2.7494 -0.4515
 7182SOL     OW33181   1.283   4.227   6.162  0.0714  0.0764 -0.3312
 7182SOL    HW133182   1.249   4.229   6.072  0.8121 -0.5724 -0.6234
 7182SOL    HW233183   1.284   4.136   6.190  1.4016  0.4862  0.9490
 7183SOL     OW33184   2.300   0.747   3.688  0.2576  0.0279  1.0625
 7183SOL    HW133185   2.377   0.693   3.678 -0.1217  0.1322 -2.5494
 7183SOL    HW233186   2.250   0.686   3.742 -1.3888  0.6904  0.3115
 7184SOL     OW33187   2.230   3.753   6.587 -0.2689 -0.0141  0.1268
 7184SOL    HW133188   2.197   3.761   6.497 -0.0479 -0.5782  0.0002
 7184SOL    HW233189   2.299   3.688   6.575 -1.4022 -1.0660 -0.7775
 7185SOL     OW33190   4.148   4.145  13.916 -0.0287  0.2557 -0.3142
 7185SOL    HW133191   4.064   4.191  13.922  0.9260  1.6981  2.3157
 7185SOL    HW233192   4.176   4.162  14.006  0.7655 -0.5429 -0.4109
 7186SOL     OW33193   3.376   4.316   2.346 -0.0961 -0.5826  0.1990
 7186SOL    HW133194   3.430   4.242   2.375 -0.2938 -1.0239 -0.5347
 7186SOL    HW233195   3.325   4.270   2.279  0.6291  1.3868 -1.6887
 7187SOL     OW33196   4.028   4.214   2.740  0.0115 -0.1599  0.1383
 7187SOL    HW133197   4.054   4.293   2.691 -0.8321 -0.1703 -0.3221
 7187SOL    HW233198   4.080   4.148   2.694  0.5010  1.5215 -1.7557
 7188SOL     OW33199   1.407   4.196  17.082 -0.2916 -0.5494 -0.0153
 7188SOL    HW133200   1.429   4.212  17.174  0.1935 -0.4353 -0.1516
 7188SOL    HW233201   1.348   4.121  17.090 -1.3695  0.1932 -1.0752
 7189SOL     OW33202   1.134   1.356   2.419  0.0376 -0.1557 -0.2734
 7189SOL    HW133203   1.040   1.345   2.436  0.1706  0.1045  0.6593
 7189SOL    HW233204   1.169   1.267   2.415  0.3282  0.0525 -1.9208
 7190SOL     OW33205   0.238   1.553   4.695 -0.0704 -0.4544 -0.1559
 7190SOL    HW133206   0.176   1.487   4.664  0.4476 -2.1238  2.3931
 7190SOL    HW233207   0.253   1.600   4.613  0.5549 -2.7568 -1.3760
 7191SOL     OW33208   3.886   1.754   2.715 -0.3430  0.4941 -0.7157
 7191SOL    HW133209   3.976   1.734   2.692 -0.9276 -2.1861 -0.6593
 7191SOL    HW233210   3.876   1.847   2.696 -0.6844  0.5191 -0.4089
 7192SOL     OW33211   0.781   2.684   9.444  0.5443  0.0036 -0.0916
 7192SOL    HW133212   0.703   2.730   9.415 -0.8229 -1.5325  1.1481
 7192SOL    HW233213   0.741   2.605   9.481 -1.1208  0.6254 -0.5748
 7193SOL     OW33214   2.987   4.511   8.679 -0.5400 -0.7148  0.2373
 7193SOL    HW133215   3.069   4.558   8.662 -0.6213 -1.2707 -1.6880
 7193SOL    HW233216   3.010   4.440   8.738 -3.2519 -0.8170  1.1938
 7194SOL     OW33217   0.989   0.628   4.064  0.3102  0.5177 -0.4659
 7194SOL    HW133218   0.983   0.602   3.972 -2.3917  0.5994 -0.2903
 7194SOL    HW233219   0.896   0.612   4.080  0.2171 -0.3769 -1.9158
 7195SOL     OW33220   1.581   2.831  14.628 -0.4470  0.4232 -0.2383
 7195SOL    HW133221   1.642   2.875  14.687 -0.7777 -0.0979  0.4892
 7195SOL    HW233222   1.645   2.787  14.572 -0.2003  3.2540 -2.1449
 7196SOL     OW33223   3.291   0.307  15.940  0.1547  0.0377 -0.1547
 7196SOL    HW133224   3.280   0.379  15.878 -1.1976 -1.0420 -1.1649
 7196SOL    HW233225   3.378   0.323  15.979 -0.4741 -1.1914  1.7410
 7197SOL     OW33226   2.163   4.463  12.900 -0.0475 -0.3450  0.6198
 7197SOL    HW133227   2.071   4.458  12.924 -0.0391  0.7712  0.8932
 7197SOL    HW233228   2.194   4.394  12.958 -0.4561 -1.1308 -0.1119
 7198SOL     OW33229   4.282   1.273   0.685  0.2875 -0.7303  0.2259
 7198SOL    HW133230   4.367   1.273   0.728  0.9347  1.4033 -1.0467
 7198SOL    HW233231   4.222   1.284   0.759  0.0242  3.3701 -0.5978
 7199SOL     OW33232   2.355   2.809   6.600  0.6109  0.6996  0.9892
 7199SOL    HW133233   2.442   2.783   6.632 -0.4015 -1.6201  1.8152
 7199SOL    HW233234   2.345   2.787   6.508 -0.2546  2.3593  0.6803
 7200SOL     OW33235   1.189   3.575   6.635 -0.4191 -0.2466 -0.1532
 7200SOL    HW133236   1.214   3.505   6.696  2.2088 -0.2416 -1.2096
 7200SOL    HW233237   1.162   3.517   6.563  0.9051  0.3324 -1.1191
 7201SOL     OW33238   0.900   0.985   1.944  0.5446  0.0537 -0.2695
 7201SOL    HW133239   0.991   0.955   1.951  0.3122 -0.7744 -0.7688
 7201SOL    HW233240   0.896   1.048   2.016  1.0913  2.2320 -2.1202
 7202SOL     OW33241   1.216   4.651   5.647 -0.1212  0.7597 -0.7340
 7202SOL    HW133242   1.225   4.607   5.732 -2.3079  0.9783 -0.3915
 7202SOL    HW233243   1.223   4.580   5.584  1.1110  1.0980 -0.9814
 7203SOL     OW33244   2.212   2.591   7.141 -0.1630  0.2593  0.2117
 7203SOL    HW133245   2.276   2.549   7.198 -1.4061  0.2515  1.5981
 7203SOL    HW233246   2.181   2.667   7.191  1.6047  2.2004 -1.6708
 7204SOL     OW33247   4.540   3.375   6.090  0.0850  0.2397  0.9215
 7204SOL    HW133248   4.494   3.426   6.023 -1.9499 -0.7361  1.5711
 7204SOL    HW233249   4.615   3.343   6.041 -0.3891  1.8995 -0.9156
 7205SOL     OW33250   4.318   4.638   4.991  0.3239  0.1115 -0.4863
 7205SOL    HW133251   4.342   4.646   5.083 -1.1267  0.6555 -0.1543
 7205SOL    HW233252   4.233   4.596   5.001  0.0117  1.0548  0.8419
 7206SOL     OW33253   2.172   1.027  15.013 -0.3350 -0.7149  0.1001
 7206SOL    HW133254   2.114   1.061  15.081  2.5448  0.5304  1.9260
 7206SOL    HW233255   2.155   1.090  14.944 -0.3753  3.6472  4.0841
 7207SOL     OW33256   0.146   3.967  16.058 -0.2903  0.1968  0.2573
 7207SOL    HW133257   0.147   3.889  16.115 -0.2198 -0.8845 -1.2153
 7207SOL    HW233258   0.240   3.979  16.044  0.3599 -2.6899  1.9418
 7208SOL     OW33259   4.013   4.705   6.421 -0.3774 -0.3580 -0.7238
 7208SOL    HW133260   3.922   4.694   6.449  0.7061 -0.5077  2.7906
 7208SOL    HW233261   4.050   4.624   6.458  0.8200 -0.9041 -3.1652
 7209SOL     OW33262   2.311   1.700   2.694 -0.0201  0.2444 -0.2449
 7209SOL    HW133263   2.245   1.659   2.637  0.2000  0.8315 -0.9228
 7209SOL    HW233264   2.256   1.690   2.772 -1.5424 -0.7752 -1.4465
 7210SOL     OW33265   1.552   1.547  14.082  0.3313 -0.2948  0.2497
 7210SOL    HW133266   1.588   1.559  14.170  1.1137  2.1716 -0.3868
 7210SOL    HW233267   1.634   1.534  14.035  0.3520  0.5360  0.0511
 7211SOL     OW33268   2.266   4.342   4.859  0.0631  0.1366  0.4929
 7211SOL    HW133269   2.270   4.255   4.899 -0.7491 -0.0458  0.1797
 7211SOL    HW233270   2.174   4.369   4.866 -0.0885 -0.4342  0.7005
 7212SOL     OW33271   1.018   3.818   6.618  0.1523 -0.6241 -0.0411
 7212SOL    HW133272   1.067   3.738   6.632 -0.2107 -0.8116  0.1588
 7212SOL    HW233273   1.026   3.866   6.700  0.6415 -1.5049  0.4242
 7213SOL     OW33274   2.710   2.396   2.001  0.0068 -0.4908 -0.1637
 7213SOL    HW133275   2.654   2.340   1.947 -4.3913  0.3337  3.5835
 7213SOL    HW233276   2.797   2.372   1.970 -0.0833 -1.3602  0.2560
 7214SOL     OW33277   0.302   4.111   7.644  0.2094  0.2004  0.3824
 7214SOL    HW133278   0.363   4.056   7.694 -0.0905 -1.5170 -1.1216
 7214SOL    HW233279   0.362   4.162   7.590  0.2989 -0.1226  0.1760
 7215SOL     OW33280   3.351   1.817   4.311  0.6504 -0.0790 -0.5787
 7215SOL    HW133281   3.352   1.725   4.283  0.3869 -0.5985  1.1404
 7215SOL    HW233282   3.395   1.807   4.395  4.1007  1.1477 -2.2252
 7216SOL     OW33283   3.181   2.332   7.445 -0.5566 -0.0158  0.0179
 7216SOL    HW133284   3.092   2.303   7.465 -0.5098 -0.9933 -1.2680
 7216SOL    HW233285   3.204   2.274   7.373 -1.2643 -1.0223  0.5995
 7217SOL     OW33286   2.175   2.856   6.788  0.2163  0.1649  0.2127
 7217SOL    HW133287   2.118   2.897   6.724 -1.5393 -1.7325  0.5656
 7217SOL    HW233288   2.249   2.848   6.728 -0.5432 -1.6255 -0.4932
 7218SOL     OW33289   3.969   3.344  17.069 -0.3662 -0.0269  0.2010
 7218SOL    HW133290   3.899   3.343  17.135 -0.6967 -1.9865 -0.1713
 7218SOL    HW233291   3.962   3.433  17.034 -1.0152 -0.3792 -0.5707
 7219SOL     OW33292   1.543   3.012   2.688  0.0205  0.4541 -0.7835
 7219SOL    HW133293   1.487   3.072   2.738 -2.2846 -1.6867 -0.8258
 7219SOL    HW233294   1.534   2.938   2.748  0.3958  0.1346 -1.1237
 7220SOL     OW33295   1.531   2.746   1.117  0.0699  1.2813 -0.2163
 7220SOL    HW133296   1.538   2.834   1.081 -1.7465  2.0194  1.2257
 7220SOL    HW233297   1.575   2.752   1.202  1.1291 -1.1775 -0.5986
 7221SOL     OW33298   4.685   3.357   8.173 -0.0738 -0.0968  0.1170
 7221SOL    HW133299   0.019   3.326   8.222 -0.9293 -1.8105  0.3736
 7221SOL    HW233300   4.641   3.273   8.158  0.6841 -0.6536  1.0119
 7222SOL     OW33301   4.160   4.467   7.906 -0.5216  0.4212  0.0035
 7222SOL    HW133302   4.247   4.500   7.930  0.2612 -1.4778 -0.2474
 7222SOL    HW233303   4.119   4.433   7.985 -1.3748 -0.2816 -0.7489
 7223SOL     OW33304   1.467   1.529   2.659 -0.1926  0.1961  0.4412
 7223SOL    HW133305   1.412   1.586   2.605 -2.9297 -3.2267 -0.3637
 7223SOL    HW233306   1.413   1.452   2.674  1.3741 -1.2944 -1.6030
 7224SOL     OW33307   4.038   2.807   2.425  0.1039  0.0042  0.7936
 7224SOL    HW133308   3.969   2.808   2.490  0.6225 -0.7979  1.3567
 7224SOL    HW233309   4.047   2.712   2.425 -0.9794 -0.0966  1.6831
 7225SOL     OW33310   2.309   4.247   2.463 -0.0549  0.0479  0.2777
 7225SOL    HW133311   2.260   4.320   2.424  1.1563  0.9843  0.5075
 7225SOL    HW233312   2.259   4.172   2.430 -0.9763  0.2172  1.2655
 7226SOL     OW33313   1.901   4.259  12.481 -0.7251 -0.4494 -0.9168
 7226SOL    HW133314   1.958   4.283  12.554 -2.4979 -1.5294  0.8098
 7226SOL    HW233315   1.968   4.256  12.412  0.2226  0.7814 -0.0665
 7227SOL     OW33316   2.207   3.290   1.732 -0.4510 -0.0811  0.0929
 7227SOL    HW133317   2.255   3.245   1.662 -0.0595 -0.5859  0.6821
 7227SOL    HW233318   2.248   3.376   1.736 -0.3636 -0.0637 -1.3290
 7228SOL     OW33319   3.877   3.889   4.498 -0.0630 -0.0254 -0.1208
 7228SOL    HW133320   3.865   3.898   4.593 -0.8087 -1.2604 -0.1022
 7228SOL    HW233321   3.942   3.959   4.487 -1.1001  1.3253  2.1084
 7229SOL     OW33322   1.766   1.138   7.746 -0.4711 -0.2857  0.7214
 7229SOL    HW133323   1.737   1.199   7.814 -0.1537 -0.4655  1.0146
 7229SOL    HW233324   1.687   1.136   7.692  0.6457  1.9387 -0.9897
 7230SOL     OW33325   0.746   0.988   8.897 -0.7025  0.0966 -0.0201
 7230SOL    HW133326   0.715   0.969   8.809 -0.9123 -0.7684  0.2312
 7230SOL    HW233327   0.767   0.899   8.928 -0.8882  0.6091  1.5895
 7231SOL     OW33328   1.986   2.524  16.565 -0.3132 -0.2347 -0.4618
 7231SOL    HW133329   1.935   2.539  16.485 -0.6298  1.9930  0.1457
 7231SOL    HW233330   1.962   2.598  16.622  0.5128 -0.4846  0.1964
 7232SOL     OW33331   1.124   3.813   5.703 -0.3469  0.1551 -0.3971
 7232SOL    HW133332   1.187   3.749   5.671 -0.4685  0.3263 -0.9808
 7232SOL    HW233333   1.045   3.776   5.664 -0.7746  1.0386 -0.3790
 7233SOL     OW33334   3.164   1.291   4.251  0.2088 -0.5463  0.1402
 7233SOL    HW133335   3.121   1.229   4.193  0.0629  1.2957 -1.7298
 7233SOL    HW233336   3.242   1.307   4.198 -0.0787 -1.5986 -0.6022
 7234SOL     OW33337   4.242   1.358  13.420 -0.2228 -0.4368  0.5535
 7234SOL    HW133338   4.276   1.312  13.497  0.5611 -1.6760 -0.5350
 7234SOL    HW233339   4.239   1.446  13.458 -1.0551  0.2364 -1.0470
 7235SOL     OW33340   4.620   1.953   3.905  0.3060  0.0189  0.0153
 7235SOL    HW133341   4.713   1.974   3.899  0.2327 -0.4763 -2.7226
 7235SOL    HW233342   4.606   1.883   3.842 -0.2440 -0.1954  0.3778
 7236SOL     OW33343   3.359   3.483   5.895  0.2872 -0.1220 -0.1885
 7236SOL    HW133344   3.407   3.419   5.842  0.3058 -1.0219  0.8955
 7236SOL    HW233345   3.396   3.470   5.983 -0.3620  1.6013  0.3327
 7237SOL     OW33346   2.549   0.321   1.245  0.9092  0.0830  0.2762
 7237SOL    HW133347   2.508   0.237   1.265  0.6610  0.3074  0.7190
 7237SOL    HW233348   2.638   0.319   1.280  0.7857  1.9761  0.7038
 7238SOL     OW33349   2.594   4.275   0.634  0.0773 -0.0244 -0.3838
 7238SOL    HW133350   2.511   4.279   0.587  0.3754 -1.2533 -1.0051
 7238SOL    HW233351   2.613   4.183   0.652  1.2548  0.1899 -0.4988
 7239SOL     OW33352   0.363   3.367   1.549  0.2246 -0.5933 -0.2667
 7239SOL    HW133353   0.289   3.426   1.539 -0.3981 -1.5035 -1.0625
 7239SOL    HW233354   0.405   3.408   1.624 -1.7273  0.8434  0.0387
 7240SOL     OW33355   0.757   4.082   8.489  0.2924 -0.0250 -0.9591
 7240SOL    HW133356   0.701   4.026   8.543  0.6007  0.2813 -0.3181
 7240SOL    HW233357   0.766   4.167   8.532  0.0696  0.0980 -1.1549
 7241SOL     OW33358   2.092   0.573   5.847 -0.2873 -0.5056 -0.3089
 7241SOL    HW133359   2.120   0.612   5.765  1.5915  0.2358  0.6847
 7241SOL    HW233360   2.182   0.564   5.880  0.2504  2.2557 -0.9754
 7242SOL     OW33361   3.523   3.013  14.951 -0.0840  0.3386 -0.5200
 7242SOL    HW133362   3.519   2.944  15.017 -0.3889  0.8592  0.0076
 7242SOL    HW233363   3.558   3.088  15.000  0.0596 -0.6166  0.8269
 7243SOL     OW33364   0.677   0.198  13.525  0.2521 -0.3591  0.4666
 7243SOL    HW133365   0.610   0.253  13.484  0.2879 -1.2362 -0.7608
 7243SOL    HW233366   0.660   0.226  13.615  0.6958  1.7983 -0.1106
 7244SOL     OW33367   0.931   0.563   2.339 -0.0977  0.3682  0.6091
 7244SOL    HW133368   0.921   0.565   2.434 -1.5300  1.7416  0.4337
 7244SOL    HW233369   0.984   0.643   2.339 -0.4195  0.5894  2.3086
 7245SOL     OW33370   3.301   3.991   8.294  0.0970  0.4638 -0.4166
 7245SOL    HW133371   3.245   4.018   8.221 -1.0996  3.5222  1.5979
 7245SOL    HW233372   3.277   4.051   8.365 -0.7883 -0.1869 -0.1655
 7246SOL     OW33373   2.916   2.553   4.204 -0.7379 -0.2185  0.2799
 7246SOL    HW133374   2.874   2.507   4.276 -1.7859  0.0592 -0.1498
 7246SOL    HW233375   2.987   2.595   4.253  3.0535 -2.5195 -3.2598
 7247SOL     OW33376   1.408   4.721   1.695 -0.5374 -0.3476 -0.0631
 7247SOL    HW133377   1.328   0.021   1.664  0.1574  0.0958 -1.2535
 7247SOL    HW233378   1.444   4.675   1.619  0.1902  0.7641 -0.3851
 7248SOL     OW33379   1.446   2.717   8.819  0.0882  0.2622  0.0564
 7248SOL    HW133380   1.384   2.668   8.765  3.4490 -0.7727 -2.8214
 7248SOL    HW233381   1.397   2.799   8.826  0.2502  0.2877  0.9476
 7249SOL     OW33382   1.816   3.705   7.286  0.0966  0.1527  0.3541
 7249SOL    HW133383   1.756   3.720   7.360 -2.0786 -0.0445 -1.3573
 7249SOL    HW233384   1.764   3.638   7.241 -0.5634  0.5763  0.4892
 7250SOL     OW33385   2.192   0.137   8.968  0.0192 -0.1010 -0.1399
 7250SOL    HW133386   2.128   0.068   8.956 -1.8755  1.9182 -1.7126
 7250SOL    HW233387   2.171   0.182   8.886 -0.3021 -0.3208 -0.1760
 7251SOL     OW33388   0.729   2.733  16.748 -0.0104  0.1055  0.1184
 7251SOL    HW133389   0.822   2.740  16.723 -0.9986 -1.2075 -3.9079
 7251SOL    HW233390   0.700   2.794  16.680 -2.2308 -2.4124 -1.1563
 7252SOL     OW33391   4.019   3.145   4.931 -0.4184  0.2067 -0.6194
 7252SOL    HW133392   3.981   3.213   4.986  0.7798  0.7029 -0.4214
 7252SOL    HW233393   4.110   3.140   4.961 -0.6997  0.8308  0.3178
 7253SOL     OW33394   3.261   3.747  13.304 -0.0018  0.2775  0.2009
 7253SOL    HW133395   3.238   3.794  13.384 -1.6395 -1.2399  0.6268
 7253SOL    HW233396   3.203   3.800  13.248 -0.5253  0.6141  1.0633
 7254SOL     OW33397   0.632   0.918   6.185 -0.6842 -0.4198  0.6013
 7254SOL    HW133398   0.711   0.948   6.140 -1.3703  1.4440  0.6171
 7254SOL    HW233399   0.665   0.888   6.269  0.4826 -2.3376 -0.5498
 7255SOL     OW33400   0.353   4.220   6.308  0.1654  0.3863  0.1170
 7255SOL    HW133401   0.312   4.295   6.352  1.4947 -1.5434  4.5958
 7255SOL    HW233402   0.281   4.200   6.247  0.7715 -0.4662 -0.3132
 7256SOL     OW33403   1.964   0.071   7.516 -0.3037  0.0442  0.1323
 7256SOL    HW133404   1.897   0.065   7.585  0.5441  0.7626  1.0202
 7256SOL    HW233405   1.993   0.159   7.538 -0.3083 -0.1364  0.8931
 7257SOL     OW33406   0.776   2.119   8.600 -0.0880 -0.3812  0.3021
 7257SOL    HW133407   0.853   2.101   8.547 -2.4125 -1.3767 -2.6863
 7257SOL    HW233408   0.710   2.072   8.549  0.3508  1.1449 -1.6678
 7258SOL     OW33409   4.019   4.299  17.229  0.0423 -0.4842  0.1692
 7258SOL    HW133410   4.081   4.328  17.163 -0.0698 -1.0753 -0.1945
 7258SOL    HW233411   3.943   4.342  17.189  1.5213  0.4480 -1.6452
 7259SOL     OW33412   4.403   3.297   1.859  0.2644 -0.5235 -0.0651
 7259SOL    HW133413   4.424   3.245   1.937 -1.3462  2.8720  2.6523
 7259SOL    HW233414   4.471   3.265   1.799  1.2336  0.5576  0.4562
 7260SOL     OW33415   4.090   3.386   1.344 -0.6776  0.0470  0.1616
 7260SOL    HW133416   4.007   3.367   1.299 -1.3031  1.3861  0.7538
 7260SOL    HW233417   4.145   3.310   1.325  0.0986  0.5997  0.2193
 7261SOL     OW33418   0.264   2.238   4.894  0.1468  0.2425 -0.0990
 7261SOL    HW133419   0.297   2.323   4.924  0.4194  0.5622 -1.2761
 7261SOL    HW233420   0.284   2.183   4.970  1.9552  0.1876 -0.5984
 7262SOL     OW33421   1.263   0.203   0.045 -0.2166  0.1609 -0.2893
 7262SOL    HW133422   1.208   0.257  17.755 -0.6283  2.6482  2.5218
 7262SOL    HW233423   1.198   0.148   0.088  0.0240 -0.1958 -0.3767
 7263SOL     OW33424   2.489   3.471  11.808 -0.1021  0.3350  0.4024
 7263SOL    HW133425   2.472   3.453  11.716  1.9780  1.2289 -0.1464
 7263SOL    HW233426   2.584   3.468  11.812  0.0028  1.5534 -1.3532
 7264SOL     OW33427   0.162   2.883   7.039  0.0316  0.0737 -0.2598
 7264SOL    HW133428   0.149   2.829   7.117 -0.4461  0.1795 -0.2677
 7264SOL    HW233429   0.184   2.967   7.079 -0.7554  0.0025  0.3301
 7265SOL     OW33430   2.313   4.199   2.040 -0.0935 -0.1819  0.5912
 7265SOL    HW133431   2.342   4.205   1.949 -0.5845 -1.1237  0.3717
 7265SOL    HW233432   2.398   4.179   2.079  0.5960  1.6899  0.0408
 7266SOL     OW33433   2.876   1.977   3.423  0.2388 -0.3392 -0.0599
 7266SOL    HW133434   2.907   1.889   3.442  1.0580 -0.3307 -1.4334
 7266SOL    HW233435   2.790   1.957   3.385 -1.1214 -0.0126  2.7951
 7267SOL     OW33436   2.073   0.831   7.112  0.8213  0.1989 -0.6241
 7267SOL    HW133437   2.097   0.741   7.091  0.0308  0.2720 -1.8650
 7267SOL    HW233438   2.109   0.876   7.035 -2.6824  2.4150 -0.9740
 7268SOL     OW33439   3.053   3.354   4.533  0.1668 -1.0941 -0.1222
 7268SOL    HW133440   3.012   3.289   4.590  2.0594 -0.7530  1.6378
 7268SOL    HW233441   3.071   3.299   4.456  0.6704  0.0098 -0.7990
 7269SOL     OW33442   2.192   2.154   5.532  0.3233 -0.1050  0.2202
 7269SOL    HW133443   2.259   2.211   5.494 -0.7931  0.7176 -0.5207
 7269SOL    HW233444   2.215   2.073   5.486 -1.7543 -0.0547 -0.9497
 7270SOL     OW33445   3.288   4.357   8.982  0.4068 -0.3505 -0.4223
 7270SOL    HW133446   3.305   4.431   9.040  1.1470 -2.4835  2.0804
 7270SOL    HW233447   3.357   4.301   9.018 -0.4641 -1.0437  0.2117
 7271SOL     OW33448   2.939   1.168   4.722 -0.1653 -0.6009 -0.6314
 7271SOL    HW133449   2.989   1.142   4.799  0.3509  0.5737 -0.5717
 7271SOL    HW233450   3.002   1.161   4.650  0.5986  0.7283 -0.0998
 7272SOL     OW33451   1.528   3.764   9.520 -0.4192 -0.0796  0.2105
 7272SOL    HW133452   1.554   3.682   9.560 -0.8943 -0.0699  0.5422
 7272SOL    HW233453   1.459   3.797   9.578 -1.4339 -0.8812 -0.5332
 7273SOL     OW33454   0.257   2.806  13.950 -0.1555 -0.1555  0.7300
 7273SOL    HW133455   0.261   2.884  13.895  1.4883 -1.7737 -1.4306
 7273SOL    HW233456   0.205   2.747  13.895  0.8879 -0.1665 -0.2406
 7274SOL     OW33457   0.684   3.293   1.892  0.0474 -0.0197  0.1923
 7274SOL    HW133458   0.650   3.265   1.976 -0.9281  1.0477  0.1541
 7274SOL    HW233459   0.707   3.208   1.856  1.5798  0.7423 -0.6311
 7275SOL     OW33460   4.582   0.120  15.963 -0.1924  0.0015  0.9609
 7275SOL    HW133461   4.622   0.050  16.016  1.7558  0.6205  0.3143
 7275SOL    HW233462   4.591   0.191  16.026  2.1158  0.0728  0.5622
 7276SOL     OW33463   1.590   3.922  15.977 -0.0316 -0.1787  0.6066
 7276SOL    HW133464   1.641   3.986  15.928 -1.6037  1.0397  0.5437
 7276SOL    HW233465   1.651   3.866  16.025 -0.9120  0.4652  2.4804
 7277SOL     OW33466   1.184   0.417   7.851  0.4198 -0.3131  0.4513
 7277SOL    HW133467   1.241   0.427   7.927  0.0137  1.5018  0.5145
 7277SOL    HW233468   1.225   0.486   7.799 -1.4471  0.7019  0.3404
 7278SOL     OW33469   1.447   1.014   4.445 -0.1814  0.1826  0.0547
 7278SOL    HW133470   1.501   0.994   4.369  0.2514  0.5621  0.2611
 7278SOL    HW233471   1.479   1.103   4.461  1.6003 -0.5744  0.6043
 7279SOL     OW33472   1.253   1.644   3.834 -0.1607  0.2280 -0.3226
 7279SOL    HW133473   1.309   1.673   3.762 -0.8698 -1.2568 -1.4762
 7279SOL    HW233474   1.195   1.719   3.835  2.5112  2.3118 -1.3564
 7280SOL     OW33475   1.424   4.666   2.097  0.0351  0.1333 -0.1712
 7280SOL    HW133476   1.353   4.645   2.037 -0.7935  0.9137  0.5399
 7280SOL    HW233477   1.490   4.617   2.046  1.5533  1.7436  0.2264
 7281SOL     OW33478   1.783   3.718  11.563  0.0667 -1.0274 -0.3429
 7281SOL    HW133479   1.780   3.711  11.658 -1.0161  1.2422 -0.2022
 7281SOL    HW233480   1.814   3.809  11.562  0.6462 -1.2418 -1.4942
 7282SOL     OW33481   3.262   3.342   2.154  0.0188 -0.1813  0.4619
 7282SOL    HW133482   3.297   3.331   2.065  1.7373  0.4721  1.0662
 7282SOL    HW233483   3.175   3.304   2.144  0.2678 -1.1668  2.0985
 7283SOL     OW33484   2.455   0.151   7.364 -0.7390  0.0634 -0.4262
 7283SOL    HW133485   2.468   0.145   7.269 -2.5406 -2.4366 -0.5319
 7283SOL    HW233486   2.386   0.217   7.375 -0.7266  0.1218 -0.6969
 7284SOL     OW33487   0.124   4.354   2.641 -0.1286 -0.4825 -0.2995
 7284SOL    HW133488   0.121   4.284   2.576 -4.0786 -2.5897  2.1469
 7284SOL    HW233489   0.029   4.364   2.653 -0.3136  0.0921 -2.2509
 7285SOL     OW33490   3.355   2.758   7.841  0.3615  0.2457 -0.2332
 7285SOL    HW133491   3.401   2.836   7.870  0.0671  0.4141 -0.2172
 7285SOL    HW233492   3.431   2.708   7.813 -0.0904 -0.3039 -0.5025
 7286SOL     OW33493   4.055   2.430   1.373  0.0280 -0.4139 -0.4334
 7286SOL    HW133494   4.081   2.389   1.291  2.1982 -1.0731  0.5835
 7286SOL    HW233495   4.145   2.450   1.397 -0.4591 -0.3080  1.3213
 7287SOL     OW33496   0.398   3.311   8.661  0.1988 -0.0088  0.1485
 7287SOL    HW133497   0.378   3.400   8.632  1.6847 -0.1501 -1.3443
 7287SOL    HW233498   0.381   3.270   8.576 -1.9800  0.9778  0.1135
 7288SOL     OW33499   1.431   1.208   6.429 -0.4260 -0.0674  0.5408
 7288SOL    HW133500   1.358   1.195   6.368  0.1271  0.2528 -0.1895
 7288SOL    HW233501   1.446   1.302   6.433  0.2196 -0.1306 -0.2692
 7289SOL     OW33502   3.090   1.802   5.652  0.0321 -0.7312 -0.4896
 7289SOL    HW133503   3.037   1.727   5.626 -0.2508 -0.4204 -0.8098
 7289SOL    HW233504   3.146   1.819   5.576 -1.7531  2.3222 -1.1306
 7290SOL     OW33505   2.237   0.478  13.075 -0.5767 -0.0812  0.0436
 7290SOL    HW133506   2.180   0.402  13.061 -0.6759 -0.3445  2.0103
 7290SOL    HW233507   2.248   0.495  12.981  0.6906  0.3340  0.2810
 7291SOL     OW33508   0.232   1.713   6.701  0.1340 -0.2304  0.5555
 7291SOL    HW133509   0.179   1.654   6.648  2.0421  0.1609 -1.7995
 7291SOL    HW233510   0.247   1.788   6.644 -1.5652 -0.2022  0.1695
 7292SOL     OW33511   4.368   0.068  13.746 -0.1576  0.2497 -0.6395
 7292SOL    HW133512   4.408   0.072  13.660  0.7105  0.7619 -0.2138
 7292SOL    HW233513   4.285   0.109  13.721  0.0875  0.0327 -1.7962
 7293SOL     OW33514   1.327   3.386  15.399  0.6106 -0.1412  0.1862
 7293SOL    HW133515   1.314   3.457  15.336  3.1824 -0.8434 -1.1582
 7293SOL    HW233516   1.240   3.347  15.402  0.1248  0.8898 -0.4458
 7294SOL     OW33517   1.958   0.110   3.195 -0.2083 -0.5619  0.2891
 7294SOL    HW133518   2.019   0.049   3.153  0.7456  0.1886  0.5879
 7294SOL    HW233519   1.943   0.078   3.284 -1.7413 -1.9157 -0.4537
 7295SOL     OW33520   2.538   3.572  12.862 -0.1975 -0.8080 -0.0603
 7295SOL    HW133521   2.602   3.573  12.792 -1.4150 -1.9269 -1.1937
 7295SOL    HW233522   2.483   3.497  12.836 -2.2479  0.3274  0.9514
 7296SOL     OW33523   0.447   1.752  14.971  0.7158  0.3748  0.0933
 7296SOL    HW133524   0.454   1.843  14.998 -1.4519  0.5029  0.2202
 7296SOL    HW233525   0.358   1.728  14.998  0.0291  0.0014 -2.4790
 7297SOL     OW33526   2.335   4.655   7.412  0.0861  0.1039  0.2004
 7297SOL    HW133527   2.396   4.583   7.433 -0.2000  0.0359  0.7930
 7297SOL    HW233528   2.391   4.730   7.396 -0.1703 -0.2178 -2.1361
 7298SOL     OW33529   2.452   1.242  11.051  0.2441 -0.6553  0.0994
 7298SOL    HW133530   2.475   1.175  11.115  0.0619  0.6595  1.5642
 7298SOL    HW233531   2.522   1.223  10.988  1.1064  1.5872  0.3458
 7299SOL     OW33532   1.211   0.939   4.289 -0.0012  0.2347 -0.8253
 7299SOL    HW133533   1.272   0.986   4.346  1.0868 -0.0410 -1.7626
 7299SOL    HW233534   1.241   0.981   4.208  1.6614  3.0990  1.2794
 7300SOL     OW33535   0.139   2.375   7.976  0.1256  0.0551 -0.3495
 7300SOL    HW133536   0.225   2.410   7.953 -0.3557  2.6595  1.7974
 7300SOL    HW233537   0.093   2.457   7.996  0.2151 -0.1770  0.7983
 7301SOL     OW33538   1.968   0.614   7.816  0.1427  0.1722  0.5032
 7301SOL    HW133539   1.954   0.520   7.808  3.7306 -0.2787 -0.2296
 7301SOL    HW233540   1.927   0.633   7.901 -1.1466  1.3075 -0.3612
 7302SOL     OW33541   1.356   1.503   7.306  0.6346  0.5641 -0.1648
 7302SOL    HW133542   1.326   1.533   7.221  1.6211  1.2673 -0.2679
 7302SOL    HW233543   1.401   1.586   7.324  0.5122  0.5080  0.4015
 7303SOL     OW33544   3.557   2.383   4.651 -0.3734  0.3270  0.6380
 7303SOL    HW133545   3.474   2.384   4.699  0.1811  1.3125  1.5712
 7303SOL    HW233546   3.627   2.335   4.694  1.7680  0.3947 -2.7569
 7304SOL     OW33547   0.152   2.055   2.642 -0.0010 -0.2716  0.3267
 7304SOL    HW133548   0.223   1.995   2.618 -0.8527  0.0051 -2.9829
 7304SOL    HW233549   0.154   2.115   2.567  1.3390 -1.4307 -0.5731
 7305SOL     OW33550   2.769   1.923   7.049  0.6122  0.4186  0.2637
 7305SOL    HW133551   2.751   1.937   6.956  0.6443  0.8443  0.3204
 7305SOL    HW233552   2.835   1.854   7.059  0.3020 -0.0851 -1.1619
 7306SOL     OW33553   2.107   4.247   5.410  0.3353 -0.2856  0.6146
 7306SOL    HW133554   2.130   4.193   5.334  0.3360 -0.9522  1.0849
 7306SOL    HW233555   2.158   4.327   5.401 -0.7101  0.2109 -0.8941
 7307SOL     OW33556   4.741   0.079   4.708 -0.1448  0.0851 -0.4130
 7307SOL    HW133557   4.698   0.003   4.749  4.0104 -1.4542  1.0496
 7307SOL    HW233558   0.057   0.117   4.773  0.3961  1.1225 -1.5156
 7308SOL     OW33559   0.779   0.200   9.192  0.2440  0.1616  0.6493
 7308SOL    HW133560   0.751   0.287   9.222 -1.2687  0.0495 -0.4534
 7308SOL    HW233561   0.766   0.162   9.279  3.4203 -0.0111  1.0498
 7309SOL     OW33562   4.206   1.422   4.394  0.0662  0.1385 -0.2340
 7309SOL    HW133563   4.187   1.387   4.307  1.6651 -0.8503 -0.1780
 7309SOL    HW233564   4.298   1.442   4.381  0.0325  0.6960  0.4034
 7310SOL     OW33565   0.890   2.697  12.011 -0.3817  0.0242 -0.4855
 7310SOL    HW133566   0.828   2.692  11.938 -0.7238 -1.5234 -0.0784
 7310SOL    HW233567   0.843   2.652  12.080 -0.2258 -0.7482 -0.8883
 7311SOL     OW33568   2.962   3.404   7.134  0.2506  0.3698 -0.2810
 7311SOL    HW133569   2.924   3.377   7.218 -1.0787  0.1603 -0.9451
 7311SOL    HW233570   3.008   3.321   7.119  0.2107  0.2907  0.0372
 7312SOL     OW33571   3.413   1.954  12.541 -0.1231 -0.8777 -0.2738
 7312SOL    HW133572   3.392   1.895  12.613 -0.9519  0.8717  0.9176
 7312SOL    HW233573   3.420   2.042  12.579  1.1363 -0.9117 -0.4356
 7313SOL     OW33574   1.148   0.964  13.916 -0.2800 -0.9114 -0.3948
 7313SOL    HW133575   1.240   0.989  13.925 -1.0661  1.2079  1.9300
 7313SOL    HW233576   1.166   0.871  13.903 -0.0718 -0.9400  0.1349
 7314SOL     OW33577   3.196   0.818   2.121  0.7552 -0.5397  0.2147
 7314SOL    HW133578   3.206   0.889   2.183  0.8861 -1.2097  0.9568
 7314SOL    HW233579   3.106   0.835   2.093  1.1113  1.5739  0.3749
 7315SOL     OW33580   0.267   3.397   7.972  0.3899  0.3758 -0.0091
 7315SOL    HW133581   0.263   3.488   7.946  1.1330  0.8788  1.6330
 7315SOL    HW233582   0.293   3.370   7.884  0.2129  1.2313 -0.3220
 7316SOL     OW33583   2.092   1.822  12.944  0.3188  1.0950 -0.9356
 7316SOL    HW133584   2.147   1.752  12.909  0.9376  0.3823  1.4618
 7316SOL    HW233585   2.163   1.881  12.971  2.1283 -1.3566 -0.3688
 7317SOL     OW33586   2.876   0.186   2.045 -0.4701  0.0154 -0.7792
 7317SOL    HW133587   2.824   0.139   1.980 -0.7775  0.4447 -0.8433
 7317SOL    HW233588   2.861   0.278   2.026 -1.3330 -0.0186 -0.2639
 7318SOL     OW33589   3.652   2.058   5.665  0.1676  1.3131 -0.3795
 7318SOL    HW133590   3.591   2.010   5.721  2.7165 -0.9658  0.4351
 7318SOL    HW233591   3.739   2.041   5.699  0.2389  2.5471  0.0640
 7319SOL     OW33592   0.011   2.897   4.971  0.2047  0.2787  0.4287
 7319SOL    HW133593   0.046   2.974   5.016  0.2768 -0.3760  1.4944
 7319SOL    HW233594   4.676   2.941   4.937  0.7451 -0.1754 -1.3994
 7320SOL     OW33595   3.809   2.719   3.726  0.0814  0.3788 -0.1886
 7320SOL    HW133596   3.785   2.771   3.802  1.9750  2.6222 -1.1622
 7320SOL    HW233597   3.888   2.764   3.698  1.4918 -2.9577 -1.5459
 7321SOL     OW33598   3.086   4.391   7.873 -0.1077 -0.1918 -0.3684
 7321SOL    HW133599   2.999   4.352   7.862 -1.1280  1.9042  0.2655
 7321SOL    HW233600   3.066   4.433   7.957 -0.1409  0.2293 -0.5870
 7322SOL     OW33601   2.055   0.603   8.289 -0.1235 -0.4987 -0.2365
 7322SOL    HW133602   2.020   0.538   8.350 -0.5704  0.3003  0.3771
 7322SOL    HW233603   2.102   0.661   8.349  0.1635 -0.7916 -0.1806
 7323SOL     OW33604   1.153   1.611   6.340 -0.0890 -0.0119 -0.0918
 7323SOL    HW133605   1.170   1.692   6.292  1.0551  0.0654  0.4423
 7323SOL    HW233606   1.139   1.546   6.271 -0.4738  0.2057 -0.2221
 7324SOL     OW33607   3.603   3.839   1.689  0.3951 -0.1831  0.1930
 7324SOL    HW133608   3.699   3.839   1.691  0.4400  1.3225 -1.5403
 7324SOL    HW233609   3.578   3.810   1.777 -2.3291  1.4312 -0.0529
 7325SOL     OW33610   0.279   2.325  14.563  0.6642 -0.2260  0.1420
 7325SOL    HW133611   0.269   2.230  14.568  1.3507 -0.2720  0.5832
 7325SOL    HW233612   0.212   2.344  14.497  1.6423  2.7488  0.0476
 7326SOL     OW33613   0.177   4.099  15.505 -0.2193  0.3171  0.4027
 7326SOL    HW133614   0.210   4.159  15.438 -1.7901  1.0176  0.2394
 7326SOL    HW233615   0.187   4.158  15.579 -0.2392 -1.0249  1.4654
 7327SOL     OW33616   0.592   4.110   5.279  0.1821 -0.4786 -0.0185
 7327SOL    HW133617   0.685   4.100   5.300  0.3636 -0.0657 -0.6147
 7327SOL    HW233618   0.574   4.203   5.266 -2.8003 -0.5633  3.5196
 7328SOL     OW33619   1.884   2.560  14.785 -0.1209  0.1223  0.4067
 7328SOL    HW133620   1.893   2.640  14.838 -0.4804  0.5055 -0.1059
 7328SOL    HW233621   1.812   2.524  14.837  0.0479  0.3870  0.8276
 7329SOL     OW33622   4.331   2.668   1.840 -0.1878 -0.2282 -0.0294
 7329SOL    HW133623   4.274   2.711   1.776 -0.5939 -0.4402  0.1917
 7329SOL    HW233624   4.377   2.607   1.782  0.7583 -1.1343  1.6908
 7330SOL     OW33625   2.311   0.572  13.321  0.0334  0.4798 -0.2738
 7330SOL    HW133626   2.277   0.550  13.234  1.9469  0.0052 -0.8876
 7330SOL    HW233627   2.265   0.655  13.334 -1.1768  0.1858 -2.6863
 7331SOL     OW33628   0.108   1.126   6.642 -0.2510 -0.3341 -0.1604
 7331SOL    HW133629   0.134   1.111   6.733  0.9895 -3.2422 -0.9824
 7331SOL    HW233630   0.193   1.126   6.598 -1.2232 -1.5777 -2.0677
 7332SOL     OW33631   4.683   1.916   9.076  0.1664  0.6078  0.3380
 7332SOL    HW133632   4.678   1.962   8.992 -1.6417  0.6137  0.4439
 7332SOL    HW233633   4.666   1.824   9.056 -0.6624  0.9947 -0.7767
 7333SOL     OW33634   0.030   3.248   7.618 -0.3627  0.1364 -0.0970
 7333SOL    HW133635   0.030   3.335   7.578 -0.0573 -0.2153 -0.8596
 7333SOL    HW233636   4.710   3.263   7.689 -0.6298  2.9149 -0.9158
 7334SOL     OW33637   0.748   4.337   5.383 -0.2809  0.3997  0.3811
 7334SOL    HW133638   0.783   4.251   5.408  0.0300  0.8196  1.3826
 7334SOL    HW233639   0.801   4.395   5.437  0.8934  0.1650 -0.4990
 7335SOL     OW33640   0.210   1.700  15.161  0.0029 -0.0266  0.1167
 7335SOL    HW133641   0.149   1.671  15.093  1.9402  1.7162 -2.3747
 7335SOL    HW233642   0.181   1.657  15.241  1.3865  0.9196  1.1284
 7336SOL     OW33643   3.629   0.611   4.948  0.0254  0.1606  0.0771
 7336SOL    HW133644   3.636   0.667   4.871  0.3129  0.2749  0.1881
 7336SOL    HW233645   3.602   0.679   5.010 -0.9865  0.4365 -0.6664
 7337SOL     OW33646   2.371   0.042   9.505 -0.0429  0.8880 -0.0717
 7337SOL    HW133647   2.436   4.718   9.527 -1.4303  0.3829  2.5573
 7337SOL    HW233648   2.363   0.018   9.413 -0.9144  3.6333 -0.7159
 7338SOL     OW33649   3.627   0.009   6.056  0.0238  0.4884  0.1407
 7338SOL    HW133650   3.681   4.730   6.133  0.9869 -0.7127 -0.8640
 7338SOL    HW233651   3.704   0.024   6.000 -0.6913 -1.8037 -1.4331
 7339SOL     OW33652   2.636   1.411   3.173  0.3869 -0.1208  0.2734
 7339SOL    HW133653   2.644   1.473   3.101  1.1140 -0.2048  0.2762
 7339SOL    HW233654   2.729   1.419   3.196  0.1595  0.3298  1.0057
 7340SOL     OW33655   4.609   4.467   0.956  0.4228 -0.1737  0.0549
 7340SOL    HW133656   4.628   4.397   0.893  2.3287 -0.7344  1.2594
 7340SOL    HW233657   4.699   4.471   0.989 -0.1348 -0.4646  1.6164
 7341SOL     OW33658   3.755   0.379   5.282  0.0333 -0.6025  0.4026
 7341SOL    HW133659   3.696   0.358   5.209  0.8480  0.7606 -0.6380
 7341SOL    HW233660   3.829   0.325   5.256  0.8102  0.3632  0.6335
 7342SOL     OW33661   0.825   2.765   6.432 -0.4667  0.3310  0.5732
 7342SOL    HW133662   0.773   2.843   6.412  0.1306  0.0264 -2.1026
 7342SOL    HW233663   0.860   2.728   6.351 -1.1019  0.7125  0.1255
 7343SOL     OW33664   1.714   2.003   1.240 -0.1567 -0.1770 -0.3608
 7343SOL    HW133665   1.650   1.956   1.186  0.7653  0.2372 -1.8311
 7343SOL    HW233666   1.730   1.935   1.304 -1.2441 -0.3842 -0.2989
 7344SOL     OW33667   3.501   3.470  13.875 -0.3343 -0.0895 -0.8455
 7344SOL    HW133668   3.532   3.476  13.784 -1.4553  0.4222 -1.2045
 7344SOL    HW233669   3.515   3.562  13.898  1.5338 -0.3290 -1.0812
 7345SOL     OW33670   4.003   3.450   2.509 -0.3738  0.1397 -0.0206
 7345SOL    HW133671   4.091   3.473   2.480  0.9005 -2.3638  1.8211
 7345SOL    HW233672   3.984   3.496   2.591  3.9514  2.1525 -0.1709
 7346SOL     OW33673   3.657   2.302   9.157 -0.3340  0.3298 -0.5356
 7346SOL    HW133674   3.734   2.284   9.104  0.2727  0.4313  0.3179
 7346SOL    HW233675   3.605   2.362   9.104 -0.9975  1.7747  1.7371
 7347SOL     OW33676   2.178   4.608   4.701  1.0899 -0.2916  0.4034
 7347SOL    HW133677   2.231   4.624   4.779 -0.6938 -0.0012  1.5748
 7347SOL    HW233678   2.215   4.680   4.650 -1.1406  0.0555 -0.7321
 7348SOL     OW33679   2.313   2.990   0.506 -0.4141 -0.0783  0.4388
 7348SOL    HW133680   2.317   3.056   0.437  0.0010  0.5838  1.0939
 7348SOL    HW233681   2.403   2.960   0.515 -0.3144  0.4017  1.0238
 7349SOL     OW33682   2.994   4.671   1.282 -0.0420  0.8273  0.1974
 7349SOL    HW133683   3.009   4.676   1.187 -0.4211 -4.3009 -0.0936
 7349SOL    HW233684   3.079   4.702   1.314  0.3761  0.3732 -0.4790
 7350SOL     OW33685   0.464   1.108   8.434 -0.1759 -0.2342 -0.3599
 7350SOL    HW133686   0.521   1.112   8.357  1.0939 -2.2784  0.4750
 7350SOL    HW233687   0.385   1.156   8.407 -1.2848 -1.2239  1.1483
 7351SOL     OW33688   3.323   2.765   1.843  0.5816  0.2257  0.1592
 7351SOL    HW133689   3.282   2.680   1.860 -0.5536  0.3168 -2.2515
 7351SOL    HW233690   3.406   2.744   1.801  1.2117 -1.2366  2.1270
 7352SOL     OW33691   2.099   0.895   2.070  0.6759  0.2893  0.9707
 7352SOL    HW133692   2.126   0.980   2.037  0.2762 -0.0762 -0.2934
 7352SOL    HW233693   2.116   0.843   1.991 -1.8283  0.6238  0.2323
 7353SOL     OW33694   3.259   0.636  12.647 -0.1331 -0.5623  0.0752
 7353SOL    HW133695   3.354   0.640  12.653 -0.2704  1.3084  1.1199
 7353SOL    HW233696   3.243   0.718  12.693  1.0289  0.4850 -1.3934
 7354SOL     OW33697   2.106   0.184   0.666 -0.3824 -0.3722 -0.1081
 7354SOL    HW133698   2.047   0.205   0.593  1.4817  0.5564 -1.3487
 7354SOL    HW233699   2.191   0.213   0.633  0.4488 -0.7178  1.7373
 7355SOL     OW33700   0.746   3.996   8.953  0.2784 -0.1076 -0.0562
 7355SOL    HW133701   0.837   4.019   8.936  0.0326  0.7925 -0.1361
 7355SOL    HW233702   0.749   3.983   9.048  1.2519 -1.1582 -0.2324
 7356SOL     OW33703   0.666   3.869  17.597 -0.4024  0.4740 -0.3707
 7356SOL    HW133704   0.742   3.927  17.607 -0.8151  0.8412  0.6311
 7356SOL    HW233705   0.603   3.937  17.575 -0.8771  0.0259 -0.4008
 7357SOL     OW33706   3.559   3.419   4.838 -1.0981  0.3956  0.3204
 7357SOL    HW133707   3.650   3.444   4.859 -1.0098  0.2966  0.0547
 7357SOL    HW233708   3.579   3.406   4.745  0.5134 -0.0734  0.7217
 7358SOL     OW33709   0.976   3.919   0.537 -0.0193  0.3253  0.0365
 7358SOL    HW133710   0.984   3.959   0.624  3.0704 -1.7416  0.6964
 7358SOL    HW233711   0.965   3.829   0.568 -1.2034  0.9971  1.5302
 7359SOL     OW33712   1.705   4.247   4.403 -0.4252  0.0001  0.3818
 7359SOL    HW133713   1.773   4.190   4.366 -0.5369 -0.4268  0.8374
 7359SOL    HW233714   1.755   4.325   4.428 -0.9398  0.3005  0.4711
 7360SOL     OW33715   4.439   4.631  12.535  0.1450  0.2016 -0.7575
 7360SOL    HW133716   4.523   4.602  12.571 -1.0672 -1.2430  0.9557
 7360SOL    HW233717   4.393   4.629  12.620 -0.0325 -1.0474 -0.8839
 7361SOL     OW33718   1.077   0.292  16.140 -0.2205 -0.2229 -0.6866
 7361SOL    HW133719   1.076   0.369  16.197 -1.9460 -0.5749 -0.2374
 7361SOL    HW233720   1.163   0.254  16.155 -0.0775  0.0543 -0.8050
 7362SOL     OW33721   2.422   0.909   7.768  0.7413 -0.4926 -0.2151
 7362SOL    HW133722   2.480   0.841   7.734  0.4725  0.0239 -1.7039
 7362SOL    HW233723   2.338   0.869   7.745 -0.8437  2.4072  0.6058
 7363SOL     OW33724   1.655   1.390  14.379  0.5523  0.3331 -0.2679
 7363SOL    HW133725   1.670   1.310  14.328 -0.7626 -0.0181 -0.0967
 7363SOL    HW233726   1.669   1.361  14.469 -2.2629 -0.4926 -0.1152
 7364SOL     OW33727   3.942   2.735   2.885  0.8147  0.1228  0.0508
 7364SOL    HW133728   3.920   2.658   2.832 -0.3214 -0.1471  0.9018
 7364SOL    HW233729   4.024   2.760   2.844  0.6564  3.4514  1.7375
 7365SOL     OW33730   1.853   3.716   4.996 -0.3167 -0.1075  0.4403
 7365SOL    HW133731   1.935   3.694   4.952 -0.0241  0.3811  0.7502
 7365SOL    HW233732   1.827   3.790   4.940 -0.1945  0.1445  0.7182
 7366SOL     OW33733   2.187   1.010  16.487 -0.5380 -0.2242 -0.4062
 7366SOL    HW133734   2.157   1.010  16.396 -1.7332 -3.9317 -0.0036
 7366SOL    HW233735   2.109   0.973  16.528  0.5873 -1.7346  0.3658
 7367SOL     OW33736   1.795   1.607   4.597 -0.3199 -0.1623 -0.2855
 7367SOL    HW133737   1.771   1.530   4.546 -2.0248  1.9338 -2.6450
 7367SOL    HW233738   1.870   1.637   4.546  1.0447  0.4934  2.1297
 7368SOL     OW33739   4.161   2.947   1.457 -0.7012  0.5330 -0.6692
 7368SOL    HW133740   4.161   3.029   1.505 -0.8185  0.1561 -0.0228
 7368SOL    HW233741   4.255   2.932   1.445 -0.8954 -0.7839 -0.5728
 7369SOL     OW33742   4.454   1.521  11.246 -0.3871 -0.2215  0.1409
 7369SOL    HW133743   4.432   1.529  11.339  1.3770 -1.1960  0.6316
 7369SOL    HW233744   4.467   1.613  11.226  3.5003 -0.1007  3.1564
 7370SOL     OW33745   1.561   4.659  12.536 -0.1314  0.2819  0.5977
 7370SOL    HW133746   1.515   4.579  12.508 -1.7750  0.8265  1.7243
 7370SOL    HW233747   1.648   4.620  12.534 -0.9579 -1.6095  0.3532
 7371SOL     OW33748   0.967   4.690   8.171  0.2122  0.2228  0.3045
 7371SOL    HW133749   0.884   4.721   8.135 -0.0881 -0.8009  0.1038
 7371SOL    HW233750   1.021   4.691   8.092 -0.9835 -2.0847 -0.5672
 7372SOL     OW33751   2.087   3.356  12.524  0.1436 -0.5560  0.2727
 7372SOL    HW133752   2.001   3.334  12.559 -0.3481  0.0237 -0.5648
 7372SOL    HW233753   2.143   3.318  12.591 -0.6446  1.2909  1.9961
 7373SOL     OW33754   3.611   1.953   8.903  0.2196 -0.0822 -0.2562
 7373SOL    HW133755   3.537   1.901   8.872 -0.3731  1.0760 -0.7964
 7373SOL    HW233756   3.567   2.038   8.908 -2.4284 -1.4432 -0.9087
 7374SOL     OW33757   3.681   0.490   6.697  0.5780  0.3217  0.1519
 7374SOL    HW133758   3.710   0.573   6.659 -0.5471  0.6311 -0.0425
 7374SOL    HW233759   3.764   0.455   6.728 -0.7363 -1.9644  1.0729
 7375SOL     OW33760   0.821   3.745   2.688  0.0977 -0.5945 -0.0436
 7375SOL    HW133761   0.915   3.730   2.688  0.0104 -1.1465 -1.1998
 7375SOL    HW233762   0.799   3.673   2.747 -3.8461  0.7271  0.0967
 7376SOL     OW33763   4.683   1.755   5.834  0.2886 -0.0623  0.5691
 7376SOL    HW133764   4.734   1.686   5.878  1.3461 -0.2700 -1.0123
 7376SOL    HW233765   0.010   1.794   5.782 -0.4203  0.8976  0.3542
 7377SOL     OW33766   0.509   4.647   2.224  0.3802  0.1489  0.3452
 7377SOL    HW133767   0.449   4.675   2.155 -0.8480 -2.0957  0.4877
 7377SOL    HW233768   0.474   4.706   2.292 -0.2953 -0.1764  0.2763
 7378SOL     OW33769   0.821   2.983   3.222  0.0111  0.0148 -0.1373
 7378SOL    HW133770   0.896   3.042   3.224 -1.2455  1.5964  1.4707
 7378SOL    HW233771   0.832   2.931   3.302 -2.4004  0.1426  0.2988
 7379SOL     OW33772   1.650   4.366  17.268  0.0834 -0.4854  0.1829
 7379SOL    HW133773   1.659   4.374  17.173  0.6866  2.0812  0.4436
 7379SOL    HW233774   1.731   4.319  17.288  0.6547 -0.1791 -1.3861
 7380SOL     OW33775   0.819   0.358  14.701  0.1957  0.5946  0.1753
 7380SOL    HW133776   0.787   0.437  14.744  0.5439  0.0505  1.4519
 7380SOL    HW233777   0.910   0.359  14.731 -0.6113 -2.3190  2.7851
 7381SOL     OW33778   4.694   0.311   3.702  0.0496  0.4996 -0.1617
 7381SOL    HW133779   4.667   0.399   3.727 -1.2558  0.2304 -0.6414
 7381SOL    HW233780   0.042   0.314   3.734 -0.1225 -1.7889  0.5303
 7382SOL     OW33781   1.320   0.203   4.593  0.2768  0.1721 -0.0573
 7382SOL    HW133782   1.257   0.147   4.638  3.3093  0.1226  4.1638
 7382SOL    HW233783   1.299   0.183   4.502  2.0991 -0.8883 -0.2365
 7383SOL     OW33784   0.885   1.781   3.932  0.0361  0.5962 -0.0733
 7383SOL    HW133785   0.945   1.845   3.895 -1.2303  2.0253  0.3504
 7383SOL    HW233786   0.825   1.780   3.858  1.5336  0.7021 -1.2812
 7384SOL     OW33787   1.324   4.725  17.591 -0.1425 -0.4317 -0.2455
 7384SOL    HW133788   1.377   4.694  17.517  0.3887  0.5657 -0.2734
 7384SOL    HW233789   1.349   0.074  17.585 -2.4236  0.1868 -0.4705
 7385SOL     OW33790   3.147   0.917   2.955 -0.1775  0.2333  0.4361
 7385SOL    HW133791   3.191   0.840   2.919 -1.1931 -1.1102  2.0879
 7385SOL    HW233792   3.066   0.908   2.906 -0.4671  4.3779  0.1164
 7386SOL     OW33793   0.205   2.378   2.689  0.5611 -0.2263  0.2320
 7386SOL    HW133794   0.207   2.453   2.630 -1.3165 -0.3623 -0.0108
 7386SOL    HW233795   0.215   2.310   2.624  0.9845  1.3702 -1.3690
 7387SOL     OW33796   3.052   4.603   1.871  0.0845 -0.0597  0.5008
 7387SOL    HW133797   3.115   4.533   1.856 -1.6927 -1.8144  1.2988
 7387SOL    HW233798   3.105   4.680   1.847 -1.0193  0.6196  0.2235
 7388SOL     OW33799   1.174   4.700   7.969 -0.1333  0.5176  0.2085
 7388SOL    HW133800   1.146   0.049   7.978  0.6857  0.7995 -0.0905
 7388SOL    HW233801   1.215   4.683   8.054 -1.1641 -0.8736  0.4130
 7389SOL     OW33802   3.702   0.938   2.137  0.5181  0.2932  0.5726
 7389SOL    HW133803   3.786   0.966   2.172  0.1445  2.1713 -0.0678
 7389SOL    HW233804   3.684   0.878   2.210  1.0668 -2.0894 -1.2483
 7390SOL     OW33805   2.913   3.557   1.815  0.5417 -0.4930  0.0304
 7390SOL    HW133806   2.865   3.492   1.866 -1.1659 -0.1337 -1.1289
 7390SOL    HW233807   2.940   3.621   1.881  3.2281 -0.9843 -0.5627
 7391SOL     OW33808   2.875   3.869   5.500  0.0478  0.2210  0.2322
 7391SOL    HW133809   2.894   3.956   5.465  0.7512 -1.1172 -2.7559
 7391SOL    HW233810   2.836   3.823   5.425 -0.5900  0.5525  0.3576
 7392SOL     OW33811   0.443   2.039   3.294 -0.5460  0.1596  0.5054
 7392SOL    HW133812   0.347   2.038   3.294 -0.5451  0.1062  2.9633
 7392SOL    HW233813   0.455   2.079   3.208 -1.2615  0.3500  0.4898
 7393SOL     OW33814   2.460   2.268   1.457  0.1920 -0.2312  0.1228
 7393SOL    HW133815   2.394   2.222   1.508 -0.8370 -0.6573 -1.5622
 7393SOL    HW233816   2.514   2.202   1.413 -0.0980 -0.0444 -0.5259
 7394SOL     OW33817   0.730   2.927   0.169 -0.4371  0.4551  0.2219
 7394SOL    HW133818   0.668   2.859   0.195 -0.7928  1.3627  1.7625
 7394SOL    HW233819   0.726   2.906   0.076 -1.5952  1.5330  0.0304
 7395SOL     OW33820   1.062   3.607  15.526 -0.6194  0.3114  0.1344
 7395SOL    HW133821   1.077   3.701  15.534 -0.0068  0.2508 -0.3567
 7395SOL    HW233822   1.106   3.588  15.444 -1.0530 -0.8872  0.1790
 7396SOL     OW33823   3.476   0.514   7.305  0.1390  0.1908 -0.5954
 7396SOL    HW133824   3.450   0.494   7.395  0.6496  3.5996  0.3095
 7396SOL    HW233825   3.392   0.533   7.262  0.7488  1.5448 -1.1675
 7397SOL     OW33826   3.774   0.750   6.697 -0.5609 -0.4290  0.0444
 7397SOL    HW133827   3.709   0.814   6.728 -0.4137  0.3122 -1.1512
 7397SOL    HW233828   3.853   0.802   6.712  0.4942 -2.4648  1.3908
 7398SOL     OW33829   3.567   1.038  13.502 -0.7697  0.4499 -0.1016
 7398SOL    HW133830   3.475   1.037  13.529 -0.3562 -2.8063  1.2530
 7398SOL    HW233831   3.555   0.960  13.448  0.6423  0.5293 -0.5179
 7399SOL     OW33832   1.534   1.139   5.642  0.2935 -0.7247  0.1443
 7399SOL    HW133833   1.603   1.167   5.702  1.5136  0.1208 -1.6384
 7399SOL    HW233834   1.528   1.047   5.665 -1.6903 -0.3505  1.0595
 7400SOL     OW33835   0.209   3.737  16.225 -0.6418  0.2109  0.0948
 7400SOL    HW133836   0.152   3.705  16.296  0.2517 -1.7400 -0.0697
 7400SOL    HW233837   0.297   3.709  16.249 -0.5499 -0.8674 -1.5761
 7401SOL     OW33838   3.170   3.096   6.217 -0.0689 -0.5294 -0.1211
 7401SOL    HW133839   3.087   3.094   6.264 -1.4502  1.7998 -2.4746
 7401SOL    HW233840   3.225   3.157   6.265  0.8001  0.2547 -2.1184
 7402SOL     OW33841   4.523   2.105  10.395  0.4044  0.1667  0.2886
 7402SOL    HW133842   4.567   2.189  10.382  0.0655  0.1604 -0.8861
 7402SOL    HW233843   4.477   2.099  10.311 -1.3562  1.0129  1.2004
 7403SOL     OW33844   4.337   1.560   5.139  0.6108  0.0754 -0.0538
 7403SOL    HW133845   4.350   1.587   5.048  1.1182 -2.5076 -0.7390
 7403SOL    HW233846   4.339   1.648   5.177 -0.2425 -0.5256  1.4114
 7404SOL     OW33847   4.055   3.379   6.685  0.0169  0.2788  0.1454
 7404SOL    HW133848   4.128   3.430   6.650  0.9609 -1.0062  0.2449
 7404SOL    HW233849   4.092   3.322   6.753  0.8621  0.9477  0.2436
 7405SOL     OW33850   4.325   4.058   3.475  0.2349 -0.5684 -0.1779
 7405SOL    HW133851   4.328   3.963   3.462  3.4370 -0.7508  2.0027
 7405SOL    HW233852   4.246   4.075   3.424 -1.3633 -1.3687  2.0266
 7406SOL     OW33853   0.926   0.669  16.026  0.3224  0.2003  0.1210
 7406SOL    HW133854   0.903   0.623  16.108 -2.0241  1.8689  0.3919
 7406SOL    HW233855   1.009   0.709  16.052  0.1548  0.0102  0.9674
 7407SOL     OW33856   3.794   0.990   7.689  0.2448 -0.0294 -0.2092
 7407SOL    HW133857   3.723   0.932   7.715  0.3836  0.0543  0.3513
 7407SOL    HW233858   3.838   0.994   7.774  0.0829 -0.2524 -0.1169
 7408SOL     OW33859   4.281   0.596   3.671  0.4725  0.4743  0.0611
 7408SOL    HW133860   4.335   0.543   3.612 -1.2927 -4.1153  2.5009
 7408SOL    HW233861   4.273   0.677   3.622  0.2978  0.3537 -0.1115
 7409SOL     OW33862   1.341   1.504   5.323  0.7705  0.5384 -0.1534
 7409SOL    HW133863   1.365   1.440   5.390  2.6707  0.3376 -1.0584
 7409SOL    HW233864   1.311   1.452   5.249  2.4842 -2.5567  1.3465
 7410SOL     OW33865   3.183   1.784   0.651 -0.0868 -0.0277  0.0673
 7410SOL    HW133866   3.263   1.798   0.702 -0.1541 -1.2468  0.5059
 7410SOL    HW233867   3.214   1.727   0.581 -1.2216 -0.0956 -0.3795
 7411SOL     OW33868   3.976   0.776   2.586 -0.7872  0.0428 -0.1181
 7411SOL    HW133869   3.899   0.809   2.633 -1.9772 -1.7232 -0.8338
 7411SOL    HW233870   4.039   0.848   2.589  1.5288 -2.0363  0.6045
 7412SOL     OW33871   0.277   0.093   5.662  0.0268  0.0130  0.1796
 7412SOL    HW133872   0.203   0.088   5.601  0.4349  2.0972 -0.4572
 7412SOL    HW233873   0.345   0.041   5.619 -0.5990 -0.1832 -0.5752
 7413SOL     OW33874   2.901   0.276   4.920 -0.0604  0.4083  0.5299
 7413SOL    HW133875   2.989   0.277   4.881  0.2275 -0.7012  1.1523
 7413SOL    HW233876   2.891   0.370   4.934 -0.7910  0.1942  1.4325
 7414SOL     OW33877   3.949   3.499   6.394  0.1046 -0.0623  0.1794
 7414SOL    HW133878   3.908   3.423   6.353  0.5818  0.1022 -0.5943
 7414SOL    HW233879   3.954   3.559   6.320 -1.0103  1.2797  1.1792
 7415SOL     OW33880   2.229   3.608   2.302 -0.0931  0.2062  0.0164
 7415SOL    HW133881   2.234   3.543   2.232 -1.5299 -1.1305  1.1660
 7415SOL    HW233882   2.252   3.551   2.375 -0.8729 -0.1470 -0.0132
 7416SOL     OW33883   0.045   2.232   7.487 -0.0798 -0.3758  0.5757
 7416SOL    HW133884   4.694   2.252   7.487  0.1500  0.7092 -0.3263
 7416SOL    HW233885   0.034   2.138   7.480  0.5186 -0.4360  0.4390
 7417SOL     OW33886   2.415   1.205   7.698 -0.2482 -0.1655  0.2622
 7417SOL    HW133887   2.429   1.142   7.769 -0.2576  0.1070  0.5033
 7417SOL    HW233888   2.430   1.281   7.753  0.9764 -0.6469  0.5960
 7418SOL     OW33889   0.070   4.653   4.498 -0.2685 -0.0945  1.2277
 7418SOL    HW133890   0.034   4.701   4.572 -1.4578  0.0527  0.5492
 7418SOL    HW233891   0.034   4.568   4.523 -1.1355  0.3431  1.4494
 7419SOL     OW33892   0.325   2.273  13.995 -0.1001  0.4341 -0.4256
 7419SOL    HW133893   0.322   2.183  14.027  0.5760  0.8502  0.8506
 7419SOL    HW233894   0.419   2.288  13.985  0.1190 -0.6960 -0.0346
 7420SOL     OW33895   1.150   2.820   0.882  0.2619  0.5278  0.2911
 7420SOL    HW133896   1.115   2.747   0.934  0.3362  0.5758  0.4077
 7420SOL    HW233897   1.076   2.835   0.825  1.8218 -1.9366 -2.4270
 7421SOL     OW33898   1.976   1.563   5.796 -0.2534  0.6726 -0.5375
 7421SOL    HW133899   1.880   1.571   5.791 -0.2679  0.7558 -0.1788
 7421SOL    HW233900   1.997   1.610   5.716 -1.7617 -1.2512 -2.0699
 7422SOL     OW33901   3.234   4.008   5.589 -0.1990 -0.3742  0.2552
 7422SOL    HW133902   3.155   4.030   5.639 -0.0248  1.4719 -0.2764
 7422SOL    HW233903   3.268   4.096   5.573  2.7528 -1.4547  0.6395
 7423SOL     OW33904   0.269   3.360   7.273 -0.2279 -0.3133 -0.3460
 7423SOL    HW133905   0.195   3.401   7.229  0.2246 -0.3138 -1.1133
 7423SOL    HW233906   0.280   3.427   7.341 -0.0067  1.1079 -1.7740
 7424SOL     OW33907   4.381   4.573   6.208  0.3830  0.0159 -0.7771
 7424SOL    HW133908   4.383   4.647   6.148 -1.9883  0.9331  0.2863
 7424SOL    HW233909   4.288   4.552   6.217  0.2111  0.4076 -1.6375
 7425SOL     OW33910   1.849   0.269   0.195  0.5347 -0.0818 -0.4678
 7425SOL    HW133911   1.809   0.213   0.129  2.2310  0.3031 -1.8308
 7425SOL    HW233912   1.772   0.306   0.239  0.0454 -2.0242  0.2858
 7426SOL     OW33913   0.502   0.992   5.827 -0.9817 -0.1624  0.2642
 7426SOL    HW133914   0.579   0.998   5.771 -2.3890 -2.2816 -1.8762
 7426SOL    HW233915   0.524   1.053   5.898 -1.0477 -1.8781  1.7779
 7427SOL     OW33916   4.441   4.614  10.431  0.0398 -0.0549 -0.9216
 7427SOL    HW133917   4.514   4.554  10.415  0.5990  0.1608  0.8226
 7427SOL    HW233918   4.454   4.638  10.523 -0.4018 -2.8993 -0.0897
 7428SOL     OW33919   0.849   3.306   4.526  0.0794 -0.2628 -0.3936
 7428SOL    HW133920   0.759   3.294   4.557  0.6072 -1.3337  0.7542
 7428SOL    HW233921   0.838   3.396   4.497 -1.6432  1.0186  4.1757
 7429SOL     OW33922   3.813   1.579   1.228 -0.1936 -0.2147 -0.4034
 7429SOL    HW133923   3.748   1.649   1.234 -0.2061 -0.2022 -0.6736
 7429SOL    HW233924   3.884   1.635   1.197 -2.2563  1.8703 -1.3479
 7430SOL     OW33925   4.236   1.999   5.011 -0.2807  0.2601 -0.3747
 7430SOL    HW133926   4.275   2.044   4.936  1.1075  2.2593  1.5421
 7430SOL    HW233927   4.198   2.079   5.048  0.0050 -0.8855  2.3572
 7431SOL     OW33928   3.213   3.099   3.630 -0.2877  0.0784 -0.2932
 7431SOL    HW133929   3.213   3.127   3.539 -3.6374 -0.4500 -0.4600
 7431SOL    HW233930   3.123   3.068   3.634 -0.2651 -0.0568 -0.8870
 7432SOL     OW33931   3.138   3.970   2.339 -0.1418  0.2585  0.5692
 7432SOL    HW133932   3.173   4.035   2.279 -0.0327  1.2257  1.6979
 7432SOL    HW233933   3.058   4.016   2.367 -1.3190  0.0034 -2.3984
 7433SOL     OW33934   3.875   0.186   7.337  0.3859 -0.3764  0.1054
 7433SOL    HW133935   3.930   0.251   7.292  2.0806 -0.8265  1.5075
 7433SOL    HW233936   3.807   0.248   7.365 -0.6966 -1.4331 -0.2156
 7434SOL     OW33937   4.656   3.292  12.462 -0.6231 -0.7385  0.1722
 7434SOL    HW133938   4.675   3.283  12.369 -1.1855  0.2257 -0.0439
 7434SOL    HW233939   4.561   3.305  12.462 -0.6801 -1.1848  0.5411
 7435SOL     OW33940   3.261   3.745   5.548  0.4964 -0.1949 -0.5311
 7435SOL    HW133941   3.302   3.732   5.634  1.7808 -1.0846 -1.2788
 7435SOL    HW233942   3.235   3.837   5.553  1.4111  0.1075 -1.4378
 7436SOL     OW33943   2.171   3.902   1.768  0.6983 -0.4417  0.6682
 7436SOL    HW133944   2.115   3.875   1.695 -1.2150 -1.1175  2.3693
 7436SOL    HW233945   2.239   3.947   1.719 -0.2931  0.3763  0.0390
 7437SOL     OW33946   2.622   0.397   2.620  0.7780  0.6329 -0.0766
 7437SOL    HW133947   2.596   0.429   2.707  0.6001  3.0750 -1.0487
 7437SOL    HW233948   2.703   0.351   2.642  0.3932  0.3532  0.7854
 7438SOL     OW33949   2.553   3.488   7.167  0.4456  0.3274 -0.4047
 7438SOL    HW133950   2.623   3.426   7.149  0.2788 -0.2087  0.7520
 7438SOL    HW233951   2.600   3.567   7.145  0.3712  0.5481  0.2097
 7439SOL     OW33952   0.272   0.235  13.284  0.5057  0.5567 -0.0649
 7439SOL    HW133953   0.247   0.327  13.277  0.8132  0.8283  2.3517
 7439SOL    HW233954   0.266   0.201  13.195 -2.1993  0.9217 -0.0238
 7440SOL     OW33955   3.230   1.432  12.107 -0.1079  0.6233 -0.5504
 7440SOL    HW133956   3.189   1.507  12.063 -2.6033  0.0893  0.8789
 7440SOL    HW233957   3.194   1.453  12.193  0.9367 -0.7772  0.2104
 7441SOL     OW33958   2.298   1.495   5.830 -0.1569 -0.3819  0.1276
 7441SOL    HW133959   2.333   1.503   5.919  1.0246 -0.1014 -0.3638
 7441SOL    HW233960   2.276   1.587   5.817  0.3954 -0.2172  0.3675
 7442SOL     OW33961   2.239   3.477  13.519  0.1096  0.2553 -0.2102
 7442SOL    HW133962   2.278   3.468  13.432  1.7160  2.4392  0.3023
 7442SOL    HW233963   2.170   3.411  13.509  1.0830 -0.7083 -0.6134
 7443SOL     OW33964   3.036   1.890   8.312  0.1208 -0.0771  0.5053
 7443SOL    HW133965   2.967   1.926   8.368 -2.0337 -2.2757 -0.7335
 7443SOL    HW233966   2.986   1.877   8.231  0.3883 -1.8865  0.6143
 7444SOL     OW33967   0.579   1.789   0.206 -0.3710 -0.0506  0.0455
 7444SOL    HW133968   0.530   1.850   0.152  0.3482  1.6723  1.3345
 7444SOL    HW233969   0.562   1.707   0.160 -1.7115  0.0290  0.3856
 7445SOL     OW33970   3.334   4.617   7.524 -0.1208  0.2598 -0.4972
 7445SOL    HW133971   3.289   4.639   7.605 -3.1114  1.5508 -2.4842
 7445SOL    HW233972   3.379   4.538   7.555  1.1496  0.4489 -1.8416
 7446SOL     OW33973   1.471   3.056   6.482  0.4039  0.0040 -0.3092
 7446SOL    HW133974   1.511   3.061   6.395 -1.6479  1.3440 -1.1777
 7446SOL    HW233975   1.408   2.987   6.461  2.1047 -2.2701  2.1213
 7447SOL     OW33976   1.523   4.256  13.639 -0.1076  0.1243  0.2409
 7447SOL    HW133977   1.557   4.221  13.722  1.6102  1.5961  0.1322
 7447SOL    HW233978   1.549   4.347  13.648 -1.3966  0.3149  2.1607
 7448SOL     OW33979   3.754   3.791   7.789  0.0958 -0.2094  0.4063
 7448SOL    HW133980   3.723   3.784   7.879 -1.0832 -0.7036 -0.0415
 7448SOL    HW233981   3.818   3.862   7.796 -0.4816  0.0654  2.7432
 7449SOL     OW33982   0.657   0.231   3.901  0.3111 -0.0773 -0.4971
 7449SOL    HW133983   0.649   0.289   3.826  1.8589  1.1518  0.2925
 7449SOL    HW233984   0.568   0.248   3.933  0.8741  2.4909 -0.2951
 7450SOL     OW33985   3.578   2.072  15.875  0.3778  0.3183 -0.3695
 7450SOL    HW133986   3.552   2.002  15.935  0.1927 -0.1191 -0.9579
 7450SOL    HW233987   3.624   2.031  15.802 -1.0190  1.1437 -1.7146
 7451SOL     OW33988   4.367   3.777   5.135 -0.0452  0.1620  0.1383
 7451SOL    HW133989   4.292   3.796   5.079  0.4250 -3.0864 -1.5899
 7451SOL    HW233990   4.330   3.773   5.223  0.7743 -1.7859  0.3964
 7452SOL     OW33991   1.149   1.377   6.612 -0.5401  0.2119 -0.0776
 7452SOL    HW133992   1.067   1.420   6.635  0.1696  1.2125  0.5362
 7452SOL    HW233993   1.214   1.444   6.631  0.6899 -0.6266 -1.3111
 7453SOL     OW33994   2.125   2.460   4.128 -0.0083 -0.3439 -0.1421
 7453SOL    HW133995   2.143   2.424   4.041  2.3439 -2.6302  1.2923
 7453SOL    HW233996   2.127   2.555   4.114  1.1556 -0.3754 -0.2020
 7454SOL     OW33997   4.162   1.682   1.489  0.9034 -0.5645 -0.2069
 7454SOL    HW133998   4.068   1.694   1.478  0.6548  0.6418  3.1193
 7454SOL    HW233999   4.181   1.727   1.571  4.6027  0.9466 -1.9078
 7455SOL     OW34000   1.531   4.034   4.357 -0.3044 -0.5369  0.2567
 7455SOL    HW134001   1.579   4.117   4.360 -2.0355  0.4754  0.0012
 7455SOL    HW234002   1.590   3.977   4.308 -0.7935 -0.7965 -0.0357
 7456SOL     OW34003   0.625   2.451   6.182 -0.1999 -0.1416 -0.5982
 7456SOL    HW134004   0.579   2.490   6.257 -0.4358  0.5667 -1.1088
 7456SOL    HW234005   0.698   2.410   6.227 -0.2607  2.3167  1.7654
 7457SOL     OW34006   3.035   3.295  16.516  0.2378 -0.3273 -0.4868
 7457SOL    HW134007   2.961   3.318  16.573 -0.7223 -3.4128 -0.4665
 7457SOL    HW234008   3.019   3.330  16.429  2.4647 -1.1129 -1.2169
 7458SOL     OW34009   1.088   1.748   5.830 -0.3354  0.3848 -0.2099
 7458SOL    HW134010   1.104   1.801   5.752  2.3231 -1.3528 -0.8597
 7458SOL    HW234011   1.007   1.790   5.860 -0.0255  0.8721 -0.0563
 7459SOL     OW34012   1.484   4.574   2.473  0.1718  0.3458  0.0252
 7459SOL    HW134013   1.547   4.545   2.406  2.1332 -0.1731  2.1021
 7459SOL    HW234014   1.500   4.503   2.535 -0.1743  0.8097  0.6329
 7460SOL     OW34015   1.470   2.755   2.835 -0.2051  0.2298 -0.3268
 7460SOL    HW134016   1.547   2.732   2.886 -0.5674 -1.4038 -0.5228
 7460SOL    HW234017   1.432   2.677   2.794  3.7687 -2.5576  1.3722
 7461SOL     OW34018   3.815   1.575   3.614  0.2224 -0.2173  0.5857
 7461SOL    HW134019   3.770   1.654   3.584  0.8603 -0.6120 -1.4172
 7461SOL    HW234020   3.856   1.544   3.533  0.4100 -1.2278  1.0657
 7462SOL     OW34021   4.012   2.918   8.591  1.2553  0.6299  0.3405
 7462SOL    HW134022   4.083   2.923   8.655  1.7283  1.0648 -0.2258
 7462SOL    HW234023   4.029   2.995   8.537 -2.3111  1.8682  0.9774
 7463SOL     OW34024   1.398   0.834   0.046 -0.0727 -0.9219  0.7061
 7463SOL    HW134025   1.369   0.792  17.732 -3.2285  1.3507  0.6516
 7463SOL    HW234026   1.334   0.905   0.043  0.6291 -0.3372 -0.4911
 7464SOL     OW34027   0.549   0.630   6.078  0.5360  0.0015  0.1373
 7464SOL    HW134028   0.614   0.605   6.013  1.0873  2.4316 -0.2764
 7464SOL    HW234029   0.566   0.723   6.094 -1.1250  0.4571 -0.7597
 7465SOL     OW34030   1.573   3.495   5.640 -0.2434  0.6923  0.2707
 7465SOL    HW134031   1.630   3.515   5.714 -0.2698 -0.5665  0.6263
 7465SOL    HW234032   1.618   3.534   5.564 -0.6322  0.1120 -0.2562
 7466SOL     OW34033   1.190   3.353   8.268  0.3649  0.5647  0.1751
 7466SOL    HW134034   1.254   3.360   8.197 -0.7851  1.5649 -0.7535
 7466SOL    HW234035   1.244   3.305   8.330 -1.2342 -1.6458 -0.1552
 7467SOL     OW34036   2.977   3.903   4.720  0.5811  0.0231  0.4152
 7467SOL    HW134037   2.983   3.875   4.629  1.3142 -1.5189  0.9341
 7467SOL    HW234038   2.988   3.819   4.764 -0.2004  0.0090  0.5836
 7468SOL     OW34039   0.621   1.646   8.854 -0.2031  0.1907 -0.0787
 7468SOL    HW134040   0.670   1.596   8.918  1.5939  0.6610 -1.0973
 7468SOL    HW234041   0.557   1.581   8.824 -2.2599  1.1559  2.1826
 7469SOL     OW34042   3.042   0.452   3.804 -0.0243 -0.3112  0.1578
 7469SOL    HW134043   3.058   0.532   3.753  0.2658 -0.0814  0.6139
 7469SOL    HW234044   3.130   0.432   3.835 -0.0858  0.7694  1.0304
 7470SOL     OW34045   3.945   2.431  11.224  0.2429 -0.3218 -0.0841
 7470SOL    HW134046   4.014   2.467  11.169  1.1131 -1.4716  0.2527
 7470SOL    HW234047   3.972   2.339  11.224  2.9750  0.4895  0.3883
 7471SOL     OW34048   3.389   4.171   9.844  0.0085  0.0322  0.0524
 7471SOL    HW134049   3.361   4.160   9.935  0.9856  0.7866  0.4443
 7471SOL    HW234050   3.303   4.173   9.802 -0.7214 -0.1472  1.5458
 7472SOL     OW34051   0.097   4.483   1.028 -0.2425  0.2005  0.1378
 7472SOL    HW134052   0.168   4.420   1.013 -1.0405 -0.2905 -1.6044
 7472SOL    HW234053   0.150   4.562   1.036  0.3529 -0.1162 -0.5742
 7473SOL     OW34054   1.055   3.834   6.325 -0.4341 -0.0583  0.3513
 7473SOL    HW134055   0.966   3.855   6.354  0.0387 -0.2779  2.0035
 7473SOL    HW234056   1.087   3.819   6.414 -1.0481 -1.0378  0.4034
 7474SOL     OW34057   0.919   1.322   5.970 -0.0573 -0.4120 -0.3974
 7474SOL    HW134058   0.962   1.278   5.896  3.7998  1.6109  0.6435
 7474SOL    HW234059   0.840   1.358   5.930  0.3021 -0.4117 -1.1210
 7475SOL     OW34060   1.987   2.000   7.250 -0.0773 -0.6457 -0.2956
 7475SOL    HW134061   2.053   2.065   7.227 -0.2231 -0.6553 -0.7411
 7475SOL    HW234062   1.921   2.044   7.197  1.2811 -0.4408 -1.8318
 7476SOL     OW34063   2.318   3.231  16.758  0.3776  0.4063 -0.0183
 7476SOL    HW134064   2.224   3.238  16.774  0.4146 -0.7609  0.6962
 7476SOL    HW234065   2.356   3.207  16.842  0.9301  1.1864 -0.0532
 7477SOL     OW34066   0.255   1.487   2.968 -0.0294  0.0953 -0.1454
 7477SOL    HW134067   0.325   1.438   2.925  0.8058  1.1788 -0.0273
 7477SOL    HW234068   0.305   1.568   2.984  1.9078 -0.7868 -1.7590
 7478SOL     OW34069   3.520   0.770   2.536 -0.1806  0.0585  0.0429
 7478SOL    HW134070   3.562   0.736   2.616  0.3009  2.4807  0.8258
 7478SOL    HW234071   3.475   0.842   2.580  0.8991  0.3679  0.6352
 7479SOL     OW34072   2.562   3.045   3.328  0.4202  0.4679 -0.2549
 7479SOL    HW134073   2.588   3.135   3.345  0.7341  0.6299 -1.6569
 7479SOL    HW234074   2.553   3.056   3.234 -1.0170 -2.4554 -0.4732
 7480SOL     OW34075   2.633   2.498  17.257  0.3453  0.0667 -0.4275
 7480SOL    HW134076   2.636   2.467  17.348  0.1428  0.2120 -0.3712
 7480SOL    HW234077   2.711   2.553  17.263  0.8543 -0.8907  1.8841
 7481SOL     OW34078   3.477   2.463   1.899  0.8460  0.6514 -0.3506
 7481SOL    HW134079   3.442   2.398   1.839  0.3977 -0.3067  0.9470
 7481SOL    HW234080   3.554   2.478   1.844  1.8105 -0.4120  0.7062
 7482SOL     OW34081   2.128   0.723   6.774 -0.5499 -1.0925 -0.4932
 7482SOL    HW134082   2.152   0.810   6.804 -4.1371 -0.3781  0.3726
 7482SOL    HW234083   2.052   0.733   6.716 -1.1668 -2.2127  0.1102
 7483SOL     OW34084   0.854   4.524   5.798 -0.7479 -0.6477  0.0170
 7483SOL    HW134085   0.864   4.499   5.706  0.7671 -2.4776  0.6752
 7483SOL    HW234086   0.804   4.604   5.783 -0.5778 -0.4575  0.4610
 7484SOL     OW34087   2.927   1.110   6.384  0.0338 -0.1327 -0.1508
 7484SOL    HW134088   2.990   1.048   6.421  2.8952  2.1864 -1.2164
 7484SOL    HW234089   2.943   1.069   6.299  2.4990  3.5456 -1.4867
 7485SOL     OW34090   4.483   2.163   4.625  0.5597  0.5553  0.3080
 7485SOL    HW134091   4.433   2.112   4.562  0.8242  0.6254  0.0382
 7485SOL    HW234092   4.544   2.208   4.566  0.8655 -0.0247  0.1816
 7486SOL     OW34093   1.380   4.300  10.794 -0.1674 -0.1171 -0.1790
 7486SOL    HW134094   1.400   4.385  10.832 -2.2337 -0.0461  0.6889
 7486SOL    HW234095   1.469   4.265  10.798 -0.3775 -0.7450 -0.8937
 7487SOL     OW34096   2.900   4.213   8.581  0.2970  0.1800  0.0604
 7487SOL    HW134097   2.943   4.131   8.604  0.8664  0.5525  0.3289
 7487SOL    HW234098   2.950   4.269   8.640 -0.2631  0.9405 -0.1870
 7488SOL     OW34099   3.423   0.630   5.229  0.5063  0.1280  0.3646
 7488SOL    HW134100   3.437   0.674   5.313  2.6039 -0.4059  0.3045
 7488SOL    HW234101   3.400   0.705   5.175 -1.2149  0.1915  1.1677
 7489SOL     OW34102   1.935   1.814  13.256  0.1261  0.0169 -0.4136
 7489SOL    HW134103   1.893   1.864  13.186 -0.9261  0.1693  0.3196
 7489SOL    HW234104   1.913   1.724  13.233  2.3682 -0.6367  0.0303
 7490SOL     OW34105   2.734   3.636   6.108 -0.0514  0.2827 -0.3382
 7490SOL    HW134106   2.731   3.618   6.014  0.3549 -2.8646  0.2614
 7490SOL    HW234107   2.646   3.668   6.131 -0.4512 -1.3907  0.4744
 7491SOL     OW34108   0.408   2.819   7.838  0.0243  0.7113 -0.1541
 7491SOL    HW134109   0.491   2.867   7.831  0.1846  0.8132  2.2549
 7491SOL    HW234110   0.413   2.759   7.764  0.8512  3.4569 -2.3582
 7492SOL     OW34111   0.883   2.986  11.508  0.6000  0.1704  0.0443
 7492SOL    HW134112   0.975   3.003  11.528  0.9879 -0.8474 -0.8495
 7492SOL    HW234113   0.855   3.065  11.461  1.0295  1.6407  2.2317
 7493SOL     OW34114   4.076   1.991   9.834  0.1890  0.4173  0.0727
 7493SOL    HW134115   4.073   1.897   9.819 -2.4548  0.7544 -1.5536
 7493SOL    HW234116   4.053   1.998   9.927 -0.5543 -0.5214 -0.0356
 7494SOL     OW34117   0.359   1.849   9.669  0.2224 -0.3066  0.3424
 7494SOL    HW134118   0.326   1.760   9.664  0.7108 -0.4478 -0.3733
 7494SOL    HW234119   0.376   1.869   9.577  2.0736 -2.0144  0.3221
 7495SOL     OW34120   2.576   0.428  12.148 -0.1967 -0.4290  0.0230
 7495SOL    HW134121   2.610   0.494  12.207  0.1884 -0.6370  0.0349
 7495SOL    HW234122   2.649   0.403  12.091  1.0977  0.7569  1.1849
 7496SOL     OW34123   3.381   0.808  13.169  0.4665 -0.4109  0.1284
 7496SOL    HW134124   3.318   0.871  13.134  0.4834 -0.6716 -0.3641
 7496SOL    HW234125   3.443   0.785  13.100  1.6097 -1.3743  1.4839
 7497SOL     OW34126   1.646   2.158   3.805 -0.0553  0.5965  0.0098
 7497SOL    HW134127   1.711   2.214   3.763 -1.0217  1.1870 -0.6954
 7497SOL    HW234128   1.586   2.129   3.736  1.7412  1.1242 -1.7747
 7498SOL     OW34129   0.522   4.115  16.854  0.3291 -0.4627  0.1289
 7498SOL    HW134130   0.491   4.034  16.893 -1.9021 -0.2749 -1.2871
 7498SOL    HW234131   0.547   4.080  16.768 -2.5907  0.2898 -1.0244
 7499SOL     OW34132   4.409   2.853   7.642  0.4865  0.2972  0.3207
 7499SOL    HW134133   4.400   2.929   7.585  0.2718  0.2608  0.3077
 7499SOL    HW234134   4.407   2.785   7.575 -1.6189  1.9691 -1.3292
 7500SOL     OW34135   0.083   4.639   5.706 -1.0126 -0.3076  0.3270
 7500SOL    HW134136   0.148   4.673   5.768 -0.6713 -1.8303  0.7896
 7500SOL    HW234137   0.129   4.637   5.622 -1.2047  0.3091  0.2093
 7501SOL     OW34138   0.777   2.513   3.168 -0.4155  0.4048 -0.0089
 7501SOL    HW134139   0.735   2.507   3.254  1.5664 -1.6754  0.8244
 7501SOL    HW234140   0.805   2.423   3.155 -0.2563  0.5411 -0.5877
 7502SOL     OW34141   3.118   2.009   3.746  0.1659 -0.8896  0.0644
 7502SOL    HW134142   3.168   2.081   3.785  1.4280 -0.1024 -3.0090
 7502SOL    HW234143   3.060   2.050   3.682  0.2239 -0.9321 -0.0145
 7503SOL     OW34144   3.682   3.779   7.380  0.4238 -0.6938  0.0899
 7503SOL    HW134145   3.646   3.851   7.432 -0.8443 -0.3653 -1.2348
 7503SOL    HW234146   3.687   3.822   7.295  0.7180 -0.0512  0.4338
 7504SOL     OW34147   3.039   3.501   1.541 -0.6032 -0.3123  0.3218
 7504SOL    HW134148   3.101   3.570   1.566 -1.0383  0.4395 -0.6805
 7504SOL    HW234149   3.079   3.431   1.593 -0.1465 -0.1258  0.2257
 7505SOL     OW34150   2.790   4.200   5.228 -0.2278 -0.0748 -0.1920
 7505SOL    HW134151   2.754   4.287   5.245 -0.0118 -0.2057  0.9472
 7505SOL    HW234152   2.870   4.225   5.182 -1.5006  3.2143 -0.6852
 7506SOL     OW34153   1.740   1.431   4.413 -0.0975  0.5322  0.2413
 7506SOL    HW134154   1.828   1.399   4.394  0.0641  0.8429  0.4641
 7506SOL    HW234155   1.715   1.458   4.325  2.4146  0.9968 -0.3176
 7507SOL     OW34156   1.978   0.634  16.042 -0.4490 -0.5265  0.0245
 7507SOL    HW134157   1.885   0.626  16.064  0.4708 -0.0425  4.0439
 7507SOL    HW234158   1.978   0.657  15.949 -0.5875 -1.5267 -0.2229
 7508SOL     OW34159   1.723   4.081   2.136 -0.3051 -0.2699 -0.0704
 7508SOL    HW134160   1.693   4.046   2.052  0.7880 -1.2255 -0.0605
 7508SOL    HW234161   1.817   4.077   2.119 -0.1084 -2.1589  1.5068
 7509SOL     OW34162   0.114   4.478   7.273  0.0111 -0.3725  0.1571
 7509SOL    HW134163   0.190   4.427   7.244  0.6004  0.7062 -0.2156
 7509SOL    HW234164   0.084   4.520   7.192  0.0663 -1.3014 -0.3368
 7510SOL     OW34165   0.179   0.961   7.176  0.0893  0.5562 -0.8355
 7510SOL    HW134166   0.160   0.986   7.086  0.3452  1.1621 -0.7257
 7510SOL    HW234167   0.272   0.982   7.175 -0.0769  1.2607 -1.4065
 7511SOL     OW34168   1.433   3.263   5.669  0.3613 -0.1481  0.1182
 7511SOL    HW134169   1.477   3.344   5.693 -1.6555 -0.1213  3.7136
 7511SOL    HW234170   1.492   3.194   5.700 -1.1128 -2.2773 -1.8402
 7512SOL     OW34171   0.793   1.864  13.784  0.6987 -0.1950 -0.2032
 7512SOL    HW134172   0.781   1.770  13.773 -5.0514  0.6706 -1.0553
 7512SOL    HW234173   0.728   1.882  13.851  0.6835 -1.7738  0.1943
 7513SOL     OW34174   2.969   3.242   8.908  0.6169 -0.0475  0.0521
 7513SOL    HW134175   2.949   3.156   8.871 -2.2132  0.8062 -0.3902
 7513SOL    HW234176   3.000   3.287   8.829 -1.1955  0.6326 -0.2752
 7514SOL     OW34177   1.071   3.744   3.644 -0.5694  0.1587 -0.8129
 7514SOL    HW134178   1.093   3.763   3.552 -2.2008  2.0062 -0.8200
 7514SOL    HW234179   1.031   3.658   3.631  0.7730 -0.8485  1.7031
 7515SOL     OW34180   4.127   0.098   4.976  0.0487 -0.1331 -0.4452
 7515SOL    HW134181   4.200   0.077   4.917  1.4293 -1.1705  1.6441
 7515SOL    HW234182   4.057   0.057   4.926 -0.5153  1.7283 -1.1742
 7516SOL     OW34183   0.829   2.272  16.920 -0.2086  0.0135  0.4980
 7516SOL    HW134184   0.781   2.344  16.880  0.5402  1.1077  1.5798
 7516SOL    HW234185   0.837   2.305  17.010 -0.9452 -0.0946  0.6030
 7517SOL     OW34186   0.410   2.190  17.649  0.0680 -0.4439 -0.4844
 7517SOL    HW134187   0.395   2.142  17.731  1.1733  1.0997  0.6070
 7517SOL    HW234188   0.501   2.168  17.631  0.7957  2.6633 -0.5973
 7518SOL     OW34189   4.468   1.397   9.517  0.1403 -0.3696 -0.1649
 7518SOL    HW134190   4.443   1.389   9.609 -0.6807  0.3627 -0.3303
 7518SOL    HW234191   4.401   1.348   9.468 -0.3467 -1.0363  1.1848
 7519SOL     OW34192   4.303   1.405   2.206 -0.1562  0.7355  0.0846
 7519SOL    HW134193   4.373   1.417   2.142 -0.9916  0.3464 -0.8975
 7519SOL    HW234194   4.296   1.309   2.205  1.5288  0.6252 -1.3392
 7520SOL     OW34195   4.680   0.471  13.195 -0.1627 -0.3349  0.5584
 7520SOL    HW134196   4.634   0.550  13.223 -1.4156 -1.0582  0.5792
 7520SOL    HW234197   0.013   0.493  13.249  0.7749 -0.5280 -0.6706
 7521SOL     OW34198   3.057   1.072  11.172  0.6937  0.4279  0.1957
 7521SOL    HW134199   3.025   1.150  11.126 -1.0784  1.3307  2.9470
 7521SOL    HW234200   2.985   1.038  11.224  1.6858  1.6658  2.3627
 7522SOL     OW34201   3.350   3.524  17.597 -0.0976 -0.4677 -0.1828
 7522SOL    HW134202   3.406   3.466  17.544  1.2933  1.5445 -0.9312
 7522SOL    HW234203   3.355   3.489  17.686 -3.7632 -0.4361  0.0150
 7523SOL     OW34204   2.414   2.746   0.836  0.4354 -0.6142  0.3621
 7523SOL    HW134205   2.439   2.677   0.898 -2.6828 -0.9181  1.3035
 7523SOL    HW234206   2.381   2.700   0.760 -0.1370 -0.7706  0.7034
 7524SOL     OW34207   4.113   4.619  15.550  0.5451  0.5388 -0.1433
 7524SOL    HW134208   4.170   4.690  15.578  2.3898 -1.4508  1.1493
 7524SOL    HW234209   4.166   4.547  15.584  1.0308  0.8520 -0.2389
 7525SOL     OW34210   4.062   3.961   9.662  0.5874 -0.4164 -0.0593
 7525SOL    HW134211   3.973   3.984   9.637  0.3311 -2.5632 -1.0969
 7525SOL    HW234212   4.046   3.945   9.755 -1.1504  1.8391  0.0250
 7526SOL     OW34213   2.806   4.601  11.086 -0.6585 -0.1232  0.1763
 7526SOL    HW134214   2.750   4.523  11.080  1.2441 -1.4564 -0.2798
 7526SOL    HW234215   2.886   4.570  11.043 -0.3395  0.2606  0.4913
 7527SOL     OW34216   3.246   2.165   3.960 -0.0465  0.1069 -0.2558
 7527SOL    HW134217   3.335   2.149   3.992 -1.2076 -1.2979  2.2856
 7527SOL    HW234218   3.244   2.258   3.936  0.0198  0.3606  0.6959
 7528SOL     OW34219   3.177   1.385   3.094  0.4839  0.5589  0.0417
 7528SOL    HW134220   3.157   1.317   3.158 -0.0723 -0.2422 -0.9840
 7528SOL    HW234221   3.233   1.347   3.026 -2.0554 -0.7634 -1.3095
 7529SOL     OW34222   1.452   2.816   5.973 -0.4796 -0.4184  0.2574
 7529SOL    HW134223   1.405   2.894   5.943  1.3980  0.2198 -1.0452
 7529SOL    HW234224   1.540   2.850   5.959  0.0530 -2.0769 -0.3070
 7530SOL     OW34225   0.330   1.604   4.192 -0.5804  0.3509 -0.6126
 7530SOL    HW134226   0.401   1.578   4.250 -2.8191 -0.9153  1.5386
 7530SOL    HW234227   0.370   1.680   4.150  1.3311  0.1017  0.7655
 7531SOL     OW34228   4.641   4.562  17.357  0.0254  0.4741  0.2154
 7531SOL    HW134229   4.648   4.476  17.314  1.1345  0.6222  0.0909
 7531SOL    HW234230   4.631   4.541  17.450  1.3690 -2.5860 -0.3098
 7532SOL     OW34231   1.089   3.112   8.341  0.4910 -0.6933 -0.0278
 7532SOL    HW134232   1.113   3.203   8.329  2.3720 -1.4797 -2.1097
 7532SOL    HW234233   1.108   3.101   8.435 -1.1329 -0.6523  0.3017
 7533SOL     OW34234   1.323   3.404   1.555 -0.3555  0.3342 -0.1823
 7533SOL    HW134235   1.264   3.479   1.555  0.0231  0.6418 -1.8033
 7533SOL    HW234236   1.334   3.406   1.460  3.3128  0.5464  0.2458
 7534SOL     OW34237   3.817   3.262   2.103  0.2532  0.1777  0.2906
 7534SOL    HW134238   3.777   3.339   2.063 -1.1537 -1.1047 -0.7568
 7534SOL    HW234239   3.796   3.263   2.197 -1.0422 -1.9758  0.0169
 7535SOL     OW34240   0.290   3.971   0.643  0.3465 -0.0037 -0.2359
 7535SOL    HW134241   0.298   3.889   0.594  0.5277 -0.0707 -0.0932
 7535SOL    HW234242   0.262   3.937   0.728  0.4592  2.6088  0.8414
 7536SOL     OW34243   0.951   3.218   6.471 -0.5148 -0.3921  0.2459
 7536SOL    HW134244   1.014   3.151   6.497  0.0377  0.5884  1.4491
 7536SOL    HW234245   0.913   3.242   6.555  0.1698 -0.7545  0.6620
 7537SOL     OW34246   0.678   0.395   8.737 -0.1821  0.4645  0.1822
 7537SOL    HW134247   0.625   0.464   8.778  3.4831  1.2476  3.5490
 7537SOL    HW234248   0.609   0.336   8.706  0.9483 -1.0889  0.6596
 7538SOL     OW34249   2.770   2.634   2.682 -0.1683  0.1561  0.3710
 7538SOL    HW134250   2.754   2.555   2.631 -1.0625 -0.8646  2.2375
 7538SOL    HW234251   2.853   2.609   2.724  0.7784  1.0488 -0.9729
 7539SOL     OW34252   1.536   0.874  15.999 -0.0354 -0.0472 -0.1632
 7539SOL    HW134253   1.610   0.916  16.042  1.2356 -1.5576 -0.8711
 7539SOL    HW234254   1.513   0.945  15.940  2.6155 -1.4297 -2.8244
 7540SOL     OW34255   3.196   4.313  10.037  0.4379  0.2474  0.1015
 7540SOL    HW134256   3.266   4.367  10.003  1.5442 -1.1732  0.1087
 7540SOL    HW234257   3.115   4.356  10.007 -0.3774 -0.7802  0.8067
 7541SOL     OW34258   2.460   3.376  16.380 -0.3048  0.5632 -0.0409
 7541SOL    HW134259   2.495   3.309  16.438  0.1906  0.7153 -0.1649
 7541SOL    HW234260   2.537   3.407  16.332 -0.5343  0.7187 -0.3111
 7542SOL     OW34261   0.467   1.697   6.895  0.4457  0.5028  0.5610
 7542SOL    HW134262   0.397   1.689   6.830 -0.0236 -0.0171  1.1368
 7542SOL    HW234263   0.515   1.776   6.872  0.5116  0.5867  0.9984
 7543SOL     OW34264   3.703   3.188   1.448 -0.1579 -0.5693  0.7574
 7543SOL    HW134265   3.742   3.106   1.419 -0.2626  0.4506 -2.2496
 7543SOL    HW234266   3.748   3.199   1.531 -0.0510  1.8402  0.3640
 7544SOL     OW34267   2.258   3.887  12.045  0.0611 -0.6221 -0.2716
 7544SOL    HW134268   2.336   3.834  12.026  0.8023  1.2215 -2.4103
 7544SOL    HW234269   2.191   3.819  12.044 -0.5231 -0.0501 -0.2712
 7545SOL     OW34270   0.076   4.048   1.097 -0.1886 -1.1471  0.0034
 7545SOL    HW134271   0.122   4.123   1.134 -1.4376 -0.5661  0.3631
 7545SOL    HW234272   0.059   3.998   1.177 -0.2546  1.5926  1.6907
 7546SOL     OW34273   1.685   1.723   2.511  0.6243  0.4014 -0.0844
 7546SOL    HW134274   1.651   1.661   2.576 -0.5561  1.0482 -0.0873
 7546SOL    HW234275   1.623   1.795   2.521 -0.4187 -0.1707 -2.2715
 7547SOL     OW34276   3.163   2.568   4.684  0.7752 -0.0081 -0.1739
 7547SOL    HW134277   3.179   2.545   4.776 -2.3292  0.1235  0.4158
 7547SOL    HW234278   3.069   2.586   4.692  1.0207  0.4497  1.7595
 7548SOL     OW34279   3.654   0.812  16.305  0.0637 -0.3660 -0.5003
 7548SOL    HW134280   3.681   0.861  16.227  0.4527  0.1709 -0.0271
 7548SOL    HW234281   3.712   0.738  16.293  1.7167  1.1232 -1.7554
 7549SOL     OW34282   2.032   1.286  17.551  0.7523  0.5179 -0.0238
 7549SOL    HW134283   1.998   1.246  17.471  1.6425 -2.9943  1.3251
 7549SOL    HW234284   1.990   1.372  17.545 -1.7859 -0.7314 -0.3521
 7550SOL     OW34285   1.303   4.523   1.277  0.0448 -0.2263 -0.2519
 7550SOL    HW134286   1.327   4.581   1.205 -0.5243  0.0152 -0.2522
 7550SOL    HW234287   1.220   4.482   1.249  0.4572 -0.9123 -0.4701
 7551SOL     OW34288   0.779   1.040   3.018  0.4253 -1.3344 -0.0552
 7551SOL    HW134289   0.783   0.971   3.085 -0.1263 -0.8873  0.4391
 7551SOL    HW234290   0.788   1.119   3.072  1.0773 -0.6152 -1.2302
 7552SOL     OW34291   2.546   0.103  11.903  0.3861 -0.0436 -0.0846
 7552SOL    HW134292   2.618   0.090  11.965 -0.8147 -1.3657  1.0524
 7552SOL    HW234293   2.479   0.140  11.960  1.8141  0.6718  1.1337
 7553SOL     OW34294   3.778   1.198   2.493 -0.3118  0.6264 -0.1879
 7553SOL    HW134295   3.810   1.205   2.403 -0.2940  2.8579 -0.0120
 7553SOL    HW234296   3.697   1.248   2.492 -0.5948  0.1710  0.2050
 7554SOL     OW34297   0.134   4.483  10.077 -1.0076  0.4014 -0.2798
 7554SOL    HW134298   0.195   4.538  10.028 -0.7180 -0.8944 -1.4026
 7554SOL    HW234299   0.057   4.492  10.021 -0.3154  1.1863 -1.1167
 7555SOL     OW34300   1.055   3.932   5.095 -0.3170  0.4062 -0.1836
 7555SOL    HW134301   1.131   3.990   5.099 -0.3133  0.5206 -1.9819
 7555SOL    HW234302   1.025   3.925   5.186 -2.9313  1.1548 -0.9904
 7556SOL     OW34303   3.155   3.466   1.263  0.1360  0.1157  0.7524
 7556SOL    HW134304   3.138   3.514   1.344  0.6647  2.9828 -0.8323
 7556SOL    HW234305   3.088   3.399   1.271 -1.1924  1.1126 -2.0631
 7557SOL     OW34306   4.491   3.256   5.746  0.0451 -0.1195 -0.3489
 7557SOL    HW134307   4.566   3.225   5.798 -0.4116  1.1832  1.0956
 7557SOL    HW234308   4.455   3.173   5.714  1.2013 -1.1879  1.1043
 7558SOL     OW34309   3.027   1.018  13.282 -0.0878  0.7363  0.1029
 7558SOL    HW134310   3.040   0.939  13.334  0.0365  1.0928  0.6105
 7558SOL    HW234311   2.942   1.054  13.307  0.5404  2.6567 -0.5169
 7559SOL     OW34312   4.111   1.235   8.294 -0.4748  0.1615 -0.5321
 7559SOL    HW134313   4.051   1.308   8.278 -0.7745 -0.4005 -2.0422
 7559SOL    HW234314   4.147   1.231   8.205  1.9327  3.3492  0.2902
 7560SOL     OW34315   4.173   3.530   9.577  0.4024 -0.1034  0.0257
 7560SOL    HW134316   4.140   3.464   9.638  2.4527 -0.0125  1.2388
 7560SOL    HW234317   4.092   3.572   9.550 -0.2384 -2.3535 -1.5673
 7561SOL     OW34318   1.242   3.029   5.288 -0.0296  0.1180 -0.1934
 7561SOL    HW134319   1.147   3.022   5.289 -0.1566  2.0825  1.0580
 7561SOL    HW234320   1.261   3.122   5.298  0.6400 -0.1818  1.3937
 7562SOL     OW34321   0.798   3.306   2.331 -0.5632 -0.6050  0.6485
 7562SOL    HW134322   0.735   3.301   2.259  1.6562  0.9514 -1.3800
 7562SOL    HW234323   0.882   3.310   2.286  0.3833 -1.3176  2.3810
 7563SOL     OW34324   1.291   0.331   7.118  0.2128  0.5759 -0.2921
 7563SOL    HW134325   1.199   0.324   7.094  0.9626 -2.3593 -2.3457
 7563SOL    HW234326   1.332   0.360   7.036 -0.2417  1.4533 -0.2139
 7564SOL     OW34327   1.394   4.171  12.177 -0.1319 -0.4074 -0.1783
 7564SOL    HW134328   1.445   4.112  12.233 -2.3082 -1.5116  0.6332
 7564SOL    HW234329   1.392   4.112  12.101  1.8683  1.2230 -1.4977
 7565SOL     OW34330   0.696   0.134  14.614  0.0589  0.4130 -0.1451
 7565SOL    HW134331   0.661   0.152  14.527 -0.7654  0.9403  0.2863
 7565SOL    HW234332   0.740   0.215  14.640  1.0055 -0.2129  0.1936
 7566SOL     OW34333   0.060   2.560   8.976 -0.0940  0.1528  0.2354
 7566SOL    HW134334   0.139   2.604   9.008 -0.2723  1.5672 -1.2329
 7566SOL    HW234335   4.741   2.602   9.036 -0.2624 -0.6329  0.6157
 7567SOL     OW34336   0.641   3.419   6.922 -0.5865 -0.6316  0.2027
 7567SOL    HW134337   0.617   3.377   7.005  2.5307 -2.6182  0.1162
 7567SOL    HW234338   0.726   3.453   6.949 -0.8729 -0.5388  1.0026
 7568SOL     OW34339   2.743   0.690   6.157 -0.0080  0.0094  0.1923
 7568SOL    HW134340   2.724   0.737   6.075 -3.7150 -1.4856  0.1830
 7568SOL    HW234341   2.708   0.748   6.224 -1.0516 -0.3988  0.0056
 7569SOL     OW34342   0.373   1.608   5.295  0.1901 -0.2541 -1.1027
 7569SOL    HW134343   0.401   1.693   5.328 -2.2647 -0.0685  0.5548
 7569SOL    HW234344   0.458   1.566   5.279 -0.2456 -0.7131 -2.2938
 7570SOL     OW34345   3.039   3.097  16.046 -0.1274 -0.0237  0.1440
 7570SOL    HW134346   3.041   3.096  15.950  0.1513  1.8150  0.1379
 7570SOL    HW234347   3.016   3.006  16.064  1.5702 -0.5527 -0.3825
 7571SOL     OW34348   3.511   3.393   8.205 -0.0878 -0.2436  0.2554
 7571SOL    HW134349   3.600   3.357   8.208  0.4589  1.1925  1.1319
 7571SOL    HW234350   3.460   3.329   8.253  1.2805 -0.2961  1.6204
 7572SOL     OW34351   2.674   4.529   0.761  0.0423  0.1909 -0.7558
 7572SOL    HW134352   2.678   4.560   0.670 -2.6190  0.2548 -0.8702
 7572SOL    HW234353   2.588   4.487   0.771  1.1778 -2.3437 -1.5709
 7573SOL     OW34354   1.925   2.296  11.773  0.1561  0.2562  0.0065
 7573SOL    HW134355   2.019   2.306  11.789  0.3750  1.2463 -1.8503
 7573SOL    HW234356   1.905   2.242  11.849 -1.2892  0.6268 -0.1165
 7574SOL     OW34357   1.001   2.074   9.212 -0.8481 -0.1379 -0.3068
 7574SOL    HW134358   1.051   2.145   9.253  0.5542 -1.1397 -0.2837
 7574SOL    HW234359   1.057   1.997   9.221 -3.3120 -2.0178 -0.8674
 7575SOL     OW34360   3.690   4.429   7.473  0.4853  0.9152  0.2961
 7575SOL    HW134361   3.761   4.409   7.412  0.7587  0.9265  0.6039
 7575SOL    HW234362   3.723   4.374   7.544 -0.8981 -0.8016 -0.3963
 7576SOL     OW34363   3.762   4.423   6.520  0.6046 -0.3689 -0.0953
 7576SOL    HW134364   3.786   4.383   6.437  0.5503  0.7023 -0.6276
 7576SOL    HW234365   3.671   4.397   6.513  0.2395  0.9548 -0.3217
 7577SOL     OW34366   0.943   3.999   8.256 -0.2649 -0.0190 -0.3364
 7577SOL    HW134367   0.946   3.939   8.330  1.8794 -0.0135 -0.4231
 7577SOL    HW234368   0.905   4.078   8.295  0.8871  0.0686  0.6013
 7578SOL     OW34369   1.236   4.516  14.973  0.0661  0.4885 -0.4790
 7578SOL    HW134370   1.165   4.509  15.036  0.0233 -0.2589 -0.6183
 7578SOL    HW234371   1.206   4.511  14.882 -0.5165 -1.8305 -0.1595
 7579SOL     OW34372   4.624   1.677   8.968 -0.7304 -0.2046  0.1678
 7579SOL    HW134373   4.675   1.622   9.027 -0.3039 -1.3726 -1.2956
 7579SOL    HW234374   4.682   1.684   8.892 -0.7474 -2.7667 -0.0948
 7580SOL     OW34375   2.946   0.071   3.663  0.2596  0.0806  0.9381
 7580SOL    HW134376   2.873   0.099   3.607  1.2502 -0.0240 -0.3902
 7580SOL    HW234377   3.022   0.118   3.629 -1.6625  1.0526 -2.0645
 7581SOL     OW34378   0.763   0.907  16.045 -0.1317  0.5061  0.6377
 7581SOL    HW134379   0.812   0.829  16.018 -1.6938 -0.6960  1.1945
 7581SOL    HW234380   0.808   0.929  16.126 -0.6572 -0.3695  1.1756
 7582SOL     OW34381   4.335   4.175   1.844 -0.0715  0.1683 -0.0563
 7582SOL    HW134382   4.274   4.101   1.846 -0.1294  0.2350  0.7817
 7582SOL    HW234383   4.364   4.173   1.753 -1.2117  0.0152 -0.4110
 7583SOL     OW34384   1.145   4.029  16.504 -0.2612  0.3142  0.4784
 7583SOL    HW134385   1.186   4.114  16.489 -0.2815  0.6041  2.0031
 7583SOL    HW234386   1.215   3.973  16.471  0.8753  0.9118  1.8991
 7584SOL     OW34387   3.960   1.004   2.150 -1.0562 -0.2442 -0.5741
 7584SOL    HW134388   3.976   1.097   2.136 -0.8318 -0.2562 -0.4162
 7584SOL    HW234389   4.014   0.971   2.078  0.3923  0.4106  0.2100
 7585SOL     OW34390   0.118   2.565   3.860 -0.0449 -0.3290  0.2605
 7585SOL    HW134391   0.153   2.546   3.947 -1.2278  0.3535  0.8817
 7585SOL    HW234392   0.033   2.606   3.877 -0.7136 -0.6906 -2.1059
 7586SOL     OW34393   1.603   2.777   4.647  0.2267  0.3503 -0.1643
 7586SOL    HW134394   1.530   2.722   4.618 -1.0008  1.6635  0.4203
 7586SOL    HW234395   1.559   2.859   4.667 -1.2736 -0.5812  0.3565
 7587SOL     OW34396   1.247   0.348   6.056 -0.2373 -0.0674  0.8075
 7587SOL    HW134397   1.249   0.254   6.077 -1.7391 -0.2650  0.0086
 7587SOL    HW234398   1.153   0.359   6.046 -0.0967  0.2826 -0.0693
 7588SOL     OW34399   0.290   0.447   4.522 -0.7809  0.0036 -0.2464
 7588SOL    HW134400   0.249   0.514   4.467 -1.9978  1.6681  2.6801
 7588SOL    HW234401   0.265   0.366   4.479  0.7338 -1.3117  1.3470
 7589SOL     OW34402   2.620   0.981   6.719 -0.6620 -0.0568 -0.5762
 7589SOL    HW134403   2.570   1.029   6.653 -0.0060  0.2735 -0.8436
 7589SOL    HW234404   2.633   0.896   6.677 -0.6716  0.9937 -2.7100
 7590SOL     OW34405   3.928   1.558   1.774 -0.2297  0.7664  0.1387
 7590SOL    HW134406   3.887   1.618   1.836 -2.6224 -0.7342  0.0415
 7590SOL    HW234407   4.017   1.560   1.808 -0.0378 -2.4237 -0.1137
 7591SOL     OW34408   4.211   2.557   5.091  0.5756  0.3269  0.2338
 7591SOL    HW134409   4.138   2.555   5.030 -0.3991  3.7092  1.2765
 7591SOL    HW234410   4.169   2.569   5.176  1.2244 -0.6210  0.6801
 7592SOL     OW34411   1.891   3.193   4.034 -0.5964  0.5026  0.0026
 7592SOL    HW134412   1.908   3.287   4.040 -0.5237  0.3496  2.0059
 7592SOL    HW234413   1.970   3.157   4.075 -0.7409  0.2768  0.0842
 7593SOL     OW34414   1.873   2.610   6.935  0.0789  0.0722  0.0796
 7593SOL    HW134415   1.800   2.669   6.920  1.2735  1.4266 -0.3679
 7593SOL    HW234416   1.926   2.610   6.855  1.8711  0.1226  1.2601
 7594SOL     OW34417   4.382   2.606   4.341  0.2220  0.5896 -0.1529
 7594SOL    HW134418   4.430   2.629   4.262 -0.9792  1.3849 -0.6625
 7594SOL    HW234419   4.325   2.683   4.349 -0.8963 -0.0924 -1.5014
 7595SOL     OW34420   2.898   3.284   6.402  0.5315  0.9289 -0.0702
 7595SOL    HW134421   2.810   3.319   6.418  0.3081  0.0883  0.5076
 7595SOL    HW234422   2.930   3.292   6.491  3.1587 -1.9560 -0.7753
 7596SOL     OW34423   0.129   4.714  17.609  0.4974 -0.0015 -0.2449
 7596SOL    HW134424   0.073   4.636  17.603  0.7048 -0.3044  1.5548
 7596SOL    HW234425   0.071   0.036  17.649  0.2954 -0.6410  0.5052
 7597SOL     OW34426   1.545   3.465   3.589 -0.1114  0.0959  0.3992
 7597SOL    HW134427   1.564   3.371   3.592  1.0657  0.3694  1.3491
 7597SOL    HW234428   1.616   3.505   3.540  0.2494 -0.8828  0.1160
 7598SOL     OW34429   1.860   0.407  14.112  0.0193 -0.4105 -0.6429
 7598SOL    HW134430   1.932   0.461  14.078 -0.1886  1.1557  1.3974
 7598SOL    HW234431   1.787   0.468  14.126  1.0792  0.9462 -1.0222
 7599SOL     OW34432   3.263   4.741   9.968 -0.9033  0.3934  0.2611
 7599SOL    HW134433   3.264   4.645   9.966  1.3370  0.4008  1.5708
 7599SOL    HW234434   3.178   0.025  10.004 -1.1633  0.9481 -0.7583
 7600SOL     OW34435   4.597   0.915   7.433  0.2382 -0.1966 -0.2248
 7600SOL    HW134436   4.523   0.948   7.383  1.7064  0.1912 -2.1387
 7600SOL    HW234437   4.615   0.837   7.380 -0.9409 -0.7887  0.2309
 7601SOL     OW34438   1.682   4.551   3.327  0.5092  0.0609 -0.5735
 7601SOL    HW134439   1.607   4.570   3.270 -0.2673 -2.8556 -0.5156
 7601SOL    HW234440   1.743   4.619   3.299  3.0459 -1.7465  0.5948
 7602SOL     OW34441   3.467   2.032  14.169  0.5485  0.1280  0.3731
 7602SOL    HW134442   3.530   1.985  14.114  0.2223  1.6827 -1.3258
 7602SOL    HW234443   3.523   2.099  14.210 -1.7858  1.8735  0.6908
 7603SOL     OW34444   4.624   3.410   2.235 -0.0287 -0.2514 -0.2437
 7603SOL    HW134445   4.694   3.413   2.300 -0.6999  0.7158  0.4249
 7603SOL    HW234446   4.568   3.344   2.275 -0.9794  0.4922 -0.3551
 7604SOL     OW34447   2.466   0.570  17.531  0.2137  0.0309  0.1961
 7604SOL    HW134448   2.545   0.622  17.515  0.9622 -1.6090 -1.4355
 7604SOL    HW234449   2.437   0.605  17.616 -1.4622  0.9844 -0.7538
 7605SOL     OW34450   2.261   0.242   8.290  0.6109 -1.0605 -0.2281
 7605SOL    HW134451   2.198   0.292   8.238  2.6545  1.9497  0.1484
 7605SOL    HW234452   2.226   0.154   8.278 -1.7278 -0.3942  1.6377
 7606SOL     OW34453   2.501   2.679   3.406  0.0587 -0.1814 -0.4735
 7606SOL    HW134454   2.549   2.619   3.462  0.4945 -1.8824 -2.6762
 7606SOL    HW234455   2.525   2.763   3.445 -2.5088  0.7246 -0.8174
 7607SOL     OW34456   3.451   1.880   6.314 -0.1250 -0.2646  0.2511
 7607SOL    HW134457   3.445   1.930   6.232  1.8721  0.6585  0.6755
 7607SOL    HW234458   3.462   1.942   6.386  0.6647  1.1761 -1.1230
 7608SOL     OW34459   2.934   4.472   9.107 -0.0652  0.3432  0.1900
 7608SOL    HW134460   2.997   4.513   9.048 -0.4127  0.5550 -0.0297
 7608SOL    HW234461   2.852   4.495   9.063  1.3311  1.8193 -1.6446
 7609SOL     OW34462   0.526   4.133   0.933  0.2451 -0.3718 -0.3025
 7609SOL    HW134463   0.616   4.106   0.916  0.5265 -0.7448  1.8549
 7609SOL    HW234464   0.471   4.062   0.898  1.3121  0.5749 -3.8857
 7610SOL     OW34465   1.448   2.048   8.415 -0.4394  0.4091 -0.0156
 7610SOL    HW134466   1.385   1.977   8.408  0.7881 -0.8442  1.5717
 7610SOL    HW234467   1.427   2.092   8.498 -0.0919  0.0760  0.2486
 7611SOL     OW34468   0.516   0.703  11.019  0.1696  0.3890 -0.2343
 7611SOL    HW134469   0.482   0.749  10.943  1.2443 -1.0133 -1.5704
 7611SOL    HW234470   0.610   0.706  11.000  0.1335 -1.5118 -0.6672
 7612SOL     OW34471   3.939   4.345   3.862 -0.4839 -0.2730 -0.1583
 7612SOL    HW134472   3.934   4.249   3.860 -0.0876 -0.2947 -0.1370
 7612SOL    HW234473   3.914   4.364   3.772 -0.6392 -1.5043 -0.3844
 7613SOL     OW34474   1.775   2.961  14.763 -0.1980  0.6425  0.3691
 7613SOL    HW134475   1.795   2.888  14.822  0.8475  1.0887  0.5656
 7613SOL    HW234476   1.858   2.962  14.716 -1.1853  1.0372 -1.3586
 7614SOL     OW34477   3.638   0.299   4.373  0.5986 -0.8141 -0.5594
 7614SOL    HW134478   3.682   0.234   4.318  0.4469  0.1873 -1.8780
 7614SOL    HW234479   3.651   0.383   4.329 -2.0976 -0.4868 -0.7431
 7615SOL     OW34480   2.353   1.364  12.412 -0.1624  0.4406  0.5679
 7615SOL    HW134481   2.448   1.353  12.416  0.0590  2.0666 -0.5432
 7615SOL    HW234482   2.327   1.332  12.326  2.7425  0.2005 -0.2114
 7616SOL     OW34483   2.804   1.336   4.871  0.0275 -0.4685 -0.1185
 7616SOL    HW134484   2.840   1.284   4.800  0.5573  0.6746 -0.6972
 7616SOL    HW234485   2.830   1.424   4.841  1.1944 -1.1281 -1.0291
 7617SOL     OW34486   1.152   3.202   3.652  0.1768 -0.1963 -0.5643
 7617SOL    HW134487   1.154   3.246   3.567 -1.8375 -1.4969 -1.2917
 7617SOL    HW234488   1.192   3.270   3.705 -2.0849 -0.5751  1.5813
 7618SOL     OW34489   3.628   1.212   8.645  0.5212 -0.5465 -0.3020
 7618SOL    HW134490   3.547   1.201   8.596 -0.0180 -0.5287  0.5786
 7618SOL    HW234491   3.630   1.124   8.683  0.1794 -0.6762 -0.5868
 7619SOL     OW34492   2.663   1.546   6.815 -0.0501 -0.0217 -0.0632
 7619SOL    HW134493   2.636   1.536   6.906  1.8338 -0.2737  0.4577
 7619SOL    HW234494   2.744   1.596   6.821  1.4689 -2.4980  0.2921
 7620SOL     OW34495   2.558   0.114   5.032  0.0910  0.1043 -0.2637
 7620SOL    HW134496   2.564   0.192   4.977  1.7547 -1.6082 -2.4912
 7620SOL    HW234497   2.629   0.127   5.095  0.4819 -1.3767 -0.4032
 7621SOL     OW34498   2.630   4.361   4.040  0.9840  0.3425 -0.0518
 7621SOL    HW134499   2.619   4.452   4.014  3.0334  0.6926  0.3030
 7621SOL    HW234500   2.638   4.319   3.954  0.7442 -0.9990  0.5782
 7622SOL     OW34501   0.451   2.208  15.272  0.1892 -0.0649 -0.3756
 7622SOL    HW134502   0.434   2.275  15.207  1.3293 -0.3131 -0.9255
 7622SOL    HW234503   0.481   2.137  15.216 -0.8880  0.3085 -1.4242
 7623SOL     OW34504   3.370   1.115  13.164 -0.3350  0.1178  0.4219
 7623SOL    HW134505   3.460   1.133  13.139 -1.0736  0.5513 -1.9606
 7623SOL    HW234506   3.332   1.076  13.085 -0.4111  0.6844  0.1781
 7624SOL     OW34507   2.958   0.385   9.729 -0.8032 -0.2745 -0.4715
 7624SOL    HW134508   3.015   0.360   9.802  0.4642 -1.1208 -1.7499
 7624SOL    HW234509   2.879   0.331   9.735 -1.6111  0.8438 -1.0808
 7625SOL     OW34510   1.764   1.405  11.735  0.1420  0.2957 -0.0724
 7625SOL    HW134511   1.702   1.436  11.669 -0.6849 -3.5665 -1.0686
 7625SOL    HW234512   1.713   1.345  11.790  0.4917 -2.5922 -2.9705
 7626SOL     OW34513   4.720   3.031   2.183 -0.2153 -0.7352  0.1975
 7626SOL    HW134514   0.009   2.955   2.233 -2.0739 -1.4330  0.3010
 7626SOL    HW234515   0.033   3.103   2.213  2.1943 -2.6401  0.3502
 7627SOL     OW34516   3.511   1.175   3.372 -0.0591  0.6675 -0.2759
 7627SOL    HW134517   3.423   1.137   3.374  1.3865 -2.5563  0.5118
 7627SOL    HW234518   3.554   1.126   3.303 -1.0227  0.8727 -1.0248
 7628SOL     OW34519   3.318   0.134   0.071 -0.7902 -0.2048  0.4644
 7628SOL    HW134520   3.345   0.061   0.016  1.5546  0.5400  0.5905
 7628SOL    HW234521   3.331   0.213   0.018 -1.2829 -1.1960 -1.1159
 7629SOL     OW34522   2.338   0.200  12.990  0.0815 -0.2111  0.6689
 7629SOL    HW134523   2.350   0.201  13.085  1.6792  0.6441  0.4566
 7629SOL    HW234524   2.421   0.232  12.955  0.4985 -2.0248  0.0135
 7630SOL     OW34525   2.256   1.981   7.558  0.5560 -0.2872  0.0456
 7630SOL    HW134526   2.269   2.064   7.603  0.4261  0.3776 -1.1485
 7630SOL    HW234527   2.173   1.958   7.600 -0.3697  1.6752 -0.7244
 7631SOL     OW34528   0.482   3.613   6.262 -0.2695  0.1465  0.2316
 7631SOL    HW134529   0.425   3.636   6.336 -1.5418  0.5074 -0.8670
 7631SOL    HW234530   0.537   3.542   6.294 -0.2315 -0.5710 -1.4165
 7632SOL     OW34531   3.972   2.059   6.903  0.1254 -0.3935 -0.0327
 7632SOL    HW134532   4.024   2.112   6.843 -2.5471  1.6578 -0.5784
 7632SOL    HW234533   3.905   2.017   6.848 -1.1249  0.9077  0.4863
 7633SOL     OW34534   1.947   0.732   5.395 -0.4839  0.0976  0.9016
 7633SOL    HW134535   1.872   0.721   5.454  0.1174 -4.8197  0.7443
 7633SOL    HW234536   1.986   0.811   5.432  3.4693 -0.7105 -1.5452
 7634SOL     OW34537   3.519   4.034   8.139 -0.3110 -0.0112 -0.4459
 7634SOL    HW134538   3.510   3.947   8.101 -3.0981 -0.0797  0.3786
 7634SOL    HW234539   3.450   4.033   8.205 -0.0753  2.1496 -0.1623
 7635SOL     OW34540   2.888   0.345   8.381 -0.3789 -0.5022 -0.2268
 7635SOL    HW134541   2.887   0.295   8.299 -0.5343  0.1006 -0.5995
 7635SOL    HW234542   2.901   0.270   8.438  0.6775 -0.3314 -0.2532
 7636SOL     OW34543   2.123   3.973   8.944  0.1614  0.3893 -0.6361
 7636SOL    HW134544   2.040   3.927   8.957  0.8254 -0.4191  0.7093
 7636SOL    HW234545   2.195   3.911   8.945  1.1381  1.5480  0.1871
 7637SOL     OW34546   2.358   0.082   3.583  0.3440  0.1649  0.2496
 7637SOL    HW134547   2.353   0.067   3.489 -3.4860  1.8702  0.2020
 7637SOL    HW234548   2.289   0.146   3.597 -0.6752 -0.7986 -0.3507
 7638SOL     OW34549   0.810   2.190   3.515 -0.4631 -0.3344  0.4291
 7638SOL    HW134550   0.817   2.223   3.426  2.6779 -1.7377  0.1241
 7638SOL    HW234551   0.719   2.166   3.533 -0.3327 -1.1720 -0.0380
 7639SOL     OW34552   3.929   3.791   6.720  0.0868  0.4302 -0.3065
 7639SOL    HW134553   4.018   3.758   6.733  0.1322  0.6877  0.0197
 7639SOL    HW234554   3.941   3.882   6.746 -0.4445  0.5583 -0.5081
 7640SOL     OW34555   4.380   0.603  11.493  0.2784 -0.5251  0.4651
 7640SOL    HW134556   4.335   0.685  11.511 -0.3075 -0.7774  0.1527
 7640SOL    HW234557   4.333   0.578  11.413 -1.6472 -0.0881  1.4661
 7641SOL     OW34558   4.642   4.478   5.593 -0.0611  0.5419  0.4070
 7641SOL    HW134559   4.705   4.538   5.633 -2.6407  1.8868  2.4507
 7641SOL    HW234560   4.682   4.391   5.592 -1.0726  0.0768  0.2358
 7642SOL     OW34561   3.634   1.684  10.148  0.4861 -0.3467  0.0874
 7642SOL    HW134562   3.664   1.686  10.057 -1.8657  1.1755 -0.6476
 7642SOL    HW234563   3.640   1.590  10.167  2.1715 -0.1974  0.2679
 7643SOL     OW34564   1.290   2.831   8.458 -0.0482  0.3428 -0.1378
 7643SOL    HW134565   1.324   2.779   8.385  0.0565  0.1509  0.0479
 7643SOL    HW234566   1.287   2.772   8.533 -1.7845 -0.7117 -1.0321
 7644SOL     OW34567   1.673   2.069   2.705  0.5614 -0.6121 -0.3650
 7644SOL    HW134568   1.709   2.074   2.617  0.2476 -1.1873 -0.5251
 7644SOL    HW234569   1.602   2.010   2.681  0.0215  0.1171 -0.5481
 7645SOL     OW34570   3.439   3.011   9.011  0.0974  0.2260 -0.0141
 7645SOL    HW134571   3.354   3.049   9.032  0.0075  0.4404 -0.7712
 7645SOL    HW234572   3.495   3.027   9.087  0.5352  1.0704 -0.5179
 7646SOL     OW34573   1.296   1.904   4.809 -0.0850 -0.1697 -0.0965
 7646SOL    HW134574   1.201   1.904   4.801  0.0428  0.1372 -1.5754
 7646SOL    HW234575   1.312   1.856   4.728  0.6509  0.7911 -0.5113
 7647SOL     OW34576   1.787   0.241   5.409  0.5259 -0.3597 -0.1565
 7647SOL    HW134577   1.799   0.193   5.491  0.6250  0.0023  0.0359
 7647SOL    HW234578   1.874   0.225   5.373 -0.4231 -0.8790 -2.2293
 7648SOL     OW34579   0.614   0.416   5.867  0.3494  0.0099 -0.4576
 7648SOL    HW134580   0.682   0.470   5.825  1.8844 -2.9745 -1.8426
 7648SOL    HW234581   0.662   0.338   5.897  0.2867 -0.0417 -0.4921
 7649SOL     OW34582   4.066   2.222   6.706 -0.3236  0.2975 -0.6076
 7649SOL    HW134583   4.089   2.307   6.668  1.6379 -0.3166 -0.7865
 7649SOL    HW234584   4.035   2.173   6.631  0.6118  1.7311 -1.9306
 7650SOL     OW34585   3.284   1.874   5.432  0.1979 -0.0456  0.2091
 7650SOL    HW134586   3.259   1.961   5.462 -1.4492 -0.2871 -0.4923
 7650SOL    HW234587   3.350   1.884   5.363 -0.7227  3.9196 -0.0648
 7651SOL     OW34588   3.523   1.324   3.839 -0.3848 -0.1267  0.4370
 7651SOL    HW134589   3.520   1.240   3.885 -1.1552 -0.6486 -0.5561
 7651SOL    HW234590   3.617   1.339   3.826 -0.7527  1.2612 -0.5688
 7652SOL     OW34591   1.177   3.086   8.581  0.7612  0.3327  0.3128
 7652SOL    HW134592   1.240   3.021   8.550 -0.7391 -1.4384  1.0261
 7652SOL    HW234593   1.197   3.085   8.674  2.2735  0.5380 -0.0022
 7653SOL     OW34594   1.261   2.067   9.527 -0.5820  0.2020 -0.3034
 7653SOL    HW134595   1.244   2.051   9.434  1.2491 -2.0249 -0.2644
 7653SOL    HW234596   1.179   2.029   9.559 -0.7754  0.2872 -0.7086
 7654SOL     OW34597   1.694   3.288  17.162  0.0424 -0.3175  0.3332
 7654SOL    HW134598   1.719   3.303  17.253  1.7420  4.0405 -0.8638
 7654SOL    HW234599   1.784   3.298  17.129  0.8900 -2.1903  2.0989
 7655SOL     OW34600   1.544   3.706   1.985 -0.0174 -0.2680  0.2701
 7655SOL    HW134601   1.518   3.666   1.902  1.7052  1.2552 -1.0219
 7655SOL    HW234602   1.638   3.710   1.969 -0.5954 -2.0339 -3.6323
 7656SOL     OW34603   0.334   0.331   8.778  0.5419 -0.5334 -0.7493
 7656SOL    HW134604   0.284   0.261   8.821  1.4393 -0.3473  0.6247
 7656SOL    HW234605   0.310   0.396   8.844  0.5156 -1.0156 -0.2778
 7657SOL     OW34606   1.521   0.619  12.561  0.2891 -0.7792  0.0914
 7657SOL    HW134607   1.496   0.529  12.579  3.3495 -1.9513 -1.4452
 7657SOL    HW234608   1.438   0.644  12.601  0.2696  0.8078 -0.9161
 7658SOL     OW34609   1.182   2.200   4.331 -0.4303 -0.0078  0.2308
 7658SOL    HW134610   1.244   2.228   4.399  0.8065 -1.9882 -0.0703
 7658SOL    HW234611   1.214   2.113   4.307  2.4042  0.9119  0.5613
 7659SOL     OW34612   2.511   1.630   2.343  0.3621  0.1490 -0.2852
 7659SOL    HW134613   2.442   1.566   2.322  0.1293  0.3435 -0.1098
 7659SOL    HW234614   2.510   1.611   2.437 -0.5503 -0.0363 -0.3296
 7660SOL     OW34615   4.617   4.251   0.782  0.4726  0.1281  0.0213
 7660SOL    HW134616   4.561   4.271   0.707 -0.4829 -3.4144 -0.2110
 7660SOL    HW234617   4.670   4.176   0.753  0.3508 -0.0597  0.2837
 7661SOL     OW34618   3.840   0.399   2.788  0.3182  0.2669  0.1837
 7661SOL    HW134619   3.833   0.395   2.692 -2.3392  1.7024  0.3410
 7661SOL    HW234620   3.842   0.494   2.799 -1.2405  0.2708  0.3514
 7662SOL     OW34621   1.177   2.373   2.391  0.4246 -0.6306  0.7537
 7662SOL    HW134622   1.245   2.402   2.330 -0.3652 -0.1532  0.0900
 7662SOL    HW234623   1.224   2.313   2.448  1.6214  0.9948  1.4575
 7663SOL     OW34624   0.120   2.674   5.578  0.1962 -0.1052  0.2198
 7663SOL    HW134625   0.207   2.714   5.583 -0.3098  0.9957  0.1163
 7663SOL    HW234626   0.112   2.648   5.486  0.2722  1.8897 -0.3403
 7664SOL     OW34627   2.482   3.974   6.947 -0.0803 -0.3406 -0.8255
 7664SOL    HW134628   2.415   3.976   6.879  1.1279  0.8149 -1.9536
 7664SOL    HW234629   2.452   3.896   6.995  2.2587  0.1752  1.4797
 7665SOL     OW34630   4.223   1.368   7.586  0.1955 -0.5616 -0.2461
 7665SOL    HW134631   4.133   1.399   7.576  1.0530  2.0509  0.1329
 7665SOL    HW234632   4.210   1.305   7.657  1.2647 -0.9184 -0.3797
 7666SOL     OW34633   4.477   2.508   6.063  0.0953  0.2029  0.0483
 7666SOL    HW134634   4.453   2.441   6.127  0.3455  1.6019  1.5918
 7666SOL    HW234635   4.511   2.459   5.988 -0.6945 -0.4569  0.1212
 7667SOL     OW34636   3.124   3.431   0.407 -0.0884  0.6175  0.0000
 7667SOL    HW134637   3.153   3.354   0.359  0.7794  0.6579  0.4605
 7667SOL    HW234638   3.194   3.491   0.384  1.4888 -0.6747  1.4394
 7668SOL     OW34639   1.698   0.706   7.285  0.3634  0.8312 -0.2421
 7668SOL    HW134640   1.736   0.774   7.229  1.5110  1.0568  0.8303
 7668SOL    HW234641   1.751   0.628   7.266 -0.2249  0.5203 -0.6213
 7669SOL     OW34642   4.684   4.708  11.822  0.6697 -0.3613  0.1663
 7669SOL    HW134643   4.642   0.052  11.830  1.1678 -0.3251  2.6012
 7669SOL    HW234644   4.624   4.670  11.758  2.8184 -0.6456 -1.6612
 7670SOL     OW34645   0.297   0.936   5.646  0.0323 -0.1859 -0.0749
 7670SOL    HW134646   0.313   0.843   5.628  0.5495 -0.3703  1.3823
 7670SOL    HW234647   0.362   0.955   5.713  1.4617  1.3920 -1.9163
 7671SOL     OW34648   1.711   0.915   9.543  0.2716  0.1319  0.0607
 7671SOL    HW134649   1.650   0.979   9.507 -0.4416  0.9504  2.7060
 7671SOL    HW234650   1.638   0.856   9.563  0.0062  0.1304 -0.9016
 7672SOL     OW34651   2.338   1.330   6.398 -0.7034  0.0583  0.3300
 7672SOL    HW134652   2.368   1.412   6.358  2.3658 -0.7739  0.9153
 7672SOL    HW234653   2.257   1.315   6.350  0.6069 -2.3078 -1.1352
 7673SOL     OW34654   1.490   1.736  11.057  0.3413  0.1951 -0.1134
 7673SOL    HW134655   1.441   1.668  11.012  1.9747  0.8961 -2.9367
 7673SOL    HW234656   1.432   1.811  11.045  0.8896  0.6860  0.2943
 7674SOL     OW34657   0.297   2.619   2.898 -0.2319  0.0494 -0.3208
 7674SOL    HW134658   0.234   2.547   2.886  0.9395 -0.8277 -1.1046
 7674SOL    HW234659   0.335   2.614   2.811  0.4835  1.2643 -0.0744
 7675SOL     OW34660   4.665   2.331   9.264 -0.6012  0.1857 -0.3979
 7675SOL    HW134661   4.599   2.338   9.195  0.2909  0.2433 -1.2426
 7675SOL    HW234662   4.697   2.243   9.245  0.7925  0.2666  1.4794
 7676SOL     OW34663   1.011   3.470  15.750 -0.2822  0.3760  1.0685
 7676SOL    HW134664   1.027   3.505  15.663  0.2159  0.3502  1.1506
 7676SOL    HW234665   1.048   3.382  15.742 -1.2842 -0.3265  3.8946
 7677SOL     OW34666   1.552   2.429   1.587  0.3502 -0.6035  0.2336
 7677SOL    HW134667   1.575   2.337   1.571 -1.0264 -0.5224 -2.0880
 7677SOL    HW234668   1.520   2.456   1.501  0.9885  0.5014  0.3401
 7678SOL     OW34669   0.899   2.686  17.094 -0.4956  0.1615 -0.1805
 7678SOL    HW134670   0.984   2.657  17.062 -0.8458 -1.2476  0.1632
 7678SOL    HW234671   0.904   2.781  17.095 -1.4107  0.1926  1.0599
 7679SOL     OW34672   0.133   1.865   2.388 -0.0203 -0.1891  0.1119
 7679SOL    HW134673   0.196   1.851   2.460  1.3172 -0.1546 -1.0605
 7679SOL    HW234674   0.171   1.803   2.325  1.8442  1.0148  0.0458
 7680SOL     OW34675   2.893   1.092   3.322  0.7157 -0.5780  0.0935
 7680SOL    HW134676   2.921   1.033   3.392  0.7439  1.8654  2.1344
 7680SOL    HW234677   2.979   1.127   3.302  0.2681  0.9978  0.9280
 7681SOL     OW34678   1.456   3.749   6.998 -0.1479  0.1526 -0.4068
 7681SOL    HW134679   1.448   3.788   6.911  2.1575 -0.7661 -1.0103
 7681SOL    HW234680   1.367   3.714   7.007 -0.0074 -0.1985 -0.3698
 7682SOL     OW34681   1.149   4.074   0.754 -0.0047  0.3154  0.5145
 7682SOL    HW134682   1.120   4.164   0.767  1.6020  1.0571 -1.0769
 7682SOL    HW234683   1.203   4.086   0.676 -1.7672  2.1048 -0.4313
 7683SOL     OW34684   0.897   0.707   9.451 -0.5008  0.1055  0.1115
 7683SOL    HW134685   0.807   0.738   9.442 -1.3663 -1.9113  1.6735
 7683SOL    HW234686   0.960   0.764   9.408 -1.1721  2.0524  1.7041
 7684SOL     OW34687   2.711   3.431   9.076 -0.0255 -0.1734 -0.2027
 7684SOL    HW134688   2.677   3.444   8.987  0.6544 -0.1232 -0.4541
 7684SOL    HW234689   2.621   3.425   9.106  0.0520 -0.0116  0.0571
 7685SOL     OW34690   1.502   0.573   3.168  0.0480  0.7474 -0.4855
 7685SOL    HW134691   1.417   0.616   3.180 -0.7197 -0.5211 -1.3140
 7685SOL    HW234692   1.547   0.640   3.118  0.4208 -0.3071 -1.5604
 7686SOL     OW34693   1.058   2.073  12.139 -0.4790 -0.4027 -0.4306
 7686SOL    HW134694   0.969   2.082  12.174  0.5083  1.3164  1.5865
 7686SOL    HW234695   1.113   2.087  12.216  0.2486 -1.2602 -0.7915
 7687SOL     OW34696   2.389   2.713   2.298 -0.0489 -0.0851  0.0234
 7687SOL    HW134697   2.415   2.715   2.390 -0.1077  0.5776  0.0251
 7687SOL    HW234698   2.299   2.689   2.319 -0.0055  0.9017  1.3092
 7688SOL     OW34699   4.492   3.800   7.805  0.1926 -0.1456  0.1422
 7688SOL    HW134700   4.438   3.721   7.793 -0.1189 -0.2377  2.0234
 7688SOL    HW234701   4.443   3.865   7.756  1.1617 -0.0141 -0.6420
 7689SOL     OW34702   4.549   2.188   7.827  0.5142  0.3074  0.2798
 7689SOL    HW134703   4.640   2.165   7.810  1.0342  1.8988  0.8767
 7689SOL    HW234704   4.556   2.282   7.841 -1.5680  0.4693  0.2452
 7690SOL     OW34705   0.719   1.607  11.620 -0.0399  0.3041 -0.1253
 7690SOL    HW134706   0.654   1.580  11.685 -1.1623  0.4138 -1.2212
 7690SOL    HW234707   0.694   1.552  11.546  0.6060  2.7843 -2.1606
 7691SOL     OW34708   2.148   3.061   9.358 -0.3238  0.0973  0.1203
 7691SOL    HW134709   2.203   3.048   9.435 -1.8854  0.9618  1.3783
 7691SOL    HW234710   2.064   3.021   9.380  0.5238 -0.8039  1.6921
 7692SOL     OW34711   2.911   3.268   9.173 -0.3013  0.2001  0.0754
 7692SOL    HW134712   2.909   3.202   9.105  1.9316  0.2469 -0.0228
 7692SOL    HW234713   2.858   3.340   9.139  0.3161  1.4707  1.7900
 7693SOL     OW34714   0.709   1.866   8.981  0.0431 -0.4973  0.1496
 7693SOL    HW134715   0.665   1.790   8.944 -0.4204  0.4239 -1.1746
 7693SOL    HW234716   0.722   1.834   9.071  1.5647 -1.1023 -0.2855
 7694SOL     OW34717   3.785   3.680   6.528 -0.0113 -0.1012  0.1529
 7694SOL    HW134718   3.824   3.714   6.609 -0.4750 -1.4352  0.9534
 7694SOL    HW234719   3.840   3.602   6.520 -2.9922 -2.1203 -0.6988
 7695SOL     OW34720   2.464   3.798   1.407 -0.0437  0.0361 -0.3603
 7695SOL    HW134721   2.459   3.892   1.392  1.2101  0.0208 -0.8695
 7695SOL    HW234722   2.524   3.796   1.482  0.9495 -1.9910 -1.2003
 7696SOL     OW34723   3.298   1.474   6.329  0.4803  0.3082 -0.1172
 7696SOL    HW134724   3.390   1.483   6.352  0.8057 -1.3545 -0.7549
 7696SOL    HW234725   3.300   1.378   6.322 -0.2674  0.2649  0.2740
 7697SOL     OW34726   0.395   2.150   3.871  0.5189  0.2760 -0.2422
 7697SOL    HW134727   0.488   2.137   3.853  0.5340  0.1522 -0.0741
 7697SOL    HW234728   0.410   2.241   3.897  0.0211  0.4008 -0.3905
 7698SOL     OW34729   2.112   3.105   1.918 -0.4600  0.4535 -0.2038
 7698SOL    HW134730   2.134   3.186   1.872  0.9522  0.3155  0.2311
 7698SOL    HW234731   2.198   3.063   1.910 -0.0836  1.1623  0.1155
 7699SOL     OW34732   2.613   3.296   3.316  0.0502 -0.3255 -0.2713
 7699SOL    HW134733   2.686   3.336   3.269  1.2445 -0.8823  1.0882
 7699SOL    HW234734   2.546   3.362   3.299  0.2211 -0.0630  0.0832
 7700SOL     OW34735   3.156   0.062  14.085 -0.1872  0.0175 -0.0563
 7700SOL    HW134736   3.138   0.143  14.134  2.1667  0.4648  0.0654
 7700SOL    HW234737   3.185   0.087  13.997 -1.1508 -3.9145 -1.4749
 7701SOL     OW34738   2.190   0.509  16.127  0.2730  0.1138 -0.4850
 7701SOL    HW134739   2.168   0.419  16.102  0.3097  0.0130 -0.1550
 7701SOL    HW234740   2.112   0.556  16.097  0.7374  1.8884  1.0819
 7702SOL     OW34741   3.616   2.249  13.501  0.4812  0.1485  0.1616
 7702SOL    HW134742   3.623   2.336  13.460 -0.7681  0.0104 -0.3548
 7702SOL    HW234743   3.703   2.210  13.495  0.1544 -0.7148  0.9848
 7703SOL     OW34744   3.977   0.955  16.198 -0.4676 -0.0209  0.1324
 7703SOL    HW134745   3.889   0.985  16.175 -0.2574 -0.2556 -0.9803
 7703SOL    HW234746   4.002   0.921  16.112 -0.8439  2.3766 -0.9113
 7704SOL     OW34747   4.208   0.064  10.281  0.3410 -0.4501 -0.2552
 7704SOL    HW134748   4.229   0.011  10.357  1.2449  1.6808  0.9913
 7704SOL    HW234749   4.262   0.143  10.284  0.8581 -0.7476 -1.5783
 7705SOL     OW34750   1.746   0.687  16.207  0.4175  0.0239  0.5720
 7705SOL    HW134751   1.707   0.705  16.292  3.4539 -0.8639  2.1382
 7705SOL    HW234752   1.677   0.631  16.171  1.2012 -0.2644 -0.4825
 7706SOL     OW34753   0.046   2.064   3.467 -0.2755  0.0952 -0.4417
 7706SOL    HW134754   0.087   2.138   3.422 -0.2025 -0.9317 -2.0605
 7706SOL    HW234755   0.066   2.097   3.555  1.7541  1.3424 -1.3603
 7707SOL     OW34756   4.497   0.618   2.230 -0.3465 -0.0142 -0.3796
 7707SOL    HW134757   4.566   0.643   2.291 -1.5440  2.9819 -0.2161
 7707SOL    HW234758   4.476   0.701   2.186 -1.5550 -0.2631 -0.2877
 7708SOL     OW34759   3.150   0.343  12.476  0.3029 -0.4851 -0.2130
 7708SOL    HW134760   3.222   0.352  12.414  1.1149 -0.7261  0.6960
 7708SOL    HW234761   3.190   0.295  12.548 -0.5032 -0.2355  0.4065
 7709SOL     OW34762   3.203   3.877   2.905 -0.4400 -0.2250  0.2224
 7709SOL    HW134763   3.212   3.803   2.965  2.4052 -0.2958 -0.2993
 7709SOL    HW234764   3.172   3.837   2.824 -0.4228  0.1742  0.0222
 7710SOL     OW34765   0.670   1.337  13.469 -0.0406 -0.4720  0.3271
 7710SOL    HW134766   0.674   1.432  13.460  1.5234 -0.8031 -2.3296
 7710SOL    HW234767   0.578   1.318  13.485  0.1009  0.8570  2.7584
 7711SOL     OW34768   3.098   2.531   5.551 -0.0774 -0.2098 -0.2034
 7711SOL    HW134769   3.022   2.482   5.582  0.1376  0.8091  1.9304
 7711SOL    HW234770   3.138   2.482   5.479  0.9225 -0.5548  0.5867
 7712SOL     OW34771   0.281   2.706   9.053 -0.2509  0.2199  0.0421
 7712SOL    HW134772   0.356   2.696   8.994 -0.5056 -0.2380 -0.2093
 7712SOL    HW234773   0.312   2.694   9.143 -0.1267 -0.4612 -0.0869
 7713SOL     OW34774   1.739   0.111  11.870  0.1784  0.1249  0.2850
 7713SOL    HW134775   1.789   0.193  11.869  0.9838 -0.3772 -0.1818
 7713SOL    HW234776   1.683   0.131  11.945  2.1366 -0.0615  1.7793
 7714SOL     OW34777   0.071   3.977   8.372 -0.2520 -0.5768 -0.2723
 7714SOL    HW134778   0.082   3.903   8.432  0.7121 -0.3206 -0.1250
 7714SOL    HW234779   0.113   4.045   8.424 -0.9643  0.5063 -1.1289
 7715SOL     OW34780   3.151   2.703   4.041 -0.3000  0.3890 -0.3995
 7715SOL    HW134781   3.066   2.671   4.010 -2.1885  2.0064  3.0817
 7715SOL    HW234782   3.128   2.758   4.116  1.3435  0.5952 -0.0552
 7716SOL     OW34783   3.926   0.236  15.841  0.0182  0.1580 -0.3940
 7716SOL    HW134784   4.013   0.269  15.864  0.2705 -1.0614  0.4053
 7716SOL    HW234785   3.939   0.142  15.829 -0.2781  0.2885 -1.6875
 7717SOL     OW34786   2.921   2.737  14.680 -0.7496 -0.4234 -0.1594
 7717SOL    HW134787   2.936   2.726  14.586  3.7350 -0.4577  0.5672
 7717SOL    HW234788   2.826   2.738  14.676 -0.7050  1.0381 -0.6842
 7718SOL     OW34789   3.942   1.610   6.453 -0.2609 -0.6067  0.0707
 7718SOL    HW134790   3.862   1.610   6.506 -0.2151  1.7060  0.1552
 7718SOL    HW234791   3.981   1.695   6.472 -1.5834 -0.0027  0.0972
 7719SOL     OW34792   0.783   0.377  12.953  0.4506 -0.0841 -0.1960
 7719SOL    HW134793   0.710   0.434  12.978  0.3627 -0.9874  1.5896
 7719SOL    HW234794   0.765   0.369  12.859  1.2821 -2.6166 -0.1267
 7720SOL     OW34795   3.639   3.436   9.383 -0.0545 -0.7362 -0.2576
 7720SOL    HW134796   3.556   3.388   9.391 -1.1247  1.0921 -0.3519
 7720SOL    HW234797   3.612   3.508   9.325  0.1831  0.1362  0.7146
 7721SOL     OW34798   0.352   1.602   3.736 -0.6942  0.0097 -0.0527
 7721SOL    HW134799   0.395   1.624   3.819  1.0223 -0.2022 -0.8883
 7721SOL    HW234800   0.429   1.597   3.680 -2.6549 -1.9660 -2.5537
 7722SOL     OW34801   3.580   0.948   6.651 -0.0928  0.6892 -0.6947
 7722SOL    HW134802   3.503   0.941   6.595 -1.6450 -0.0262  1.5019
 7722SOL    HW234803   3.584   1.040   6.676  0.8468  0.3060  0.6000
 7723SOL     OW34804   3.634   3.624   2.665 -0.2384 -0.3163  0.3317
 7723SOL    HW134805   3.704   3.668   2.616 -1.3906  1.0324 -0.0926
 7723SOL    HW234806   3.657   3.648   2.755 -0.0268 -1.5970  0.6194
 7724SOL     OW34807   1.871   1.236   2.814 -0.4271  0.5024 -0.2596
 7724SOL    HW134808   1.808   1.228   2.885  0.7804 -3.3168  0.3689
 7724SOL    HW234809   1.929   1.162   2.823  0.7771  1.5287  0.3412
 7725SOL     OW34810   0.861   3.073  17.282  0.5912 -0.1443 -0.0468
 7725SOL    HW134811   0.789   3.015  17.258  1.8300 -1.3310 -0.9052
 7725SOL    HW234812   0.926   3.024  17.232  1.4905  3.3350 -2.2761
 7726SOL     OW34813   4.677   0.751   0.212 -0.1265  0.2501  0.5852
 7726SOL    HW134814   4.639   0.783   0.130  1.3691 -2.1988 -1.0644
 7726SOL    HW234815   0.019   0.717   0.183 -0.2832  0.4692 -0.1194
 7727SOL     OW34816   3.244   0.519   1.828  0.1263  0.0971 -0.4190
 7727SOL    HW134817   3.286   0.601   1.801  1.1687 -0.7242 -1.3319
 7727SOL    HW234818   3.262   0.513   1.921 -1.5813 -1.3778 -0.1882
 7728SOL     OW34819   3.262   0.538   2.114 -0.2539 -0.0431  0.2198
 7728SOL    HW134820   3.271   0.630   2.136  1.1158 -0.0070 -0.4833
 7728SOL    HW234821   3.323   0.510   2.182  2.8124  2.8108 -1.3595
 7729SOL     OW34822   0.003   1.041   7.618 -0.2090  0.9889 -0.6931
 7729SOL    HW134823   0.084   1.066   7.573  1.2607 -0.5783  1.0842
 7729SOL    HW234824   4.689   1.016   7.545  0.1488 -2.5974  0.2212
 7730SOL     OW34825   3.831   1.825   7.822  0.2375 -0.5218 -0.4164
 7730SOL    HW134826   3.870   1.849   7.905 -0.9589 -1.8663  0.5347
 7730SOL    HW234827   3.915   1.830   7.777  0.9321 -0.2361  0.9281
 7731SOL     OW34828   2.979   3.762   8.475 -0.0895  0.1432 -0.4386
 7731SOL    HW134829   2.926   3.709   8.416  1.4278  0.0375 -1.6972
 7731SOL    HW234830   3.063   3.749   8.432  0.2585 -1.8374  0.8266
 7732SOL     OW34831   3.994   4.315   1.532  0.2975  0.4305  0.3759
 7732SOL    HW134832   4.028   4.240   1.483  0.8696  1.0252 -0.1528
 7732SOL    HW234833   4.031   4.385   1.478  0.6399  1.4820  1.9736
 7733SOL     OW34834   1.840   4.566   8.257  0.1303  0.8711 -0.1750
 7733SOL    HW134835   1.772   4.598   8.317  0.8629  1.0144  0.5683
 7733SOL    HW234836   1.876   4.653   8.238  0.6432  0.4200 -1.2687
 7734SOL     OW34837   1.593   1.484  10.392  0.1252 -0.1254  0.1302
 7734SOL    HW134838   1.649   1.436  10.332  0.5769  0.2757  0.2334
 7734SOL    HW234839   1.599   1.440  10.477 -0.2307  0.5019  0.4813
 7735SOL     OW34840   1.731   2.460   1.839  0.0421  0.3878  0.0546
 7735SOL    HW134841   1.651   2.506   1.866  0.4184  2.1698 -1.9519
 7735SOL    HW234842   1.710   2.445   1.747  1.0334  1.2502 -0.3097
 7736SOL     OW34843   3.377   0.689   3.094 -0.1869  0.2898 -0.6935
 7736SOL    HW134844   3.308   0.663   3.155  1.5104  0.5334  1.3518
 7736SOL    HW234845   3.362   0.783   3.084 -0.0127  0.1102 -2.5936
 7737SOL     OW34846   4.655   0.043   1.817 -0.5194  0.3421  0.0526
 7737SOL    HW134847   4.681   4.711   1.763  1.5022 -0.1553  1.7159
 7737SOL    HW234848   4.721   0.109   1.795  0.2817 -1.4906 -3.1189
 7738SOL     OW34849   2.239   1.793   5.837  0.3500 -0.1110  0.2779
 7738SOL    HW134850   2.169   1.791   5.902 -0.9290 -0.4764 -1.1187
 7738SOL    HW234851   2.200   1.850   5.771  1.9701 -0.3055 -0.8734
 7739SOL     OW34852   1.781   0.888   7.093 -0.2093  0.4735 -0.7475
 7739SOL    HW134853   1.875   0.869   7.096 -0.3619 -0.5756 -2.6987
 7739SOL    HW234854   1.761   0.881   6.999  0.9605 -0.6036 -0.9164
 7740SOL     OW34855   3.199   2.071   4.274  0.0134  0.1859  0.0272
 7740SOL    HW134856   3.248   1.999   4.315  0.4208 -0.3005 -1.3167
 7740SOL    HW234857   3.182   2.039   4.185  0.7998 -0.6698  0.1772
 7741SOL     OW34858   1.588   1.356  16.622 -0.1040 -0.0227  0.3816
 7741SOL    HW134859   1.591   1.383  16.714 -1.7378 -0.9542  0.7153
 7741SOL    HW234860   1.616   1.265  16.629  0.6147  0.3031  1.6652
 7742SOL     OW34861   1.394   0.989   3.377  0.1516 -0.4032 -0.4706
 7742SOL    HW134862   1.394   1.035   3.294  2.6604 -0.5065 -0.5217
 7742SOL    HW234863   1.454   1.039   3.433  0.7411 -1.0310 -0.5442
 7743SOL     OW34864   2.840   4.122   6.373 -0.1993  0.0390 -0.4146
 7743SOL    HW134865   2.872   4.087   6.455 -1.4235  0.4255  0.2253
 7743SOL    HW234866   2.790   4.049   6.336 -1.8485  1.3272 -0.7562
 7744SOL     OW34867   4.319   0.703   5.641  0.2398  0.4523  0.5622
 7744SOL    HW134868   4.229   0.710   5.672 -0.3543  0.5993 -1.2178
 7744SOL    HW234869   4.355   0.724   5.728 -0.3036  1.9886  0.4263
 7745SOL     OW34870   0.571   2.473   4.274 -0.3308  0.3351  0.4833
 7745SOL    HW134871   0.658   2.509   4.289 -0.5901  0.2471  2.1158
 7745SOL    HW234872   0.529   2.558   4.285  1.1030  1.3681 -2.0547
 7746SOL     OW34873   0.283   4.283   7.157  0.1953  0.1474  0.3111
 7746SOL    HW134874   0.214   4.235   7.110  0.5947  0.1954 -0.3233
 7746SOL    HW234875   0.327   4.207   7.195  2.0095  0.9759 -0.1398
 7747SOL     OW34876   4.370   0.480  13.455 -0.0130 -0.0916  0.3252
 7747SOL    HW134877   4.405   0.471  13.544 -0.3856 -0.4004  0.4388
 7747SOL    HW234878   4.424   0.418  13.407  0.8662  1.5294 -0.7831
 7748SOL     OW34879   2.161   0.528   9.566 -0.0481 -0.0664  0.4715
 7748SOL    HW134880   2.248   0.563   9.544  0.1354 -1.0494 -0.3231
 7748SOL    HW234881   2.171   0.440   9.602 -0.4287  0.2539  1.3742
 7749SOL     OW34882   0.337   0.007   9.100  0.5055 -0.1246  0.7396
 7749SOL    HW134883   0.358   0.007   9.194 -0.9594  0.3985  1.0654
 7749SOL    HW234884   0.344   4.657   9.077 -1.8265 -0.1019 -0.0317
 7750SOL     OW34885   1.107   0.435   9.181  0.1474 -0.1244 -0.0243
 7750SOL    HW134886   1.065   0.460   9.263 -0.7949 -0.8031 -0.2938
 7750SOL    HW234887   1.039   0.378   9.143  0.5553  0.5429 -1.7666
 7751SOL     OW34888   0.801   3.792  17.240 -0.5489 -0.2691  0.1687
 7751SOL    HW134889   0.838   3.712  17.277  0.1514 -0.2149 -0.4343
 7751SOL    HW234890   0.867   3.855  17.270 -1.7541  0.9052  0.3816
 7752SOL     OW34891   3.264   3.550   2.314 -0.0403  0.6108 -1.0827
 7752SOL    HW134892   3.312   3.498   2.379 -0.6145 -1.7326 -2.5534
 7752SOL    HW234893   3.251   3.483   2.247  0.3976 -0.5221 -0.0286
 7753SOL     OW34894   2.069   3.341   8.189  0.0218 -0.1059 -0.3200
 7753SOL    HW134895   1.985   3.374   8.158 -0.4134  0.2025  1.1689
 7753SOL    HW234896   2.036   3.306   8.272 -0.3140 -1.2161 -0.9190
 7754SOL     OW34897   0.991   4.122   6.441 -0.2481 -0.1013  0.6261
 7754SOL    HW134898   0.902   4.123   6.406  0.6845  0.1406 -1.7176
 7754SOL    HW234899   0.977   4.105   6.534  0.9553  1.1044  1.0246
 7755SOL     OW34900   1.322   4.098   7.732 -0.0262  0.0509  0.5627
 7755SOL    HW134901   1.356   4.046   7.806  2.5726 -1.1586 -1.4911
 7755SOL    HW234902   1.308   4.188   7.762 -0.8750 -0.4113  1.5597
 7756SOL     OW34903   4.738   1.791   0.211 -0.6983 -0.2030 -0.4364
 7756SOL    HW134904   4.655   1.839   0.209 -0.9999 -0.7314 -0.5915
 7756SOL    HW234905   0.065   1.858   0.214 -0.8520 -0.0797  0.5474
 7757SOL     OW34906   2.012   4.365  11.150 -0.4527 -0.4909  0.5460
 7757SOL    HW134907   1.992   4.411  11.231 -0.2005  1.1525 -0.3302
 7757SOL    HW234908   2.054   4.434  11.099 -0.7629  0.1587  1.1730
 7758SOL     OW34909   3.924   1.333   0.050 -0.4289 -0.0996  0.6747
 7758SOL    HW134910   3.854   1.274   0.076  1.4659 -2.7217 -0.1713
 7758SOL    HW234911   3.879   1.395  17.759  3.2294  1.2864 -0.7026
 7759SOL     OW34912   0.127   1.747   3.702 -0.4388 -0.4238 -0.2925
 7759SOL    HW134913   0.181   1.786   3.771 -0.6585  1.0015 -0.9289
 7759SOL    HW234914   0.185   1.671   3.696  2.2281  1.4899  0.5746
 7760SOL     OW34915   1.590   1.533  11.230  0.0199 -0.0795 -0.6789
 7760SOL    HW134916   1.654   1.559  11.296  0.9699 -3.9796 -0.0353
 7760SOL    HW234917   1.560   1.609  11.180  0.5103  0.8331  0.4045
 7761SOL     OW34918   1.823   0.230   2.360 -0.8240  0.1384  0.0155
 7761SOL    HW134919   1.756   0.182   2.311 -1.1593  1.3068 -0.6617
 7761SOL    HW234920   1.877   0.260   2.288 -0.7309  0.1831  0.1046
 7762SOL     OW34921   1.868   2.196   4.600 -0.3102 -1.0449  0.3731
 7762SOL    HW134922   1.878   2.286   4.632 -0.8792 -0.8645  0.0372
 7762SOL    HW234923   1.875   2.201   4.505 -0.3001  0.9734  0.4797
 7763SOL     OW34924   2.850   0.178  14.968 -0.1826 -0.3624  0.4381
 7763SOL    HW134925   2.826   0.107  15.027 -0.6524  0.0960  0.7926
 7763SOL    HW234926   2.929   0.135  14.934  1.6881  2.3190  1.3531
 7764SOL     OW34927   3.696   2.236   2.462  0.1759 -0.5647 -0.0298
 7764SOL    HW134928   3.659   2.324   2.460 -0.6148 -0.8715  0.9202
 7764SOL    HW234929   3.786   2.244   2.431  0.3844 -0.9541  0.4605
 7765SOL     OW34930   0.107   3.348  12.650  0.3003  0.0608  0.1094
 7765SOL    HW134931   0.039   3.345  12.583 -0.7976  1.8866  1.1333
 7765SOL    HW234932   0.104   3.259  12.684  0.6211 -0.1805 -0.4937
 7766SOL     OW34933   1.966   2.248  15.790  0.1521 -0.3143  0.0735
 7766SOL    HW134934   1.907   2.300  15.844 -1.8620  0.0812 -2.5026
 7766SOL    HW234935   2.030   2.314  15.762  1.7400 -2.0483 -0.3696
 7767SOL     OW34936   3.908   4.239   4.766  0.0369 -0.6154 -0.7051
 7767SOL    HW134937   3.838   4.295   4.799  1.6705  1.6434 -1.0534
 7767SOL    HW234938   3.870   4.153   4.784  0.3239 -0.5872  0.0494
 7768SOL     OW34939   2.727   3.465  14.374  0.4632 -0.8110  0.0049
 7768SOL    HW134940   2.768   3.550  14.386  0.1396 -0.7195  0.4590
 7768SOL    HW234941   2.649   3.477  14.429  0.8682  2.2958 -0.0873
 7769SOL     OW34942   3.461   0.181   4.602  0.0600  0.5544 -0.0872
 7769SOL    HW134943   3.533   0.206   4.544  0.4805 -0.6649 -0.0841
 7769SOL    HW234944   3.426   0.101   4.563  2.4238 -1.2647  1.5828
 7770SOL     OW34945   1.567   4.653   1.472 -0.4494  0.2199 -0.1722
 7770SOL    HW134946   1.594   4.567   1.439 -1.5926  0.6257 -2.1677
 7770SOL    HW234947   1.526   4.698   1.398  1.5524  1.1018 -0.7385
 7771SOL     OW34948   3.191   0.628   4.005  0.0019  0.4450 -0.0090
 7771SOL    HW134949   3.126   0.613   3.937  2.2723 -1.0291 -1.8569
 7771SOL    HW234950   3.262   0.573   3.973 -2.4594 -2.9998  0.3703
 7772SOL     OW34951   1.747   0.403   3.729 -0.0586 -0.0811  0.4195
 7772SOL    HW134952   1.797   0.484   3.738  2.1134 -1.2388 -1.1567
 7772SOL    HW234953   1.668   0.427   3.682  0.4344 -0.8456 -0.8155
 7773SOL     OW34954   0.735   2.921   5.381 -0.0537 -0.2797 -0.4757
 7773SOL    HW134955   0.827   2.941   5.361 -0.4724  2.2874  0.0805
 7773SOL    HW234956   0.719   2.849   5.321  2.1180 -0.3939 -0.9120
 7774SOL     OW34957   4.253   4.004  16.464 -0.1241  0.5606  0.1340
 7774SOL    HW134958   4.289   3.979  16.550 -0.5058 -0.2948  0.0496
 7774SOL    HW234959   4.304   3.945  16.408 -0.5090  2.0693 -1.7846
 7775SOL     OW34960   2.807   2.514  14.168 -0.3369  0.0590 -0.1632
 7775SOL    HW134961   2.872   2.534  14.100  0.4971 -2.7324 -0.1824
 7775SOL    HW234962   2.729   2.508  14.112  0.0522 -1.2719 -0.5659
 7776SOL     OW34963   1.003   1.181   7.282  0.5187 -0.4554  0.3073
 7776SOL    HW134964   1.037   1.145   7.200  1.2662 -0.1325  0.4765
 7776SOL    HW234965   1.049   1.123   7.343 -1.8502 -1.1890  1.3894
 7777SOL     OW34966   1.514   2.168   7.130 -0.2502 -0.0678 -0.0608
 7777SOL    HW134967   1.607   2.158   7.150  0.1156  0.7834 -1.3385
 7777SOL    HW234968   1.494   2.254   7.169 -2.0565 -0.3273 -0.4246
 7778SOL     OW34969   4.460   1.108   5.032  0.6918  0.0225  0.2073
 7778SOL    HW134970   4.515   1.182   5.007 -1.4087  0.8040 -2.1207
 7778SOL    HW234971   4.373   1.148   5.035  0.4054 -0.6976  1.8212
 7779SOL     OW34972   0.458   1.729  17.548  0.0869 -0.4484 -0.4253
 7779SOL    HW134973   0.552   1.736  17.564 -0.0054 -0.4271  0.0801
 7779SOL    HW234974   0.460   1.637  17.518  1.8571 -1.0162  1.4552
 7780SOL     OW34975   1.854   1.979   3.867 -0.3780 -0.0721  0.1632
 7780SOL    HW134976   1.908   2.041   3.817 -0.3474  0.1279  0.4432
 7780SOL    HW234977   1.775   2.034   3.871  0.3234  0.9172  0.6477
 7781SOL     OW34978   1.273   3.465   2.206  0.2845 -0.6685 -0.5744
 7781SOL    HW134979   1.352   3.432   2.164 -0.2513 -1.3395 -1.0524
 7781SOL    HW234980   1.295   3.555   2.230 -0.0079 -1.2352  1.8354
 7782SOL     OW34981   3.286   1.911   0.349  0.1591 -0.2477  0.5291
 7782SOL    HW134982   3.306   1.827   0.391  2.5116 -0.2031 -0.5066
 7782SOL    HW234983   3.352   1.970   0.386  1.4731 -0.2619 -1.7579
 7783SOL     OW34984   0.994   4.030   7.444  0.2466 -0.3309 -0.6052
 7783SOL    HW134985   1.027   4.039   7.533 -1.4793 -2.2097  0.2226
 7783SOL    HW234986   1.019   4.113   7.403  1.0851  0.4180  1.4012
 7784SOL     OW34987   3.200   1.284  14.022 -0.0668  0.3897  0.0540
 7784SOL    HW134988   3.172   1.271  13.932 -1.3757 -1.8789  0.7909
 7784SOL    HW234989   3.225   1.193  14.041  2.8905  1.2409  0.1634
 7785SOL     OW34990   1.925   1.682   3.577 -0.0861  0.2122  0.2163
 7785SOL    HW134991   1.840   1.677   3.532 -0.9919  2.3637  1.7051
 7785SOL    HW234992   1.969   1.751   3.527 -2.3699  0.8437 -0.9265
 7786SOL     OW34993   4.298   4.454   9.195 -0.5225  0.4040  0.1107
 7786SOL    HW134994   4.344   4.537   9.210  0.0996 -0.0271  0.5968
 7786SOL    HW234995   4.213   4.480   9.231 -0.9334  3.5374 -3.1280
 7787SOL     OW34996   2.942   0.544   4.320 -0.0168 -0.0782 -0.2691
 7787SOL    HW134997   2.971   0.467   4.272 -0.9218 -0.3775 -0.3360
 7787SOL    HW234998   3.027   0.587   4.332  0.6027 -0.1270 -4.4186
 7788SOL     OW34999   2.743   3.823   9.215  0.9895 -0.3686 -0.2865
 7788SOL    HW135000   2.834   3.822   9.246  1.5985 -0.5807 -2.0502
 7788SOL    HW235001   2.747   3.797   9.123  0.7126  0.2124 -0.4619
 7789SOL     OW35002   4.007   0.726   4.755 -0.6224 -0.5336  0.0174
 7789SOL    HW135003   4.005   0.790   4.826 -0.3074  0.9078 -1.2718
 7789SOL    HW235004   4.047   0.653   4.801 -3.6018 -1.5736  0.9911
 7790SOL     OW35005   3.592   4.634  11.582 -0.3784 -0.4474 -0.3180
 7790SOL    HW135006   3.520   4.663  11.638  0.4798  0.6654  0.2245
 7790SOL    HW235007   3.658   4.644  11.651  0.2598  2.1446 -1.3105
 7791SOL     OW35008   1.785   3.951  13.464 -0.0048  0.3987 -0.2741
 7791SOL    HW135009   1.860   3.964  13.522  1.8340 -0.3953 -2.4761
 7791SOL    HW235010   1.765   3.858  13.479  1.1700 -0.0155 -1.3183
 7792SOL     OW35011   0.548   0.691   8.480  0.4676  0.0003 -0.6457
 7792SOL    HW135012   0.469   0.677   8.428  0.3718 -0.5025 -0.3633
 7792SOL    HW235013   0.594   0.740   8.413  2.0226 -1.4026 -0.6102
 7793SOL     OW35014   0.271   4.107  10.731 -0.3302  0.3320 -0.2106
 7793SOL    HW135015   0.240   4.026  10.772  0.7230  1.2128  2.2731
 7793SOL    HW235016   0.292   4.071  10.645 -1.3188  2.1917 -1.2430
 7794SOL     OW35017   0.600   4.481   4.774 -0.4566  0.2699 -0.1146
 7794SOL    HW135018   0.651   4.410   4.735 -1.2463 -1.2576  1.6425
 7794SOL    HW235019   0.569   4.511   4.689  0.5312 -0.2684 -0.6627
 7795SOL     OW35020   4.144   3.818   4.986  0.4498  0.5255 -0.1813
 7795SOL    HW135021   4.205   3.780   4.922 -1.3187 -0.6897 -1.1409
 7795SOL    HW235022   4.138   3.910   4.963 -0.8074  0.1262 -1.4222
 7796SOL     OW35023   1.035   0.759  16.600 -0.3483  0.2354  0.0436
 7796SOL    HW135024   0.958   0.793  16.556  0.4378  1.4084 -0.4387
 7796SOL    HW235025   1.048   0.665  16.593 -0.5771  0.1151  1.3445
 7797SOL     OW35026   3.106   4.640   8.987 -0.1749 -0.5960 -0.0480
 7797SOL    HW135027   3.035   4.703   8.970 -1.6273 -2.5273 -1.1845
 7797SOL    HW235028   3.179   4.700   8.998  0.0415 -0.8839  0.0687
 7798SOL     OW35029   3.798   3.433  11.271  0.1267 -0.4567 -0.1182
 7798SOL    HW135030   3.740   3.510  11.267 -2.1393 -2.1786 -0.2764
 7798SOL    HW235031   3.856   3.449  11.196 -1.0556  1.6536 -0.6027
 7799SOL     OW35032   4.109   1.624   2.603 -0.5255 -0.0376 -0.0539
 7799SOL    HW135033   4.132   1.533   2.621  1.3163  0.4586  0.1394
 7799SOL    HW235034   4.119   1.634   2.508 -0.4623 -0.4301 -0.0887
 7800SOL     OW35035   4.248   3.878   8.179 -0.2613  0.5977 -0.1547
 7800SOL    HW135036   4.206   3.829   8.108  2.8081 -0.1301 -1.4849
 7800SOL    HW235037   4.236   3.961   8.133 -1.3620 -0.9827 -2.7612
 7801SOL     OW35038   3.922   1.890   1.706 -0.0379 -0.0454  0.0846
 7801SOL    HW135039   3.909   1.887   1.801 -0.9724  0.2532 -0.0258
 7801SOL    HW235040   4.014   1.864   1.702  0.5192  1.6882  1.4683
 7802SOL     OW35041   1.892   1.977  10.031  0.2444 -0.2164 -0.1222
 7802SOL    HW135042   1.807   1.935  10.044 -0.7010  1.5413 -0.6850
 7802SOL    HW235043   1.858   2.061  10.000 -1.2022 -1.0167 -0.7302
 7803SOL     OW35044   4.093   4.070  16.987 -0.3843  0.4857 -0.0730
 7803SOL    HW135045   4.172   4.104  17.029 -0.0055 -0.2821 -0.1680
 7803SOL    HW235046   4.101   4.100  16.896  1.0812  0.3081 -0.0076
 7804SOL     OW35047   3.262   0.043   1.833 -0.3449  0.7609  0.1458
 7804SOL    HW135048   3.356   0.059   1.830 -0.2005  0.3183  2.5049
 7804SOL    HW235049   3.227   0.131   1.843 -0.7537  0.7648 -1.2256
 7805SOL     OW35050   0.812   1.419  12.218  0.0519  0.3182 -0.2698
 7805SOL    HW135051   0.741   1.399  12.280  0.7124 -0.7128  0.1681
 7805SOL    HW235052   0.796   1.349  12.155 -0.0793  1.6219 -1.6551
 7806SOL     OW35053   4.513   1.672  13.446  0.2488 -0.4273  0.0356
 7806SOL    HW135054   4.441   1.732  13.464  0.0058  0.2656 -3.1050
 7806SOL    HW235055   4.513   1.656  13.351  0.1504  3.5417 -0.6254
 7807SOL     OW35056   0.560   1.946  14.725 -0.0480 -0.8440  0.4070
 7807SOL    HW135057   0.578   1.949  14.819  2.0429 -3.0313  0.0763
 7807SOL    HW235058   0.471   1.982  14.725 -0.1300 -1.0533 -0.9022
 7808SOL     OW35059   2.429   4.318   8.355 -0.1785 -1.0054 -0.0303
 7808SOL    HW135060   2.502   4.260   8.378  0.0413 -0.2289  1.2449
 7808SOL    HW235061   2.391   4.268   8.283  1.3118 -0.7581 -0.9933
 7809SOL     OW35062   3.759   0.441  15.945 -0.0554  0.0144  0.6430
 7809SOL    HW135063   3.839   0.477  15.984  0.3318 -0.1672  0.0268
 7809SOL    HW235064   3.793   0.375  15.884  2.0648  1.1759  0.5377
 7810SOL     OW35065   4.087   1.045   9.565 -0.5526  0.4058  0.0654
 7810SOL    HW135066   4.131   1.015   9.645 -3.5806  2.1025  2.3907
 7810SOL    HW235067   4.006   1.073   9.609  0.2671  1.3181  0.9798
 7811SOL     OW35068   2.399   0.689   1.866  0.6740  0.0434 -0.1572
 7811SOL    HW135069   2.453   0.749   1.918 -1.4940  1.7487  0.0937
 7811SOL    HW235070   2.470   0.656   1.810  0.4748 -3.1390  1.4977
 7812SOL     OW35071   2.340   2.231   9.345  0.8216  0.3325 -0.0041
 7812SOL    HW135072   2.329   2.321   9.376 -2.1262 -0.3612  0.9303
 7812SOL    HW235073   2.357   2.181   9.425 -2.5181 -1.6019 -0.5262
 7813SOL     OW35074   1.774   4.201   3.978 -0.1399  0.1663 -0.6747
 7813SOL    HW135075   1.842   4.261   4.011  0.3161  0.0903 -1.4691
 7813SOL    HW235076   1.778   4.221   3.884 -1.0726 -2.8951 -1.3562
 7814SOL     OW35077   0.639   2.954   6.687 -0.4733 -0.0828 -0.4047
 7814SOL    HW135078   0.657   2.861   6.673 -2.4762 -0.1831 -2.4679
 7814SOL    HW235079   0.553   2.971   6.726 -0.6090 -3.8753  0.8909
 7815SOL     OW35080   3.445   1.228  11.637  0.0954  0.4152  0.3880
 7815SOL    HW135081   3.479   1.140  11.624  1.6382  1.1086 -0.2104
 7815SOL    HW235082   3.386   1.243  11.563  1.0257 -0.8656 -0.6048
 7816SOL     OW35083   2.108   2.734   4.068 -0.3668 -0.2087  0.1386
 7816SOL    HW135084   2.031   2.792   4.073 -0.8453 -0.8544  0.1628
 7816SOL    HW235085   2.159   2.784   4.004  0.7712  0.7039  1.7749
 7817SOL     OW35086   2.319   0.875   2.214  1.2064  0.3995 -0.2361
 7817SOL    HW135087   2.231   0.873   2.177  1.6843 -2.0108 -1.2122
 7817SOL    HW235088   2.308   0.952   2.269  1.1232 -1.3796  2.1989
 7818SOL     OW35089   3.808   4.464  17.023  0.5086 -0.0827  1.1253
 7818SOL    HW135090   3.781   4.529  16.957  1.6205  0.0027  0.7469
 7818SOL    HW235091   3.896   4.443  16.993  0.4470  0.9681  0.2063
 7819SOL     OW35092   4.737   3.938   3.739  0.8918 -0.7883 -0.1295
 7819SOL    HW135093   4.730   4.009   3.802  2.5003 -0.4312 -0.3452
 7819SOL    HW235094   4.664   3.957   3.680 -1.0856 -2.3967  1.7667
 7820SOL     OW35095   1.852   2.417  10.139 -0.2348 -0.1086 -0.2146
 7820SOL    HW135096   1.809   2.460  10.065  2.0629 -1.0429 -2.0828
 7820SOL    HW235097   1.780   2.367  10.179  0.2720 -0.3868  0.3376
 7821SOL     OW35098   2.408   0.149   7.093  0.0408  0.3290  0.2046
 7821SOL    HW135099   2.359   0.227   7.064 -0.4426 -0.3445 -0.7833
 7821SOL    HW235100   2.460   0.125   7.017  2.3904  0.2286  1.8447
 7822SOL     OW35101   0.003   1.491   3.757 -0.0830 -0.2867 -0.1419
 7822SOL    HW135102   0.014   1.525   3.845  2.5012  0.2997 -0.6685
 7822SOL    HW235103   4.659   1.529   3.738 -0.7311 -2.4818 -1.6273
 7823SOL     OW35104   4.403   0.173   4.001  0.2678  0.2066  0.1091
 7823SOL    HW135105   4.499   0.176   3.994  0.1467  0.3223 -1.4493
 7823SOL    HW235106   4.394   0.175   4.096 -0.6471  0.8083  0.0126
 7824SOL     OW35107   4.197   1.965   8.242 -0.0203 -0.3705 -0.0460
 7824SOL    HW135108   4.105   1.958   8.266 -0.3094  0.0910 -1.0055
 7824SOL    HW235109   4.225   2.014   8.319  0.9617  0.1526 -0.7266
 7825SOL     OW35110   0.415   3.649  13.736  0.0401 -0.3369 -0.1738
 7825SOL    HW135111   0.382   3.666  13.824  0.1246 -1.6799  0.1147
 7825SOL    HW235112   0.465   3.570  13.757  0.4429 -0.3483 -1.1932
 7826SOL     OW35113   4.299   2.482   1.445  0.0234  0.5511 -0.3771
 7826SOL    HW135114   4.358   2.479   1.369 -1.1350  1.8229 -1.3172
 7826SOL    HW235115   4.344   2.550   1.496 -2.3306  1.5033  0.4277
 7827SOL     OW35116   3.327   1.024   8.961 -0.7233 -0.1532  0.6134
 7827SOL    HW135117   3.387   1.071   9.018 -0.2096  1.6703 -1.4263
 7827SOL    HW235118   3.354   0.939   8.996 -1.6749 -0.6002  0.2857
 7828SOL     OW35119   2.476   0.881   1.252 -0.8172  0.4388 -0.3382
 7828SOL    HW135120   2.405   0.943   1.269 -0.4665  0.1626  2.0406
 7828SOL    HW235121   2.445   0.807   1.305 -0.5757  0.6539  0.0987
 7829SOL     OW35122   1.064   2.695   7.478 -0.5377 -0.2988 -0.2700
 7829SOL    HW135123   1.104   2.762   7.423 -1.8791  0.2878 -0.5280
 7829SOL    HW235124   0.985   2.732   7.516 -0.0934  1.8406 -1.4126
 7830SOL     OW35125   2.106   1.507  16.779  0.3071  0.2810  0.0569
 7830SOL    HW135126   2.062   1.576  16.730 -1.2400  0.4454  1.6684
 7830SOL    HW235127   2.188   1.517  16.732  0.3157  1.3170  0.2914
 7831SOL     OW35128   0.931   0.413   6.656  0.6019  0.3425  0.0374
 7831SOL    HW135129   0.900   0.356   6.725  0.6143 -0.1985 -0.4049
 7831SOL    HW235130   1.016   0.372   6.636  0.0055 -2.2703  2.9789
 7832SOL     OW35131   1.012   4.314  17.621 -0.5055  0.3260  0.6723
 7832SOL    HW135132   1.022   4.340  17.529 -3.1492  0.8837  0.5561
 7832SOL    HW235133   1.057   4.389  17.661 -0.6051  0.5861  0.3016
 7833SOL     OW35134   1.999   0.518   3.228  0.0682  0.2031 -0.1443
 7833SOL    HW135135   1.978   0.543   3.318  1.0667 -0.8801  0.3866
 7833SOL    HW235136   1.915   0.478   3.204 -0.3120  0.5485  0.6123
 7834SOL     OW35137   2.005   0.497   2.178  0.4463 -0.3476  0.2922
 7834SOL    HW135138   1.957   0.430   2.129  0.4855  0.6669 -1.1403
 7834SOL    HW235139   2.079   0.446   2.211  0.0599  0.1433  1.9130
 7835SOL     OW35140   0.080   2.706   6.849  0.6070 -1.2667 -0.3472
 7835SOL    HW135141   0.103   2.776   6.910 -0.4938 -2.3595  1.3369
 7835SOL    HW235142   0.027   2.759   6.789 -2.6693 -2.0853  1.8266
 7836SOL     OW35143   0.390   2.128   0.157  0.2569  0.2202 -0.5985
 7836SOL    HW135144   0.419   2.074   0.230 -0.2412  1.1756  0.3095
 7836SOL    HW235145   0.301   2.133   0.193 -0.2458 -0.1080 -1.8107
 7837SOL     OW35146   3.159   2.329   4.385  0.2721  0.2306  0.0561
 7837SOL    HW135147   3.172   2.240   4.351  2.3066  0.0761  1.2187
 7837SOL    HW235148   3.189   2.382   4.311 -2.9120  0.4779 -1.0556
 7838SOL     OW35149   2.375   2.273  17.021 -0.7956  0.6032  0.0502
 7838SOL    HW135150   2.405   2.363  17.033 -0.5884  0.4875  0.4308
 7838SOL    HW235151   2.447   2.228  16.977 -1.6352 -2.3495  1.6869
 7839SOL     OW35152   3.561   3.937   5.032  0.0667  0.4488 -0.3088
 7839SOL    HW135153   3.562   4.002   4.961  2.1816  3.0439  2.1369
 7839SOL    HW235154   3.595   3.992   5.102  2.3964 -0.9930 -0.3173
 7840SOL     OW35155   3.843   4.142   3.203 -0.4249  0.0815  0.2736
 7840SOL    HW135156   3.922   4.164   3.154 -2.0117  1.0350 -1.8323
 7840SOL    HW235157   3.773   4.162   3.141 -1.3781 -1.9244  0.6876
 7841SOL     OW35158   3.487   1.710   6.516 -0.1681  0.4015  0.3452
 7841SOL    HW135159   3.472   1.752   6.431 -1.5425 -0.7393  0.0270
 7841SOL    HW235160   3.447   1.768   6.580 -0.4794 -0.7372  1.1720
 7842SOL     OW35161   1.850   1.024  11.913 -0.4303  0.0046  0.0850
 7842SOL    HW135162   1.880   0.974  11.990  1.2490 -0.1119 -0.6444
 7842SOL    HW235163   1.886   0.971  11.842 -1.1388 -0.7025  0.2575
 7843SOL     OW35164   3.936   4.415   6.716 -0.7624 -0.2583 -0.2260
 7843SOL    HW135165   4.014   4.430   6.663 -1.4477 -4.5696 -2.4184
 7843SOL    HW235166   3.862   4.409   6.656  0.5386  0.5606 -1.9132
 7844SOL     OW35167   4.363   0.735  13.867 -0.1771  0.0068 -0.1364
 7844SOL    HW135168   4.373   0.643  13.891 -1.7172 -0.0127  0.4392
 7844SOL    HW235169   4.294   0.755  13.930 -1.9657 -0.6520 -1.9100
 7845SOL     OW35170   0.921   3.993  10.854  0.1348  0.6962  0.1333
 7845SOL    HW135171   0.827   4.011  10.849 -0.1439 -0.5745  0.9274
 7845SOL    HW235172   0.925   3.905  10.891 -0.8359  1.0657  1.1154
 7846SOL     OW35173   4.679   2.443  16.744  0.2493  0.3585  0.7773
 7846SOL    HW135174   4.705   2.362  16.788  0.1864  0.6096  1.2756
 7846SOL    HW235175   0.018   2.494  16.748  0.6024 -0.1238 -0.2815
 7847SOL     OW35176   0.924   3.359   7.433 -0.0434 -0.4675  0.0130
 7847SOL    HW135177   0.888   3.277   7.467 -0.8724 -1.2123 -2.6316
 7847SOL    HW235178   0.946   3.343   7.341 -1.3559  0.8143 -0.5308
 7848SOL     OW35179   3.711   0.430  14.523 -0.0448 -0.1063 -0.0868
 7848SOL    HW135180   3.701   0.522  14.499 -1.7912 -0.6577 -1.4834
 7848SOL    HW235181   3.619   0.423  14.547  0.2857  0.5471  1.3247
 7849SOL     OW35182   2.677   1.430  12.616 -0.3226 -0.7345  0.3175
 7849SOL    HW135183   2.603   1.451  12.674 -0.8991 -1.4798 -0.1552
 7849SOL    HW235184   2.646   1.363  12.556  1.4817 -1.7455  0.5104
 7850SOL     OW35185   1.534   3.971   7.170  0.0113 -0.1740  0.6569
 7850SOL    HW135186   1.513   3.893   7.118  3.4102 -0.5141 -0.1974
 7850SOL    HW235187   1.540   4.038   7.103  0.7278 -1.5398 -0.6519
 7851SOL     OW35188   2.174   3.153  16.461 -0.1431  0.2044 -0.2818
 7851SOL    HW135189   2.132   3.136  16.546 -2.3238  3.1280 -0.7933
 7851SOL    HW235190   2.216   3.069  16.441 -1.2455 -0.6513  0.9767
 7852SOL     OW35191   0.088   2.831   8.040  0.2016  0.3033 -0.0668
 7852SOL    HW135192   0.008   2.870   8.075  0.7374  0.8694  0.5339
 7852SOL    HW235193   0.101   2.909   7.987 -0.3954 -0.2959 -1.0941
 7853SOL     OW35194   1.265   4.425   2.771  0.4949  0.2413 -0.1839
 7853SOL    HW135195   1.194   4.466   2.722 -0.4310 -0.6824  0.4149
 7853SOL    HW235196   1.240   4.335   2.791 -1.3049  0.8953  0.4776
 7854SOL     OW35197   1.616   4.386   6.131  0.1371  0.1686  0.3115
 7854SOL    HW135198   1.523   4.405   6.145  0.1759  0.8448 -0.3698
 7854SOL    HW235199   1.655   4.407   6.216 -0.7110  1.8585  0.2804
 7855SOL     OW35200   3.671   3.234   9.776  0.0635 -0.0870 -0.1019
 7855SOL    HW135201   3.708   3.308   9.727  1.1000 -0.4921  0.0807
 7855SOL    HW235202   3.727   3.163   9.745  0.4240  0.0443  0.2636
 7856SOL     OW35203   2.972   3.334   8.249  0.2138  0.1344  0.0195
 7856SOL    HW135204   2.880   3.311   8.234 -0.4474  1.4065  2.2122
 7856SOL    HW235205   2.991   3.307   8.339 -0.4133  0.2271  0.1782
 7857SOL     OW35206   4.455   0.761   9.150  0.2347  0.2939  0.4014
 7857SOL    HW135207   4.516   0.814   9.098  0.3790 -0.0461  0.2205
 7857SOL    HW235208   4.517   0.707   9.199  1.4817  1.8025  0.5002
 7858SOL     OW35209   4.426   1.522   8.514  0.2474  0.3498  0.2007
 7858SOL    HW135210   4.447   1.596   8.571  1.8967 -0.1355  0.1961
 7858SOL    HW235211   4.396   1.568   8.435  0.4983 -0.7076 -0.5207
 7859SOL     OW35212   2.037   1.686   4.467 -0.0954  0.0530  0.0969
 7859SOL    HW135213   1.979   1.723   4.401 -0.8911 -1.2809  0.0309
 7859SOL    HW235214   2.118   1.695   4.416  0.2335 -0.9588  0.4336
 7860SOL     OW35215   0.700   1.512   7.370  0.0686 -0.4463  0.1472
 7860SOL    HW135216   0.640   1.509   7.295 -0.7655  0.7468  0.7685
 7860SOL    HW235217   0.640   1.549   7.435 -0.4813  1.4722 -1.4531
 7861SOL     OW35218   2.631   3.219   7.612  0.2049  0.3147 -0.4121
 7861SOL    HW135219   2.706   3.275   7.633 -0.4642  0.6265  1.1972
 7861SOL    HW235220   2.567   3.280   7.574 -0.7606 -1.2992 -1.3619
 7862SOL     OW35221   0.865   3.241  15.001 -0.4130  0.0282 -0.0251
 7862SOL    HW135222   0.785   3.272  15.043  0.3231  0.5298  0.9954
 7862SOL    HW235223   0.931   3.267  15.065  0.6781 -1.8093 -0.3812
 7863SOL     OW35224   2.743   1.355   6.414  0.1040 -0.3869  0.1296
 7863SOL    HW135225   2.707   1.323   6.497  1.1894 -3.0620 -0.4191
 7863SOL    HW235226   2.838   1.357   6.428  0.3911  0.6458 -1.9762
 7864SOL     OW35227   2.261   1.262   0.755  0.3604 -0.4339 -0.7918
 7864SOL    HW135228   2.254   1.220   0.670  0.9464  1.3843 -1.7447
 7864SOL    HW235229   2.282   1.186   0.809  1.3485  0.6508  0.3751
 7865SOL     OW35230   0.106   4.630  16.941  0.1941 -0.5891  0.1956
 7865SOL    HW135231   0.125   4.711  16.895 -0.7021 -0.4144  0.1352
 7865SOL    HW235232   0.170   4.627  17.012 -0.3092  0.0434  0.6854
 7866SOL     OW35233   1.378   0.744   3.693 -0.4894  0.2376 -0.8231
 7866SOL    HW135234   1.330   0.779   3.768 -0.7952 -1.3876 -0.2701
 7866SOL    HW235235   1.456   0.798   3.683 -0.1045  0.0563  1.1261
 7867SOL     OW35236   3.768   2.990  17.429 -0.0108 -0.1948  0.0974
 7867SOL    HW135237   3.724   3.000  17.345  1.5656  0.6081 -0.6247
 7867SOL    HW235238   3.761   3.082  17.453  0.1393 -0.2701  0.4234
 7868SOL     OW35239   4.449   1.782   0.086 -1.1887  0.1942 -0.4380
 7868SOL    HW135240   4.441   1.688   0.072  2.1065 -0.2545  0.8559
 7868SOL    HW235241   4.452   1.786   0.181  0.4230 -2.1360 -0.3994
 7869SOL     OW35242   4.598   2.836   3.271 -0.0899  0.2340  0.3512
 7869SOL    HW135243   4.510   2.851   3.305  0.9887  4.0995  1.4506
 7869SOL    HW235244   4.655   2.902   3.311  0.9512 -2.0644  2.6807
 7870SOL     OW35245   3.648   0.322  13.802 -0.5840 -0.3920  0.1453
 7870SOL    HW135246   3.582   0.373  13.755  0.0762 -0.8895 -1.3362
 7870SOL    HW235247   3.605   0.317  13.887 -2.1663 -0.3157 -0.6596
 7871SOL     OW35248   0.963   3.976   3.155 -0.1676 -0.1289  0.0112
 7871SOL    HW135249   0.926   3.948   3.239 -1.8066 -1.0691 -1.0307
 7871SOL    HW235250   1.045   3.926   3.150  0.5682  0.9642  0.8462
 7872SOL     OW35251   2.010   1.745   5.562 -0.1881  0.2734  0.1834
 7872SOL    HW135252   2.001   1.831   5.603 -1.3830  0.3194 -0.1673
 7872SOL    HW235253   1.971   1.766   5.477  1.4966  1.8620 -0.2021
 7873SOL     OW35254   1.696   0.069  12.987  0.1216 -0.5639  0.2762
 7873SOL    HW135255   1.667   0.135  13.051  2.6782  2.0231 -1.2466
 7873SOL    HW235256   1.615   0.060  12.936  1.1095  0.1357 -1.4078
 7874SOL     OW35257   3.166   2.150   3.333  0.3699  0.1851  0.6882
 7874SOL    HW135258   3.231   2.085   3.305  1.9875  1.0126  2.4585
 7874SOL    HW235259   3.224   2.224   3.350  0.1540  0.5398 -0.1471
 7875SOL     OW35260   0.133   1.645   7.580 -0.3574  0.0475  0.2181
 7875SOL    HW135261   0.212   1.627   7.631 -0.0998  0.0406 -0.1872
 7875SOL    HW235262   0.075   1.591   7.634 -1.9639 -1.2466 -2.8080
 7876SOL     OW35263   4.403   2.541   5.467  0.3913  0.0989  0.3870
 7876SOL    HW135264   4.389   2.455   5.507 -0.7641 -0.1173 -0.4875
 7876SOL    HW235265   4.456   2.521   5.390  0.2605  0.4011  0.2194
 7877SOL     OW35266   0.647   2.846   0.700 -0.4648 -0.5054  0.6030
 7877SOL    HW135267   0.565   2.840   0.750 -1.4822  0.0816 -0.9947
 7877SOL    HW235268   0.651   2.938   0.675  1.9651 -0.8550 -0.3064
 7878SOL     OW35269   3.889   1.736   1.469 -0.0707 -0.0376  0.4448
 7878SOL    HW135270   3.797   1.711   1.475 -0.6964  1.9406 -1.2721
 7878SOL    HW235271   3.902   1.775   1.556  3.3469 -2.7781  1.1804
 7879SOL     OW35272   1.865   4.651  16.754  0.0720 -0.3362 -0.0268
 7879SOL    HW135273   1.845   4.613  16.669 -1.7629 -0.5976  0.5250
 7879SOL    HW235274   1.941   4.600  16.782 -0.7832 -0.8386  1.3785
 7880SOL     OW35275   4.490   0.765   8.069 -0.1811  0.0045 -0.1752
 7880SOL    HW135276   4.499   0.708   7.993 -0.5653 -1.5912  0.9796
 7880SOL    HW235277   4.402   0.804   8.063 -1.3870 -2.6904 -0.3016
 7881SOL     OW35278   1.478   1.917   2.589 -0.0126  0.0645 -0.1416
 7881SOL    HW135279   1.406   1.970   2.623 -0.2180  0.9059 -1.9062
 7881SOL    HW235280   1.437   1.883   2.509 -1.5855 -2.0467  1.5370
 7882SOL     OW35281   3.002   1.499   7.265 -0.6774 -0.4308  0.4720
 7882SOL    HW135282   3.058   1.546   7.327 -2.5428  0.7518  1.2855
 7882SOL    HW235283   3.023   1.409   7.287  3.7087  0.4214 -0.3386
 7883SOL     OW35284   2.083   4.565   7.080  0.7158  0.1503  0.0520
 7883SOL    HW135285   2.093   4.612   6.997  1.6930 -0.1408  0.0080
 7883SOL    HW235286   2.073   4.640   7.139  2.8886  1.0389 -0.7076
 7884SOL     OW35287   0.968   0.805   2.868 -0.2582 -0.0805 -0.0667
 7884SOL    HW135288   0.962   0.847   2.782  0.2859 -2.3645 -1.2320
 7884SOL    HW235289   0.875   0.787   2.877 -0.9836  3.0411 -1.1575
 7885SOL     OW35290   4.138   3.854   1.178 -0.5414  0.5959  0.2928
 7885SOL    HW135291   4.083   3.841   1.255  0.4308 -0.0996  0.8690
 7885SOL    HW235292   4.168   3.764   1.168 -0.8061  0.2531  2.6332
 7886SOL     OW35293   1.332   2.389   8.895 -0.3392  0.2570  0.4233
 7886SOL    HW135294   1.422   2.413   8.870 -0.2698  0.0132  0.4340
 7886SOL    HW235295   1.343   2.305   8.940  2.7474  0.4048  0.0027
 7887SOL     OW35296   0.190   0.680  14.760 -0.0060 -0.0317  0.1678
 7887SOL    HW135297   0.265   0.716  14.809 -0.2848 -0.1260  0.6640
 7887SOL    HW235298   0.235   0.653  14.680  3.1832 -0.0223  1.9159
 7888SOL     OW35299   4.670   3.243  11.593 -0.0850  0.0765 -0.2245
 7888SOL    HW135300   4.730   3.183  11.549 -1.0079  0.5912 -2.2053
 7888SOL    HW235301   4.666   3.324  11.541 -1.7547  0.8951  1.1623
 7889SOL     OW35302   3.931   4.429   5.932 -0.1990 -0.0168 -0.4106
 7889SOL    HW135303   3.973   4.460   5.852  0.9281  0.1771  0.2555
 7889SOL    HW235304   3.845   4.408   5.895 -0.2063  0.4689 -0.6768
 7890SOL     OW35305   3.800   2.999   5.367  0.2231  0.4069 -0.5227
 7890SOL    HW135306   3.882   2.960   5.338  0.5668  2.3815 -2.1812
 7890SOL    HW235307   3.751   2.930   5.412  2.2558 -0.6510  0.0791
 7891SOL     OW35308   2.078   2.123   8.185 -0.0425 -0.5584  0.1293
 7891SOL    HW135309   1.984   2.102   8.181 -0.2240  0.3629 -0.7617
 7891SOL    HW235310   2.102   2.095   8.273 -0.9486 -1.7465  0.0015
 7892SOL     OW35311   0.831   3.657   5.252 -0.1817 -0.4712  0.8831
 7892SOL    HW135312   0.805   3.631   5.163 -0.4451  1.3990  0.4246
 7892SOL    HW235313   0.746   3.677   5.289 -0.1004  1.7872 -0.1683
 7893SOL     OW35314   0.022   3.857  13.099  0.5012 -0.0089 -0.0915
 7893SOL    HW135315   0.114   3.867  13.071  0.5117  0.0212 -0.0458
 7893SOL    HW235316   0.020   3.766  13.131  1.1170 -0.1385 -0.4162
 7894SOL     OW35317   4.085   0.265   8.534 -0.6006  0.6473  0.0969
 7894SOL    HW135318   4.178   0.243   8.540 -0.8630 -1.1025 -2.2458
 7894SOL    HW235319   4.054   0.194   8.478  0.4189 -0.1155  0.5222
 7895SOL     OW35320   2.449   0.688  13.723  0.2300 -0.8135  0.0877
 7895SOL    HW135321   2.406   0.620  13.671 -1.3329 -1.1753  1.8475
 7895SOL    HW235322   2.473   0.761  13.666  1.2942  0.5327  2.2792
 7896SOL     OW35323   0.221   4.599  15.978 -0.0480 -0.5732  0.1075
 7896SOL    HW135324   0.302   4.572  16.022 -0.8552 -2.5010  0.4195
 7896SOL    HW235325   0.243   4.611  15.886 -1.5865  2.3578  0.1276
 7897SOL     OW35326   3.151   1.681  16.864 -0.3887 -0.5970 -0.1319
 7897SOL    HW135327   3.167   1.763  16.910 -0.1278  0.9509 -2.9241
 7897SOL    HW235328   3.057   1.668  16.873 -0.2856 -1.0450  0.3063
 7898SOL     OW35329   4.034   2.770   6.201  0.1794  0.4722 -0.3025
 7898SOL    HW135330   4.041   2.719   6.121 -0.0464  0.9439 -0.6165
 7898SOL    HW235331   4.036   2.860   6.167 -4.2645  0.5522 -0.2917
 7899SOL     OW35332   0.605   2.899   2.294  0.2296 -0.2323  0.4037
 7899SOL    HW135333   0.608   2.929   2.385  0.6070 -0.0150  0.3146
 7899SOL    HW235334   0.515   2.864   2.297  0.9417 -2.1762 -0.5752
 7900SOL     OW35335   1.345   0.896   7.810  0.0935  0.3299 -0.5592
 7900SOL    HW135336   1.345   0.972   7.868  0.0737 -0.1899  0.1258
 7900SOL    HW235337   1.439   0.884   7.796  0.2036  0.6320 -0.0564
 7901SOL     OW35338   2.369   1.363   7.485 -0.4458 -0.4474  0.8999
 7901SOL    HW135339   2.339   1.430   7.546 -0.8663 -0.0254  0.2332
 7901SOL    HW235340   2.391   1.290   7.543 -0.8892 -1.0729  0.2904
 7902SOL     OW35341   2.162   0.754   1.552  0.1433 -0.2923 -0.0143
 7902SOL    HW135342   2.111   0.674   1.566 -1.2766  0.4746 -0.8452
 7902SOL    HW235343   2.240   0.713   1.514  1.3225  1.1721  0.8510
 7903SOL     OW35344   3.716   3.132   6.656  0.1444  0.2826 -0.2221
 7903SOL    HW135345   3.715   3.075   6.579  0.9732  0.4402 -0.3500
 7903SOL    HW235346   3.714   3.063   6.722  1.2718  0.3190 -0.1558
 7904SOL     OW35347   0.620   0.334   7.392 -0.2134  0.5857 -0.2349
 7904SOL    HW135348   0.671   0.256   7.370 -1.8848 -0.6192  0.0828
 7904SOL    HW235349   0.551   0.290   7.442  1.7546 -0.4858  1.5173
 7905SOL     OW35350   2.177   0.853   6.176 -0.0689  0.6847  0.4629
 7905SOL    HW135351   2.136   0.767   6.164 -1.9193  1.7399 -0.7751
 7905SOL    HW235352   2.156   0.895   6.093  0.6079 -1.1103 -0.6259
 7906SOL     OW35353   4.059   2.470   4.383  0.6500  0.6852  0.0318
 7906SOL    HW135354   3.976   2.495   4.423  0.9445  2.6394 -0.5563
 7906SOL    HW235355   4.051   2.527   4.306 -1.0608  0.9251  0.3991
 7907SOL     OW35356   3.977   2.718   6.814  0.1556  0.4710 -0.2011
 7907SOL    HW135357   3.966   2.769   6.895 -3.4801  1.8091 -1.5518
 7907SOL    HW235358   4.051   2.668   6.849  1.0558  2.0245  0.0986
 7908SOL     OW35359   2.573   2.661   4.655  0.4835  0.0761 -0.1810
 7908SOL    HW135360   2.528   2.671   4.739  0.3640 -0.2147 -0.2093
 7908SOL    HW235361   2.624   2.581   4.665 -1.0352 -1.1696 -2.6044
 7909SOL     OW35362   2.123   3.211  16.935  0.2492  0.0788  0.0085
 7909SOL    HW135363   2.042   3.258  16.955  0.4855 -0.3632  1.9637
 7909SOL    HW235364   2.178   3.223  17.012  0.7052  1.4276 -0.5258
 7910SOL     OW35365   2.806   1.422   3.716 -0.0323  0.3097 -0.1547
 7910SOL    HW135366   2.874   1.406   3.781 -0.1232  0.6226  0.0189
 7910SOL    HW235367   2.775   1.334   3.697  0.2777  0.4713 -1.4348
 7911SOL     OW35368   2.959   1.901   2.588  0.0381  0.2580 -0.0051
 7911SOL    HW135369   2.970   1.968   2.655  0.0908 -2.4962  2.7708
 7911SOL    HW235370   3.051   1.896   2.564 -0.3196 -1.7990 -0.9885
 7912SOL     OW35371   4.143   3.773   5.857 -0.7309  0.1302  0.2551
 7912SOL    HW135372   4.167   3.681   5.867  1.3888  0.6256 -0.3249
 7912SOL    HW235373   4.048   3.769   5.870 -1.1097 -0.5489 -2.8125
 7913SOL     OW35374   3.631   4.527  12.814  0.6760 -0.2968  0.3692
 7913SOL    HW135375   3.678   4.457  12.860  0.4974 -1.4898 -1.2815
 7913SOL    HW235376   3.637   4.485  12.728  2.6701 -0.8744  0.7755
 7914SOL     OW35377   2.060   1.196   7.133  0.0153  0.2862  0.4297
 7914SOL    HW135378   2.038   1.196   7.039  0.6137 -2.8890  0.2871
 7914SOL    HW235379   2.151   1.171   7.121 -0.0802 -0.0063  0.3186
 7915SOL     OW35380   2.007   4.488   4.887 -0.4834 -0.2412 -0.2769
 7915SOL    HW135381   2.039   4.515   4.801  1.9364  1.9177  1.3116
 7915SOL    HW235382   1.931   4.546   4.890  0.5623  1.0785  0.5117
 7916SOL     OW35383   0.650   0.992   4.849  0.0630  0.2820 -0.4151
 7916SOL    HW135384   0.565   1.031   4.826 -0.6357 -1.6782 -1.2004
 7916SOL    HW235385   0.659   0.921   4.786 -0.1332  0.5688 -0.7669
 7917SOL     OW35386   2.215   0.805   3.428 -0.3860  0.1787  0.1448
 7917SOL    HW135387   2.265   0.785   3.507  0.2646  1.3712  0.0195
 7917SOL    HW235388   2.141   0.743   3.432  1.0077 -1.4172  1.2900
 7918SOL     OW35389   0.448   2.789   6.035 -0.7791 -0.1958  0.3742
 7918SOL    HW135390   0.381   2.824   5.976 -0.5366 -3.1866 -1.6318
 7918SOL    HW235391   0.519   2.852   6.021 -2.0605  1.2797  0.3913
 7919SOL     OW35392   1.790   0.038  13.356 -0.1796  0.0584 -0.2494
 7919SOL    HW135393   1.867   4.729  13.382  0.8626  1.8611  0.2280
 7919SOL    HW235394   1.841   0.115  13.333 -0.2885  0.0886 -0.3923
 7920SOL     OW35395   0.768   4.551  14.390  0.3547  0.1505 -0.0408
 7920SOL    HW135396   0.792   4.473  14.440 -0.8667  0.2061  0.6456
 7920SOL    HW235397   0.672   4.551  14.393  0.2994 -2.9226 -2.2354
 7921SOL     OW35398   1.591   0.918  13.783 -0.0098 -0.8983  0.6499
 7921SOL    HW135399   1.524   0.938  13.848  0.6272  1.3417  0.6383
 7921SOL    HW235400   1.544   0.924  13.700  1.8799  0.8241 -0.3103
 7922SOL     OW35401   2.139   2.884   9.696  0.2405  0.2377 -0.0017
 7922SOL    HW135402   2.062   2.897   9.642 -0.8435 -0.3386  1.4112
 7922SOL    HW235403   2.163   2.975   9.711  1.2866  0.2366 -1.7283
 7923SOL     OW35404   3.529   4.585   4.278 -0.1895  0.2900 -0.9180
 7923SOL    HW135405   3.606   4.591   4.334  0.4922 -1.3586 -1.6908
 7923SOL    HW235406   3.563   4.526   4.211  1.2022 -1.4662  1.3543
 7924SOL     OW35407   3.979   2.251   2.409 -0.3335  0.4162  0.5614
 7924SOL    HW135408   4.034   2.223   2.482 -0.0868 -0.6776 -0.0317
 7924SOL    HW235409   4.038   2.214   2.343 -0.1106 -0.4433  1.2385
 7925SOL     OW35410   0.738   3.039  10.904  0.4797  0.4938 -0.3860
 7925SOL    HW135411   0.653   3.058  10.942 -0.2264  0.7638 -2.0841
 7925SOL    HW235412   0.746   2.949  10.936  1.0834 -0.6022 -3.6162
 7926SOL     OW35413   2.827   3.705   2.420 -0.3267 -0.4501 -0.5874
 7926SOL    HW135414   2.910   3.733   2.383 -1.2240  1.6045 -1.0831
 7926SOL    HW235415   2.779   3.771   2.369 -0.5174 -0.6491 -0.6644
 7927SOL     OW35416   0.708   2.736   2.106 -0.5128  0.1314 -0.0868
 7927SOL    HW135417   0.684   2.767   2.193  3.5163 -1.4017  1.6121
 7927SOL    HW235418   0.793   2.691   2.115 -0.7968 -0.8527 -2.3342
 7928SOL     OW35419   4.629   2.247   4.386 -0.5443  0.7012 -0.3075
 7928SOL    HW135420   4.633   2.152   4.391 -2.8764  0.6301  0.1205
 7928SOL    HW235421   4.598   2.258   4.297  0.1031  3.4446 -0.2208
 7929SOL     OW35422   1.327   1.329   4.130  0.4321  0.0304  0.4417
 7929SOL    HW135423   1.336   1.403   4.190 -0.7617 -0.3418  1.0812
 7929SOL    HW235424   1.421   1.314   4.131  0.3660 -0.3488  0.9324
 7930SOL     OW35425   4.593   1.448   6.561 -0.3390  0.3320 -0.4956
 7930SOL    HW135426   4.578   1.411   6.648  2.2018 -2.1159 -1.1075
 7930SOL    HW235427   4.505   1.471   6.532 -0.5605  0.3279  0.1698
 7931SOL     OW35428   4.464   3.386   0.025 -0.4409  0.4531 -0.6782
 7931SOL    HW135429   4.484   3.370  17.699  0.6383  0.5874 -0.4785
 7931SOL    HW235430   4.478   3.481   0.030  1.4739  0.1772 -0.6903
 7932SOL     OW35431   0.200   3.852   6.232  0.8154  0.9919  0.5336
 7932SOL    HW135432   0.159   3.924   6.280 -0.6698  0.5034 -0.0237
 7932SOL    HW235433   0.260   3.830   6.304  1.8007  0.0779 -0.5687
 7933SOL     OW35434   4.243   3.827   6.388 -0.6402 -0.6120 -0.2353
 7933SOL    HW135435   4.240   3.742   6.433  1.0240  1.2419  3.4224
 7933SOL    HW235436   4.294   3.817   6.308 -2.4346  0.7810 -1.5589
 7934SOL     OW35437   2.381   2.838   5.468  0.3188  0.2584 -0.0248
 7934SOL    HW135438   2.420   2.834   5.381 -0.3313  0.9979 -0.3450
 7934SOL    HW235439   2.384   2.930   5.492 -0.5926 -0.1039  1.4941
 7935SOL     OW35440   2.563   1.671   4.994  0.0158 -0.2952  0.0548
 7935SOL    HW135441   2.582   1.580   5.015 -0.7091 -0.5992 -0.6008
 7935SOL    HW235442   2.640   1.686   4.939  1.3894 -1.2294  1.7084
 7936SOL     OW35443   1.802   4.216   8.109  0.1595 -0.0962  0.0247
 7936SOL    HW135444   1.726   4.180   8.154  1.1619  0.6808  2.2960
 7936SOL    HW235445   1.789   4.310   8.123 -2.8881 -0.2944 -1.3544
 7937SOL     OW35446   1.504   1.143   7.602  0.4913 -0.1593 -0.2712
 7937SOL    HW135447   1.513   1.198   7.524  1.1761 -0.0888 -0.1403
 7937SOL    HW235448   1.426   1.184   7.641  0.3612 -1.3999  0.7764
 7938SOL     OW35449   1.829   1.532  15.056  0.2237  0.0580 -0.1289
 7938SOL    HW135450   1.912   1.561  15.092  0.1083  1.1662 -0.7254
 7938SOL    HW235451   1.771   1.536  15.132 -0.8652 -0.7923 -0.9060
 7939SOL     OW35452   3.564   1.105   3.996  0.2993 -0.3075 -0.5555
 7939SOL    HW135453   3.503   1.033   4.005 -0.3489  0.1545 -1.2006
 7939SOL    HW235454   3.647   1.057   4.001  0.4030 -0.1905 -1.1214
 7940SOL     OW35455   2.623   0.959   6.096 -0.1699  0.2126  0.1128
 7940SOL    HW135456   2.694   1.004   6.051  0.7173 -0.7194  0.5765
 7940SOL    HW235457   2.647   0.988   6.184 -1.7338  0.3846  0.4877
 7941SOL     OW35458   3.596   2.570   7.854 -0.5441  0.3495 -0.3244
 7941SOL    HW135459   3.516   2.517   7.856 -0.8812  0.8397 -1.3218
 7941SOL    HW235460   3.645   2.506   7.801 -0.4213  1.8812 -2.0367
 7942SOL     OW35461   0.588   2.396  15.429  0.3779 -0.4146 -0.6779
 7942SOL    HW135462   0.530   2.351  15.368  0.2615 -0.4751 -0.5214
 7942SOL    HW235463   0.672   2.360  15.397  1.5510 -1.8532  4.0300
 7943SOL     OW35464   4.110   2.664   3.913  0.0590 -0.3829  0.5546
 7943SOL    HW135465   4.056   2.712   3.850 -1.0110 -0.7196  1.2189
 7943SOL    HW235466   4.196   2.690   3.880 -0.2930  1.4690  1.1171
 7944SOL     OW35467   4.718   4.034   8.837 -0.6109  0.3571 -0.2545
 7944SOL    HW135468   4.629   4.017   8.868  0.4604 -0.8470  2.1200
 7944SOL    HW235469   0.025   3.970   8.888 -3.5956 -1.9651 -0.2864
 7945SOL     OW35470   4.487   4.008   3.116 -0.4697 -0.0431 -0.2955
 7945SOL    HW135471   4.574   4.013   3.156 -0.9390 -1.2633  0.8672
 7945SOL    HW235472   4.442   3.959   3.185 -0.7026  2.9801  1.7112
 7946SOL     OW35473   3.022   4.548   0.364 -0.1562 -0.0549 -0.2634
 7946SOL    HW135474   3.059   4.487   0.299 -0.5170  0.4744 -0.9726
 7946SOL    HW235475   3.072   4.625   0.338  0.7407 -0.4037  0.4706
 7947SOL     OW35476   3.443   0.215   2.319  0.3098  0.4905  0.3865
 7947SOL    HW135477   3.359   0.185   2.353  0.4457  2.1046  2.1277
 7947SOL    HW235478   3.475   0.149   2.257 -0.3305  2.0512 -1.6056
 7948SOL     OW35479   3.440   3.138   7.273  0.5176  0.2633  0.0984
 7948SOL    HW135480   3.489   3.120   7.192 -0.8774  1.9800 -1.1363
 7948SOL    HW235481   3.515   3.147   7.331  0.0244 -0.9588  0.9278
 7949SOL     OW35482   2.848   0.559   6.531 -0.1630 -0.4850 -0.4336
 7949SOL    HW135483   2.790   0.611   6.587 -0.3909 -2.0260  0.7536
 7949SOL    HW235484   2.914   0.526   6.592 -1.2533 -1.9637 -0.0551
 7950SOL     OW35485   2.030   1.577   9.608 -0.6964  0.1304  0.2960
 7950SOL    HW135486   2.079   1.505   9.567 -1.0739  0.9395 -1.6139
 7950SOL    HW235487   2.040   1.570   9.703 -1.3664 -1.2725  0.2710
 7951SOL     OW35488   1.421   4.346   4.416  0.2212 -0.2615  0.4521
 7951SOL    HW135489   1.462   4.422   4.373  0.1113 -1.2426 -1.3799
 7951SOL    HW235490   1.472   4.337   4.496 -0.8158  0.6206  1.2205
 7952SOL     OW35491   1.290   4.698  17.008  0.3633 -0.0235 -0.2307
 7952SOL    HW135492   1.334   4.633  16.953 -1.0136  1.2229 -2.8072
 7952SOL    HW235493   1.329   0.042  16.997 -0.1831  0.1364 -0.9297
 7953SOL     OW35494   0.616   2.842  11.271 -0.2587 -0.3424  0.0918
 7953SOL    HW135495   0.596   2.788  11.194 -1.2803 -0.7317  0.6303
 7953SOL    HW235496   0.544   2.901  11.293 -0.2356  0.0762 -0.9596
 7954SOL     OW35497   3.026   0.855   4.055  0.1802 -0.6328 -0.5665
 7954SOL    HW135498   2.999   0.888   3.970  0.1038  0.2611 -0.2017
 7954SOL    HW235499   3.094   0.796   4.023  2.1986  0.3040  1.9224
 7955SOL     OW35500   2.759   1.132   3.058  0.2721 -0.2192 -0.1619
 7955SOL    HW135501   2.665   1.114   3.063  0.1931  0.6103  1.1452
 7955SOL    HW235502   2.795   1.095   3.138  0.7207  0.7907  0.1016
 7956SOL     OW35503   2.166   0.272   8.682  0.1316 -0.0322  0.1580
 7956SOL    HW135504   2.205   0.198   8.636  1.3305  1.1122 -0.6519
 7956SOL    HW235505   2.148   0.330   8.609 -0.9948 -0.0524  0.4191
 7957SOL     OW35506   4.082   0.739  10.798 -0.0290 -0.4810  0.2242
 7957SOL    HW135507   4.001   0.785  10.772  1.3346  2.1884  0.6883
 7957SOL    HW235508   4.138   0.796  10.746  1.4320 -0.7711  1.5203
 7958SOL     OW35509   2.700   2.853   8.404 -0.0883 -0.6205  0.5416
 7958SOL    HW135510   2.606   2.849   8.422 -0.3271 -1.7948 -0.9440
 7958SOL    HW235511   2.701   2.778   8.344  0.4786  1.4127 -1.9970
 7959SOL     OW35512   1.656   0.103   7.486 -0.2524  0.3835 -0.2392
 7959SOL    HW135513   1.668   0.077   7.577 -0.9320  0.2823 -0.1784
 7959SOL    HW235514   1.576   0.059   7.460 -0.6724  1.0611 -0.1007
 7960SOL     OW35515   2.942   2.804   6.740  0.8040 -0.5954 -0.2655
 7960SOL    HW135516   2.929   2.710   6.724 -3.2342 -0.3957  1.7302
 7960SOL    HW235517   3.037   2.814   6.744  0.3786  2.9250  0.7905
 7961SOL     OW35518   3.178   2.106   1.350  0.1400  0.2659  0.2667
 7961SOL    HW135519   3.216   2.043   1.412  1.6875 -0.6723 -1.6327
 7961SOL    HW235520   3.210   2.186   1.391 -0.2698 -0.7152  2.5205
 7962SOL     OW35521   2.816   1.050   5.216  0.1239 -0.7821 -0.1950
 7962SOL    HW135522   2.801   1.031   5.123  3.6998  0.6651 -1.0678
 7962SOL    HW235523   2.909   1.027   5.216 -0.2801 -2.4300 -0.1066
 7963SOL     OW35524   3.874   3.316   9.230  0.1132  0.1458  0.6208
 7963SOL    HW135525   3.912   3.295   9.315  2.3299  0.5805 -0.2686
 7963SOL    HW235526   3.786   3.296   9.262 -0.8245 -1.8457 -3.3030
 7964SOL     OW35527   2.629   2.551  13.963  0.1217 -0.2579 -0.4947
 7964SOL    HW135528   2.543   2.579  13.930  0.6522 -0.1854 -1.8397
 7964SOL    HW235529   2.679   2.531  13.884  0.8086 -1.0563  0.1483
 7965SOL     OW35530   0.581   4.252   2.700  0.1228 -0.0016  0.0107
 7965SOL    HW135531   0.585   4.255   2.796 -0.1861  1.6000 -0.0155
 7965SOL    HW235532   0.621   4.166   2.686  2.0630  0.7427  0.9317
 7966SOL     OW35533   3.269   3.981   9.249  0.1244  0.3854  0.6643
 7966SOL    HW135534   3.320   3.900   9.245 -1.6190 -0.5475 -2.4373
 7966SOL    HW235535   3.272   3.988   9.345 -0.3530  3.4561  0.4437
 7967SOL     OW35536   1.460   0.427   8.302 -0.2224  0.1851  0.0370
 7967SOL    HW135537   1.379   0.479   8.306 -2.2970 -2.9220 -1.7043
 7967SOL    HW235538   1.427   0.349   8.258  0.4525 -0.7132  1.1260
 7968SOL     OW35539   4.109   0.976   1.923  0.0687 -0.7772 -0.4459
 7968SOL    HW135540   4.053   1.043   1.884 -0.0944  0.2273  1.5225
 7968SOL    HW235541   4.110   0.914   1.850 -0.6502  1.9712 -2.8005
 7969SOL     OW35542   3.759   3.576   5.761  0.0075 -0.1273 -0.0924
 7969SOL    HW135543   3.775   3.579   5.855  2.2559  0.7796 -0.5015
 7969SOL    HW235544   3.686   3.515   5.769  0.9758 -1.2348  0.4501
 7970SOL     OW35545   3.658   1.782   5.910  0.2702 -0.8351  0.4575
 7970SOL    HW135546   3.733   1.810   5.858  0.4249  0.6083  1.4492
 7970SOL    HW235547   3.699   1.793   5.996  1.2394  0.0285 -0.1222
 7971SOL     OW35548   2.673   1.570   3.946  0.6455 -0.0305  0.3757
 7971SOL    HW135549   2.582   1.553   3.921  1.5705 -2.0584 -1.7196
 7971SOL    HW235550   2.716   1.528   3.871  1.3419  0.5322  0.4656
 7972SOL     OW35551   2.035   4.203   3.511 -0.2784  0.2914  0.6547
 7972SOL    HW135552   1.951   4.190   3.467 -0.9710  1.0970  1.7450
 7972SOL    HW235553   2.008   4.162   3.593  1.8890 -0.6339  0.9302
 7973SOL     OW35554   2.965   3.170   5.664  0.3453 -0.1155  0.5654
 7973SOL    HW135555   3.000   3.235   5.724  0.5415 -1.1302  1.5359
 7973SOL    HW235556   2.898   3.228   5.626  1.0085  0.7073  0.6421
 7974SOL     OW35557   4.318   4.417  12.807 -0.0129 -0.5294 -0.0618
 7974SOL    HW135558   4.301   4.509  12.828  0.6698 -0.5182  0.4280
 7974SOL    HW235559   4.338   4.406  12.714  0.1682 -1.4496  0.0845
 7975SOL     OW35560   4.221   0.463   9.314  0.0215 -0.6694 -0.1037
 7975SOL    HW135561   4.262   0.378   9.296  0.6353  0.4999 -4.0463
 7975SOL    HW235562   4.136   0.433   9.347 -0.1391  0.9285  0.9221
 7976SOL     OW35563   4.551   3.924   9.806  0.8091  0.6578 -0.2809
 7976SOL    HW135564   4.621   3.885   9.858  1.5038  2.2924 -0.0179
 7976SOL    HW235565   4.503   3.843   9.787 -1.8936  2.1425  0.3077
 7977SOL     OW35566   2.793   0.076  11.755  0.2689  0.1896  0.2132
 7977SOL    HW135567   2.715   0.029  11.786 -0.4201  1.5117  0.4973
 7977SOL    HW235568   2.848   4.742  11.740 -0.2397 -0.2951  0.8051
 7978SOL     OW35569   2.713   0.748   7.894 -0.8496 -0.4865  0.0378
 7978SOL    HW135570   2.767   0.760   7.816  2.0916  0.1873  2.1936
 7978SOL    HW235571   2.782   0.722   7.955  0.7172  0.4649 -1.3136
 7979SOL     OW35572   3.796   4.137  16.108  0.3790 -0.5702 -0.2325
 7979SOL    HW135573   3.733   4.167  16.042 -0.2698 -0.1387  0.5870
 7979SOL    HW235574   3.881   4.174  16.086 -0.0133  1.6756  2.0437
 7980SOL     OW35575   3.501   3.635  13.286 -0.0490  0.1466 -0.4133
 7980SOL    HW135576   3.421   3.678  13.318 -0.7223 -2.3518  1.2470
 7980SOL    HW235577   3.557   3.696  13.333  0.4090 -1.6483  1.3743
 7981SOL     OW35578   4.173   3.765   6.872  0.0478 -0.0530 -0.5873
 7981SOL    HW135579   4.186   3.837   6.933 -3.5956  0.3185 -0.2633
 7981SOL    HW235580   4.264   3.754   6.845 -0.7028 -2.3067 -2.2601
 7982SOL     OW35581   1.584   4.156  13.030  0.1404 -0.1682 -0.4223
 7982SOL    HW135582   1.511   4.141  12.970  0.5340  0.5961 -1.0942
 7982SOL    HW235583   1.571   4.093  13.101 -0.7829 -0.3202 -0.7159
 7983SOL     OW35584   1.670   0.719  14.381 -0.3316  0.0986 -0.0521
 7983SOL    HW135585   1.630   0.644  14.424 -1.0325  1.1562  1.1458
 7983SOL    HW235586   1.624   0.791  14.425 -0.0807 -0.1161  0.5581
 7984SOL     OW35587   3.345   4.320  11.732  0.1873  0.0066 -0.0773
 7984SOL    HW135588   3.344   4.360  11.819 -3.4256  0.1853 -0.1844
 7984SOL    HW235589   3.435   4.325  11.701 -0.4852  1.0082 -1.8917
 7985SOL     OW35590   3.702   1.940   7.614 -0.0692 -0.2230  0.2176
 7985SOL    HW135591   3.727   1.891   7.692  1.1326 -1.8903 -1.2135
 7985SOL    HW235592   3.733   1.892   7.537 -0.7638  1.1654 -0.9164
 7986SOL     OW35593   1.553   2.533   5.893 -0.6542  0.8233 -0.0791
 7986SOL    HW135594   1.597   2.574   5.819  0.0131  0.6632  0.2266
 7986SOL    HW235595   1.563   2.604   5.956 -1.3615 -0.2336  1.2195
 7987SOL     OW35596   3.385   3.715   9.247  0.7053 -0.2234 -0.2490
 7987SOL    HW135597   3.311   3.692   9.192  0.5064 -0.0072 -0.0734
 7987SOL    HW235598   3.365   3.655   9.320  2.6868 -1.2897 -0.5730
 7988SOL     OW35599   0.069   0.411   5.530  0.0424  0.0606 -0.4267
 7988SOL    HW135600   0.037   0.481   5.587  0.2425  0.8275 -1.2560
 7988SOL    HW235601   0.088   0.341   5.593 -0.3475 -2.1889 -2.8338
 7989SOL     OW35602   2.186   0.035   4.327 -0.3405 -0.3170 -0.9025
 7989SOL    HW135603   2.234   4.704   4.366 -0.9288  1.1344  2.5085
 7989SOL    HW235604   2.158   4.738   4.245  0.2607 -1.0694 -0.7437
 7990SOL     OW35605   0.968   0.001   8.830 -0.0520 -0.8147  0.1697
 7990SOL    HW135606   0.997   0.091   8.844 -1.6826 -0.4229  1.0447
 7990SOL    HW235607   0.874   0.018   8.825 -0.1930 -1.9266 -0.9166
 7991SOL     OW35608   1.398   3.244   8.409  0.5289 -0.6425 -0.4074
 7991SOL    HW135609   1.397   3.229   8.504 -0.7712 -2.2450 -0.6890
 7991SOL    HW235610   1.491   3.265   8.402  0.2881  1.4098  2.4248
 7992SOL     OW35611   0.526   3.342   7.158  0.0875 -0.0970  0.6010
 7992SOL    HW135612   0.460   3.342   7.228 -0.0898  0.6510  0.4332
 7992SOL    HW235613   0.569   3.261   7.181  0.6197  1.0295  3.6013
 7993SOL     OW35614   3.691   0.552   7.914 -0.0444  0.0170  0.4397
 7993SOL    HW135615   3.700   0.530   8.007  1.1624  2.1786  0.8355
 7993SOL    HW235616   3.776   0.536   7.872 -1.0294 -1.5022 -0.9573
 7994SOL     OW35617   2.665   0.640   9.038 -0.2753 -0.3923  0.6517
 7994SOL    HW135618   2.571   0.657   9.048 -0.5855 -0.4674 -2.0903
 7994SOL    HW235619   2.675   0.579   9.111 -0.9663 -0.3428  0.7939
 7995SOL     OW35620   4.061   2.203   5.497 -0.0611  0.1605  0.1633
 7995SOL    HW135621   3.985   2.192   5.440 -0.7687  0.5313  1.0290
 7995SOL    HW235622   4.126   2.241   5.438 -0.2896 -0.1737 -0.3023
 7996SOL     OW35623   3.285   3.610   1.579 -0.6208 -0.2669 -0.4923
 7996SOL    HW135624   3.297   3.687   1.634  1.7235 -0.9224 -0.1010
 7996SOL    HW235625   3.374   3.584   1.556 -0.3483  1.2912 -1.1865
 7997SOL     OW35626   2.894   3.819   8.117 -0.0953  0.6256 -0.8844
 7997SOL    HW135627   2.816   3.859   8.155  0.2391  1.9732 -1.6412
 7997SOL    HW235628   2.905   3.741   8.171  1.6247 -0.1419 -2.3249
 7998SOL     OW35629   3.824   4.036  13.906 -0.5352  0.2719 -0.2834
 7998SOL    HW135630   3.836   4.130  13.920  1.7440 -0.1019  0.4213
 7998SOL    HW235631   3.911   3.999  13.925  0.0341  1.7570 -0.0150
 7999SOL     OW35632   4.297   4.098   0.863 -0.0650 -0.0784  0.8271
 7999SOL    HW135633   4.382   4.078   0.902  0.0208  2.5328  1.9951
 7999SOL    HW235634   4.324   4.114   0.773 -0.3303 -0.4482  0.6790
 8000SOL     OW35635   0.711   0.713  12.993 -0.4794 -0.1006  0.3213
 8000SOL    HW135636   0.688   0.793  13.041  1.3446 -0.9038  2.4811
 8000SOL    HW235637   0.734   0.663  13.071 -1.1650  0.3868  0.8381
 8001SOL     OW35638   2.108   1.535   9.003 -0.5357  0.4137 -0.3748
 8001SOL    HW135639   2.135   1.461   8.949  1.4221  0.7219  0.1914
 8001SOL    HW235640   2.103   1.490   9.087  0.6169 -3.0633 -2.2024
 8002SOL     OW35641   0.024   0.068   6.115  0.6589 -0.5095  0.3571
 8002SOL    HW135642   4.697   0.035   6.058  1.0682  2.7253 -1.9861
 8002SOL    HW235643   0.098   0.081   6.056  0.4886 -1.2493 -0.0198
 8003SOL     OW35644   1.666   0.663   4.835 -0.1895  0.2538  0.1344
 8003SOL    HW135645   1.744   0.614   4.861 -0.5244  0.5258  1.6416
 8003SOL    HW235646   1.661   0.642   4.742  2.0518  0.5892 -0.0706
 8004SOL     OW35647   2.753   2.590   8.346  0.0656 -0.1452  0.4760
 8004SOL    HW135648   2.792   2.504   8.331  0.4175 -0.8288  5.1667
 8004SOL    HW235649   2.725   2.585   8.438 -3.6952  0.6846 -0.6171
 8005SOL     OW35650   3.949   3.921  17.167 -0.2860 -0.3754  0.2780
 8005SOL    HW135651   3.967   3.965  17.250  1.6777 -1.0072  0.1916
 8005SOL    HW235652   3.971   3.987  17.100 -0.0815 -1.6133 -0.8721
 8006SOL     OW35653   2.669   0.476   9.306 -0.1886  0.3181 -0.5740
 8006SOL    HW135654   2.680   0.559   9.354  0.3690 -0.9347  1.4611
 8006SOL    HW235655   2.751   0.430   9.326 -0.5593 -0.0185  0.1963
 8007SOL     OW35656   2.654   4.460   3.416  0.4123 -0.1131  0.3829
 8007SOL    HW135657   2.706   4.390   3.456  1.3072 -0.5349 -1.5527
 8007SOL    HW235658   2.615   4.507   3.490  0.6476 -0.9080  1.0200
 8008SOL     OW35659   0.884   3.376  11.232  0.2893 -0.1083 -0.2385
 8008SOL    HW135660   0.879   3.471  11.220  0.2573 -0.0019  0.6166
 8008SOL    HW235661   0.980   3.372  11.235  0.3119  0.1835 -0.6404
 8009SOL     OW35662   0.943   4.335   2.891  0.2800 -0.1484 -0.3020
 8009SOL    HW135663   1.024   4.302   2.852  1.4678  2.3199  0.0588
 8009SOL    HW235664   0.885   4.261   2.875  2.2240 -2.0838  1.7553
 8010SOL     OW35665   3.491   2.134   4.087 -0.1125 -0.3746  0.3633
 8010SOL    HW135666   3.574   2.170   4.057  0.0594  0.2450  1.6061
 8010SOL    HW235667   3.512   2.145   4.180 -0.0105 -0.9789  0.4105
 8011SOL     OW35668   3.816   4.139   0.917  0.1377 -0.6299 -0.3780
 8011SOL    HW135669   3.749   4.100   0.973 -1.2960  2.7427  0.2463
 8011SOL    HW235670   3.898   4.115   0.962 -0.0938  2.1673  1.5481
 8012SOL     OW35671   1.979   1.410   4.317  0.1521 -0.8013 -0.1657
 8012SOL    HW135672   2.047   1.460   4.362  0.4860  0.1565 -1.7200
 8012SOL    HW235673   2.024   1.358   4.250  0.6914 -1.1307  0.4528
 8013SOL     OW35674   3.549   1.601   7.813  0.7918  0.2233 -0.4811
 8013SOL    HW135675   3.527   1.538   7.744  1.6465 -0.4770 -0.1109
 8013SOL    HW235676   3.458   1.625   7.828  0.7344 -0.7461  0.6771
 8014SOL     OW35677   0.873   3.276  17.506  0.7854  0.2266 -0.0158
 8014SOL    HW135678   0.780   3.297  17.505  0.7022  0.0904  3.7219
 8014SOL    HW235679   0.875   3.231  17.422 -0.1463 -0.0716  0.1255
 8015SOL     OW35680   3.112   2.603   8.213 -0.3604 -0.6950  0.5285
 8015SOL    HW135681   3.115   2.656   8.133  1.0835  1.3533  1.9337
 8015SOL    HW235682   3.206   2.596   8.233  0.1209  1.6815 -0.9099
 8016SOL     OW35683   0.534   2.099   2.557 -0.4805 -0.1621  0.6560
 8016SOL    HW135684   0.590   2.176   2.566 -1.1688  0.7316 -2.8547
 8016SOL    HW235685   0.566   2.032   2.618  0.4964 -0.9726 -0.7496
 8017SOL     OW35686   3.120   4.280   7.633  0.2599  0.4456  0.2093
 8017SOL    HW135687   3.110   4.300   7.725  4.9157  0.8489  0.6174
 8017SOL    HW235688   3.213   4.299   7.625  0.8241 -1.0296  3.5010
 8018SOL     OW35689   3.151   3.541  10.934  0.1429  0.0718 -0.0137
 8018SOL    HW135690   3.175   3.627  10.898 -0.0482 -0.4221 -1.3137
 8018SOL    HW235691   3.215   3.478  10.900  1.1583  1.0333  0.1061
 8019SOL     OW35692   3.651   3.767  10.363  0.2504  0.6408  0.2829
 8019SOL    HW135693   3.714   3.777  10.434  2.2359 -0.2819 -1.3556
 8019SOL    HW235694   3.696   3.803  10.287  1.4207 -1.0748  0.1552
 8020SOL     OW35695   1.315   0.289   3.743  0.2406  0.1456  0.3018
 8020SOL    HW135696   1.352   0.218   3.795  0.9047  1.7094  1.9383
 8020SOL    HW235697   1.381   0.349   3.777  3.2395 -2.7536 -0.3405
 8021SOL     OW35698   3.597   2.220   6.153 -0.3261  0.2154 -0.0532
 8021SOL    HW135699   3.605   2.125   6.153 -2.3081  0.0319 -2.2526
 8021SOL    HW235700   3.599   2.243   6.060 -0.4573  0.9717  0.1328
 8022SOL     OW35701   2.787   4.233   9.502 -0.4590 -0.3631  0.1334
 8022SOL    HW135702   2.859   4.172   9.487 -0.1917  0.3424 -1.5313
 8022SOL    HW235703   2.761   4.248   9.411  1.5728  1.6292 -0.1247
 8023SOL     OW35704   2.933   3.103   4.621  0.1679  0.7748  0.3354
 8023SOL    HW135705   3.025   3.092   4.645  0.6363 -0.9635 -2.2174
 8023SOL    HW235706   2.914   3.021   4.575 -0.5910  0.6565  0.8424
 8024SOL     OW35707   4.639   4.503  13.477  0.0594 -0.1802 -0.4415
 8024SOL    HW135708   4.593   4.440  13.422 -1.8876  0.4954  0.4228
 8024SOL    HW235709   4.608   4.468  13.561  1.2185  0.6964  0.3624
 8025SOL     OW35710   0.770   1.668  16.436 -0.1725 -0.3632  0.2693
 8025SOL    HW135711   0.749   1.738  16.498 -0.9434 -0.5621  0.2248
 8025SOL    HW235712   0.845   1.715  16.400  0.5778 -0.3795  1.7898
 8026SOL     OW35713   3.892   1.236  12.927  0.0365  0.7747 -0.3570
 8026SOL    HW135714   3.831   1.170  12.958  1.3670  0.2531  1.1595
 8026SOL    HW235715   3.848   1.314  12.961 -1.6425  0.0695 -0.9260
 8027SOL     OW35716   2.799   0.536  10.497 -0.0862 -0.6722  0.0925
 8027SOL    HW135717   2.711   0.573  10.482  0.4354  0.7708  0.6186
 8027SOL    HW235718   2.804   0.497  10.584  0.1447 -0.8048  0.0193
 8028SOL     OW35719   2.279   0.129  17.081 -0.1210 -0.5572  0.2317
 8028SOL    HW135720   2.243   0.093  17.000 -0.2391 -1.6115  0.7641
 8028SOL    HW235721   2.360   0.172  17.052  1.2417 -2.0743  1.8216
 8029SOL     OW35722   0.090   0.503   8.180 -0.1587 -0.2445  0.0395
 8029SOL    HW135723   4.741   0.523   8.203  0.1513 -0.9836  1.9267
 8029SOL    HW235724   0.091   0.540   8.091 -0.8370  1.0839  0.5694
 8030SOL     OW35725   0.391   1.030  12.375 -0.2419  0.1718 -0.8628
 8030SOL    HW135726   0.374   1.032  12.469 -0.6548 -0.3078 -0.9307
 8030SOL    HW235727   0.341   0.951  12.355  2.2944 -2.1265  1.9279
 8031SOL     OW35728   1.174   1.030   3.553 -0.3685  0.0299 -0.7136
 8031SOL    HW135729   1.163   1.113   3.599  1.5223  1.3130 -2.5897
 8031SOL    HW235730   1.256   1.040   3.504 -0.6912  2.1532 -0.7992
 8032SOL     OW35731   2.261   1.203   2.564  0.5199  0.2157  0.6023
 8032SOL    HW135732   2.222   1.143   2.627 -1.4172  2.4823  1.5744
 8032SOL    HW235733   2.326   1.250   2.616  0.6550 -2.5905  2.9235
 8033SOL     OW35734   2.082   2.979   6.340 -0.4239  0.0874  1.1243
 8033SOL    HW135735   2.041   3.050   6.289  0.7866  0.0512  0.0974
 8033SOL    HW235736   2.118   2.923   6.271 -0.0379  1.6697  0.0531
 8034SOL     OW35737   3.188   4.524   5.505  0.3742  0.5517 -0.0081
 8034SOL    HW135738   3.145   4.603   5.540  1.1186  1.3113 -0.8221
 8034SOL    HW235739   3.177   4.468   5.582  2.7866  1.6689  1.1397
 8035SOL     OW35740   4.253   1.100   3.068  0.4891  0.3160  0.2594
 8035SOL    HW135741   4.207   1.085   2.985  0.0590 -1.5250  0.8426
 8035SOL    HW235742   4.264   1.008   3.092 -0.2979  0.0882 -0.2487
 8036SOL     OW35743   2.223   0.212   2.011 -0.2361  0.2732  0.6415
 8036SOL    HW135744   2.129   0.199   2.001 -0.4037 -0.9393  3.8608
 8036SOL    HW235745   2.228   0.222   2.106  0.5871 -1.0204  0.7354
 8037SOL     OW35746   4.325   3.607   4.838  0.0657 -0.8985 -0.2571
 8037SOL    HW135747   4.280   3.547   4.779  1.5691 -1.2339 -1.0844
 8037SOL    HW235748   4.371   3.658   4.771  0.0456  0.3296  0.6663
 8038SOL     OW35749   1.493   1.394   8.535 -0.3162  0.0340 -0.6735
 8038SOL    HW135750   1.460   1.480   8.510  0.7157  0.6760  0.1899
 8038SOL    HW235751   1.416   1.337   8.545 -0.0364  0.4335  3.6863
 8039SOL     OW35752   2.248   4.326   4.297 -0.3601  0.1928 -0.2830
 8039SOL    HW135753   2.252   4.338   4.392  0.8517 -0.0635 -0.3066
 8039SOL    HW235754   2.174   4.384   4.279  1.4596  2.5746 -0.0582
 8040SOL     OW35755   0.059   4.522   6.886  0.1374  0.0488 -0.1587
 8040SOL    HW135756   0.101   4.585   6.944  0.5959 -1.8281  1.5510
 8040SOL    HW235757   4.714   4.514   6.924  0.8058 -0.4367  1.2345
 8041SOL     OW35758   2.427   2.125   0.673 -0.2098  0.3225 -0.0840
 8041SOL    HW135759   2.347   2.177   0.663 -0.5226  0.1666  1.6580
 8041SOL    HW235760   2.440   2.127   0.768 -0.3333  1.0071 -0.0859
 8042SOL     OW35761   2.033   2.397  13.960  0.7057 -0.4644 -0.2785
 8042SOL    HW135762   2.011   2.419  13.869  0.4956 -0.9483 -0.3491
 8042SOL    HW235763   2.079   2.476  13.984  1.2880 -0.8895 -0.0001
 8043SOL     OW35764   1.256   2.461  13.573 -0.0298 -0.7691 -0.5012
 8043SOL    HW135765   1.316   2.522  13.615 -0.5418  0.3550 -1.3785
 8043SOL    HW235766   1.172   2.477  13.615 -0.6869 -3.2400 -0.8466
 8044SOL     OW35767   2.349   0.144   6.452  0.1041 -0.8146  0.8819
 8044SOL    HW135768   2.417   0.112   6.392  0.4373  1.4116  0.0715
 8044SOL    HW235769   2.335   0.230   6.413  1.9512 -0.2715  1.4357
 8045SOL     OW35770   2.790   0.584   2.831 -0.7755 -0.3743 -0.0311
 8045SOL    HW135771   2.760   0.574   2.922 -3.8350  0.5804 -0.9484
 8045SOL    HW235772   2.861   0.519   2.828 -0.7741 -0.2980 -1.3467
 8046SOL     OW35773   2.589   3.375  14.135 -0.3005  0.0636  0.2911
 8046SOL    HW135774   2.648   3.381  14.210 -0.1465 -2.6260  0.3801
 8046SOL    HW235775   2.609   3.458  14.092  4.7236 -1.3552 -0.1319
 8047SOL     OW35776   4.012   2.772   1.933  0.0451 -0.4077 -0.4385
 8047SOL    HW135777   3.984   2.691   1.892 -0.9793  0.1450 -0.8199
 8047SOL    HW235778   4.097   2.785   1.890 -0.8279  2.6600 -1.2523
 8048SOL     OW35779   0.528   1.151   4.085  0.0372 -0.4650 -0.2489
 8048SOL    HW135780   0.597   1.216   4.100  1.1442 -1.6383 -0.2661
 8048SOL    HW235781   0.582   1.077   4.059  1.8000  0.0015  2.0716
 8049SOL     OW35782   3.968   2.569   1.747 -0.2434 -0.2263  0.2117
 8049SOL    HW135783   4.052   2.525   1.740 -0.3574 -0.1576 -1.4241
 8049SOL    HW235784   3.969   2.622   1.667  0.6563 -2.4079 -1.2013
 8050SOL     OW35785   1.474   1.312  13.955 -0.1503 -0.1983 -0.0135
 8050SOL    HW135786   1.516   1.326  13.870  0.9063  1.8425  0.8280
 8050SOL    HW235787   1.474   1.403  13.984  0.6349  0.1091 -0.9540
 8051SOL     OW35788   1.487   1.152   9.311  0.5656  0.3653  0.2545
 8051SOL    HW135789   1.477   1.073   9.257 -1.6534 -0.3146  1.6461
 8051SOL    HW235790   1.467   1.131   9.402  1.6433 -2.0100 -0.0585
 8052SOL     OW35791   3.646   0.323   7.444  0.5143 -0.1691  0.6076
 8052SOL    HW135792   3.683   0.410   7.432  1.9516 -1.1002 -1.6601
 8052SOL    HW235793   3.555   0.330   7.415  0.6863  0.5505  0.2509
 8053SOL     OW35794   0.860   2.679   7.143 -0.0526  0.4761  0.0529
 8053SOL    HW135795   0.955   2.674   7.133 -0.2168  2.5444 -2.5155
 8053SOL    HW235796   0.840   2.602   7.197  0.0385 -0.2155 -0.8969
 8054SOL     OW35797   1.552   4.312   2.092 -0.0853  0.1867 -0.0534
 8054SOL    HW135798   1.584   4.338   2.006 -0.6644  0.0226 -0.3177
 8054SOL    HW235799   1.620   4.250   2.119 -1.8657 -0.8323  2.1438
 8055SOL     OW35800   1.895   3.848   7.618  0.0626 -0.6948 -0.0517
 8055SOL    HW135801   1.857   3.764   7.591  1.6309 -2.1392  2.2455
 8055SOL    HW235802   1.884   3.838   7.712 -0.5991 -0.9332 -0.1546
 8056SOL     OW35803   2.126   3.349   0.272  0.3762  0.0288  0.2930
 8056SOL    HW135804   2.056   3.294   0.236 -1.4771  0.9658  2.4512
 8056SOL    HW235805   2.093   3.437   0.253 -1.3485 -0.9138 -1.1310
 8057SOL     OW35806   3.115   1.177   0.903  0.0449 -0.0598  0.3243
 8057SOL    HW135807   3.093   1.247   0.964  1.1459  1.6363 -1.2116
 8057SOL    HW235808   3.207   1.198   0.889  0.0197 -1.9612 -2.6351
 8058SOL     OW35809   3.332   4.454   8.497 -0.7558  0.1442 -0.3163
 8058SOL    HW135810   3.291   4.517   8.555  0.6863  0.1971  0.6328
 8058SOL    HW235811   3.409   4.420   8.543 -0.9694  0.2151  0.0927
 8059SOL     OW35812   3.081   1.815  16.532 -0.3925  0.5013 -0.1324
 8059SOL    HW135813   3.066   1.725  16.562  1.7366  0.0105 -0.5388
 8059SOL    HW235814   3.039   1.817  16.446 -0.7360  0.0029  0.0277
 8060SOL     OW35815   4.562   0.213   2.428  0.0777  0.4253  0.2705
 8060SOL    HW135816   4.625   0.243   2.362  1.3408 -2.9282 -0.0748
 8060SOL    HW235817   4.499   0.173   2.367 -1.0480  0.3692  1.4680
 8061SOL     OW35818   4.463   0.224  17.047  0.1867 -0.0598  0.2287
 8061SOL    HW135819   4.503   0.184  17.124 -0.6712 -1.1327  0.1091
 8061SOL    HW235820   4.389   0.164  17.040  2.4974 -3.0103  1.4157
 8062SOL     OW35821   3.325   3.602  14.937 -0.5194 -0.2400  0.7951
 8062SOL    HW135822   3.381   3.679  14.921 -0.3640 -0.1487  1.7708
 8062SOL    HW235823   3.312   3.576  14.845  3.0772 -0.2117  0.2452
 8063SOL     OW35824   4.021   1.135  12.706  0.1309 -0.3760 -0.1737
 8063SOL    HW135825   4.102   1.148  12.756  1.7163  0.0246 -2.9009
 8063SOL    HW235826   3.955   1.149  12.775 -1.1907  0.7418 -1.6355
 8064SOL     OW35827   4.152   0.025   4.164 -0.1026 -0.1644  0.0363
 8064SOL    HW135828   4.136   4.701   4.232  0.7229  0.3963  0.7792
 8064SOL    HW235829   4.215   0.079   4.211  0.6977 -1.9299  0.9795
 8065SOL     OW35830   2.805   1.377   7.754 -0.8973 -0.1540  0.0402
 8065SOL    HW135831   2.755   1.422   7.686 -0.9757  0.0389  0.2261
 8065SOL    HW235832   2.877   1.332   7.709 -1.0339 -2.1497  1.7955
 8066SOL     OW35833   2.685   2.863   6.133 -0.2467 -0.4070  0.0617
 8066SOL    HW135834   2.669   2.942   6.185 -1.3948  0.0750 -1.0418
 8066SOL    HW235835   2.675   2.792   6.196  0.4874  0.4361  1.1281
 8067SOL     OW35836   4.736   0.270  11.698  0.5631 -0.2998 -0.4352
 8067SOL    HW135837   4.700   0.337  11.640  3.8074  2.7547  1.1366
 8067SOL    HW235838   4.662   0.228  11.741  1.9133 -2.6324 -0.3997
 8068SOL     OW35839   0.610   3.943   8.087 -0.2782  0.5127  0.1266
 8068SOL    HW135840   0.684   3.995   8.117  0.6260 -2.4744  3.1196
 8068SOL    HW235841   0.647   3.896   8.012 -2.4041 -1.4461  0.3057
 8069SOL     OW35842   3.664   1.559   2.146 -0.0075 -0.3472  0.2381
 8069SOL    HW135843   3.570   1.576   2.149 -0.2269 -0.7989 -3.2432
 8069SOL    HW235844   3.699   1.599   2.066  1.8506 -4.2429 -0.8952
 8070SOL     OW35845   3.920   0.388   6.792  0.7279  0.7674 -0.3883
 8070SOL    HW135846   4.004   0.383   6.838 -0.7603 -3.2260  1.9480
 8070SOL    HW235847   3.942   0.335   6.716 -1.8171 -1.8812  0.6948
 8071SOL     OW35848   3.324   3.571   9.451  0.2500 -0.0059 -0.0772
 8071SOL    HW135849   3.272   3.494   9.426 -1.6062  1.0791  0.4809
 8071SOL    HW235850   3.329   3.566   9.546 -0.9352 -0.7070 -0.0477
 8072SOL     OW35851   1.281   4.299   3.563 -0.0168 -0.2460  0.3550
 8072SOL    HW135852   1.310   4.377   3.610  0.4956 -1.0183  1.3065
 8072SOL    HW235853   1.195   4.329   3.532  0.5321 -0.8387 -1.7371
 8073SOL     OW35854   3.599   1.644   8.665  0.4802 -0.5529 -0.0999
 8073SOL    HW135855   3.631   1.570   8.716 -0.6326 -1.0951 -0.1910
 8073SOL    HW235856   3.510   1.618   8.643 -0.1165  0.2503  1.3973
 8074SOL     OW35857   0.108   3.119  15.087  0.1774 -0.0581 -0.0589
 8074SOL    HW135858   0.173   3.059  15.125  2.6959  1.8830 -1.2993
 8074SOL    HW235859   0.133   3.200  15.129 -0.8811  0.3061 -0.1293
 8075SOL     OW35860   1.551   1.755   4.219  0.0269  0.2246  0.4870
 8075SOL    HW135861   1.628   1.705   4.192  0.1492  0.5613  0.2142
 8075SOL    HW235862   1.602   1.834   4.234 -1.4723  1.1944  0.4224
 8076SOL     OW35863   0.608   2.909   5.619  0.1536 -0.1811  0.0793
 8076SOL    HW135864   0.663   2.916   5.541 -0.3376  1.2326 -0.1436
 8076SOL    HW235865   0.628   2.825   5.661 -2.5284 -0.6836  0.3686
 8077SOL     OW35866   2.911   1.046   8.547  0.5640 -0.1284  0.2968
 8077SOL    HW135867   3.000   1.041   8.582  0.8284 -0.4738 -0.4224
 8077SOL    HW235868   2.927   1.023   8.456 -0.5140 -3.5326  0.9911
 8078SOL     OW35869   4.047   2.432   8.137 -0.7045 -0.0435  0.7245
 8078SOL    HW135870   4.073   2.464   8.050 -0.0668 -0.0323  0.9205
 8078SOL    HW235871   4.130   2.397   8.167  0.1783 -0.9993 -2.7991
 8079SOL     OW35872   0.722   4.738  12.895  0.2333  0.1240 -0.2369
 8079SOL    HW135873   0.646   0.051  12.914  0.0143 -0.5842  0.8989
 8079SOL    HW235874   0.722   4.677  12.968 -0.8915  0.0775 -0.2764
 8080SOL     OW35875   0.084   1.072   5.571  0.6141 -0.1374  0.2428
 8080SOL    HW135876   0.168   1.027   5.579  1.1161  0.9273  1.0323
 8080SOL    HW235877   0.021   1.004   5.548 -0.5558  1.6500 -1.8544
 8081SOL     OW35878   1.501   2.823   0.300 -0.1456 -0.2357 -0.6961
 8081SOL    HW135879   1.546   2.862   0.225  1.2901 -1.9067 -0.6945
 8081SOL    HW235880   1.564   2.857   0.363 -2.8552  2.4485  0.5984
 8082SOL     OW35881   1.404   3.024   4.335 -0.9012  0.5375 -0.2237
 8082SOL    HW135882   1.352   3.006   4.414 -0.9971 -2.7959 -1.0641
 8082SOL    HW235883   1.357   2.978   4.267  1.2052  0.4265 -1.6030
 8083SOL     OW35884   4.181   3.021   8.811 -0.8390 -0.5005  0.6303
 8083SOL    HW135885   4.261   3.049   8.855  0.6330 -0.7517 -1.8813
 8083SOL    HW235886   4.140   3.108   8.818  0.3389  0.2192 -1.3995
 8084SOL     OW35887   2.738   1.864   0.381  0.4063  0.3899 -0.1743
 8084SOL    HW135888   2.713   1.932   0.443 -0.9852 -0.3541  0.0815
 8084SOL    HW235889   2.834   1.863   0.386  0.3820  0.3730  0.2666
 8085SOL     OW35890   1.114   0.224   1.853  0.3502  0.3075 -0.2528
 8085SOL    HW135891   1.114   0.183   1.939  1.3066  0.8819  0.0184
 8085SOL    HW235892   1.060   0.168   1.797  0.3929 -0.4281  0.4305
 8086SOL     OW35893   1.751   0.112   0.007  0.3991  0.3093 -0.3811
 8086SOL    HW135894   1.787   0.024  17.758 -0.7321 -0.5610  1.9803
 8086SOL    HW235895   1.658   0.090   0.001  0.7960 -0.8080 -2.3660
 8087SOL     OW35896   0.113   3.656   1.193  0.3611 -0.0037 -0.1941
 8087SOL    HW135897   0.157   3.571   1.191  2.9551  1.3365 -0.1094
 8087SOL    HW235898   0.121   3.676   1.286  0.8942  0.1282 -0.2705
 8088SOL     OW35899   2.898   3.565   3.307 -0.0727 -0.0342  0.6494
 8088SOL    HW135900   2.911   3.628   3.236  2.5942 -0.0264  1.1710
 8088SOL    HW235901   2.972   3.505   3.302 -0.5583 -0.5090 -1.0061
 8089SOL     OW35902   3.126   4.481   8.186 -0.0641  0.5191  0.1033
 8089SOL    HW135903   3.062   4.548   8.210  0.7363  0.6993  1.7858
 8089SOL    HW235904   3.087   4.411   8.238  0.5371 -0.7348 -1.1464
 8090SOL     OW35905   3.746   3.067   8.426  0.0028 -0.0087 -0.4956
 8090SOL    HW135906   3.731   3.025   8.510 -0.2675 -1.3323 -1.1997
 8090SOL    HW235907   3.670   3.040   8.374  0.0385 -0.7550 -0.1506
 8091SOL     OW35908   2.106   1.538   4.853  0.3223 -0.3500 -0.5713
 8091SOL    HW135909   2.169   1.575   4.915  0.5807 -0.6427 -0.6590
 8091SOL    HW235910   2.024   1.559   4.896  0.4684 -0.7288 -0.1084
 8092SOL     OW35911   3.010   1.319   3.904  0.0007 -0.3081 -0.2616
 8092SOL    HW135912   3.105   1.331   3.916 -0.3944  2.8877 -0.3256
 8092SOL    HW235913   2.996   1.259   3.977 -2.4802  0.5198 -0.0758
 8093SOL     OW35914   4.731   1.509   8.163 -0.7401  0.5598  0.0451
 8093SOL    HW135915   4.693   1.443   8.222 -0.3084  0.7222  0.4980
 8093SOL    HW235916   4.653   1.563   8.147 -0.0518  1.6947  0.5441
 8094SOL     OW35917   3.237   3.896   3.951 -0.0137 -0.0757  0.5434
 8094SOL    HW135918   3.197   3.969   3.999  2.0798  1.7882 -0.5597
 8094SOL    HW235919   3.156   3.863   3.912 -0.1342 -1.4039  1.8988
 8095SOL     OW35920   2.929   1.318  12.531 -0.1051 -0.1558 -0.2999
 8095SOL    HW135921   2.867   1.379  12.572 -2.3348 -2.6231 -0.0273
 8095SOL    HW235922   2.889   1.233  12.546 -1.0272  0.3177 -0.0774
 8096SOL     OW35923   4.036   3.407   7.221  0.3975  0.4297 -0.2307
 8096SOL    HW135924   3.957   3.455   7.247  0.2522  0.3355 -0.4941
 8096SOL    HW235925   4.047   3.449   7.136  0.7012  2.6513  0.9343
 8097SOL     OW35926   4.593   2.084   8.368 -0.1828 -0.0855  0.0337
 8097SOL    HW135927   4.643   2.128   8.436 -0.8249  1.9233 -0.8027
 8097SOL    HW235928   4.607   2.151   8.302 -0.2154  0.0720  0.1888
 8098SOL     OW35929   4.387   1.459  12.181  0.2821 -0.0738 -0.3946
 8098SOL    HW135930   4.333   1.380  12.179  0.4762 -0.1763 -1.6642
 8098SOL    HW235931   4.325   1.527  12.207 -2.6236 -2.7859 -0.1388
 8099SOL     OW35932   1.176   0.336   5.531 -0.3539  0.6588 -0.2114
 8099SOL    HW135933   1.168   0.382   5.447  1.1558 -1.3011 -1.4184
 8099SOL    HW235934   1.154   0.248   5.503 -1.0359  0.3676  1.2306
 8100SOL     OW35935   2.402   2.514   4.227  0.0446 -0.5267  0.1278
 8100SOL    HW135936   2.351   2.489   4.149  1.5470 -0.3225 -0.9243
 8100SOL    HW235937   2.466   2.442   4.231 -0.0378 -0.6685 -0.9580
 8101SOL     OW35938   1.601   1.493  11.548  0.1596  0.1659 -0.2980
 8101SOL    HW135939   1.515   1.453  11.537  2.0661 -3.8550 -0.3727
 8101SOL    HW235940   1.589   1.563  11.484  0.3064  0.5330  0.0735
 8102SOL     OW35941   1.726   4.184   5.696 -0.0083  0.1358  0.6535
 8102SOL    HW135942   1.693   4.162   5.608  0.5302 -0.8244  0.6885
 8102SOL    HW235943   1.821   4.195   5.688 -0.1934  2.1328  1.1911
 8103SOL     OW35944   0.530   0.964   2.520 -0.2184  0.6732  0.6298
 8103SOL    HW135945   0.443   1.003   2.520 -0.0502  1.0525  0.7005
 8103SOL    HW235946   0.583   1.041   2.499  0.1038  0.7807  1.8271
 8104SOL     OW35947   2.067   0.367   4.628 -0.5640  0.6532  0.2658
 8104SOL    HW135948   1.977   0.333   4.632 -0.6262  1.0978  2.8832
 8104SOL    HW235949   2.047   0.437   4.566 -2.2557 -0.6826 -0.6934
 8105SOL     OW35950   0.255   1.550   9.443  0.3562 -0.1744 -0.8750
 8105SOL    HW135951   0.186   1.615   9.432  0.7263  0.6001  1.4211
 8105SOL    HW235952   0.198   1.479   9.472  0.6763  0.5860  1.6296
 8106SOL     OW35953   2.309   1.476   2.304 -0.3270  0.6230 -0.6763
 8106SOL    HW135954   2.227   1.509   2.340  0.0641  1.0993 -0.2268
 8106SOL    HW235955   2.278   1.431   2.225 -0.6984 -0.8404  0.2990
 8107SOL     OW35956   4.224   2.285   8.305 -0.2087 -0.1567  1.2459
 8107SOL    HW135957   4.169   2.331   8.369 -2.9850 -0.0902 -1.1962
 8107SOL    HW235958   4.264   2.223   8.366  1.8780  0.6233  0.6491
 8108SOL     OW35959   3.686   1.365   4.963 -0.2104  0.3191  0.1022
 8108SOL    HW135960   3.635   1.295   5.003 -1.1219  0.1814 -1.2897
 8108SOL    HW235961   3.726   1.404   5.040  0.9305 -0.7974  0.0848
 8109SOL     OW35962   0.663   0.562   2.196  0.3339 -0.2580 -0.0417
 8109SOL    HW135963   0.743   0.583   2.245  1.1993  1.9162 -2.3834
 8109SOL    HW235964   0.600   0.623   2.233  0.7428  0.0373  0.1662
 8110SOL     OW35965   1.841   1.306   3.774  0.6513  0.0957  0.0810
 8110SOL    HW135966   1.789   1.355   3.710 -0.2413 -2.1712 -0.9162
 8110SOL    HW235967   1.897   1.250   3.720  0.9307 -0.1891  0.6709
 8111SOL     OW35968   0.561   1.061  15.899 -0.1977 -0.3768 -0.3814
 8111SOL    HW135969   0.523   0.983  15.858  1.2495 -0.4382 -1.6271
 8111SOL    HW235970   0.627   1.020  15.955  2.4126  3.8094 -0.4260
 8112SOL     OW35971   1.669   4.552  16.065 -0.1141  0.2489  0.1017
 8112SOL    HW135972   1.679   4.643  16.038 -0.0803 -0.1933 -1.3397
 8112SOL    HW235973   1.652   4.517  15.978 -1.0742 -0.1082  0.4381
 8113SOL     OW35974   4.474   4.539   1.180  0.0245 -0.3176  0.0854
 8113SOL    HW135975   4.479   4.634   1.185 -0.8104 -0.1175 -2.6589
 8113SOL    HW235976   4.533   4.519   1.106 -0.7605  1.4647 -1.0073
 8114SOL     OW35977   1.097   0.409   8.710 -0.0718 -0.3239 -0.0728
 8114SOL    HW135978   1.115   0.348   8.781 -1.1485 -0.8643 -0.2659
 8114SOL    HW235979   1.182   0.411   8.667  0.9930  0.2484  2.0831
 8115SOL     OW35980   0.211   3.211   8.161 -0.2916 -0.2342 -0.0049
 8115SOL    HW135981   0.260   3.141   8.119  0.0917 -0.3142  0.5789
 8115SOL    HW235982   0.208   3.274   8.089  0.4707  0.2649  0.3981
 8116SOL     OW35983   4.047   2.946   5.486  0.7291 -0.0479 -0.3536
 8116SOL    HW135984   4.012   2.974   5.571  0.8556 -3.0396  0.6974
 8116SOL    HW235985   4.108   2.875   5.507  1.6549  0.9008  0.1851
 8117SOL     OW35986   3.274   3.409   2.583 -0.1554 -0.3410  0.2691
 8117SOL    HW135987   3.195   3.462   2.575 -0.8764 -1.6436 -1.1594
 8117SOL    HW235988   3.241   3.329   2.623 -0.7301 -0.2498 -0.0224
 8118SOL     OW35989   3.707   0.053   0.277  0.5991 -0.0101 -0.0944
 8118SOL    HW135990   3.747   0.025   0.194 -2.2219 -0.8836 -1.1441
 8118SOL    HW235991   3.777   0.117   0.294  0.6610  0.7904 -3.3745
 8119SOL     OW35992   1.312   0.141   2.924  0.6059 -0.1901 -0.0269
 8119SOL    HW135993   1.328   0.175   2.836 -2.8340 -0.2628 -0.6768
 8119SOL    HW235994   1.344   0.207   2.985  0.6795 -0.5998  0.3829
 8120SOL     OW35995   0.200   2.047   8.462 -0.4569  0.2500  0.5522
 8120SOL    HW135996   0.257   1.972   8.442  0.7638  0.9762  1.2901
 8120SOL    HW235997   0.176   2.071   8.372  1.0855  2.3276  0.6936
 8121SOL     OW35998   0.482   1.459   9.244 -0.4490  0.2614  0.1299
 8121SOL    HW135999   0.424   1.448   9.319  1.0079 -1.5996  0.9931
 8121SOL    HW236000   0.420   1.454   9.171 -0.5447 -0.4520  0.2599
 8122SOL     OW36001   4.446   3.686   9.448  0.4562 -0.0094 -0.6598
 8122SOL    HW136002   4.539   3.664   9.441  0.1427 -1.2356 -0.9040
 8122SOL    HW236003   4.400   3.602   9.446  3.0819 -1.4008 -1.3598
 8123SOL     OW36004   2.053   0.345   8.178 -0.1987  0.1567 -0.1854
 8123SOL    HW136005   2.047   0.426   8.127 -1.7493  0.7334  0.9160
 8123SOL    HW236006   1.961   0.336   8.203  0.0348  3.4478  1.9430
 8124SOL     OW36007   0.967   4.315   7.235 -0.3738 -0.0865 -0.2279
 8124SOL    HW136008   1.029   4.267   7.290 -1.2825 -0.9851  0.0277
 8124SOL    HW236009   1.009   4.401   7.233  1.7671 -1.1026  0.7810
 8125SOL     OW36010   0.849   2.721   4.752  0.0918 -0.2776 -0.2162
 8125SOL    HW136011   0.906   2.668   4.696 -0.9198 -1.6014  0.0340
 8125SOL    HW236012   0.850   2.676   4.836  1.6882 -0.2820 -0.2323
 8126SOL     OW36013   4.073   0.995   0.629  0.3501  0.3482 -0.4735
 8126SOL    HW136014   4.091   1.088   0.645  1.9990  0.0271 -0.4662
 8126SOL    HW236015   4.104   0.963   0.713 -1.9056 -3.9683 -1.2843
 8127SOL     OW36016   4.038   2.161   3.256 -0.1532 -0.5098 -0.2927
 8127SOL    HW136017   4.069   2.110   3.331 -2.6962 -1.2249  0.2648
 8127SOL    HW236018   3.995   2.237   3.295  0.1286 -1.4231  1.8240
 8128SOL     OW36019   2.449   3.830   4.642 -0.4018 -0.1586 -0.0338
 8128SOL    HW136020   2.523   3.798   4.694  0.7040  0.8372 -1.0074
 8128SOL    HW236021   2.469   3.923   4.636  0.5667 -0.3686 -0.1590
 8129SOL     OW36022   2.365   4.095   4.341  1.0448  0.1185 -0.2875
 8129SOL    HW136023   2.326   4.183   4.343 -0.0626 -0.3946  0.7537
 8129SOL    HW236024   2.286   4.040   4.339  1.1961 -0.0640 -1.2793
 8130SOL     OW36025   4.510   1.700   5.640 -0.5702 -0.5184  0.7847
 8130SOL    HW136026   4.557   1.731   5.718  0.2900 -0.5171  0.2640
 8130SOL    HW236027   4.580   1.646   5.603 -0.9811 -0.4054 -0.1570
 8131SOL     OW36028   0.567   4.283   6.050 -0.5804 -0.0946 -0.0372
 8131SOL    HW136029   0.538   4.231   5.975  0.5584 -0.4325 -0.2348
 8131SOL    HW236030   0.652   4.250   6.077 -0.0905  1.2509  0.0217
 8132SOL     OW36031   4.163   1.830  12.463  0.0195 -0.0964 -0.4084
 8132SOL    HW136032   4.082   1.826  12.413 -1.5515 -1.6754  2.2691
 8132SOL    HW236033   4.183   1.924  12.468  1.1253 -0.3822  0.6301
 8133SOL     OW36034   1.046   1.682  13.049  0.0866  0.2342  0.2154
 8133SOL    HW136035   1.090   1.744  13.108 -0.1373 -0.6014  1.2516
 8133SOL    HW236036   0.989   1.743  13.002 -2.1667 -1.4314  0.8131
 8134SOL     OW36037   1.716   4.589   9.106 -0.1083  0.1199 -0.0660
 8134SOL    HW136038   1.727   4.527   9.178  1.9307 -1.0723 -1.4210
 8134SOL    HW236039   1.770   4.664   9.130  0.0355 -0.1282  0.3806
 8135SOL     OW36040   3.099   1.932   4.972  0.1248  0.3241  0.4085
 8135SOL    HW136041   3.102   1.973   5.059 -1.7861  1.1638  0.0946
 8135SOL    HW236042   3.108   1.844   5.009  2.8913  1.4316  2.3316
 8136SOL     OW36043   0.614   1.576  15.228 -0.2343  0.2666  0.1831
 8136SOL    HW136044   0.693   1.547  15.183 -0.3520 -0.9111  0.7423
 8136SOL    HW236045   0.599   1.663  15.192 -0.1848  0.1105 -0.2160
 8137SOL     OW36046   2.261   1.591  12.551 -0.1098  0.7268 -0.1993
 8137SOL    HW136047   2.181   1.572  12.599  0.6498 -0.7702  0.4751
 8137SOL    HW236048   2.278   1.510  12.503  0.7823  0.4064  0.6516
 8138SOL     OW36049   1.181   2.953   7.413  0.0226 -0.4837 -0.5704
 8138SOL    HW136050   1.231   3.033   7.428  0.1185 -0.3658 -1.5620
 8138SOL    HW236051   1.134   2.954   7.497 -1.9924  2.0455 -1.7562
 8139SOL     OW36052   0.489   0.885   2.915 -0.2360  0.1026 -0.2028
 8139SOL    HW136053   0.575   0.844   2.913 -0.6152 -0.7159  0.5022
 8139SOL    HW236054   0.479   0.898   3.009 -0.7432  0.1658 -0.2620
 8140SOL     OW36055   3.113   3.421   5.712  0.3370  0.7298 -0.7716
 8140SOL    HW136056   3.135   3.403   5.804 -0.5997  2.9401 -0.1236
 8140SOL    HW236057   3.197   3.448   5.675  1.0200 -1.3267 -0.7377
 8141SOL     OW36058   1.141   1.836   6.917 -0.1835  0.0033 -0.0695
 8141SOL    HW136059   1.217   1.894   6.925  1.2616 -1.8756 -0.1671
 8141SOL    HW236060   1.062   1.889   6.922 -0.4679 -0.2089 -2.3460
 8142SOL     OW36061   4.340   4.046   4.472  0.6818 -0.5013  0.0935
 8142SOL    HW136062   4.313   4.010   4.387 -0.5609 -2.3117  1.2484
 8142SOL    HW236063   4.413   4.091   4.430 -2.0944  2.0655 -2.0949
 8143SOL     OW36064   0.481   4.697   5.534  0.2590  0.2298  0.4578
 8143SOL    HW136065   0.455   4.644   5.459  2.1700 -1.4413  0.9962
 8143SOL    HW236066   0.512   0.038   5.497  1.5101  0.3614  1.8019
 8144SOL     OW36067   3.138   2.346   8.790  0.4235 -0.1604  0.5794
 8144SOL    HW136068   3.110   2.320   8.877  2.2270 -1.3976  0.7983
 8144SOL    HW236069   3.114   2.267   8.741  1.0959 -1.2188  1.9610
 8145SOL     OW36070   1.393   2.039   3.940 -0.1397  0.0530  0.4698
 8145SOL    HW136071   1.405   1.946   3.959 -0.8794 -0.2555 -0.5769
 8145SOL    HW236072   1.459   2.077   3.998  0.0786 -0.7089  0.7259
 8146SOL     OW36073   3.143   3.387   0.915 -0.0673 -0.4295 -0.2225
 8146SOL    HW136074   3.201   3.445   0.964  1.4672 -1.8522 -0.3543
 8146SOL    HW236075   3.179   3.385   0.826  1.2557  1.9157  0.2479
 8147SOL     OW36076   4.318   1.506   8.171  0.1889  0.5583  0.2526
 8147SOL    HW136077   4.299   1.591   8.210 -0.0416 -0.9992  3.5294
 8147SOL    HW236078   4.409   1.523   8.145 -0.1832  2.2292  0.0503
 8148SOL     OW36079   1.823   2.831  13.294  0.0647 -0.4072 -0.2125
 8148SOL    HW136080   1.875   2.892  13.243 -0.5799 -0.4577 -0.9248
 8148SOL    HW236081   1.789   2.779  13.222  1.7312  0.9834 -1.9796
 8149SOL     OW36082   2.261   0.545   9.184  0.1103  0.1055 -0.1522
 8149SOL    HW136083   2.253   0.450   9.180  1.5179 -0.0043 -0.4366
 8149SOL    HW236084   2.172   0.576   9.195 -0.1399 -0.1524 -1.4065
 8150SOL     OW36085   0.032   2.243  15.808  0.4900  0.0543  0.3042
 8150SOL    HW136086   0.033   2.151  15.835  0.7817  0.0383  0.2455
 8150SOL    HW236087   0.020   2.236  15.713  1.8688  1.0140  0.0675
 8151SOL     OW36088   3.727   2.951   6.488  0.0524 -0.1914  0.3419
 8151SOL    HW136089   3.655   2.891   6.468  0.2407  0.3482 -1.9326
 8151SOL    HW236090   3.798   2.899   6.525  1.1663  1.7187  0.8881
 8152SOL     OW36091   1.792   3.661   4.180  0.6697  0.6261  0.2206
 8152SOL    HW136092   1.810   3.640   4.271  0.2432  2.0616  0.6275
 8152SOL    HW236093   1.882   3.675   4.149  0.9985  2.4100  1.9597
 8153SOL     OW36094   4.255   0.319   7.171 -0.0420  0.0774  0.0261
 8153SOL    HW136095   4.183   0.371   7.206 -0.7536 -1.8009  1.3076
 8153SOL    HW236096   4.267   0.256   7.241 -1.5560  1.2762  1.3539
 8154SOL     OW36097   4.141   1.533   3.244  0.6547 -0.1456 -0.1226
 8154SOL    HW136098   4.220   1.548   3.192 -0.5790  1.0860 -1.6304
 8154SOL    HW236099   4.137   1.612   3.297  0.8741 -0.3958  0.2661
 8155SOL     OW36100   0.386   3.941   8.230  0.4509 -0.6719  0.7519
 8155SOL    HW136101   0.388   4.018   8.287  0.0596 -0.0716 -0.0417
 8155SOL    HW236102   0.470   3.952   8.186  0.0941  1.8674  0.6922
 8156SOL     OW36103   2.123   0.145   2.486  0.1736  0.0495  0.4218
 8156SOL    HW136104   2.029   0.135   2.477  0.3757 -0.8786 -0.6080
 8156SOL    HW236105   2.153   0.059   2.516  1.7233  0.4073 -0.0985
 8157SOL     OW36106   3.753   4.143   8.199  0.3489 -0.3629  0.0922
 8157SOL    HW136107   3.739   4.235   8.224  1.8893 -0.3871  1.0797
 8157SOL    HW236108   3.664   4.113   8.182  0.6694 -0.0449 -2.1637
 8158SOL     OW36109   3.154   0.060   6.488  0.7932 -0.0108 -0.1762
 8158SOL    HW136110   3.199   0.124   6.432 -0.3360  0.7991 -0.1731
 8158SOL    HW236111   3.165   0.095   6.576  0.8091 -0.2468 -0.0841
 8159SOL     OW36112   0.352   0.681  17.344 -0.2595  0.1106  0.3005
 8159SOL    HW136113   0.269   0.638  17.364  0.0970 -1.1692 -1.0329
 8159SOL    HW236114   0.327   0.773  17.336 -0.9289 -0.0245  0.8317
 8160SOL     OW36115   1.775   2.376   7.968 -0.0945  0.4536 -0.3157
 8160SOL    HW136116   1.848   2.417   8.015 -0.2301 -0.6952  0.9018
 8160SOL    HW236117   1.693   2.416   7.995 -0.4987 -1.3158  1.0340
 8161SOL     OW36118   1.139   0.713   8.894  0.2013 -0.3102  0.6101
 8161SOL    HW136119   1.069   0.692   8.956 -0.6414  1.8502  0.3686
 8161SOL    HW236120   1.169   0.793   8.938 -2.0324 -0.0236  1.6317
 8162SOL     OW36121   1.986   1.379   5.428 -0.1758 -0.1149 -0.0663
 8162SOL    HW136122   1.903   1.389   5.381  0.5801  2.7153 -0.7934
 8162SOL    HW236123   1.973   1.305   5.488 -1.6210  0.0739 -0.1559
 8163SOL     OW36124   0.773   4.583   6.793 -0.3199 -0.2405  0.0845
 8163SOL    HW136125   0.680   4.575   6.773 -0.5337 -2.6001  1.9752
 8163SOL    HW236126   0.772   4.539   6.878  1.0168 -0.3053  0.0654
 8164SOL     OW36127   3.071   0.974   5.155  0.0113  0.4275 -0.1072
 8164SOL    HW136128   3.105   0.902   5.103  1.1713  0.4474  0.6181
 8164SOL    HW236129   3.140   0.984   5.221  0.0905  2.5688 -0.5220
 8165SOL     OW36130   0.344   3.044   9.706 -0.1845 -0.0077 -0.1682
 8165SOL    HW136131   0.387   2.959   9.694  1.3726  0.8576 -0.7344
 8165SOL    HW236132   0.297   3.022   9.787 -1.9532 -0.7325 -1.3866
 8166SOL     OW36133   2.198   0.907   9.055  0.3648  0.8276 -0.1216
 8166SOL    HW136134   2.161   0.930   9.140  0.0608 -0.5382  0.1291
 8166SOL    HW236135   2.223   0.993   9.022  0.1618  0.8737 -0.1503
 8167SOL     OW36136   0.117   2.980   1.668  0.2257  0.4576 -0.4829
 8167SOL    HW136137   0.200   2.977   1.619  0.0057  0.3541 -0.8481
 8167SOL    HW236138   0.152   2.959   1.755  0.9296  1.8732 -0.4233
 8168SOL     OW36139   0.662   3.275  11.608 -0.1702 -0.2152 -0.0191
 8168SOL    HW136140   0.687   3.244  11.521 -1.6129  2.1387 -1.2768
 8168SOL    HW236141   0.606   3.207  11.644 -0.6389  1.3410  2.2262
 8169SOL     OW36142   4.252   0.434   5.158  0.2412 -0.1940  0.0570
 8169SOL    HW136143   4.217   0.477   5.080  1.1546 -0.1852 -0.3509
 8169SOL    HW236144   4.251   0.497   5.231  2.9933  0.7538 -0.7165
 8170SOL     OW36145   3.646   4.612   8.767  0.1035 -0.4372 -0.2138
 8170SOL    HW136146   3.606   4.529   8.740  0.9335 -0.7783 -0.3707
 8170SOL    HW236147   3.690   4.584   8.847  0.0477  0.0378 -0.0189
 8171SOL     OW36148   4.184   2.023   2.299 -0.2522 -0.0384  0.5062
 8171SOL    HW136149   4.269   2.048   2.263 -1.1351 -0.2237 -1.7646
 8171SOL    HW236150   4.205   2.011   2.391 -0.4516 -1.1805  0.4062
 8172SOL     OW36151   0.150   0.670   8.577 -0.2742 -0.3104  0.2491
 8172SOL    HW136152   0.189   0.735   8.636  0.0435 -2.2634  2.1662
 8172SOL    HW236153   0.101   0.623   8.644 -0.4924 -0.6588 -0.1548
 8173SOL     OW36154   1.135   2.923   6.197  0.4550 -0.0261 -0.1654
 8173SOL    HW136155   1.095   2.863   6.134 -1.0085  1.8870 -1.0456
 8173SOL    HW236156   1.115   3.004   6.151  1.9275  0.1875 -0.4213
 8174SOL     OW36157   4.669   0.409  17.049  0.7392 -0.1325 -0.0466
 8174SOL    HW136158   4.721   0.341  17.091  1.8755  0.9036  0.2371
 8174SOL    HW236159   4.605   0.357  17.000 -2.3748  2.9196  0.7413
 8175SOL     OW36160   3.280   4.373   4.332 -0.2026  0.0268  0.5832
 8175SOL    HW136161   3.250   4.282   4.331  0.3053 -0.1675  1.6980
 8175SOL    HW236162   3.293   4.391   4.426 -0.7032  0.7245  0.5138
 8176SOL     OW36163   3.484   4.682   3.019 -0.3096  0.2179 -0.3473
 8176SOL    HW136164   3.502   0.016   2.963 -6.1955 -0.3709 -3.0130
 8176SOL    HW236165   3.388   4.682   3.016 -0.4118  0.3207  2.7902
 8177SOL     OW36166   3.628   4.272   2.118  0.5019 -0.2826 -0.0581
 8177SOL    HW136167   3.571   4.342   2.147 -0.3707 -1.1217  0.2440
 8177SOL    HW236168   3.703   4.325   2.091  0.8724 -0.1978  1.1156
 8178SOL     OW36169   2.615   2.297  16.142 -0.3421 -0.3524  0.2811
 8178SOL    HW136170   2.578   2.317  16.056  1.2046  1.0619 -0.0446
 8178SOL    HW236171   2.606   2.202  16.146 -0.5359 -0.3434  0.0106
 8179SOL     OW36172   1.427   2.283   5.921 -0.1003 -0.1127 -0.3433
 8179SOL    HW136173   1.484   2.355   5.893  0.0921 -0.7687 -1.6582
 8179SOL    HW236174   1.356   2.348   5.923 -0.4518 -0.4478 -1.8824
 8180SOL     OW36175   0.646   1.261   5.830 -0.3740 -0.2518  0.5401
 8180SOL    HW136176   0.559   1.250   5.792  0.7026  0.5340 -2.0829
 8180SOL    HW236177   0.675   1.352   5.825  1.1428 -0.9266 -2.5772
 8181SOL     OW36178   4.714   4.138  13.040 -0.9312  0.0863 -0.3162
 8181SOL    HW136179   4.735   4.055  13.081 -0.2793  0.2946 -0.2283
 8181SOL    HW236180   4.632   4.117  12.994  0.0992  0.7730 -2.4684
 8182SOL     OW36181   1.968   4.298   6.382  0.5935  0.3571 -0.6100
 8182SOL    HW136182   1.965   4.393   6.388 -2.1234  0.3743 -2.7305
 8182SOL    HW236183   1.911   4.280   6.457 -0.0262  0.3986 -1.0750
 8183SOL     OW36184   1.083   2.874   8.212 -0.4247 -0.3030  0.4093
 8183SOL    HW136185   1.089   2.959   8.255  0.9524  0.0584 -0.5054
 8183SOL    HW236186   1.044   2.812   8.275  0.2703 -2.4202 -1.2418
 8184SOL     OW36187   3.812   0.268   2.145  0.3185 -0.3238 -0.0056
 8184SOL    HW136188   3.893   0.317   2.157 -0.3405  0.8858 -0.4849
 8184SOL    HW236189   3.827   0.230   2.058 -1.3931  2.6285 -1.5856
 8185SOL     OW36190   0.162   2.162   8.209  0.1480  0.2288 -0.2741
 8185SOL    HW136191   0.232   2.204   8.259 -1.9969  1.4543  1.6714
 8185SOL    HW236192   0.150   2.234   8.146 -3.0167  0.7904  0.9622
 8186SOL     OW36193   1.698   1.906  12.070 -0.1625 -0.8493 -0.1907
 8186SOL    HW136194   1.607   1.889  12.045 -0.4175 -1.0329  0.8730
 8186SOL    HW236195   1.733   1.818  12.053  1.0753 -0.1416 -1.2749
 8187SOL     OW36196   3.440   1.833   0.713  0.2552  0.0932 -0.4510
 8187SOL    HW136197   3.525   1.793   0.697  0.8980  1.4606 -0.4188
 8187SOL    HW236198   3.451   1.917   0.668 -1.0774  0.0263 -0.9291
 8188SOL     OW36199   1.024   3.688  15.908  0.1230  0.2916 -0.1907
 8188SOL    HW136200   1.012   3.603  15.864  0.3022 -1.3050  2.8123
 8188SOL    HW236201   1.090   3.727  15.851 -2.0057  0.9287 -2.2132
 8189SOL     OW36202   3.178   3.113  14.728  0.1384  0.1671 -0.2476
 8189SOL    HW136203   3.176   3.139  14.636  0.1732 -1.1255 -0.6034
 8189SOL    HW236204   3.259   3.157  14.754 -0.8510  2.5239 -1.1646
 8190SOL     OW36205   2.116   1.422   0.506 -0.1382  0.3802  0.1461
 8190SOL    HW136206   2.207   1.449   0.516  0.0038  0.0733 -0.3240
 8190SOL    HW236207   2.069   1.498   0.539 -0.1076  1.3333 -2.0473
 8191SOL     OW36208   0.690   3.529   3.286 -0.2628  0.3373  0.3824
 8191SOL    HW136209   0.737   3.596   3.336 -1.2657  0.2849  1.4100
 8191SOL    HW236210   0.709   3.453   3.341 -0.3589 -0.4479 -0.6864
 8192SOL     OW36211   0.917   2.104   2.454 -0.0271 -0.0709  0.1973
 8192SOL    HW136212   0.845   2.152   2.496  2.1961  2.7696  0.7301
 8192SOL    HW236213   0.906   2.112   2.359  0.0356 -1.7675  0.0544
 8193SOL     OW36214   3.257   3.959   8.754  0.1598 -0.1624 -0.1795
 8193SOL    HW136215   3.306   3.945   8.835  0.0775 -2.0250 -0.4323
 8193SOL    HW236216   3.329   3.984   8.696  0.6910  0.8301  0.9269
 8194SOL     OW36217   3.802   4.501  14.632 -0.1929 -0.2874  0.4539
 8194SOL    HW136218   3.715   4.468  14.655 -1.0597  2.3937  1.0411
 8194SOL    HW236219   3.859   4.429  14.659 -0.7311 -0.2742  1.6598
 8195SOL     OW36220   4.486   0.544   7.542  0.2800  0.1897  0.3768
 8195SOL    HW136221   4.445   0.628   7.564  0.9193  0.1448  1.7157
 8195SOL    HW236222   4.534   0.578   7.467  2.5269 -0.5216  1.5035
 8196SOL     OW36223   4.387   4.428   4.341 -0.2254  0.0567 -0.0031
 8196SOL    HW136224   4.316   4.412   4.403  0.1295 -0.9224  0.1406
 8196SOL    HW236225   4.377   4.361   4.274 -0.6434  0.1275 -0.0106
 8197SOL     OW36226   1.964   4.646  10.095 -0.1213 -0.6881  0.2554
 8197SOL    HW136227   2.032   4.638  10.028 -2.3274 -1.4419 -1.8758
 8197SOL    HW236228   2.005   4.599  10.168  2.7487 -2.5076 -2.5262
 8198SOL     OW36229   0.878   4.195  15.230  0.2048  0.3994  0.1660
 8198SOL    HW136230   0.962   4.149  15.235 -0.1620 -0.0916  1.8951
 8198SOL    HW236231   0.874   4.221  15.322 -0.7884  1.2010 -0.1063
 8199SOL     OW36232   4.357   2.722   4.803 -0.0727  0.5130  0.0026
 8199SOL    HW136233   4.272   2.749   4.838  0.3173  0.7922  0.7293
 8199SOL    HW236234   4.396   2.688   4.884 -1.2337 -1.2494 -0.1810
 8200SOL     OW36235   3.061   2.112   1.919  0.4754 -0.5597 -0.0690
 8200SOL    HW136236   3.089   2.021   1.907  2.6904  0.1809 -0.5451
 8200SOL    HW236237   3.132   2.127   1.981  1.3445  0.8531 -1.3940
 8201SOL     OW36238   3.400   4.301   4.056 -0.4125  0.0764  0.0192
 8201SOL    HW136239   3.377   4.338   4.141 -0.7346 -1.7987  0.7444
 8201SOL    HW236240   3.312   4.296   4.019  0.0840 -1.3393 -0.9618
 8202SOL     OW36241   2.121   0.945  17.403  0.3270 -0.0363  0.2315
 8202SOL    HW136242   2.188   1.013  17.414  1.3836 -1.0746  0.1421
 8202SOL    HW236243   2.114   0.968  17.311  1.3812 -0.6993 -0.0080
 8203SOL     OW36244   0.711   3.022   1.790  0.0218 -0.0159 -0.1252
 8203SOL    HW136245   0.644   3.011   1.722  0.5686 -0.9912 -0.5194
 8203SOL    HW236246   0.656   2.987   1.861 -1.4802 -0.3726 -1.4593
 8204SOL     OW36247   3.371   4.291   9.530  0.5156 -0.0475  0.0376
 8204SOL    HW136248   3.334   4.213   9.571 -0.2554 -0.5693 -1.6631
 8204SOL    HW236249   3.314   4.356   9.570 -0.6072  0.0084 -1.6640
 8205SOL     OW36250   2.936   2.381   1.616  0.1053  0.0779  0.7952
 8205SOL    HW136251   2.844   2.409   1.610  0.1155  0.0812  0.6497
 8205SOL    HW236252   2.967   2.436   1.544 -0.7779 -0.1343  0.2485
 8206SOL     OW36253   4.673   3.671   8.785  0.0696  0.3193  0.2748
 8206SOL    HW136254   4.723   3.592   8.764 -0.8406 -0.4787  1.1101
 8206SOL    HW236255   4.614   3.649   8.858 -2.6730 -1.5317 -2.4582
 8207SOL     OW36256   2.930   4.683   3.030  0.2491  0.1708 -0.4424
 8207SOL    HW136257   2.859   4.687   2.966 -0.3663 -0.9094  0.1816
 8207SOL    HW236258   2.931   0.035   3.049 -1.0780  0.2552 -0.7756
 8208SOL     OW36259   1.246   3.135   0.520 -0.5185 -0.3329 -0.0694
 8208SOL    HW136260   1.234   3.102   0.430  0.0115  1.6748 -0.8771
 8208SOL    HW236261   1.330   3.093   0.541 -0.0242  1.2527  1.0728
 8209SOL     OW36262   1.719   2.208  12.752 -0.1968 -0.3948 -0.4936
 8209SOL    HW136263   1.778   2.235  12.681  2.2975 -2.2878  0.8405
 8209SOL    HW236264   1.633   2.233  12.719 -0.2854 -1.1978 -0.8877
 8210SOL     OW36265   0.064   3.750   3.909  0.4730 -0.8163  0.0913
 8210SOL    HW136266   0.062   3.809   3.985 -1.2861  2.6537 -2.6126
 8210SOL    HW236267   0.045   3.820   3.846  2.8479 -1.4506 -1.2946
 8211SOL     OW36268   3.919   0.470  12.958 -0.2278 -0.5029  0.2951
 8211SOL    HW136269   3.919   0.536  13.027  3.8323  0.0501 -0.2360
 8211SOL    HW236270   3.894   0.390  13.005  1.1217 -0.4116  1.1396
 8212SOL     OW36271   1.173   0.305   9.479  0.4788 -0.6710  0.2475
 8212SOL    HW136272   1.100   0.362   9.456  1.7995  0.2782 -1.6123
 8212SOL    HW236273   1.231   0.318   9.404 -0.7365 -1.1451 -0.7696
 8213SOL     OW36274   3.927   2.085   5.771 -0.2910  0.7281  0.5701
 8213SOL    HW136275   4.003   2.144   5.777  0.5787 -0.4874  1.3394
 8213SOL    HW236276   3.957   2.001   5.805  1.2275  0.8920 -0.3289
 8214SOL     OW36277   3.370   0.904   4.044  0.3020 -0.3401  0.0270
 8214SOL    HW136278   3.401   0.814   4.038 -0.6843 -0.4856 -2.9164
 8214SOL    HW236279   3.322   0.918   3.962  0.4842 -2.4052 -0.4388
 8215SOL     OW36280   1.934   3.304   1.640 -0.0261 -0.2973 -0.1206
 8215SOL    HW136281   1.891   3.371   1.587  1.7251  1.9771  1.3483
 8215SOL    HW236282   2.015   3.350   1.661  0.7232 -1.7162  0.0887
 8216SOL     OW36283   1.411   2.410   2.220  0.2649 -0.2539 -0.2883
 8216SOL    HW136284   1.467   2.363   2.159  1.5976  1.2844 -0.2678
 8216SOL    HW236285   1.472   2.465   2.270  0.0023 -0.2393  0.0229
 8217SOL     OW36286   4.136   1.386   2.760  0.3292  0.0206 -0.2091
 8217SOL    HW136287   4.137   1.331   2.837  0.8726 -4.4301 -3.4058
 8217SOL    HW236288   4.041   1.387   2.749  0.2410 -0.8516  0.5552
 8218SOL     OW36289   4.406   3.818   3.745 -0.2949  0.5735 -0.3366
 8218SOL    HW136290   4.435   3.850   3.659 -0.0495 -0.7645 -0.7478
 8218SOL    HW236291   4.326   3.770   3.724 -0.3897  1.1926 -1.4207
 8219SOL     OW36292   3.539   0.341   5.090 -0.8227  0.1247  0.3096
 8219SOL    HW136293   3.564   0.403   5.022 -1.0431  0.0077  0.1197
 8219SOL    HW236294   3.449   0.324   5.063 -0.2080 -0.8190 -1.1806
 8220SOL     OW36295   2.932   4.090   1.085 -0.1115  0.4819  0.3390
 8220SOL    HW136296   2.924   4.090   1.180  0.4468  0.8140  0.3918
 8220SOL    HW236297   2.996   4.022   1.067 -0.1209  1.0784 -2.0314
 8221SOL     OW36298   1.360   2.022   5.414 -0.0688  0.2186 -0.9915
 8221SOL    HW136299   1.405   2.011   5.330  1.7140  0.2484 -0.0296
 8221SOL    HW236300   1.414   1.969   5.472 -0.0635  1.2466 -0.0541
 8222SOL     OW36301   2.000   0.333   7.916 -0.1453  0.2341  0.2428
 8222SOL    HW136302   2.013   0.239   7.913 -0.6334  0.1978 -0.7319
 8222SOL    HW236303   1.923   0.328   7.972  0.3257  1.6002  1.0307
 8223SOL     OW36304   4.033   4.361   9.039  0.2148 -0.2118 -0.3577
 8223SOL    HW136305   4.027   4.423   9.111 -2.8396 -0.0250 -0.7588
 8223SOL    HW236306   4.094   4.400   8.976 -0.8878  0.4523 -1.0296
 8224SOL     OW36307   1.594   3.716   3.973 -0.0107 -0.4438  0.8040
 8224SOL    HW136308   1.647   3.673   4.040  0.7211  1.7299  1.6341
 8224SOL    HW236309   1.606   3.809   3.992  0.5984  0.4485 -4.0031
 8225SOL     OW36310   0.755   0.232   4.600 -0.4531  0.8719  0.0658
 8225SOL    HW136311   0.824   0.229   4.666  0.7903 -2.7874 -1.3600
 8225SOL    HW236312   0.761   0.144   4.562 -1.3542  0.4027  1.0025
 8226SOL     OW36313   3.169   4.151   9.703 -0.1218  0.3448  0.2480
 8226SOL    HW136314   3.116   4.168   9.625 -2.9954  0.0033  2.1226
 8226SOL    HW236315   3.100   4.116   9.759  0.0375  0.3997  0.4763
 8227SOL     OW36316   1.359   1.026  17.125 -0.0376 -0.6225 -0.4932
 8227SOL    HW136317   1.333   0.996  17.038 -1.8395 -1.5410  0.3550
 8227SOL    HW236318   1.405   1.107  17.104 -1.5214  1.2914  3.6943
 8228SOL     OW36319   0.187   0.770   6.900  0.6386  0.4351  0.3422
 8228SOL    HW136320   0.180   0.853   6.853 -1.5327 -0.6736 -1.3125
 8228SOL    HW236321   0.277   0.771   6.933  0.7746 -0.8051  0.0014
 8229SOL     OW36322   4.314   3.813   3.227  0.1481 -0.3788  0.3954
 8229SOL    HW136323   4.305   3.718   3.215 -2.2380 -0.0457 -0.5291
 8229SOL    HW236324   4.230   3.847   3.195  0.4686 -0.0923 -0.1274
 8230SOL     OW36325   0.895   4.122   3.735 -0.1583  0.0402  0.0353
 8230SOL    HW136326   0.870   4.215   3.736 -0.2826 -0.0032  1.2547
 8230SOL    HW236327   0.974   4.127   3.789 -1.3221  0.6582  1.7061
 8231SOL     OW36328   2.945   1.865   6.752 -0.2388  0.6573 -0.1536
 8231SOL    HW136329   2.960   1.856   6.658  1.9101 -0.2140  0.2723
 8231SOL    HW236330   2.852   1.888   6.754 -0.6408 -0.9855  0.3973
 8232SOL     OW36331   2.002   3.029   0.860  0.3736 -0.2661  0.4475
 8232SOL    HW136332   2.041   3.100   0.911 -2.3998  0.5321  1.4349
 8232SOL    HW236333   2.084   2.989   0.830  1.0965  0.9926  0.7527
 8233SOL     OW36334   0.434   1.889   7.862 -0.3774 -0.3764  0.3743
 8233SOL    HW136335   0.349   1.847   7.861 -1.2094  1.2830  0.1947
 8233SOL    HW236336   0.422   1.922   7.951  1.1066  0.6199  0.2200
 8234SOL     OW36337   2.943   2.197   3.169 -0.2574  0.1627 -0.0214
 8234SOL    HW136338   2.953   2.289   3.145  2.6378 -0.3096 -0.6168
 8234SOL    HW236339   3.020   2.183   3.223 -0.1408  0.8599 -0.0127
 8235SOL     OW36340   3.511   2.816   8.541  0.0805  0.0064  0.2171
 8235SOL    HW136341   3.587   2.855   8.584 -0.2860 -1.7068  2.4033
 8235SOL    HW236342   3.437   2.866   8.576 -0.5752  0.8899 -2.4404
 8236SOL     OW36343   3.444   1.123   8.455 -0.2237  0.0228  1.0351
 8236SOL    HW136344   3.437   1.055   8.387  1.9019  1.9165 -1.0621
 8236SOL    HW236345   3.438   1.202   8.401  1.6404 -0.4760  0.0870
 8237SOL     OW36346   1.526   3.752   3.108 -0.0132 -0.4588 -0.7928
 8237SOL    HW136347   1.577   3.769   3.028 -1.3667  2.4887 -1.0568
 8237SOL    HW236348   1.577   3.802   3.172 -0.9131  0.5198 -0.8316
 8238SOL     OW36349   3.763   3.763   9.335 -0.6361 -0.1062  0.0106
 8238SOL    HW136350   3.813   3.735   9.411  0.5800  3.2067  0.4634
 8238SOL    HW236351   3.824   3.786   9.264  1.7692  0.3107  2.2371
 8239SOL     OW36352   0.930   3.570   5.943  0.0182 -0.3505  0.1339
 8239SOL    HW136353   0.970   3.529   5.867  0.8467 -2.2363  1.5763
 8239SOL    HW236354   1.009   3.578   5.997  0.4208  0.5425 -0.5872
 8240SOL     OW36355   4.324   0.105  15.892  0.5572  0.4857  0.3106
 8240SOL    HW136356   4.418   0.116  15.911  0.0016  0.1682  3.2167
 8240SOL    HW236357   4.307   0.020  15.931 -1.9637  0.3923 -0.9664
 8241SOL     OW36358   1.711   0.277   9.066 -0.2050  0.7508 -0.0684
 8241SOL    HW136359   1.784   0.335   9.044 -0.7439  1.5891  0.3655
 8241SOL    HW236360   1.635   0.331   9.089 -1.4050 -1.6463  1.6812
 8242SOL     OW36361   0.075   3.493   3.773  0.1127  0.6600  0.4810
 8242SOL    HW136362   0.100   3.571   3.822  2.3490 -1.8696  3.3316
 8242SOL    HW236363   0.036   3.529   3.693 -1.4637 -0.5401  0.7114
 8243SOL     OW36364   3.415   0.430   1.196  0.3384 -0.6679 -0.1870
 8243SOL    HW136365   3.494   0.408   1.246  0.0576  0.3403  0.6951
 8243SOL    HW236366   3.360   0.464   1.267  0.6647 -0.6870  0.0764
 8244SOL     OW36367   2.296   0.454   8.483  0.1547 -0.3043  0.0354
 8244SOL    HW136368   2.368   0.494   8.434  1.3694 -1.1497  1.1473
 8244SOL    HW236369   2.263   0.403   8.409  0.0924  0.6551 -0.5979
 8245SOL     OW36370   1.578   1.674   6.543 -0.5918 -0.1917  0.2492
 8245SOL    HW136371   1.526   1.746   6.577  1.1396  0.8572  0.6420
 8245SOL    HW236372   1.669   1.705   6.542 -0.5825 -0.2727 -2.3886
 8246SOL     OW36373   2.989   4.045   1.346 -0.9153  0.1453 -0.3130
 8246SOL    HW136374   3.072   3.999   1.335  0.0127  1.4169  1.2875
 8246SOL    HW236375   3.016   4.113   1.407  0.3307 -1.5106  0.9885
 8247SOL     OW36376   1.008   1.874   4.842 -0.2456 -0.2897 -0.4299
 8247SOL    HW136377   1.032   1.900   4.931  0.0439 -1.3913 -0.1803
 8247SOL    HW236378   1.010   1.958   4.795  2.1962  0.1983  0.5199
 8248SOL     OW36379   0.971   2.536   5.818 -0.0284  0.4656  0.1521
 8248SOL    HW136380   0.878   2.513   5.822  0.6414 -2.2764  0.4906
 8248SOL    HW236381   0.975   2.576   5.731  1.2072 -0.2590 -0.1262
 8249SOL     OW36382   3.456   0.424  13.657 -0.2205 -0.1626 -0.5347
 8249SOL    HW136383   3.463   0.388  13.569  1.9610  0.8998 -0.7979
 8249SOL    HW236384   3.364   0.416  13.683 -0.0472  0.2047  0.2023
 8250SOL     OW36385   2.731   3.601  16.401  0.5104  0.1313  0.4550
 8250SOL    HW136386   2.764   3.690  16.392 -0.3134  0.1662 -2.2952
 8250SOL    HW236387   2.714   3.578  16.310 -0.9504  0.3575  0.6636
 8251SOL     OW36388   4.653   2.917  11.133  0.0100  0.2218 -0.8590
 8251SOL    HW136389   4.578   2.877  11.175  0.8801  1.3161  1.7217
 8251SOL    HW236390   4.648   3.008  11.163  1.7547  0.7550 -2.1354
 8252SOL     OW36391   0.269   2.096   9.346 -1.0095 -0.0333  0.7470
 8252SOL    HW136392   0.261   2.146   9.265  1.7868 -1.4271 -0.4171
 8252SOL    HW236393   0.305   2.156   9.411  2.4373 -0.5845 -0.6362
 8253SOL     OW36394   4.004   0.329   1.237  0.3390 -0.8156 -0.7119
 8253SOL    HW136395   3.983   0.390   1.166  3.1173  0.1322 -0.6938
 8253SOL    HW236396   4.097   0.350   1.247  0.6764 -2.4238 -0.5689
 8254SOL     OW36397   2.253   3.593   1.712  0.3798 -0.0404  0.2824
 8254SOL    HW136398   2.237   3.564   1.623 -1.7130 -1.8442  1.2655
 8254SOL    HW236399   2.229   3.685   1.699  3.0051  0.7230  0.9718
 8255SOL     OW36400   0.023   4.161   9.358  0.6191 -0.2067  0.1731
 8255SOL    HW136401   4.726   4.121   9.435  0.3976  0.2553  0.3016
 8255SOL    HW236402   4.692   4.210   9.319  0.5423 -1.1097 -0.8206
 8256SOL     OW36403   0.661   2.251   7.605 -0.0852 -0.2411 -0.4475
 8256SOL    HW136404   0.608   2.189   7.655  1.0500 -0.5491  0.3766
 8256SOL    HW236405   0.607   2.276   7.530 -1.0717  0.1128  0.3895
 8257SOL     OW36406   1.196   2.651   6.737  0.3027  0.2287  0.0782
 8257SOL    HW136407   1.166   2.609   6.656 -0.6842 -2.6421  1.9257
 8257SOL    HW236408   1.111   2.682   6.767  1.8621  2.0303  2.5844
 8258SOL     OW36409   3.699   2.793   3.053  0.2096  0.0201 -0.4380
 8258SOL    HW136410   3.780   2.784   3.003  0.9021  2.6604  0.1746
 8258SOL    HW236411   3.644   2.815   2.977 -0.4952  0.5444  0.2176
 8259SOL     OW36412   1.313   1.732  16.153 -0.0506  0.1625  0.2880
 8259SOL    HW136413   1.359   1.650  16.139 -0.5757 -0.1512  0.4118
 8259SOL    HW236414   1.347   1.790  16.085 -0.1331 -0.1628 -0.0295
 8260SOL     OW36415   3.258   1.981   8.117  0.1562 -0.1178 -0.2151
 8260SOL    HW136416   3.236   1.982   8.210  2.2187 -0.9977  0.2816
 8260SOL    HW236417   3.351   2.001   8.120  0.0681  0.7116 -2.8307
 8261SOL     OW36418   3.415   3.205   3.143 -0.3607  0.1131  0.0046
 8261SOL    HW136419   3.421   3.145   3.068  1.3584 -0.3660  0.5295
 8261SOL    HW236420   3.339   3.259   3.121  0.0423  0.5461 -0.3197
 8262SOL     OW36421   0.473   3.544   4.707 -0.7160 -0.6034 -0.6583
 8262SOL    HW136422   0.413   3.618   4.696  0.4930  0.4795  0.0074
 8262SOL    HW236423   0.537   3.580   4.768 -2.0266 -1.0753  1.0219
 8263SOL     OW36424   2.444   0.965  16.761 -0.5124  0.0152 -0.1252
 8263SOL    HW136425   2.539   0.965  16.770 -0.5722 -0.1793  0.5559
 8263SOL    HW236426   2.407   0.892  16.811 -0.2064 -0.3519 -0.4338
 8264SOL     OW36427   2.288   0.254   5.164  0.2689 -0.3078  0.2813
 8264SOL    HW136428   2.294   0.343   5.128  1.6907 -0.8161 -0.7482
 8264SOL    HW236429   2.377   0.231   5.191  0.6286  2.0616  1.1297
 8265SOL     OW36430   2.201   3.530   4.300 -0.1490  0.1703 -0.4618
 8265SOL    HW136431   2.204   3.436   4.318  0.9472  0.0002 -1.5398
 8265SOL    HW236432   2.279   3.545   4.247  1.7465 -1.4695  1.8634
 8266SOL     OW36433   1.183   2.934   1.568 -0.0185 -0.2486 -0.2196
 8266SOL    HW136434   1.173   2.890   1.652 -0.6843 -0.1405 -0.2395
 8266SOL    HW236435   1.241   2.867   1.532 -0.1751  0.2630 -1.4339
 8267SOL     OW36436   0.420   4.510   7.117  0.0975  0.4279 -0.5722
 8267SOL    HW136437   0.492   4.494   7.178  0.2273  0.0478 -0.8263
 8267SOL    HW236438   0.376   4.426   7.131  0.3872  0.7156  2.0159
 8268SOL     OW36439   0.903   0.868   0.997 -0.0988  0.4319  0.6943
 8268SOL    HW136440   0.904   0.842   1.089  2.0514 -0.3466  0.4486
 8268SOL    HW236441   0.829   0.814   0.968  0.1460  1.2104 -1.3725
 8269SOL     OW36442   3.359   4.238  13.810  0.5282  0.9505  0.4017
 8269SOL    HW136443   3.269   4.268  13.802  0.2549 -0.1641 -0.7894
 8269SOL    HW236444   3.396   4.325  13.796 -0.7776  1.3568 -0.5075
 8270SOL     OW36445   3.774   0.513   7.314 -0.2130  0.3117 -0.0520
 8270SOL    HW136446   3.828   0.553   7.246  0.1634  0.4870  0.3510
 8270SOL    HW236447   3.688   0.535   7.279  0.1478 -2.6107 -2.7391
 8271SOL     OW36448   4.345   3.737   4.206  0.2650  0.0505  0.3257
 8271SOL    HW136449   4.420   3.716   4.262  1.4828  1.3776 -0.7944
 8271SOL    HW236450   4.398   3.772   4.134  0.0585 -0.1396  0.0827
 8272SOL     OW36451   3.740   3.850  16.935 -0.3810 -0.1293  0.0334
 8272SOL    HW136452   3.676   3.829  16.866  1.1541 -1.5751 -0.9381
 8272SOL    HW236453   3.777   3.930  16.898  1.0173 -1.5546 -1.6875
 8273SOL     OW36454   3.848   2.135   4.621 -0.0561  0.2751  0.3638
 8273SOL    HW136455   3.793   2.194   4.570  1.2042  2.0182  1.0441
 8273SOL    HW236456   3.852   2.057   4.565 -1.1025  0.3180  0.2319
 8274SOL     OW36457   3.731   4.172   7.140  0.5330  0.1862  0.7180
 8274SOL    HW136458   3.752   4.201   7.051  0.6343  2.2221  1.4143
 8274SOL    HW236459   3.661   4.110   7.118  0.5600  1.0410 -1.8380
 8275SOL     OW36460   4.719   0.976   1.839  0.1165  0.6576 -0.0848
 8275SOL    HW136461   0.016   0.890   1.850 -0.0309  0.7140  0.8165
 8275SOL    HW236462   4.643   0.952   1.787  0.8287  0.5867 -1.1057
 8276SOL     OW36463   3.378   3.997   2.678  1.1962  0.3051 -0.1899
 8276SOL    HW136464   3.354   3.998   2.770  0.8528  3.5105 -0.2873
 8276SOL    HW236465   3.460   3.949   2.687  0.4195 -0.5805  2.1549
 8277SOL     OW36466   4.220   4.550  11.553  0.6031 -0.5639  0.2696
 8277SOL    HW136467   4.126   4.532  11.558  0.0666  2.1111 -0.3740
 8277SOL    HW236468   4.234   4.625  11.495 -2.9055  0.0876  0.2735
 8278SOL     OW36469   1.796   1.583   4.892 -0.4701  0.1500  0.0086
 8278SOL    HW136470   1.752   1.500   4.910  1.2954 -1.2811 -2.1939
 8278SOL    HW236471   1.798   1.582   4.796 -0.2418  1.7296  0.0006
 8279SOL     OW36472   2.198   1.766   8.929 -0.4240  0.2557  0.3596
 8279SOL    HW136473   2.279   1.771   8.980  1.1684  1.8618 -2.3154
 8279SOL    HW236474   2.161   1.685   8.964 -2.2907  0.6887 -0.6381
 8280SOL     OW36475   3.419   3.981  16.738  0.4182  0.8085  0.3947
 8280SOL    HW136476   3.428   4.003  16.645 -1.0262 -3.1737 -0.6637
 8280SOL    HW236477   3.455   3.893  16.738  1.5301  1.2602  0.5708
 8281SOL     OW36478   2.842   0.190  12.781  0.6722 -0.5483 -0.3603
 8281SOL    HW136479   2.915   0.136  12.812  1.3709  0.3578 -0.4339
 8281SOL    HW236480   2.867   0.279  12.804 -1.1863  0.1639 -1.0734
 8282SOL     OW36481   4.264   1.741   8.369  0.7711  0.7887  0.0159
 8282SOL    HW136482   4.251   1.825   8.325 -1.2784 -0.2063 -1.2855
 8282SOL    HW236483   4.199   1.760   8.437  0.0715 -0.3563 -0.3241
 8283SOL     OW36484   4.141   4.627   0.863 -0.1062 -0.4224  0.7577
 8283SOL    HW136485   4.093   4.597   0.786 -1.5481  0.4721  1.2981
 8283SOL    HW236486   4.194   4.550   0.881  1.0916  0.0167 -0.9143
 8284SOL     OW36487   2.344   3.948   3.131  0.6847 -0.3266 -0.1764
 8284SOL    HW136488   2.366   3.885   3.200  0.3885  0.4995  0.6711
 8284SOL    HW236489   2.250   3.958   3.144  0.8815  0.2561  0.7727
 8285SOL     OW36490   0.481   2.415  11.808 -0.1644  0.5061  0.3323
 8285SOL    HW136491   0.451   2.465  11.884  1.1125 -0.5273  1.5157
 8285SOL    HW236492   0.426   2.469  11.751 -0.9377 -2.4296 -1.7025
 8286SOL     OW36493   4.288   1.244  11.137  0.2421  0.3163 -0.4673
 8286SOL    HW136494   4.346   1.237  11.213 -0.2127 -0.4000 -0.1881
 8286SOL    HW236495   4.354   1.289  11.085  2.3037 -1.0110  0.9987
 8287SOL     OW36496   3.512   0.402   1.654  0.2304 -0.6318 -0.3152
 8287SOL    HW136497   3.420   0.423   1.670  0.5775  0.2338  0.5973
 8287SOL    HW236498   3.543   0.390   1.744  0.7841  0.1838 -0.3968
 8288SOL     OW36499   1.216   3.838   3.144 -0.3602 -0.6129  0.5545
 8288SOL    HW136500   1.295   3.858   3.092 -1.1214  0.8964 -0.0409
 8288SOL    HW236501   1.218   3.744   3.159  1.1923 -0.7385 -0.4322
 8289SOL     OW36502   4.083   0.894   0.903  0.3150 -0.3970  0.1544
 8289SOL    HW136503   4.077   0.850   0.988  0.5471  2.3487  1.5717
 8289SOL    HW236504   3.991   0.914   0.888  0.0320 -0.3570  2.0351
 8290SOL     OW36505   3.699   2.615  10.276 -0.1373  0.4447 -0.2077
 8290SOL    HW136506   3.660   2.697  10.246 -0.1389  0.1186 -1.0960
 8290SOL    HW236507   3.715   2.634  10.368 -2.3016 -2.2628  0.7122
 8291SOL     OW36508   1.426   2.864  13.866 -0.5811  0.3730  0.4501
 8291SOL    HW136509   1.491   2.925  13.903  0.3138  0.8415 -1.9268
 8291SOL    HW236510   1.350   2.917  13.891  0.8266  1.4330  2.5353
 8292SOL     OW36511   0.792   1.481   4.086 -0.0193  0.4726 -0.2218
 8292SOL    HW136512   0.764   1.457   3.998 -1.8109  0.3252  0.3932
 8292SOL    HW236513   0.820   1.398   4.124 -3.4741 -0.8827 -0.6408
 8293SOL     OW36514   2.840   0.630   7.380  0.5972  0.6807 -0.0011
 8293SOL    HW136515   2.796   0.549   7.353 -0.7352  0.5550  2.5028
 8293SOL    HW236516   2.861   0.658   7.291  0.2641 -0.4338 -0.4229
 8294SOL     OW36517   4.442   0.914   4.497 -0.3312 -0.5363 -0.2680
 8294SOL    HW136518   4.407   0.827   4.512  0.9073 -0.6848  1.8165
 8294SOL    HW236519   4.400   0.963   4.568  0.6392  0.2288 -0.2069
 8295SOL     OW36520   2.414   3.653  11.230 -0.3181  0.1428 -0.4249
 8295SOL    HW136521   2.465   3.706  11.292  2.3913 -2.9209 -0.0269
 8295SOL    HW236522   2.330   3.635  11.273 -0.8496  2.3216 -0.5363
 8296SOL     OW36523   3.377   4.176  14.796 -0.5163  0.0516 -0.1155
 8296SOL    HW136524   3.285   4.194  14.814 -0.5633 -1.2599  0.9166
 8296SOL    HW236525   3.389   4.092  14.839 -0.9493  0.1567  0.2152
 8297SOL     OW36526   4.322   2.129   9.872 -0.5226 -0.0193 -0.3220
 8297SOL    HW136527   4.243   2.078   9.854 -1.6236  1.2970  0.8023
 8297SOL    HW236528   4.390   2.081   9.825 -0.3584 -0.4126  0.3227
 8298SOL     OW36529   1.274   0.601   8.357 -0.2904 -0.1952  0.2630
 8298SOL    HW136530   1.182   0.575   8.366 -0.1564 -1.1967 -1.2287
 8298SOL    HW236531   1.273   0.659   8.433  2.4853  0.2278 -0.0210
 8299SOL     OW36532   4.456   2.807   2.336  0.1175  0.0683 -0.1135
 8299SOL    HW136533   4.362   2.807   2.316 -0.3962  1.0183  2.3127
 8299SOL    HW236534   4.492   2.867   2.270 -2.3144  1.2405 -0.4200
 8300SOL     OW36535   1.335   2.256  17.096 -0.5088 -0.2422 -0.3392
 8300SOL    HW136536   1.395   2.298  17.034  0.2733  0.3670  0.8397
 8300SOL    HW236537   1.375   2.278  17.180 -1.3059  0.4662 -0.1474
 8301SOL     OW36538   2.436   0.223   0.631  0.3562 -0.1128  0.1254
 8301SOL    HW136539   2.408   0.160   0.564 -1.4616  0.4817  0.3278
 8301SOL    HW236540   2.442   0.304   0.581 -1.3211  0.3216  0.6030
 8302SOL     OW36541   1.352   2.604   8.278 -0.2116 -0.5029 -0.4111
 8302SOL    HW136542   1.334   2.638   8.191 -2.2008  1.4743  0.7450
 8302SOL    HW236543   1.325   2.513   8.270  1.1601 -0.9377 -0.1172
 8303SOL     OW36544   4.261   0.452  10.631 -0.0343 -0.3857  0.2992
 8303SOL    HW136545   4.180   0.443  10.581  1.1213 -3.2501 -1.0746
 8303SOL    HW236546   4.296   0.363  10.628 -1.1681 -0.8890  1.7524
 8304SOL     OW36547   3.607   4.361   1.437 -0.1796  0.1427 -0.0602
 8304SOL    HW136548   3.656   4.427   1.484  1.4617 -0.0212 -1.5489
 8304SOL    HW236549   3.514   4.382   1.434 -0.1497  0.4249  1.0369
 8305SOL     OW36550   2.563   4.096   3.108  0.6533 -0.3409  0.1210
 8305SOL    HW136551   2.485   4.041   3.116 -0.7380  1.5660 -0.2033
 8305SOL    HW236552   2.535   4.162   3.044 -0.0664 -0.4561  0.3137
 8306SOL     OW36553   3.632   2.881   7.687 -0.1755  0.1457 -0.8640
 8306SOL    HW136554   3.702   2.817   7.698 -0.7273 -0.2950  0.0829
 8306SOL    HW236555   3.604   2.905   7.775 -0.8770 -1.4585 -0.6575
 8307SOL     OW36556   3.716   0.504   9.377  0.7332 -0.0656  0.8377
 8307SOL    HW136557   3.734   0.448   9.453 -0.4869 -1.3002  0.2200
 8307SOL    HW236558   3.785   0.566   9.401  0.3885  1.0611 -1.1152
 8308SOL     OW36559   2.149   4.432   3.852 -0.4105  0.2265  0.5327
 8308SOL    HW136560   2.213   4.362   3.860  0.2002  0.5395 -1.6559
 8308SOL    HW236561   2.088   4.407   3.783  2.1393  0.1892 -1.7177
 8309SOL     OW36562   3.577   4.186   8.818  0.0878 -0.7067 -0.2460
 8309SOL    HW136563   3.666   4.222   8.818 -0.7061  1.2255  1.4154
 8309SOL    HW236564   3.571   4.138   8.901  0.4166 -1.1840 -0.4943
 8310SOL     OW36565   4.020   0.020   2.046  0.3766 -0.0059  0.8327
 8310SOL    HW136566   3.974   0.075   1.982  3.7859  0.6506 -1.0501
 8310SOL    HW236567   4.011   4.673   2.012  0.2487  1.0675 -1.9672
 8311SOL     OW36568   4.708   3.123  15.451 -0.0027 -0.4989 -0.6258
 8311SOL    HW136569   0.017   3.195  15.488 -0.9045 -0.5294  0.7088
 8311SOL    HW236570   4.709   3.048  15.511  2.6300  0.2634  0.2969
 8312SOL     OW36571   3.253   3.008   1.360 -0.7433 -0.4896 -0.3320
 8312SOL    HW136572   3.347   2.991   1.364 -0.5362  0.4105 -1.3623
 8312SOL    HW236573   3.254   3.066   1.284  0.6433 -2.0008 -1.4627
 8313SOL     OW36574   2.056   4.048   5.031 -0.2492  0.1343 -0.4542
 8313SOL    HW136575   2.117   3.991   5.077 -1.0681  0.5468  1.1467
 8313SOL    HW236576   2.077   4.135   5.066 -1.6712  0.5244 -0.5679
 8314SOL     OW36577   2.930   0.231   5.978  0.2649 -0.1788  0.3050
 8314SOL    HW136578   2.966   0.226   6.066  0.8478 -0.4268  0.0478
 8314SOL    HW236579   2.869   0.306   5.979  0.6990  0.1863 -0.3583
 8315SOL     OW36580   4.277   1.448   6.908  0.3389 -0.3965 -0.3372
 8315SOL    HW136581   4.195   1.469   6.952 -0.5000 -2.0717 -1.1259
 8315SOL    HW236582   4.333   1.516   6.946  1.0079 -1.3139  0.3182
 8316SOL     OW36583   2.334   0.018  13.837 -0.3456  0.1932 -0.6260
 8316SOL    HW136584   2.333   4.680  13.889  0.6138 -1.5381 -3.3450
 8316SOL    HW236585   2.273   0.084  13.871 -0.7069 -0.7303  0.5316
 8317SOL     OW36586   1.230   0.496  14.309  0.0907 -0.2718 -0.1448
 8317SOL    HW136587   1.298   0.429  14.315 -0.0834 -0.4419 -0.0774
 8317SOL    HW236588   1.148   0.453  14.335  0.9542 -1.0302  1.2780
 8318SOL     OW36589   4.162   3.163   6.413 -0.4017  0.2112  0.2688
 8318SOL    HW136590   4.177   3.240   6.358  1.6879 -2.2578 -2.5483
 8318SOL    HW236591   4.110   3.200   6.486 -0.1459 -0.6309  0.8732
 8319SOL     OW36592   1.098   0.792   9.274  0.0734  0.4897  0.3903
 8319SOL    HW136593   1.177   0.743   9.297  0.6043  1.2054  0.0880
 8319SOL    HW236594   1.136   0.850   9.208  0.4207  0.6223  0.7050
 8320SOL     OW36595   0.532   1.763   2.724 -0.1090 -0.8633  0.0838
 8320SOL    HW136596   0.507   1.700   2.792 -0.6708 -0.4820  0.2336
 8320SOL    HW236597   0.580   1.832   2.770  3.1811 -2.2769 -1.2296
 8321SOL     OW36598   0.724   2.690   3.938 -0.1257 -0.6342 -0.1452
 8321SOL    HW136599   0.684   2.673   4.023 -0.0207 -0.5512 -0.0805
 8321SOL    HW236600   0.646   2.664   3.889 -0.1939  2.9086 -1.9191
 8322SOL     OW36601   1.800   3.317  11.782 -0.3492 -0.3844  0.7193
 8322SOL    HW136602   1.725   3.287  11.731 -0.8663  0.3972  1.0058
 8322SOL    HW236603   1.814   3.236  11.831 -3.1007 -1.8061 -0.8108
 8323SOL     OW36604   4.051   0.083   2.543  0.2002  0.0499  0.2455
 8323SOL    HW136605   4.086   0.162   2.501  2.2781  1.2535  4.2182
 8323SOL    HW236606   4.129   0.064   2.595 -0.1654  1.1920  1.2299
 8324SOL     OW36607   4.217   1.063   5.580 -0.2099 -0.1846  0.2470
 8324SOL    HW136608   4.155   1.137   5.573  0.9060  0.8622  1.4313
 8324SOL    HW236609   4.235   1.045   5.488 -0.4559 -0.6774  0.2945
 8325SOL     OW36610   2.233   3.790   9.372 -0.0653  0.0336 -0.4325
 8325SOL    HW136611   2.318   3.806   9.332 -0.4995  0.0126 -1.3590
 8325SOL    HW236612   2.206   3.878   9.396  0.4603  0.6803 -2.2348
 8326SOL     OW36613   4.415   0.905  14.909  0.5648  0.0065 -0.4871
 8326SOL    HW136614   4.327   0.868  14.899 -0.2035  1.5153  0.7920
 8326SOL    HW236615   4.461   0.821  14.912  1.2035  0.4278  1.5019
 8327SOL     OW36616   3.547   3.724  13.937 -0.3595 -0.1406  1.1310
 8327SOL    HW136617   3.553   3.795  14.001  0.4432 -0.4695  1.4117
 8327SOL    HW236618   3.598   3.763  13.866 -0.1835 -0.1898  1.2307
 8328SOL     OW36619   1.014   1.249  12.297 -0.2271  0.1442 -0.2015
 8328SOL    HW136620   1.075   1.299  12.243  0.6674 -0.6463  0.0649
 8328SOL    HW236621   0.930   1.294  12.292  0.2780  1.2353  1.1045
 8329SOL     OW36622   3.023   0.935   8.844 -0.0051  0.5984  0.4416
 8329SOL    HW136623   2.941   0.885   8.842 -0.7133  1.9064 -3.0871
 8329SOL    HW236624   3.100   0.880   8.833  1.4764  3.5108 -3.7219
 8330SOL     OW36625   2.993   0.588   5.126  0.0740 -0.5284 -0.7195
 8330SOL    HW136626   2.917   0.635   5.162  0.5168 -0.3833  0.0191
 8330SOL    HW236627   2.991   0.511   5.182  0.3248  1.3555  1.8626
 8331SOL     OW36628   3.142   2.703  11.638  0.3369 -0.7545  0.3021
 8331SOL    HW136629   3.233   2.676  11.630  1.1602  2.4089 -0.7946
 8331SOL    HW236630   3.133   2.789  11.597  0.4155 -1.2608 -0.7689
 8332SOL     OW36631   0.122   3.443   2.399  0.1962  0.1598 -0.4000
 8332SOL    HW136632   0.217   3.440   2.410  0.3114  2.8774 -0.6019
 8332SOL    HW236633   0.107   3.536   2.413 -1.8457 -0.3151  0.6137
 8333SOL     OW36634   2.554   2.494   5.279  0.7980 -0.5022 -0.2562
 8333SOL    HW136635   2.540   2.406   5.245 -2.2293 -0.1455  0.0499
 8333SOL    HW236636   2.595   2.457   5.357 -1.8604 -0.5744  1.1030
 8334SOL     OW36637   0.138   1.364   7.942  0.5155 -0.2865  0.1354
 8334SOL    HW136638   0.099   1.286   7.983  2.1396 -0.8278  0.6707
 8334SOL    HW236639   0.109   1.445   7.983  2.5865  0.5425 -0.0341
 8335SOL     OW36640   4.418   0.408   5.943  0.3465  0.3811 -0.2957
 8335SOL    HW136641   4.492   0.368   5.898  0.5800 -0.0303  0.4589
 8335SOL    HW236642   4.457   0.461   6.013  0.2160 -0.7920  0.6605
 8336SOL     OW36643   0.635   2.992   6.026  0.3378 -0.1600 -0.3644
 8336SOL    HW136644   0.601   3.052   5.960 -2.5093 -2.0939 -0.6692
 8336SOL    HW236645   0.711   3.040   6.056  0.2022  1.0677 -1.9714
 8337SOL     OW36646   4.446   1.116   6.662 -0.2683 -0.6112 -0.5860
 8337SOL    HW136647   4.444   1.144   6.571 -0.9181  1.0740 -0.0640
 8337SOL    HW236648   4.457   1.199   6.709 -0.9595  0.6203 -2.6291
 8338SOL     OW36649   2.462   2.256   3.722 -0.1314 -0.0087  0.2232
 8338SOL    HW136650   2.535   2.214   3.677 -0.6905 -0.6750 -0.0579
 8338SOL    HW236651   2.465   2.223   3.812  1.2231  3.2085  1.3557
 8339SOL     OW36652   2.866   4.636   5.069  0.2719  0.2850  0.0039
 8339SOL    HW136653   2.862   4.728   5.096  1.5650  0.6108 -0.9077
 8339SOL    HW236654   2.914   4.661   4.990 -0.7042 -0.1103 -0.7094
 8340SOL     OW36655   3.854   0.416  12.081  0.0646  0.0496 -0.1613
 8340SOL    HW136656   3.913   0.419  12.006  0.5461  0.2775  0.2273
 8340SOL    HW236657   3.872   0.329  12.116  2.2093  0.7017  0.3637
 8341SOL     OW36658   2.958   0.984  13.927 -0.1515 -0.0518  0.7487
 8341SOL    HW136659   2.956   0.898  13.968 -1.1186  0.5304  1.9252
 8341SOL    HW236660   3.046   1.006  13.956  0.8247 -2.6006 -0.2954
 8342SOL     OW36661   2.249   2.277  13.353  0.4954  0.3228  0.0924
 8342SOL    HW136662   2.199   2.262  13.433 -1.2006  1.0008 -0.8462
 8342SOL    HW236663   2.216   2.353  13.306  1.7220  2.1870  2.2284
 8343SOL     OW36664   4.300   3.487   6.925  0.1570 -0.2493  0.9181
 8343SOL    HW136665   4.225   3.510   6.980 -0.2316  1.4099 -0.3232
 8343SOL    HW236666   4.270   3.400   6.897 -2.7881  0.7493  0.9368
 8344SOL     OW36667   3.285   3.194   1.169 -0.1289  0.0743  0.3943
 8344SOL    HW136668   3.256   3.284   1.183  0.0261  0.0900  0.6162
 8344SOL    HW236669   3.375   3.213   1.143 -0.4795 -0.3356 -1.1456
 8345SOL     OW36670   0.678   0.776   4.339  0.5154  0.0080  0.3128
 8345SOL    HW136671   0.710   0.715   4.274  1.5189  0.1448  0.6822
 8345SOL    HW236672   0.632   0.712   4.394 -1.7343  1.2967 -0.0653
 8346SOL     OW36673   4.366   4.106  12.193 -0.2468 -0.0591 -0.4897
 8346SOL    HW136674   4.379   4.019  12.232 -0.2750  1.1388  2.2225
 8346SOL    HW236675   4.404   4.158  12.264 -2.2499  1.3698 -0.4468
 8347SOL     OW36676   4.611   4.123   3.880 -0.1289 -0.0883  0.3433
 8347SOL    HW136677   4.561   4.161   3.808 -0.2244 -1.4638 -0.3217
 8347SOL    HW236678   4.635   4.210   3.913  1.9329 -0.0164 -1.3406
 8348SOL     OW36679   1.417   4.127   3.114  0.1068 -0.3291  0.1144
 8348SOL    HW136680   1.423   4.202   3.173  0.0761 -2.2982  2.6764
 8348SOL    HW236681   1.399   4.062   3.183 -0.9266  0.4315  0.5587
 8349SOL     OW36682   3.578   1.605  14.152  0.6209 -0.2498  0.3858
 8349SOL    HW136683   3.591   1.510  14.155  0.9002 -0.2390 -0.3409
 8349SOL    HW236684   3.527   1.619  14.231 -0.2072  0.4888 -0.2817
 8350SOL     OW36685   2.783   4.698   4.517  0.1191 -0.6856 -0.0719
 8350SOL    HW136686   2.758   4.716   4.427  1.4873  0.7991 -0.1531
 8350SOL    HW236687   2.829   4.614   4.513  0.9023 -0.2410 -0.2930
 8351SOL     OW36688   4.441   3.412   0.718 -0.5359  0.5974 -0.4039
 8351SOL    HW136689   4.449   3.502   0.688 -0.5643  1.1049  1.1175
 8351SOL    HW236690   4.524   3.374   0.689 -0.4533  0.2380  0.3049
 8352SOL     OW36691   2.243   2.953  14.840 -0.1864 -0.1867 -0.1252
 8352SOL    HW136692   2.264   3.046  14.852 -0.3311 -0.0198 -1.2090
 8352SOL    HW236693   2.227   2.929  14.932 -3.7250 -0.7484 -0.9062
 8353SOL     OW36694   0.500   4.630   2.799  0.0344  0.5143  0.1379
 8353SOL    HW136695   0.471   4.581   2.875  0.3851  1.1933  0.7054
 8353SOL    HW236696   0.430   4.612   2.735 -0.0580  0.4097  0.2696
 8354SOL     OW36697   0.426   1.860   4.198 -0.2636  0.5908 -0.4685
 8354SOL    HW136698   0.343   1.908   4.208 -1.1216 -1.0676  0.5083
 8354SOL    HW236699   0.479   1.908   4.262 -1.9443  1.3842  0.3492
 8355SOL     OW36700   1.922   4.174  10.986 -0.3814  0.0380  0.0854
 8355SOL    HW136701   1.830   4.192  10.968 -0.5287 -0.4373  0.3806
 8355SOL    HW236702   1.947   4.238  11.053  0.4560 -0.8936  0.6622
 8356SOL     OW36703   1.456   0.511  17.619  0.6831  0.3412 -0.1614
 8356SOL    HW136704   1.551   0.495  17.621  0.7071  0.5335  0.4258
 8356SOL    HW236705   1.441   0.522  17.713  0.5229  0.2810 -0.1805
 8357SOL     OW36706   4.447   3.851   9.195 -0.0544 -0.2877 -0.3240
 8357SOL    HW136707   4.447   3.784   9.263  1.8890  0.8026  0.7556
 8357SOL    HW236708   4.514   3.914   9.222 -0.3024 -0.2874  0.2839
 8358SOL     OW36709   1.530   0.720   2.964 -0.4851 -0.2407 -0.3144
 8358SOL    HW136710   1.495   0.808   2.957 -0.5870 -0.1673  1.0938
 8358SOL    HW236711   1.556   0.704   2.873 -0.9156 -0.8182 -0.3387
 8359SOL     OW36712   3.500   3.341   0.600 -0.4455 -0.0542  0.2838
 8359SOL    HW136713   3.520   3.368   0.690  2.4324  3.0860 -1.2756
 8359SOL    HW236714   3.410   3.322   0.626 -0.4685 -1.1856 -0.6585
 8360SOL     OW36715   4.640   2.690   9.216  0.4079  0.1131  0.6223
 8360SOL    HW136716   4.627   2.678   9.310  2.2555 -1.7176  0.6480
 8360SOL    HW236717   4.548   2.695   9.189 -0.1751  0.0131  2.5747
 8361SOL     OW36718   4.058   0.304   5.314  0.7276 -0.3575 -0.2091
 8361SOL    HW136719   4.119   0.247   5.361  0.4635 -0.9514 -0.5907
 8361SOL    HW236720   4.118   0.341   5.249 -0.8693 -0.0990 -1.5343
 8362SOL     OW36721   3.650   1.851  14.074 -0.6544  0.6685 -0.5682
 8362SOL    HW136722   3.626   1.831  13.984  3.4805 -3.6822 -0.6485
 8362SOL    HW236723   3.627   1.769  14.117 -0.9763  1.0894  0.0757
 8363SOL     OW36724   3.049   3.324   1.960  0.4591  0.3974 -1.0231
 8363SOL    HW136725   3.055   3.240   1.916 -0.3087 -0.1456 -0.0849
 8363SOL    HW236726   2.955   3.328   1.975  0.7407  0.7161  0.6726
 8364SOL     OW36727   1.658   0.209   8.130 -0.2070 -0.3306  0.3567
 8364SOL    HW136728   1.678   0.301   8.111  2.5927 -1.0483 -0.1476
 8364SOL    HW236729   1.563   0.210   8.120 -0.3054 -2.1722  1.1351
 8365SOL     OW36730   0.707   1.729  15.733 -0.1662  0.6761 -0.6196
 8365SOL    HW136731   0.619   1.763  15.715  0.0280  0.9126 -1.1174
 8365SOL    HW236732   0.685   1.663  15.799  0.0604  2.4120  1.1933
 8366SOL     OW36733   2.510   1.053   3.128 -0.5740 -0.2177 -0.1043
 8366SOL    HW136734   2.505   0.974   3.181 -0.2145 -0.3011 -0.1943
 8366SOL    HW236735   2.495   1.110   3.203  1.4098  1.0003 -0.6235
 8367SOL     OW36736   3.389   1.117   4.496  0.8833 -0.3228  0.0886
 8367SOL    HW136737   3.483   1.110   4.481  0.7136  0.0929 -1.2380
 8367SOL    HW236738   3.379   1.210   4.517  1.6271 -0.4681  1.0569
 8368SOL     OW36739   2.795   2.189   4.265 -0.0339 -0.0928 -0.1005
 8368SOL    HW136740   2.838   2.198   4.179 -0.7416  0.4812 -0.3894
 8368SOL    HW236741   2.859   2.131   4.307  1.9077  0.7904 -1.8642
 8369SOL     OW36742   4.414   2.104   1.994 -0.1117  0.4321 -0.2344
 8369SOL    HW136743   4.498   2.114   2.037  0.4630  1.9663 -1.7387
 8369SOL    HW236744   4.417   2.018   1.951  1.3418  0.1604  0.4340
 8370SOL     OW36745   0.191   3.189   8.431 -0.5274 -0.6838 -0.3246
 8370SOL    HW136746   0.223   3.101   8.449  1.0579 -0.0496 -0.0512
 8370SOL    HW236747   0.194   3.191   8.335 -1.4232  0.6226 -0.3323
 8371SOL     OW36748   1.725   0.852  14.749 -0.0994 -0.2168  0.1881
 8371SOL    HW136749   1.783   0.921  14.782  2.2480 -1.5462 -1.2129
 8371SOL    HW236750   1.783   0.790  14.706  1.2126  1.1010  0.0603
 8372SOL     OW36751   1.760   3.074   0.766 -0.1909  0.2087  0.2008
 8372SOL    HW136752   1.845   3.097   0.804 -0.0633  1.4881 -0.8720
 8372SOL    HW236753   1.778   2.988   0.728 -1.8149 -0.3320  0.6625
 8373SOL     OW36754   2.203   4.160   2.929 -0.2296 -0.5582 -0.4869
 8373SOL    HW136755   2.165   4.200   3.007  0.2159  0.5466 -0.8362
 8373SOL    HW236756   2.252   4.091   2.974 -0.2249  0.4662  1.0887
 8374SOL     OW36757   1.004   0.233   7.125  0.5852 -0.1602 -0.7398
 8374SOL    HW136758   0.978   0.283   7.202  1.2446 -0.4736 -0.3160
 8374SOL    HW236759   1.014   0.147   7.165  2.5031  0.7997  0.8176
 8375SOL     OW36760   0.613   2.844  15.642  0.1825  0.1022 -0.5242
 8375SOL    HW136761   0.588   2.933  15.617 -0.4184 -0.0494 -0.4641
 8375SOL    HW236762   0.594   2.788  15.567 -0.0158  0.4326 -0.7205
 8376SOL     OW36763   4.185   1.344   1.826 -0.2050  0.2597 -0.4339
 8376SOL    HW136764   4.130   1.332   1.749  0.9470  0.5286 -1.2951
 8376SOL    HW236765   4.244   1.271   1.807  1.5226  1.5510  0.0578
 8377SOL     OW36766   1.953   1.034  14.292  0.3875 -0.3527 -0.1063
 8377SOL    HW136767   2.015   1.085  14.239  0.9899 -0.5865  0.3784
 8377SOL    HW236768   2.015   0.976  14.336 -0.3937 -1.0871  0.0238
 8378SOL     OW36769   2.351   2.220   2.007 -0.5144  0.3002  0.7072
 8378SOL    HW136770   2.315   2.208   2.095  2.4083  1.8911  2.1121
 8378SOL    HW236771   2.327   2.312   2.008 -0.0107  0.4313 -0.2104
 8379SOL     OW36772   3.529   3.390   3.591 -0.0731 -0.7474 -0.2429
 8379SOL    HW136773   3.484   3.328   3.535 -0.2577 -0.8482  0.0135
 8379SOL    HW236774   3.511   3.351   3.677  0.5246 -0.2493  0.1153
 8380SOL     OW36775   2.718   4.264  13.328  0.3504  0.2575  0.5765
 8380SOL    HW136776   2.716   4.239  13.420 -0.7652 -1.4229  0.1113
 8380SOL    HW236777   2.626   4.253  13.303  0.0003 -3.1299  3.3012
 8381SOL     OW36778   0.036   0.454   5.256 -0.0449 -0.3731 -0.4561
 8381SOL    HW136779   4.688   0.426   5.271  0.6842 -1.8960  1.1209
 8381SOL    HW236780   0.070   0.425   5.341  0.5380  0.7701 -0.2980
 8382SOL     OW36781   1.386   0.302   2.682  0.5464 -0.3031 -0.4697
 8382SOL    HW136782   1.452   0.371   2.688 -1.5180  1.7250 -1.4210
 8382SOL    HW236783   1.431   0.256   2.611 -0.0140  0.1041 -1.0800
 8383SOL     OW36784   0.194   3.991  10.025  0.1277 -0.0166 -0.4188
 8383SOL    HW136785   0.202   4.050   9.950 -0.8660 -0.0294 -0.5354
 8383SOL    HW236786   0.136   3.932   9.976  0.5675  0.5539 -1.6202
 8384SOL     OW36787   4.496   2.497   8.398  0.3535  0.5361 -0.1391
 8384SOL    HW136788   4.567   2.441   8.430  0.0426  0.2875  0.1178
 8384SOL    HW236789   4.458   2.508   8.485 -1.7112 -2.3566 -0.7125
 8385SOL     OW36790   1.662   4.032   6.202 -0.0892  0.4282  0.0824
 8385SOL    HW136791   1.622   3.980   6.132  1.7408 -2.0143  0.8633
 8385SOL    HW236792   1.717   4.086   6.145  0.8240 -0.3016  0.2734
 8386SOL     OW36793   0.317   0.777   6.543  0.5605 -0.1860  0.2650
 8386SOL    HW136794   0.382   0.756   6.610  0.0780  1.4866  1.2632
 8386SOL    HW236795   0.260   0.700   6.550  0.9198 -0.4391  0.3869
 8387SOL     OW36796   4.419   0.025   2.264 -0.1391  0.1849 -0.6759
 8387SOL    HW136797   4.361   4.691   2.269  1.1150 -0.6784  0.4500
 8387SOL    HW236798   4.361   0.089   2.223  0.9259  0.6996 -1.3732
 8388SOL     OW36799   1.629   2.067   7.570  0.1681  0.2394  0.4064
 8388SOL    HW136800   1.624   2.021   7.654  1.0054 -0.5946 -0.0009
 8388SOL    HW236801   1.539   2.094   7.552  0.7457  1.2382 -0.9916
 8389SOL     OW36802   1.038   1.308   8.131 -0.2768  0.7191 -0.6399
 8389SOL    HW136803   0.984   1.331   8.056 -1.2562 -2.3254 -0.8453
 8389SOL    HW236804   1.072   1.224   8.101 -2.5191 -0.2418 -0.4302
 8390SOL     OW36805   4.451   2.006   6.598 -0.2998 -0.5357 -0.6262
 8390SOL    HW136806   4.482   2.052   6.520 -0.5861 -0.7348 -0.8564
 8390SOL    HW236807   4.423   1.920   6.566 -0.8727 -1.4004  2.2417
 8391SOL     OW36808   0.734   0.879   9.644  0.2228 -0.2141 -0.5875
 8391SOL    HW136809   0.668   0.837   9.589  1.2236  0.3965 -2.2419
 8391SOL    HW236810   0.776   0.816   9.702  0.6161  1.0096  0.4630
 8392SOL     OW36811   3.978   4.623   1.733 -0.2516 -0.1842 -0.2163
 8392SOL    HW136812   4.009   4.679   1.661  1.1531 -0.3803  0.2403
 8392SOL    HW236813   3.897   4.589   1.694  0.9999 -0.5846 -2.4919
 8393SOL     OW36814   4.428   2.284   3.595  0.1294 -0.0958  0.6404
 8393SOL    HW136815   4.500   2.345   3.576 -2.2867  2.3671 -0.6677
 8393SOL    HW236816   4.357   2.339   3.563 -0.9405 -0.3878  2.4922
 8394SOL     OW36817   4.204   4.732   9.150 -0.1056 -0.1386 -0.4174
 8394SOL    HW136818   4.131   4.674   9.127  2.2753 -3.3027 -0.0083
 8394SOL    HW236819   4.208   0.047   9.074  0.8338  1.5044  0.8703
 8395SOL     OW36820   1.178   1.878   9.252  0.2619  0.4180  0.0796
 8395SOL    HW136821   1.272   1.861   9.250  0.2791  0.4101  0.9141
 8395SOL    HW236822   1.136   1.792   9.252  0.2570  0.4195  0.1975
 8396SOL     OW36823   2.844   1.245  16.544 -0.3756  0.1813 -0.2056
 8396SOL    HW136824   2.776   1.214  16.603 -0.4379 -0.4620 -0.6154
 8396SOL    HW236825   2.918   1.253  16.604 -2.1050  2.3272  1.6067
 8397SOL     OW36826   1.955   3.235   6.290  0.1152  0.1469 -0.0730
 8397SOL    HW136827   2.007   3.312   6.311  1.7004 -0.8544 -0.3685
 8397SOL    HW236828   1.880   3.274   6.244  1.0834  2.6425  0.4476
 8398SOL     OW36829   2.467   1.874   1.154 -0.2393 -0.0080 -0.3557
 8398SOL    HW136830   2.485   1.937   1.223 -0.4731  0.3606 -0.6317
 8398SOL    HW236831   2.523   1.806   1.191  1.4370  0.3621 -2.2160
 8399SOL     OW36832   4.225   2.207   3.048  0.0610  0.2375  0.6858
 8399SOL    HW136833   4.289   2.252   3.102 -0.0499 -1.9725  2.6708
 8399SOL    HW236834   4.145   2.211   3.101  0.7455  2.3212  1.5322
 8400SOL     OW36835   2.969   0.406  14.751  0.6614 -0.1233 -0.4208
 8400SOL    HW136836   2.919   0.473  14.799  0.6547 -0.4805  0.0785
 8400SOL    HW236837   2.917   0.358  14.686  0.7486 -1.5319  0.5442
 8401SOL     OW36838   4.345   2.752  13.086 -0.0184  0.3884 -0.6201
 8401SOL    HW136839   4.280   2.683  13.077  0.6133 -0.5610  2.0330
 8401SOL    HW236840   4.413   2.708  13.138  0.9549  2.1606 -0.3684
 8402SOL     OW36841   4.009   2.258  17.215  0.3676 -0.4139 -0.5149
 8402SOL    HW136842   3.930   2.304  17.187 -0.6501 -0.5551  2.1307
 8402SOL    HW236843   3.997   2.245  17.309  0.3607  1.6030 -0.2465
 8403SOL     OW36844   3.192   4.663   3.304 -0.2652 -0.2892 -0.2745
 8403SOL    HW136845   3.228   4.619   3.382 -0.3417 -2.3154 -1.3803
 8403SOL    HW236846   3.100   4.650   3.326 -0.5591 -0.5724 -1.6651
 8404SOL     OW36847   0.104   1.506   2.154 -0.1044  0.4303  0.2810
 8404SOL    HW136848   0.038   1.529   2.220 -1.1144  1.1781 -0.9943
 8404SOL    HW236849   0.068   1.418   2.143  2.0421 -0.4645  0.2398
 8405SOL     OW36850   0.905   3.236   0.107  0.4283  0.1595 -0.4518
 8405SOL    HW136851   0.896   3.198   0.020 -0.8577  0.5470 -0.4944
 8405SOL    HW236852   0.819   3.279   0.114  0.5932  0.5944 -1.0747
 8406SOL     OW36853   3.512   4.291   5.209 -0.4111 -0.5450  0.0673
 8406SOL    HW136854   3.553   4.204   5.203  1.0109  0.0909  0.4922
 8406SOL    HW236855   3.513   4.313   5.302  1.4105 -1.0272  0.1709
 8407SOL     OW36856   4.126   1.253   9.415 -0.7212 -0.7498 -0.5361
 8407SOL    HW136857   4.181   1.213   9.347  0.1991  0.2997 -0.4172
 8407SOL    HW236858   4.103   1.174   9.464 -0.6636 -0.1255  0.4942
 8408SOL     OW36859   2.683   1.307   8.050  0.5028 -0.5012  0.0746
 8408SOL    HW136860   2.756   1.279   7.995 -1.4607 -0.0551 -2.7506
 8408SOL    HW236861   2.714   1.272   8.134  0.1323 -0.8099  0.0876
 8409SOL     OW36862   2.995   1.439   5.276 -0.3072 -0.6510 -0.0993
 8409SOL    HW136863   3.056   1.366   5.284  0.6397  0.0818 -0.6524
 8409SOL    HW236864   2.915   1.387   5.284 -1.1670  0.9438  1.6388
 8410SOL     OW36865   4.112   1.992  16.335  0.1984 -0.2861  0.4116
 8410SOL    HW136866   4.155   1.979  16.250  2.4812 -0.8088  1.6572
 8410SOL    HW236867   4.180   2.035  16.387  0.3032 -0.6839  0.6057
 8411SOL     OW36868   4.250   2.982  10.536  0.3908 -0.9183 -0.1250
 8411SOL    HW136869   4.345   2.985  10.532  0.3802 -0.5952 -0.0842
 8411SOL    HW236870   4.235   3.076  10.546  0.7072 -0.7869 -0.9384
 8412SOL     OW36871   3.565   4.367   6.143  0.4112  0.1294 -0.2477
 8412SOL    HW136872   3.546   4.406   6.058 -2.0645  0.8991  0.6866
 8412SOL    HW236873   3.650   4.398   6.177  0.9764 -1.5796 -0.0992
 8413SOL     OW36874   3.938   3.675   8.803 -0.3244 -0.2144 -0.1950
 8413SOL    HW136875   3.842   3.668   8.800  0.0296 -4.1005 -2.2690
 8413SOL    HW236876   3.953   3.607   8.867 -1.8513  0.3864  0.7990
 8414SOL     OW36877   0.319   2.111   6.018  0.1793  0.2659  0.4648
 8414SOL    HW136878   0.272   2.130   6.099  1.3784  1.0031  0.9798
 8414SOL    HW236879   0.290   2.186   5.966 -0.9385  0.9454  2.0816
 8415SOL     OW36880   0.691   1.164   2.379  0.6851 -0.0209 -0.2293
 8415SOL    HW136881   0.619   1.199   2.328 -0.1868 -1.2646  0.1408
 8415SOL    HW236882   0.767   1.166   2.321 -0.8797 -2.3216 -2.3865
 8416SOL     OW36883   1.894   0.453  17.472 -0.1841 -0.0298  0.2072
 8416SOL    HW136884   1.983   0.485  17.457 -0.3843  0.3437 -0.1743
 8416SOL    HW236885   1.883   0.393  17.399 -1.7093  2.6257 -1.7518
 8417SOL     OW36886   2.741   0.467   0.265  0.5519 -0.1005  0.4277
 8417SOL    HW136887   2.749   0.380   0.305 -1.2746 -0.0215  0.9828
 8417SOL    HW236888   2.646   0.477   0.267  0.3681 -1.9685  0.9023
 8418SOL     OW36889   1.766   3.796   4.705 -0.4634  0.4411  0.4631
 8418SOL    HW136890   1.837   3.785   4.642 -1.5919  2.3424 -1.1191
 8418SOL    HW236891   1.783   3.879   4.748 -0.7122  0.4044  0.6327
 8419SOL     OW36892   4.067   4.137  10.852 -0.0548  0.2273  0.1371
 8419SOL    HW136893   4.030   4.144  10.764  1.3980  0.0420 -0.4777
 8419SOL    HW236894   4.089   4.044  10.856 -1.1495 -0.1380 -2.3215
 8420SOL     OW36895   4.399   3.115   8.353  0.1959  0.1837 -1.1110
 8420SOL    HW136896   4.321   3.151   8.395  0.0640 -0.5578 -0.7124
 8420SOL    HW236897   4.468   3.153   8.408 -2.7037  0.5354  2.3273
 8421SOL     OW36898   3.597   0.546   6.337 -0.4289 -0.3929  0.5100
 8421SOL    HW136899   3.553   0.565   6.254 -1.1007 -1.9123  0.5152
 8421SOL    HW236900   3.533   0.549   6.408  1.7815  0.2837  2.4711
 8422SOL     OW36901   2.342   4.235   3.795  0.1388 -0.7120 -1.2406
 8422SOL    HW136902   2.357   4.225   3.889  0.4396  2.4786 -0.9525
 8422SOL    HW236903   2.368   4.147   3.768 -1.8153 -1.0601 -1.9461
 8423SOL     OW36904   1.671   0.625   4.544 -0.2306  0.3113  0.0988
 8423SOL    HW136905   1.632   0.686   4.481 -0.4602  0.5709  0.4943
 8423SOL    HW236906   1.601   0.559   4.543 -1.2567  1.4005 -0.1050
 8424SOL     OW36907   1.832   0.301   4.749  0.2762 -0.0295  0.0446
 8424SOL    HW136908   1.843   0.386   4.793  1.3821  0.6214 -1.4807
 8424SOL    HW236909   1.745   0.310   4.710  0.4631 -2.0884 -0.8556
 8425SOL     OW36910   3.710   0.081   5.120  0.2595  0.4419  0.3366
 8425SOL    HW136911   3.656   0.128   5.057  1.9879 -0.0761 -1.5432
 8425SOL    HW236912   3.644   0.042   5.177 -0.3176 -0.3627 -0.8796
 8426SOL     OW36913   0.926   2.146  14.665 -0.3944 -0.1815  0.0824
 8426SOL    HW136914   0.939   2.070  14.721 -3.4898  0.4145  1.5925
 8426SOL    HW236915   0.851   2.125  14.610  0.7654 -1.5450 -0.9594
 8427SOL     OW36916   0.662   1.946   6.095 -0.6914 -0.6084 -0.0761
 8427SOL    HW136917   0.584   1.893   6.077 -1.4990  0.3485  0.6001
 8427SOL    HW236918   0.699   1.883   6.157  0.1372 -0.0761 -0.0405
 8428SOL     OW36919   0.493   2.437   3.048  0.0646 -0.0482  0.6227
 8428SOL    HW136920   0.546   2.497   3.100  3.3005 -3.0800  0.8023
 8428SOL    HW236921   0.425   2.493   3.012  0.5774 -0.2901 -0.7263
 8429SOL     OW36922   2.299   1.043   5.617  0.2023  0.1797  0.3775
 8429SOL    HW136923   2.269   1.046   5.526  1.7002  1.9407 -0.0669
 8429SOL    HW236924   2.327   1.132   5.639 -1.7458  1.3400 -1.7779
 8430SOL     OW36925   2.144   2.426  11.863 -0.1558 -0.0809  0.9229
 8430SOL    HW136926   2.227   2.383  11.842  0.4689  2.0823 -1.0829
 8430SOL    HW236927   2.152   2.499  11.802  0.4021 -1.0245 -0.1447
 8431SOL     OW36928   3.216   0.813  13.391  0.2131 -0.1266 -0.2173
 8431SOL    HW136929   3.210   0.721  13.362 -1.9776 -0.8369  2.4825
 8431SOL    HW236930   3.297   0.828  13.343  0.4625 -2.3537 -0.4916
 8432SOL     OW36931   4.041   2.534   5.300 -0.0679  0.6035  0.3933
 8432SOL    HW136932   3.981   2.461   5.311  2.4392 -1.1908  2.2133
 8432SOL    HW236933   3.984   2.606   5.275  0.8064  0.7972 -1.1033
 8433SOL     OW36934   0.742   2.714   6.099 -0.0820 -0.3283  0.2367
 8433SOL    HW136935   0.658   2.756   6.081  0.2848  0.1411 -0.3905
 8433SOL    HW236936   0.723   2.646   6.164  0.7432  0.7792  1.6367
 8434SOL     OW36937   2.562   2.665   6.818 -0.7279 -0.2321  0.1530
 8434SOL    HW136938   2.566   2.699   6.907  1.1836  0.1324 -0.0581
 8434SOL    HW236939   2.474   2.628   6.826 -1.7131  2.1301  0.1650
 8435SOL     OW36940   2.192   2.749   5.617 -0.4033  0.1620 -0.0552
 8435SOL    HW136941   2.219   2.786   5.701 -1.4815 -0.8756  0.7616
 8435SOL    HW236942   2.266   2.778   5.565 -0.5181  0.9996  0.2466
 8436SOL     OW36943   2.737   3.551   4.537  0.0010  0.1127 -0.2570
 8436SOL    HW136944   2.748   3.616   4.606 -0.5882  1.4675 -1.4169
 8436SOL    HW236945   2.697   3.480   4.587  0.2812 -0.8831 -1.4463
 8437SOL     OW36946   3.928   4.685   3.601  0.1725  0.4253  1.0974
 8437SOL    HW136947   3.948   4.729   3.683  1.6878 -2.9047  2.5284
 8437SOL    HW236948   3.869   0.004   3.558  1.6107 -0.7838 -2.5361
 8438SOL     OW36949   3.920   1.782   6.066 -0.1478  0.5297 -0.0147
 8438SOL    HW136950   3.915   1.696   6.108 -3.3356  1.4954  1.5627
 8438SOL    HW236951   3.979   1.821   6.131  1.5017 -0.5939 -0.8273
 8439SOL     OW36952   4.259   2.170   6.384  0.0321  0.2325  0.1100
 8439SOL    HW136953   4.229   2.245   6.436  0.9855  0.0524  0.9088
 8439SOL    HW236954   4.197   2.104   6.414 -2.3622  1.2606 -2.5869
 8440SOL     OW36955   2.852   3.028   3.098 -0.1579  0.5166  0.0192
 8440SOL    HW136956   2.834   2.936   3.119  0.3813  0.9498  2.3975
 8440SOL    HW236957   2.871   3.071   3.182  4.2147  3.1551 -2.3358
 8441SOL     OW36958   4.190   3.649   8.657  0.2605 -0.3139 -0.4413
 8441SOL    HW136959   4.242   3.686   8.728  0.3294 -0.2469 -0.5268
 8441SOL    HW236960   4.101   3.674   8.679  1.4275  1.0489  2.6125
 8442SOL     OW36961   1.999   2.790   6.536  0.1533 -0.1344 -0.0884
 8442SOL    HW136962   1.911   2.784   6.498 -0.1093 -0.3110  0.5497
 8442SOL    HW236963   2.037   2.842   6.466 -2.4048  1.2307 -0.4798
 8443SOL     OW36964   0.306   4.404   6.883 -0.3861  0.1971  0.1947
 8443SOL    HW136965   0.339   4.453   6.958 -1.1249  2.3737 -0.9119
 8443SOL    HW236966   0.211   4.415   6.889 -0.1135  1.2398  2.4735
 8444SOL     OW36967   0.750   0.258   8.332 -0.1867  0.2127 -0.8945
 8444SOL    HW136968   0.817   0.244   8.399 -1.4280  2.7411  0.8856
 8444SOL    HW236969   0.699   0.183   8.362 -1.3822  1.9009  1.2151
 8445SOL     OW36970   4.713   2.339   8.830 -0.2051  0.0077  0.5105
 8445SOL    HW136971   4.738   2.412   8.886 -1.0427  0.0642  0.8049
 8445SOL    HW236972   0.032   2.352   8.758 -1.9225 -0.0595 -0.9396
 8446SOL     OW36973   1.596   2.801   1.974  0.3694 -0.2564 -0.4201
 8446SOL    HW136974   1.663   2.855   1.931 -1.3047  0.9880 -1.4978
 8446SOL    HW236975   1.583   2.731   1.909 -0.3391 -1.1965  0.7430
 8447SOL     OW36976   0.486   4.341   1.830  0.5461 -0.3543  0.4240
 8447SOL    HW136977   0.548   4.396   1.876 -0.1222  0.6692  0.1038
 8447SOL    HW236978   0.442   4.414   1.787  0.8634  0.4323  1.4597
 8448SOL     OW36979   3.683   3.491  12.659  0.0067  0.3367 -0.4775
 8448SOL    HW136980   3.631   3.560  12.616 -2.9670 -0.3169  2.0892
 8448SOL    HW236981   3.664   3.411  12.611  0.7565 -0.0644 -0.1098
 8449SOL     OW36982   4.447   2.961   2.602 -0.2964  0.6103  0.1215
 8449SOL    HW136983   4.370   2.957   2.546 -0.2192  0.3026  0.0381
 8449SOL    HW236984   4.519   2.927   2.548 -2.1355  1.3107 -2.7665
 8450SOL     OW36985   4.269   1.602  15.013  0.0966  0.0232  0.1439
 8450SOL    HW136986   4.228   1.516  15.018  0.5134 -0.2108 -0.5019
 8450SOL    HW236987   4.353   1.578  15.052 -1.0512 -0.4443  2.3641
 8451SOL     OW36988   2.206   1.187  16.774  0.8040 -0.1339 -0.1209
 8451SOL    HW136989   2.234   1.246  16.704 -2.6254  1.8519  0.1733
 8451SOL    HW236990   2.264   1.114  16.750  2.6201  0.3050  3.0048
 8452SOL     OW36991   1.241   1.330   5.153 -0.3571 -0.2516  0.1033
 8452SOL    HW136992   1.289   1.265   5.101  0.8778  1.8824 -1.4173
 8452SOL    HW236993   1.164   1.276   5.172 -0.1014  0.1963  2.3934
 8453SOL     OW36994   1.836   0.310   2.066  0.0583 -0.0391 -0.3153
 8453SOL    HW136995   1.832   0.229   2.016 -4.6040  0.1616 -0.2035
 8453SOL    HW236996   1.772   0.360   2.015  2.7733  0.4549 -3.2682
 8454SOL     OW36997   1.000   3.414   5.046  0.7818  0.4560 -0.6311
 8454SOL    HW136998   1.072   3.352   5.056  0.7565  0.4801 -0.2942
 8454SOL    HW236999   1.041   3.490   5.088  0.5916 -0.1702  0.6778
 8455SOL     OW37000   4.512   4.580   3.353  0.2325  0.2009  0.5806
 8455SOL    HW137001   4.475   4.494   3.337 -0.9497  0.8810 -0.2939
 8455SOL    HW237002   4.440   4.642   3.339  1.1715  0.9877 -0.8385
 8456SOL     OW37003   0.581   4.420   3.884  0.6546  0.1901 -0.7432
 8456SOL    HW137004   0.595   4.384   3.796 -0.6404  2.6472 -1.9432
 8456SOL    HW237005   0.669   4.442   3.916 -0.1445 -0.8382  2.1561
 8457SOL     OW37006   3.632   0.417   2.274 -0.2044 -0.7610  0.1050
 8457SOL    HW137007   3.693   0.378   2.212 -0.9383 -1.1123 -0.3964
 8457SOL    HW237008   3.580   0.347   2.315  0.9240 -1.1360  0.8982
 8458SOL     OW37009   2.169   0.757  15.044 -0.2250  0.2299 -0.2337
 8458SOL    HW137010   2.214   0.738  15.126 -0.6343  1.7187  0.3449
 8458SOL    HW237011   2.190   0.850  15.033 -1.1638  0.6411  1.3009
 8459SOL     OW37012   2.355   2.573   7.397 -0.1854  0.2785  0.0116
 8459SOL    HW137013   2.435   2.521   7.399 -1.6186 -2.0288 -2.9484
 8459SOL    HW237014   2.401   2.648   7.435 -0.1537  0.5077 -0.4781
 8460SOL     OW37015   1.776   2.665   2.777  0.1421 -0.4904 -0.2847
 8460SOL    HW137016   1.811   2.731   2.837  0.5645 -0.8928 -0.0917
 8460SOL    HW237017   1.737   2.596   2.832  0.6365  0.4205  1.2035
 8461SOL     OW37018   4.350   2.673   0.625 -0.2099  0.0675  0.0040
 8461SOL    HW137019   4.267   2.643   0.662 -0.8654  1.0888 -0.6448
 8461SOL    HW237020   4.315   2.752   0.584 -1.8363 -0.7749 -0.1987
 8462SOL     OW37021   2.284   2.784   2.953  0.1380 -0.0795 -0.2745
 8462SOL    HW137022   2.250   2.869   2.926  0.1418  0.3698  1.1765
 8462SOL    HW237023   2.243   2.725   2.889  0.5442 -0.3394 -0.3019
 8463SOL     OW37024   1.944   3.056   2.116 -0.3263 -0.1180  0.0043
 8463SOL    HW137025   1.990   2.973   2.129  0.0965 -0.0169 -0.8346
 8463SOL    HW237026   2.000   3.090   2.046 -0.8628  1.2967  0.2656
 8464SOL     OW37027   0.351   0.074  13.490 -0.1411  0.0356 -0.5679
 8464SOL    HW137028   0.340   0.125  13.410 -1.3476  2.6838  1.2951
 8464SOL    HW237029   0.261   0.066  13.521 -0.4670 -0.3959 -1.6264
 8465SOL     OW37030   0.996   2.646   9.311 -0.2382  0.0337 -0.3058
 8465SOL    HW137031   0.988   2.681   9.222  1.0812 -1.1053 -0.8716
 8465SOL    HW237032   0.915   2.670   9.355  0.9771  0.3193  1.7805
 8466SOL     OW37033   3.721   0.950   6.422  0.5390  0.5388 -0.2640
 8466SOL    HW137034   3.787   1.018   6.409  0.5419  0.1388 -2.2158
 8466SOL    HW237035   3.711   0.947   6.518 -1.4990 -3.3887 -0.6131
 8467SOL     OW37036   3.806   2.573   9.393 -0.0508 -0.3269 -0.0519
 8467SOL    HW137037   3.871   2.590   9.460 -1.2701  1.9358  0.5714
 8467SOL    HW237038   3.843   2.592   9.307  0.0026  3.2815  0.7594
 8468SOL     OW37039   0.528   0.245   4.441  0.1404  0.0145 -0.4586
 8468SOL    HW137040   0.469   0.208   4.506  0.7816 -1.2813 -0.6009
 8468SOL    HW237041   0.606   0.269   4.492 -0.6783 -0.1288  0.8423
 8469SOL     OW37042   4.285   2.303   5.062 -0.3513 -0.0738 -0.0486
 8469SOL    HW137043   4.261   2.394   5.080  0.5174  0.5557 -2.0676
 8469SOL    HW237044   4.264   2.297   4.969  0.1182 -1.0926 -0.0880
 8470SOL     OW37045   3.672   1.722   6.202 -0.2543  0.3514  0.0363
 8470SOL    HW137046   3.611   1.794   6.185 -0.6500  0.2794  1.1318
 8470SOL    HW237047   3.614   1.657   6.241  0.4950 -0.4858 -0.2469
 8471SOL     OW37048   4.213   1.213   4.606 -0.2260  0.2396  0.4472
 8471SOL    HW137049   4.163   1.244   4.682  0.8620  0.5217  1.0498
 8471SOL    HW237050   4.204   1.288   4.547 -0.6012 -1.5503 -1.7579
 8472SOL     OW37051   3.326   3.239   6.416 -0.1047  0.9109 -0.1911
 8472SOL    HW137052   3.376   3.215   6.494 -0.8610  0.5081  0.1748
 8472SOL    HW237053   3.280   3.317   6.448 -0.1615  0.8942 -0.2319
 8473SOL     OW37054   2.856   4.211   7.086 -0.0506 -0.2371 -0.7580
 8473SOL    HW137055   2.872   4.179   7.175 -2.5673  0.2298 -0.1209
 8473SOL    HW237056   2.834   4.301   7.111  1.4420 -0.1217  0.1434
 8474SOL     OW37057   2.429   0.805  14.727  0.1133  0.2368  0.5286
 8474SOL    HW137058   2.405   0.792  14.636  1.6558 -1.7453  0.4107
 8474SOL    HW237059   2.420   0.721  14.773 -0.0319  0.3446  0.6974
 8475SOL     OW37060   0.479   1.413   8.307  0.2680 -0.7301  0.2758
 8475SOL    HW137061   0.545   1.344   8.314  0.5042 -0.5292  0.0138
 8475SOL    HW237062   0.398   1.364   8.294  0.6994 -2.0984  2.7514
 8476SOL     OW37063   3.167   1.902   5.890 -0.2710  0.1340  0.3226
 8476SOL    HW137064   3.126   1.864   5.812  0.4981  0.2612 -0.1424
 8476SOL    HW237065   3.131   1.990   5.886  3.1835  1.4198 -2.9890
 8477SOL     OW37066   0.317   4.246   3.641  0.1526 -0.0855  0.1875
 8477SOL    HW137067   0.314   4.172   3.701 -0.9456 -0.2943 -0.1136
 8477SOL    HW237068   0.226   4.274   3.653 -0.7414 -2.1014 -1.6896
 8478SOL     OW37069   0.147   0.024   2.205 -0.1728  0.1815 -0.4460
 8478SOL    HW137070   0.119   0.115   2.196 -0.6416  0.1079  0.2424
 8478SOL    HW237071   0.061   4.727   2.190 -0.8896  1.4633  0.2818
 8479SOL     OW37072   2.958   2.066   2.917 -0.0343  0.3532  0.4652
 8479SOL    HW137073   2.863   2.063   2.904 -0.0319  0.8234  0.3333
 8479SOL    HW237074   2.960   2.122   2.994  1.3441 -0.4361  1.0114
 8480SOL     OW37075   3.310   0.779   1.857 -0.1199 -0.2805  0.0754
 8480SOL    HW137076   3.255   0.812   1.928  1.5530  1.2528  0.6535
 8480SOL    HW237077   3.268   0.815   1.780 -0.2756 -0.7462 -0.0579
 8481SOL     OW37078   4.529   0.710   1.863 -0.3738 -0.4372 -0.2065
 8481SOL    HW137079   4.487   0.748   1.786 -0.1277 -1.5269 -0.8712
 8481SOL    HW237080   4.504   0.775   1.929 -0.0404  1.0291 -1.5398
 8482SOL     OW37081   3.343   2.354   4.814  0.1350 -0.1575  0.5730
 8482SOL    HW137082   3.320   2.267   4.781 -0.7137  0.7594 -1.2040
 8482SOL    HW237083   3.276   2.361   4.882  0.2462 -0.7565  0.7530
 8483SOL     OW37084   4.580   4.287   9.196  0.2094  0.1061  0.3709
 8483SOL    HW137085   4.500   4.240   9.173  1.2400 -1.4377 -0.0602
 8483SOL    HW237086   4.546   4.375   9.211 -0.3020 -0.2240  1.1743
 8484SOL     OW37087   4.037   3.327  12.453  0.1139 -0.0922 -0.8600
 8484SOL    HW137088   3.992   3.405  12.485  2.2356  1.3066 -1.2802
 8484SOL    HW237089   4.081   3.366  12.377 -2.6335 -0.8696 -2.8625
 8485SOL     OW37090   4.166   0.768  10.434  0.6452 -0.5160 -0.1308
 8485SOL    HW137091   4.179   0.807  10.520 -0.0221  2.6258 -1.4729
 8485SOL    HW237092   4.212   0.684  10.425  0.5213 -0.5782 -0.1961
 8486SOL     OW37093   0.433   0.380   7.190 -0.0276  0.4819  0.2699
 8486SOL    HW137094   0.476   0.326   7.256  1.1997 -0.7326 -1.5348
 8486SOL    HW237095   0.476   0.354   7.109 -1.7068 -0.4152 -0.3345
 8487SOL     OW37096   0.116   4.198   6.186  0.6538 -0.4867 -0.0265
 8487SOL    HW137097   0.103   4.284   6.147  2.5125  0.4040  1.3074
 8487SOL    HW237098   0.047   4.147   6.143  0.2130 -0.6185  0.8403
 8488SOL     OW37099   1.471   3.938   3.734  0.2504 -0.0085 -0.0924
 8488SOL    HW137100   1.503   3.965   3.820 -1.0734 -0.3585  0.5168
 8488SOL    HW237101   1.546   3.885   3.707  1.7823  0.5451  3.0972
 8489SOL     OW37102   4.290   0.066  15.603  0.0252  0.2258  0.5723
 8489SOL    HW137103   4.275   0.158  15.581  1.8228  0.5035  0.5730
 8489SOL    HW237104   4.293   0.072  15.699  1.9518  1.3435  0.4384
 8490SOL     OW37105   1.913   0.225   5.057  0.4386  0.1906 -0.1020
 8490SOL    HW137106   1.983   0.217   4.992  1.2809 -1.7263  1.0346
 8490SOL    HW237107   1.966   0.239   5.136  0.6802 -1.1703 -0.0130
 8491SOL     OW37108   0.318   4.223   5.144 -0.2550  0.0620 -0.4208
 8491SOL    HW137109   0.390   4.245   5.203  0.5543  1.3177 -1.8801
 8491SOL    HW237110   0.345   4.145   5.096 -0.3710 -0.7787  0.8743
 8492SOL     OW37111   4.397   0.782   4.073  0.6670 -0.0494  0.3181
 8492SOL    HW137112   4.447   0.728   4.012 -0.0944  0.5164 -0.8106
 8492SOL    HW237113   4.361   0.723   4.139 -0.6550 -0.0308 -0.3939
 8493SOL     OW37114   0.030   4.064   2.194  0.3477  0.2882  0.7030
 8493SOL    HW137115   0.062   4.097   2.278 -1.0492  0.2258  1.2544
 8493SOL    HW237116   4.679   4.075   2.209 -0.6001 -0.5688 -4.7939
 8494SOL     OW37117   3.141   4.455   0.604  0.2141  0.4871 -0.4283
 8494SOL    HW137118   3.088   4.435   0.527  2.7744  1.0807 -2.3532
 8494SOL    HW237119   3.184   4.535   0.573 -0.5857  0.2409 -2.2018
 8495SOL     OW37120   0.214   2.440   6.198  0.4200  0.1223 -0.0058
 8495SOL    HW137121   0.261   2.514   6.238  0.7886 -0.4394  0.6000
 8495SOL    HW237122   0.249   2.429   6.110 -1.2508  0.0321 -0.6561
 8496SOL     OW37123   0.685   1.737  10.434  0.0135 -0.2535 -0.2612
 8496SOL    HW137124   0.604   1.774  10.398  0.3131  1.0662  0.4168
 8496SOL    HW237125   0.661   1.644  10.428  0.9169 -0.5056  0.0716
 8497SOL     OW37126   2.754   1.711   4.489 -0.3629 -0.7578 -0.0265
 8497SOL    HW137127   2.832   1.728   4.542 -0.2696  0.5794 -0.5831
 8497SOL    HW237128   2.735   1.798   4.453  0.3154 -0.9920 -0.9279
 8498SOL     OW37129   0.526   1.607  16.364 -0.8317  0.1664 -0.1797
 8498SOL    HW137130   0.538   1.514  16.382  0.3249  0.3913  0.2547
 8498SOL    HW237131   0.614   1.638  16.387 -0.9635  1.6830 -1.7289
 8499SOL     OW37132   0.535   2.107   1.522  0.2397  0.0296 -0.1132
 8499SOL    HW137133   0.557   2.120   1.615  1.3640  0.0569 -0.3848
 8499SOL    HW237134   0.612   2.056   1.497 -1.5645 -2.0236 -1.5026
 8500SOL     OW37135   4.372   1.200  16.090  0.4367  0.1415  0.0491
 8500SOL    HW137136   4.445   1.246  16.132  0.6706 -0.5840  0.4485
 8500SOL    HW237137   4.380   1.221  15.997 -1.6732  0.7838  0.0131
 8501SOL     OW37138   1.848   0.646   6.626 -0.1175 -0.3724  0.4633
 8501SOL    HW137139   1.901   0.643   6.546 -0.5722  1.3791  0.1022
 8501SOL    HW237140   1.768   0.602   6.598  1.1072 -2.0111 -0.4497
 8502SOL     OW37141   0.165   3.422   0.887 -0.4569 -0.9235  0.6592
 8502SOL    HW137142   0.147   3.340   0.840 -0.1883 -0.0171 -1.0371
 8502SOL    HW237143   0.231   3.389   0.948  0.7614  0.1831 -0.0719
 8503SOL     OW37144   1.602   0.008  15.706  0.4407 -0.1267 -0.0362
 8503SOL    HW137145   1.509   0.018  15.727  0.3859  0.5614 -0.5626
 8503SOL    HW237146   1.641   4.741  15.792 -0.3562 -0.8836  0.2387
 8504SOL     OW37147   2.693   0.412  14.843 -0.5949  0.0073  0.4606
 8504SOL    HW137148   2.715   0.327  14.882  0.6115  0.8337  1.5956
 8504SOL    HW237149   2.696   0.474  14.915 -0.0237  1.5562 -0.9023
 8505SOL     OW37150   2.730   0.936   8.164  0.1631  0.7424  0.2055
 8505SOL    HW137151   2.667   0.867   8.184 -1.3993  2.1117 -0.0726
 8505SOL    HW237152   2.702   0.976   8.082  0.8288 -1.9793 -1.3660
 8506SOL     OW37153   4.255   1.233   5.817 -0.1359  0.1516 -0.4270
 8506SOL    HW137154   4.335   1.274   5.785 -0.1496  2.4543  2.4367
 8506SOL    HW237155   4.262   1.161   5.754 -1.0973 -0.7812  0.5392
 8507SOL     OW37156   4.144   2.153   2.004  0.1015  0.3567  0.1108
 8507SOL    HW137157   4.117   2.195   2.085  2.2930  1.0313  0.4864
 8507SOL    HW237158   4.236   2.137   2.023 -0.0830  1.0470  1.5316
 8508SOL     OW37159   4.297   0.866   6.124 -0.1858  0.2212 -0.4203
 8508SOL    HW137160   4.276   0.796   6.186  1.8452 -0.1325 -0.1037
 8508SOL    HW237161   4.338   0.923   6.189 -0.9429  0.4167 -0.1251
 8509SOL     OW37162   0.236   2.045   5.378 -0.3435 -0.4313 -0.0038
 8509SOL    HW137163   0.185   2.099   5.438  2.6305  2.9186 -0.5325
 8509SOL    HW237164   0.186   1.963   5.375  0.2487 -0.8329  0.9343
 8510SOL     OW37165   1.793   1.102  13.720  0.2259 -0.2856  0.2475
 8510SOL    HW137166   1.792   1.124  13.814  2.0554  1.2629 -0.0768
 8510SOL    HW237167   1.735   1.027  13.715 -0.8987  0.4780  1.9295
 8511SOL     OW37168   0.307   4.380  12.283  0.4498 -0.8173  0.4155
 8511SOL    HW137169   0.378   4.317  12.277  1.7198  0.7701 -1.2864
 8511SOL    HW237170   0.266   4.371  12.196  0.5057  0.1944  0.2845
 8512SOL     OW37171   1.013   2.001   1.226  0.2086 -0.5612  0.2749
 8512SOL    HW137172   0.945   1.943   1.190  0.2370 -1.4332  1.6470
 8512SOL    HW237173   0.974   2.087   1.240  0.6619 -0.8285  3.0936
 8513SOL     OW37174   1.393   2.659  13.703 -0.1967 -0.4100 -0.6361
 8513SOL    HW137175   1.392   2.728  13.769 -2.4288 -1.2816  0.2494
 8513SOL    HW237176   1.482   2.625  13.711  0.5716  1.2476 -1.9601
 8514SOL     OW37177   2.091   1.561   9.878  0.1258 -0.1552 -0.1945
 8514SOL    HW137178   2.132   1.499   9.939 -1.5263 -1.7001 -0.6441
 8514SOL    HW237179   2.144   1.639   9.897 -0.5375  0.0433  0.8338
 8515SOL     OW37180   3.659   1.273   1.385 -0.0576 -0.4001 -0.6115
 8515SOL    HW137181   3.659   1.214   1.460 -0.1972  0.8516  0.3608
 8515SOL    HW237182   3.729   1.331   1.414 -1.9169  1.3063  0.4387
 8516SOL     OW37183   0.011   1.217   3.713 -0.2598 -0.3885 -0.4290
 8516SOL    HW137184   0.014   1.312   3.728 -1.8775 -0.2137 -1.2036
 8516SOL    HW237185   0.055   1.190   3.793 -1.5092  0.2212  0.4601
 8517SOL     OW37186   0.397   3.235   6.772 -0.4874  0.1890 -0.4771
 8517SOL    HW137187   0.432   3.310   6.723 -0.8422  0.6111 -0.0848
 8517SOL    HW237188   0.415   3.256   6.863 -0.2949  1.8925 -0.9054
 8518SOL     OW37189   1.876   3.269  13.241  0.1124  0.0227 -0.1213
 8518SOL    HW137190   1.848   3.195  13.188 -2.4226  2.4102 -2.1409
 8518SOL    HW237191   1.790   3.304  13.265  1.0394  2.5681 -0.4841
 8519SOL     OW37192   3.545   2.496   3.080  0.1417 -0.1634  0.4513
 8519SOL    HW137193   3.601   2.515   3.005  0.7257  1.5573  1.3323
 8519SOL    HW237194   3.513   2.412   3.047  1.5931 -0.8781  0.8810
 8520SOL     OW37195   2.023   0.583  14.007 -0.0259 -0.3798  0.2511
 8520SOL    HW137196   2.010   0.650  14.074 -2.1362 -0.0207 -0.4971
 8520SOL    HW237197   2.037   0.633  13.926 -0.7298  0.7227  0.8216
 8521SOL     OW37198   2.331   2.070   1.580 -0.2670 -0.1761 -0.1778
 8521SOL    HW137199   2.356   1.978   1.586  1.8389  0.5776  2.4135
 8521SOL    HW237200   2.277   2.072   1.659  0.2678 -0.6781  0.1932
 8522SOL     OW37201   0.942   0.562  11.556 -0.2256  0.2795 -0.3951
 8522SOL    HW137202   0.961   0.585  11.647 -0.1939 -2.2955  0.2602
 8522SOL    HW237203   0.847   0.555  11.553 -0.0665 -2.4615  0.2282
 8523SOL     OW37204   2.357   3.836  13.172 -0.2996 -0.4864  0.0133
 8523SOL    HW137205   2.321   3.898  13.108 -1.7666 -1.1947  0.1674
 8523SOL    HW237206   2.301   3.761  13.154 -0.3898 -0.7041  1.2276
 8524SOL     OW37207   1.304   1.637  16.739 -0.2486 -0.3411  0.4610
 8524SOL    HW137208   1.217   1.626  16.699 -0.7522 -1.1724  1.7845
 8524SOL    HW237209   1.315   1.731  16.726 -2.6522 -0.0652  0.4628
 8525SOL     OW37210   0.611   0.751   9.433  0.3041 -0.3041  0.1432
 8525SOL    HW137211   0.527   0.788   9.407  0.1458 -0.2482  0.7410
 8525SOL    HW237212   0.628   0.693   9.359 -1.8251  0.9758 -1.3411
 8526SOL     OW37213   1.533   0.087   4.449 -0.4895  0.4557  0.0915
 8526SOL    HW137214   1.487   0.128   4.522  0.5271  0.3504  0.7837
 8526SOL    HW237215   1.560   0.162   4.395 -2.2593  2.5070  2.0673
 8527SOL     OW37216   4.460   0.026  14.155  0.7711 -0.1481 -0.7285
 8527SOL    HW137217   4.428   0.043  14.244  0.9146 -2.9100 -0.1662
 8527SOL    HW237218   4.538   0.082  14.154  1.5451 -1.2842 -3.5637
 8528SOL     OW37219   4.611   3.662   0.001 -0.7538 -0.2526  0.1282
 8528SOL    HW137220   4.535   3.680  17.712  0.7028  2.1730 -1.0952
 8528SOL    HW237221   4.670   3.625  17.701  0.1322 -1.9813  1.8956
 8529SOL     OW37222   4.688   3.988   3.323  0.2929  0.6547  0.0714
 8529SOL    HW137223   4.710   4.076   3.352 -0.2744  0.5206  0.8962
 8529SOL    HW237224   0.034   3.960   3.299  0.0644  1.9718 -2.2920
 8530SOL     OW37225   4.184   0.327  15.929  0.1632  0.1065  0.3526
 8530SOL    HW137226   4.209   0.244  15.887  0.2924 -0.4007  1.4158
 8530SOL    HW237227   4.248   0.329  16.000 -0.4973  2.6801  0.8669
 8531SOL     OW37228   3.451   3.183   6.647  0.8560 -0.1131  0.1763
 8531SOL    HW137229   3.430   3.108   6.702  0.2965  1.2503  1.8259
 8531SOL    HW237230   3.546   3.171   6.647  1.0298  1.1846 -0.4222
 8532SOL     OW37231   3.107   4.489   3.104  0.4174 -0.4776 -0.1472
 8532SOL    HW137232   3.026   4.540   3.111  0.6130  0.0115 -1.5486
 8532SOL    HW237233   3.164   4.543   3.157 -0.2711 -1.4569  1.6121
 8533SOL     OW37234   1.194   0.013  12.311  1.0880 -0.0072  0.1999
 8533SOL    HW137235   1.129   4.706  12.361 -0.9232  1.2056 -1.1683
 8533SOL    HW237236   1.134   0.077  12.272  2.8713  1.6948  0.2470
 8534SOL     OW37237   0.262   1.274   3.160 -0.4473 -0.1422  0.0984
 8534SOL    HW137238   0.171   1.305   3.166 -0.6685 -0.5394 -1.1270
 8534SOL    HW237239   0.285   1.320   3.079  2.3189  0.5751  1.3142
 8535SOL     OW37240   4.345   3.471   3.918 -0.2378 -0.8405 -0.0566
 8535SOL    HW137241   4.272   3.449   3.977 -0.4665  0.8865  0.2991
 8535SOL    HW237242   4.360   3.561   3.946  0.7020 -0.8112 -0.6619
 8536SOL     OW37243   3.362   0.067   4.194  0.1714  0.0211 -0.1686
 8536SOL    HW137244   3.409   4.726   4.199  1.1626  0.6641  1.1910
 8536SOL    HW237245   3.347   0.083   4.101  1.7584 -1.3425 -0.6641
 8537SOL     OW37246   0.933   0.804   1.749  0.0591  0.4439  0.1913
 8537SOL    HW137247   1.025   0.822   1.770  0.5683  0.3601 -1.8869
 8537SOL    HW237248   0.896   0.856   1.820 -0.0044 -1.8569  1.8216
 8538SOL     OW37249   0.025   2.066   4.955 -0.3625 -0.0183  0.0638
 8538SOL    HW137250   4.693   2.112   4.918 -0.6556  0.4961  1.2917
 8538SOL    HW237251   0.105   2.095   4.911 -1.0766  1.9257  0.0562
 8539SOL     OW37252   2.824   2.581  16.115  1.0743  0.6109 -0.0795
 8539SOL    HW137253   2.866   2.499  16.090 -1.7894 -1.1097  0.7698
 8539SOL    HW237254   2.767   2.555  16.187 -0.6339 -0.2332 -1.7513
 8540SOL     OW37255   0.258   3.697   2.456 -0.1617 -0.3886 -0.5526
 8540SOL    HW137256   0.193   3.700   2.527  0.7642  0.7980  0.2362
 8540SOL    HW237257   0.333   3.664   2.506 -1.2137 -1.5157  0.3044
 8541SOL     OW37258   2.718   4.497   0.361 -0.0020 -0.3174 -0.0099
 8541SOL    HW137259   2.695   4.543   0.441  0.8200  1.0402 -0.5486
 8541SOL    HW237260   2.812   4.512   0.358  0.1576 -1.2998  0.0613
 8542SOL     OW37261   3.636   1.008   5.923  0.1618  0.5191  0.4053
 8542SOL    HW137262   3.717   1.032   5.877  0.3989 -0.6807  0.1904
 8542SOL    HW237263   3.669   0.977   6.007 -0.1853  1.2270  0.7984
 8543SOL     OW37264   0.280   4.459   5.024 -0.3331  0.3552 -0.1150
 8543SOL    HW137265   0.301   4.372   5.060 -2.3732 -0.8783 -1.9175
 8543SOL    HW237266   0.214   4.436   4.959 -1.7758  1.3597  1.0236
 8544SOL     OW37267   4.045   1.747   7.650 -0.1805 -0.2841  0.7048
 8544SOL    HW137268   4.066   1.791   7.567  3.4678 -2.0072  0.7186
 8544SOL    HW237269   4.128   1.704   7.669 -0.7038 -2.2302 -1.4510
 8545SOL     OW37270   3.956   1.467   7.574 -0.3380 -0.8283  0.5882
 8545SOL    HW137271   3.957   1.561   7.593  0.3524 -1.3062  2.9606
 8545SOL    HW237272   3.895   1.444   7.644 -1.0862 -1.0673 -0.1468
 8546SOL     OW37273   3.782   2.008   6.147  0.5369 -0.0788  0.1658
 8546SOL    HW137274   3.835   2.087   6.157  0.8578 -0.1829 -0.7831
 8546SOL    HW237275   3.838   1.947   6.100 -0.0822  0.3907 -1.1848
 8547SOL     OW37276   2.487   0.817   9.751 -0.6806 -0.6463  0.1297
 8547SOL    HW137277   2.567   0.831   9.700 -2.3035 -0.5316 -2.3957
 8547SOL    HW237278   2.419   0.869   9.708  0.8742  1.6836  0.4995
 8548SOL     OW37279   0.950   3.637   2.358 -0.1031  0.1022 -0.1284
 8548SOL    HW137280   0.965   3.610   2.449 -1.6210  1.2126  0.4616
 8548SOL    HW237281   0.859   3.616   2.340 -0.0696  0.8876 -1.1988
 8549SOL     OW37282   0.879   3.266  12.085 -0.0176 -0.6339 -0.4756
 8549SOL    HW137283   0.858   3.173  12.078 -1.6307 -0.2375 -0.7955
 8549SOL    HW237284   0.883   3.283  12.179 -0.0045  0.9275 -0.7593
 8550SOL     OW37285   1.594   2.503   8.868 -0.6341 -0.1251 -0.0405
 8550SOL    HW137286   1.552   2.587   8.852 -2.3014 -0.9281  0.0277
 8550SOL    HW237287   1.674   2.537   8.906 -1.4389  0.8922  0.7330
 8551SOL     OW37288   1.800   2.087   7.892 -0.6016 -0.1350 -0.2291
 8551SOL    HW137289   1.786   2.175   7.926  1.6573  0.2508 -0.2697
 8551SOL    HW237290   1.708   2.071   7.871 -0.1181 -1.9435 -1.0135
 8552SOL     OW37291   3.633   0.813   7.824 -0.2701 -0.6027 -0.1691
 8552SOL    HW137292   3.617   0.719   7.837 -2.3107 -0.4678 -1.7498
 8552SOL    HW237293   3.645   0.849   7.912 -0.0624 -0.4264 -0.2691
 8553SOL     OW37294   1.822   4.585   7.921 -0.0742 -0.4830  0.6422
 8553SOL    HW137295   1.780   4.539   7.993  0.9469 -0.5860  1.1810
 8553SOL    HW237296   1.899   4.528   7.915  1.7658  1.7936  2.3644
 8554SOL     OW37297   0.363   1.169   1.348 -0.3952 -0.0808 -0.1103
 8554SOL    HW137298   0.312   1.241   1.388 -1.8353  0.0632 -2.1679
 8554SOL    HW237299   0.453   1.185   1.376 -0.7704 -0.4606  1.2747
 8555SOL     OW37300   0.405   2.518   3.395 -0.3824  0.1837 -0.2472
 8555SOL    HW137301   0.471   2.578   3.430 -0.4484  0.3541 -0.4133
 8555SOL    HW237302   0.376   2.560   3.314 -1.8185  0.2019  0.2760
 8556SOL     OW37303   1.596   3.366   6.953 -0.7136 -0.3714  0.7127
 8556SOL    HW137304   1.557   3.287   6.917 -0.2844  0.3013 -1.2880
 8556SOL    HW237305   1.685   3.370   6.919 -0.9654 -0.3713  0.0523
 8557SOL     OW37306   4.392   3.497  10.717 -0.6390  0.0315  0.0697
 8557SOL    HW137307   4.417   3.574  10.768  0.1505 -0.5859  0.6224
 8557SOL    HW237308   4.418   3.518  10.627 -0.2129  2.1272  0.6850
 8558SOL     OW37309   4.661   4.338  16.802 -0.2463 -0.1286  0.0197
 8558SOL    HW137310   4.641   4.428  16.829 -1.9305 -0.3684 -0.4247
 8558SOL    HW237311   4.733   4.343  16.739  0.4038  0.3317  0.8067
 8559SOL     OW37312   3.933   0.134   3.238 -0.0525  0.0561 -0.0637
 8559SOL    HW137313   3.909   0.051   3.197  0.8889 -0.2418 -0.0096
 8559SOL    HW237314   3.882   0.196   3.186 -0.0553  0.4831  0.4540
 8560SOL     OW37315   3.150   3.360   9.286 -0.5439  0.5029 -0.1257
 8560SOL    HW137316   3.059   3.329   9.285 -0.7137  0.9907 -0.0658
 8560SOL    HW237317   3.137   3.453   9.265 -0.1116  0.3447 -1.1090
 8561SOL     OW37318   1.507   2.774  16.116 -0.0664  0.1606  0.3664
 8561SOL    HW137319   1.519   2.678  16.118 -0.6548  0.1028  1.1996
 8561SOL    HW237320   1.413   2.783  16.108  0.0982  0.7431 -0.8331
 8562SOL     OW37321   3.339   0.541   7.793  0.2115 -0.7454 -0.1302
 8562SOL    HW137322   3.351   0.578   7.881  0.4776  0.5833 -0.7284
 8562SOL    HW237323   3.256   0.580   7.765  0.0959 -0.3393  0.7609
 8563SOL     OW37324   1.925   2.492   9.258  0.3497 -0.4153  0.5128
 8563SOL    HW137325   1.841   2.447   9.256  1.0022 -1.5152 -1.9305
 8563SOL    HW237326   1.986   2.434   9.212  0.2408  0.3321 -0.5740
 8564SOL     OW37327   1.610   4.706  16.897  0.4957 -0.1422 -0.4971
 8564SOL    HW137328   1.652   4.670  16.975  1.6674  1.8990 -0.1953
 8564SOL    HW237329   1.686   4.699  16.839  0.3851 -1.1025 -0.5326
 8565SOL     OW37330   1.413   4.636   5.939 -0.2099 -0.0626 -0.1172
 8565SOL    HW137331   1.501   4.655   5.909  0.6163  0.6916  2.7799
 8565SOL    HW237332   1.437   4.583   6.015  1.6791  1.8798  0.6066
 8566SOL     OW37333   2.141   2.599   2.331  0.5137  0.3385  0.1932
 8566SOL    HW137334   2.081   2.566   2.398 -2.8341  0.3679 -2.8216
 8566SOL    HW237335   2.109   2.553   2.254 -0.0543 -0.5578  0.9736
 8567SOL     OW37336   4.149   1.586   1.928 -0.6527 -0.1110 -0.2212
 8567SOL    HW137337   4.184   1.501   1.900 -0.5347  0.2893 -1.2835
 8567SOL    HW237338   4.095   1.549   1.998  0.9406 -2.6645 -0.3037
 8568SOL     OW37339   0.383   3.077   2.144 -0.0737  0.5009 -0.0648
 8568SOL    HW137340   0.298   3.096   2.184 -0.9884 -0.6873 -1.4611
 8568SOL    HW237341   0.376   3.100   2.051 -1.4385 -0.8283 -0.2740
 8569SOL     OW37342   3.054   1.264   8.249 -0.1516  0.0240  0.2693
 8569SOL    HW137343   3.023   1.175   8.264 -0.7975 -0.1220 -2.0150
 8569SOL    HW237344   3.060   1.272   8.154 -3.9510 -0.1776  0.0220
 8570SOL     OW37345   1.463   2.575   0.550 -0.1745 -0.2842  0.0232
 8570SOL    HW137346   1.464   2.512   0.622  0.2474  0.6955  0.8759
 8570SOL    HW237347   1.457   2.657   0.600 -0.0842  0.4944 -1.2530
 8571SOL     OW37348   4.605   4.283  15.744 -0.4182 -0.1538  0.2597
 8571SOL    HW137349   4.643   4.325  15.667  3.4292 -1.1064  1.6218
 8571SOL    HW237350   4.683   4.291  15.799 -0.4904 -0.4196  0.4038
 8572SOL     OW37351   0.498   1.302   7.188 -0.0464  0.6702  0.1268
 8572SOL    HW137352   0.462   1.389   7.172 -1.9680 -0.5206 -2.0635
 8572SOL    HW237353   0.590   1.317   7.167 -0.1011  0.6281 -0.1413
 8573SOL     OW37354   0.370   3.551   8.597  0.2636 -0.6875 -0.1439
 8573SOL    HW137355   0.416   3.624   8.557 -3.1558  1.3359 -0.3471
 8573SOL    HW237356   0.283   3.589   8.601  1.3700  1.8689 -0.3432
 8574SOL     OW37357   3.473   2.424  10.253 -0.5670 -0.0263  0.4569
 8574SOL    HW137358   3.541   2.374  10.297  0.5002  1.6884  0.7517
 8574SOL    HW237359   3.461   2.496  10.314  1.3861 -0.4348  1.3067
 8575SOL     OW37360   1.491   3.777   4.766 -0.7476  0.0299  0.1356
 8575SOL    HW137361   1.584   3.790   4.748 -1.3925  1.5981 -2.1160
 8575SOL    HW237362   1.447   3.831   4.700 -0.6621 -0.1374 -0.0564
 8576SOL     OW37363   2.685   2.168  14.106  0.4581 -0.0427  0.1883
 8576SOL    HW137364   2.677   2.097  14.043 -0.8697  1.2987 -1.1564
 8576SOL    HW237365   2.605   2.220  14.094  0.2478 -0.6333 -0.9810
 8577SOL     OW37366   2.963   4.376   5.714 -0.1670 -0.0922 -0.0881
 8577SOL    HW137367   2.979   4.285   5.741 -0.5624 -0.3779 -0.7958
 8577SOL    HW237368   3.036   4.424   5.752  0.5792 -1.0454 -0.3247
 8578SOL     OW37369   4.345   2.361  14.420  0.3819 -0.1587 -0.3189
 8578SOL    HW137370   4.317   2.270  14.430  2.0814 -0.5234  1.1683
 8578SOL    HW237371   4.414   2.373  14.486  0.0356  1.6955 -0.2923
 8579SOL     OW37372   2.254   4.245  13.030 -0.1833  0.0124  0.2012
 8579SOL    HW137373   2.329   4.236  13.089  1.1599 -0.0529 -1.5483
 8579SOL    HW237374   2.258   4.164  12.980  0.4110  1.6728 -2.4029
 8580SOL     OW37375   4.085   1.477   9.642  0.6140  0.3837 -0.3596
 8580SOL    HW137376   4.157   1.418   9.664  0.4008  1.0220  2.0202
 8580SOL    HW237377   4.116   1.501   9.555 -1.4456  1.0603 -0.8916
 8581SOL     OW37378   4.169   2.166   9.276  0.2521  0.1735  0.5715
 8581SOL    HW137379   4.093   2.142   9.222  0.9015  0.1316 -0.3263
 8581SOL    HW237380   4.137   2.127   9.357  0.1318 -0.0200  0.4326
 8582SOL     OW37381   0.436   3.505   1.254  0.2780  0.1271  0.4659
 8582SOL    HW137382   0.469   3.450   1.326  0.3629  0.2006  0.4832
 8582SOL    HW237383   0.360   3.453   1.228  1.1623 -1.0778  0.2698
 8583SOL     OW37384   4.234   4.165   9.470 -0.2319  0.0675 -0.4992
 8583SOL    HW137385   4.240   4.217   9.550 -2.1203  2.5185 -1.9461
 8583SOL    HW237386   4.141   4.141   9.467 -0.3420  0.1691  1.7685
 8584SOL     OW37387   2.586   0.217   9.986 -0.4841  0.3742 -0.6147
 8584SOL    HW137388   2.622   0.193  10.071  0.3930  1.7940 -0.5709
 8584SOL    HW237389   2.492   0.202   9.998 -0.4731 -0.5908 -1.7912
 8585SOL     OW37390   1.389   0.261   8.072 -0.4111  0.6523  0.2530
 8585SOL    HW137391   1.308   0.214   8.053 -0.2296 -0.1480  1.5232
 8585SOL    HW237392   1.367   0.351   8.046 -0.9681  0.8951  1.5744
 8586SOL     OW37393   3.678   4.350   5.825  0.4079 -0.0176 -0.0366
 8586SOL    HW137394   3.633   4.427   5.860 -2.5979 -0.0388 -3.9102
 8586SOL    HW237395   3.605   4.294   5.798  0.7533 -0.3205 -0.3302
 8587SOL     OW37396   4.183   1.453   3.542  0.2055 -0.2898  0.2321
 8587SOL    HW137397   4.234   1.466   3.462 -1.2817  3.4545 -0.1062
 8587SOL    HW237398   4.095   1.440   3.507  0.4110 -2.0907  0.3583
 8588SOL     OW37399   3.073   1.832  14.434 -0.4247  1.0225 -0.9117
 8588SOL    HW137400   2.983   1.801  14.423 -0.4432  1.3388 -1.6492
 8588SOL    HW237401   3.060   1.904  14.496  1.7555 -1.2824  2.2477
 8589SOL     OW37402   3.567   4.342   5.488 -0.2210  0.5442 -0.1237
 8589SOL    HW137403   3.623   4.285   5.541  1.4749  0.5267 -1.9679
 8589SOL    HW237404   3.613   4.426   5.492  0.3338  0.1559  1.6362
 8590SOL     OW37405   1.639   0.032   0.307 -0.0428  0.2787 -0.0829
 8590SOL    HW137406   1.603   0.120   0.316 -0.3257  0.3293 -1.6654
 8590SOL    HW237407   1.602   0.010   0.221 -0.5155  0.3911  0.0913
 8591SOL     OW37408   3.106   0.878   7.996 -0.0722 -0.1482  0.0562
 8591SOL    HW137409   3.160   0.929   7.936  0.5703 -0.7018  0.1631
 8591SOL    HW237410   3.180   0.852   8.050 -0.8653 -2.6438 -0.0461
 8592SOL     OW37411   3.445   4.182   5.793  0.1029  0.1275 -0.5574
 8592SOL    HW137412   3.382   4.202   5.724 -1.9325  0.4863  1.3961
 8592SOL    HW237413   3.380   4.198   5.861 -0.2482 -2.7888 -0.2237
 8593SOL     OW37414   3.257   1.686   5.076 -0.2299 -0.7215  0.0644
 8593SOL    HW137415   3.300   1.606   5.107  1.1008  0.0146  0.1163
 8593SOL    HW237416   3.304   1.752   5.128  1.5850 -1.8430 -0.1239
 8594SOL     OW37417   1.004   4.350  16.604 -0.1106 -0.6092 -0.2642
 8594SOL    HW137418   1.085   4.397  16.624 -0.7586  0.5300 -0.3306
 8594SOL    HW237419   1.016   4.300  16.523 -0.1942  0.1355 -0.7323
 8595SOL     OW37420   2.540   4.148  11.043 -0.2600  0.2923  0.1019
 8595SOL    HW137421   2.459   4.111  11.078 -0.6406  1.1401  0.1139
 8595SOL    HW237422   2.599   4.101  11.102  1.2792 -0.7060 -2.2284
 8596SOL     OW37423   1.778   4.239  11.283 -0.3390 -0.4334 -0.4788
 8596SOL    HW137424   1.716   4.265  11.215 -0.0102  1.6898  0.0594
 8596SOL    HW237425   1.829   4.319  11.291 -1.4689  0.3877 -1.5533
 8597SOL     OW37426   2.198   4.253   6.244  0.5801 -0.3849  0.0640
 8597SOL    HW137427   2.209   4.305   6.165  0.2918 -0.6099 -0.1211
 8597SOL    HW237428   2.113   4.272   6.282  0.7466  1.2081 -0.3811
 8598SOL     OW37429   1.441   0.729   5.979  0.2392 -0.1531 -0.1039
 8598SOL    HW137430   1.365   0.689   6.022  0.1072 -0.2700 -0.4433
 8598SOL    HW237431   1.439   0.809   6.031  2.0434 -0.2248  0.0560
 8599SOL     OW37432   0.692   2.086  10.747 -0.5790  0.2597  0.3027
 8599SOL    HW137433   0.645   2.003  10.740 -0.5817  0.3450 -0.7727
 8599SOL    HW237434   0.659   2.120  10.830  1.0556 -1.1092  1.4908
 8600SOL     OW37435   4.471   0.896   2.196 -0.2542  0.1662 -0.4543
 8600SOL    HW137436   4.401   0.895   2.261 -0.3080 -1.3820 -0.5514
 8600SOL    HW237437   4.550   0.916   2.246 -0.2171  1.7613 -1.1536
 8601SOL     OW37438   0.763   4.064   5.744  0.2068  0.0892  0.2173
 8601SOL    HW137439   0.696   4.075   5.812 -0.1373 -2.1856  0.2304
 8601SOL    HW237440   0.827   4.131   5.769  0.9886 -0.0320 -1.4841
 8602SOL     OW37441   0.408   4.687   7.745  0.8154  0.6829 -0.1652
 8602SOL    HW137442   0.328   4.684   7.693  1.4684 -0.2456 -1.1060
 8602SOL    HW237443   0.475   4.711   7.682  0.6250 -1.0122 -0.9953
 8603SOL     OW37444   0.709   2.571  11.814 -0.2759 -0.5907  0.6476
 8603SOL    HW137445   0.651   2.495  11.816 -1.9007  0.6092  0.1415
 8603SOL    HW237446   0.789   2.535  11.777  0.4184  1.1711  0.4301
 8604SOL     OW37447   0.881   3.545  14.878 -0.1615 -0.0240 -0.5995
 8604SOL    HW137448   0.907   3.454  14.891 -3.3954 -0.5215  2.3740
 8604SOL    HW237449   0.893   3.558  14.784  0.7324  1.4960 -0.2650
 8605SOL     OW37450   4.353   3.332   9.467  0.0696 -0.2157  0.6110
 8605SOL    HW137451   4.317   3.313   9.553 -0.6480 -1.0212  0.1347
 8605SOL    HW237452   4.293   3.404   9.444  0.6162  0.0619  0.0432
 8606SOL     OW37453   0.027   0.736   9.448  0.2509 -0.4288  0.0208
 8606SOL    HW137454   4.721   0.774   9.521  0.4393 -1.3986  0.6569
 8606SOL    HW237455   0.006   0.786   9.370 -1.3043 -0.0880  0.6561
 8607SOL     OW37456   4.687   1.364   3.346  0.0450 -0.7220 -0.0299
 8607SOL    HW137457   4.643   1.302   3.289 -0.7767 -0.4696  0.3323
 8607SOL    HW237458   4.726   1.426   3.285 -1.5938 -0.3835 -0.7264
 8608SOL     OW37459   3.702   1.133  13.210 -0.5135  0.4025  0.2384
 8608SOL    HW137460   3.733   1.223  13.220 -0.8095  0.5905 -0.5485
 8608SOL    HW237461   3.681   1.131  13.304 -1.3685 -1.1467  0.0023
 8609SOL     OW37462   2.341   0.158   1.717 -0.0950 -0.2070  0.3927
 8609SOL    HW137463   2.331   0.165   1.811 -3.2954 -0.0100  0.0309
 8609SOL    HW237464   2.253   0.181   1.689  0.1178 -0.3794 -0.4462
 8610SOL     OW37465   2.367   3.091   8.278  0.3530 -0.1371  0.1398
 8610SOL    HW137466   2.275   3.069   8.264  0.0367  0.8163  0.6965
 8610SOL    HW237467   2.411   3.055   8.201 -0.0286  1.3726 -0.7802
 8611SOL     OW37468   0.333   1.683   9.135  0.3142  0.1989 -0.0084
 8611SOL    HW137469   0.428   1.672   9.139  0.1377 -1.2414  0.3628
 8611SOL    HW237470   0.305   1.601   9.093  0.1227  0.1915  0.1318
 8612SOL     OW37471   1.302   2.029   7.041  0.2305  0.0104  0.0184
 8612SOL    HW137472   1.261   2.113   7.023 -0.6771 -0.8216 -1.8933
 8612SOL    HW237473   1.384   2.067   7.071  1.8652 -2.2659 -1.5659
 8613SOL     OW37474   1.241   1.503  15.117  0.5004  0.1324  0.5171
 8613SOL    HW137475   1.222   1.462  15.032  2.2921 -0.7879  0.5552
 8613SOL    HW237476   1.330   1.471  15.132  0.8999  1.3277  0.7061
 8614SOL     OW37477   1.369   0.074   5.084 -0.3221 -0.7665 -0.0896
 8614SOL    HW137478   1.353   0.163   5.051 -1.2049 -1.0616 -0.4483
 8614SOL    HW237479   1.454   0.093   5.123 -0.1118 -0.7550 -0.5617
 8615SOL     OW37480   0.518   4.287   3.484 -0.5842 -0.0956 -0.3100
 8615SOL    HW137481   0.544   4.378   3.498  1.5724 -1.0046  1.5854
 8615SOL    HW237482   0.443   4.292   3.544  0.4874  0.0417  1.0210
 8616SOL     OW37483   1.274   2.934   7.139 -0.0319 -0.1985 -0.0352
 8616SOL    HW137484   1.364   2.964   7.127  0.1216 -1.1974 -1.4625
 8616SOL    HW237485   1.267   2.952   7.232  1.0508 -1.1454  0.2237
 8617SOL     OW37486   1.294   1.321  17.346  0.1688 -0.0474 -0.0873
 8617SOL    HW137487   1.232   1.387  17.377  1.2404  1.1129 -0.4684
 8617SOL    HW237488   1.246   1.241  17.369  1.2335 -0.3461  1.0787
 8618SOL     OW37489   4.306   1.795   3.606  0.5961  0.0874 -0.5107
 8618SOL    HW137490   4.307   1.864   3.672 -1.1844 -1.1023  0.7530
 8618SOL    HW237491   4.234   1.744   3.641  1.3294  0.4023  1.4416
 8619SOL     OW37492   4.179   2.096   3.935  0.1367  0.4751  1.0266
 8619SOL    HW137493   4.148   2.007   3.947  1.6710  0.2543  3.3549
 8619SOL    HW237494   4.244   2.072   3.870 -2.0988 -0.3921 -0.8863
 8620SOL     OW37495   1.232   0.040   6.092 -0.1794  0.1136 -0.0159
 8620SOL    HW137496   1.287   0.011   6.019 -1.3089 -1.7809 -0.1243
 8620SOL    HW237497   1.190   4.698   6.111  1.4437 -1.1341 -1.9414
 8621SOL     OW37498   4.533   3.164   1.249 -0.5581 -0.0051  0.3762
 8621SOL    HW137499   4.515   3.094   1.311 -1.2426  1.1911  1.5179
 8621SOL    HW237500   4.616   3.205   1.274 -1.0343  0.7648  0.6806
 8622SOL     OW37501   2.109   2.084  10.960  0.1749  0.4086 -0.2793
 8622SOL    HW137502   2.101   1.989  10.960  0.4674  0.3844  1.0881
 8622SOL    HW237503   2.016   2.103  10.975  0.0409 -0.4587 -0.0123
 8623SOL     OW37504   3.536   4.220   7.940  0.3068  0.2440 -0.2310
 8623SOL    HW137505   3.545   4.173   8.023  0.5215 -0.9552 -0.9356
 8623SOL    HW237506   3.443   4.210   7.919  0.4668 -3.0540  0.5785
 8624SOL     OW37507   1.676   2.426   6.236 -0.3042  0.2856 -0.3842
 8624SOL    HW137508   1.671   2.411   6.142 -0.3765 -1.3027 -0.1393
 8624SOL    HW237509   1.706   2.345   6.277 -0.2644  1.6250  2.2381
 8625SOL     OW37510   0.107   0.422   6.260  0.2554  0.3096  0.3400
 8625SOL    HW137511   0.150   0.345   6.297  0.8237 -0.1040 -1.1909
 8625SOL    HW237512   0.149   0.490   6.313 -0.0510  0.2915  0.6127
 8626SOL     OW37513   1.623   0.567   7.864  0.2866  0.4105  0.3459
 8626SOL    HW137514   1.628   0.521   7.781  2.8419 -1.9370  1.7841
 8626SOL    HW237515   1.632   0.659   7.839 -0.0613  0.0485 -1.1002
 8627SOL     OW37516   3.026   3.359  17.434  0.0803 -0.3605 -0.2231
 8627SOL    HW137517   3.017   3.435  17.491 -0.0675  1.3994 -2.5974
 8627SOL    HW237518   2.974   3.294  17.482  1.0204 -1.4571 -0.6915
 8628SOL     OW37519   1.270   4.737  15.815 -0.2240 -0.1485  0.2450
 8628SOL    HW137520   1.290   4.647  15.791 -1.9310 -0.8860  1.5501
 8628SOL    HW237521   1.193   0.016  15.762 -0.4541  0.8591  0.9927
 8629SOL     OW37522   1.767   4.198   5.977 -0.1963  0.1968 -0.1435
 8629SOL    HW137523   1.743   4.214   5.886  2.7197 -1.2800 -1.1607
 8629SOL    HW237524   1.699   4.257   6.010  0.3382  0.5202  0.3724
 8630SOL     OW37525   0.552   2.340   4.697  0.6036 -0.0884 -0.2888
 8630SOL    HW137526   0.533   2.251   4.725  0.4177 -0.9139 -2.9853
 8630SOL    HW237527   0.644   2.337   4.723 -0.1023 -1.4872  2.0730
 8631SOL     OW37528   0.894   0.794  11.249  0.2666  0.0505  0.2589
 8631SOL    HW137529   0.977   0.824  11.287 -0.8643  0.6389  2.3033
 8631SOL    HW237530   0.930   0.794  11.161  1.1951 -1.5185  0.6397
 8632SOL     OW37531   2.634   1.651  17.355 -1.0752 -0.1575 -0.0478
 8632SOL    HW137532   2.590   1.722  17.402  1.0162  0.0804  1.5414
 8632SOL    HW237533   2.640   1.584  17.424  0.9134  0.9792  0.8726
 8633SOL     OW37534   1.743   1.726   3.808 -0.0156 -0.6970 -0.4318
 8633SOL    HW137535   1.802   1.698   3.738 -0.2571  0.8132 -1.2207
 8633SOL    HW237536   1.778   1.808   3.843 -0.6249 -0.1000 -1.2457
 8634SOL     OW37537   0.466   1.813   8.655 -0.2420 -0.9238 -0.4003
 8634SOL    HW137538   0.407   1.825   8.730 -1.1651 -2.4469 -0.8690
 8634SOL    HW237539   0.533   1.755   8.692 -0.1617 -1.1527 -0.9143
 8635SOL     OW37540   2.543   0.277   8.345  0.6235 -0.5356 -0.2025
 8635SOL    HW137541   2.454   0.261   8.314  0.4437  0.1359 -0.0116
 8635SOL    HW237542   2.548   0.370   8.366 -2.2569 -0.5701  0.6393
 8636SOL     OW37543   3.370   4.047   4.822  0.5009  0.4100  0.0896
 8636SOL    HW137544   3.278   4.036   4.845  0.2804 -1.5642 -1.7812
 8636SOL    HW237545   3.373   4.139   4.850  3.4198  1.0281 -2.1806
 8637SOL     OW37546   1.311   4.442   7.571  0.0300  0.3805  0.0952
 8637SOL    HW137547   1.350   4.523   7.606  0.7832 -0.2551  0.7372
 8637SOL    HW237548   1.286   4.400   7.654 -2.0357 -0.6171 -1.0415
 8638SOL     OW37549   2.899   2.263  14.282 -1.0311 -0.5839  0.1370
 8638SOL    HW137550   2.870   2.353  14.269 -0.6125 -0.6402 -1.1163
 8638SOL    HW237551   2.843   2.219  14.218  0.1607 -1.1211 -0.5463
 8639SOL     OW37552   2.739   1.596   7.573 -0.1993 -0.0343 -0.4765
 8639SOL    HW137553   2.827   1.631   7.587  0.0628 -0.9693  0.1831
 8639SOL    HW237554   2.690   1.678   7.573  0.1699  0.1923  0.2898
 8640SOL     OW37555   2.149   3.070   7.902  0.1529 -0.0585  0.1890
 8640SOL    HW137556   2.149   3.078   7.806  0.2370 -0.6225  0.1388
 8640SOL    HW237557   2.197   3.145   7.936 -0.5632  0.2635  0.5025
 8641SOL     OW37558   3.454   4.486  13.841  0.2300 -0.6367 -0.1777
 8641SOL    HW137559   3.407   4.556  13.795 -0.9232  0.6165  2.9321
 8641SOL    HW237560   3.528   4.537  13.876 -0.2669 -0.4963  0.6658
 8642SOL     OW37561   3.819   3.494   1.502  0.1778  0.4794 -0.1400
 8642SOL    HW137562   3.873   3.517   1.578  1.0940  0.6677 -0.8425
 8642SOL    HW237563   3.882   3.462   1.438  0.2578  2.5202 -1.0513
 8643SOL     OW37564   4.184   0.676   6.343  0.1512 -0.2443  0.2747
 8643SOL    HW137565   4.124   0.619   6.296  0.4405  0.8661 -1.4227
 8643SOL    HW237566   4.169   0.644   6.432  0.3053  2.8551  1.4291
 8644SOL     OW37567   4.097   0.201   6.106 -0.5156  0.0539 -0.5148
 8644SOL    HW137568   4.104   0.105   6.111  0.1531  0.0296 -1.8544
 8644SOL    HW237569   4.110   0.220   6.013  3.3697 -1.4629 -0.2723
 8645SOL     OW37570   1.443   3.555   1.797  0.5730  0.2346 -0.1595
 8645SOL    HW137571   1.364   3.600   1.827  0.5618 -0.4162  0.8097
 8645SOL    HW237572   1.418   3.465   1.818  1.3793 -0.0824 -0.5505
 8646SOL     OW37573   0.133   3.377   6.232  0.7499  0.1527  0.2039
 8646SOL    HW137574   0.067   3.445   6.242 -0.5976 -0.9907 -1.0969
 8646SOL    HW237575   0.072   3.304   6.226  0.2449  0.3541  2.9765
 8647SOL     OW37576   0.733   3.551   4.008  0.2420 -0.3781 -0.2348
 8647SOL    HW137577   0.696   3.590   3.929  1.1016 -0.5205 -0.7066
 8647SOL    HW237578   0.671   3.484   4.036 -0.6483  0.1246 -1.0022
 8648SOL     OW37579   4.218   3.290   7.396 -0.0073  0.4874  0.0769
 8648SOL    HW137580   4.275   3.259   7.325 -0.9527  1.3910 -1.0790
 8648SOL    HW237581   4.151   3.330   7.340 -1.2423  0.4040  1.4958
 8649SOL     OW37582   4.427   3.119  12.192 -0.4134  0.0768 -0.2234
 8649SOL    HW137583   4.366   3.168  12.137  0.6398  1.5240 -0.0861
 8649SOL    HW237584   4.481   3.190  12.225 -0.8563  0.9533 -1.3966
 8650SOL     OW37585   2.464   3.182   8.861 -0.1105 -0.6591  0.2268
 8650SOL    HW137586   2.472   3.275   8.838 -0.3877 -0.7751 -0.3433
 8650SOL    HW237587   2.519   3.152   8.789  0.6408  0.0908  0.4859
 8651SOL     OW37588   4.142   4.095   4.890  0.3134  0.2761 -0.2864
 8651SOL    HW137589   4.051   4.102   4.919 -0.2373 -0.8986 -1.7461
 8651SOL    HW237590   4.138   4.176   4.840  1.7887  0.7999  0.4464
 8652SOL     OW37591   3.835   0.991  10.410 -0.3299 -0.0896  0.0082
 8652SOL    HW137592   3.867   0.929  10.344  1.3587  0.6305  0.1460
 8652SOL    HW237593   3.824   0.930  10.482 -1.5951  0.2762  0.1154
 8653SOL     OW37594   1.792   4.579   4.262  0.2397  0.6404 -0.4823
 8653SOL    HW137595   1.832   4.661   4.291  0.5587  0.2873  0.0744
 8653SOL    HW237596   1.770   4.596   4.170 -0.8813  2.0117  0.0257
 8654SOL     OW37597   4.440   1.954   1.629  0.8962 -0.8237  0.0441
 8654SOL    HW137598   4.512   2.006   1.594  1.6974 -2.4335 -0.7103
 8654SOL    HW237599   4.471   1.924   1.714 -0.9538 -0.4214  0.8626
 8655SOL     OW37600   2.840   3.430   5.596 -0.3878  0.5777 -0.0705
 8655SOL    HW137601   2.936   3.431   5.599 -0.3482  0.0348 -1.0197
 8655SOL    HW237602   2.828   3.503   5.536  2.3117 -0.5930 -2.0749
 8656SOL     OW37603   1.237   1.254   3.733 -0.2699  0.6028 -0.0693
 8656SOL    HW137604   1.320   1.262   3.780 -0.4625  2.2061 -0.0009
 8656SOL    HW237605   1.169   1.261   3.801  0.7236 -1.5624  1.1585
 8657SOL     OW37606   1.073   2.456   0.299 -0.3740  0.2594 -0.2237
 8657SOL    HW137607   0.987   2.474   0.336  0.0428  2.5424 -0.3821
 8657SOL    HW237608   1.138   2.485   0.363 -0.7074  0.3439  0.0772
 8658SOL     OW37609   3.161   1.387   2.588 -0.3619 -0.1661  0.1214
 8658SOL    HW137610   3.183   1.401   2.496 -0.7130 -1.4485 -0.1532
 8658SOL    HW237611   3.075   1.430   2.588  0.4536  1.4916 -1.6276
 8659SOL     OW37612   2.923   4.130   2.419  0.3046  0.3759 -0.4238
 8659SOL    HW137613   2.938   4.139   2.513  0.8770 -2.9245 -0.2354
 8659SOL    HW237614   2.840   4.179   2.418 -0.2216 -0.5461 -0.9225
 8660SOL     OW37615   3.668   1.003   7.386 -0.2166  0.5148  0.0758
 8660SOL    HW137616   3.637   0.912   7.392 -0.1824  0.3641 -2.2183
 8660SOL    HW237617   3.712   1.015   7.471  0.5800  0.9487 -0.4023
 8661SOL     OW37618   2.670   0.547   4.501 -0.0806 -0.0362  0.4927
 8661SOL    HW137619   2.735   0.583   4.440 -1.1360  1.1817  0.0902
 8661SOL    HW237620   2.721   0.529   4.580 -1.2745  0.2014  1.3078
 8662SOL     OW37621   4.468   0.799   8.424 -0.1240  0.3636  0.7212
 8662SOL    HW137622   4.390   0.839   8.462  1.2253  1.8081  1.9713
 8662SOL    HW237623   4.434   0.713   8.402  1.2562 -0.3807  1.5200
 8663SOL     OW37624   3.507   2.485   6.177 -0.0727  0.5988 -0.1940
 8663SOL    HW137625   3.537   2.396   6.160 -2.6054 -0.2162 -0.4382
 8663SOL    HW237626   3.569   2.539   6.127  0.0579  0.1910 -0.4659
 8664SOL     OW37627   2.673   0.410   1.956 -0.1573 -0.0292 -0.5035
 8664SOL    HW137628   2.603   0.374   2.011 -0.7474 -0.4304 -1.5220
 8664SOL    HW237629   2.628   0.430   1.874  1.2624  1.5980 -0.9041
 8665SOL     OW37630   3.048   1.984  14.019 -0.2265 -0.3932  0.0257
 8665SOL    HW137631   3.006   1.903  13.989 -1.6493 -0.0018  0.9397
 8665SOL    HW237632   2.983   2.049  13.992 -0.0326  0.4523  1.6145
 8666SOL     OW37633   1.804   2.182   7.124  0.2093  0.1608  0.4423
 8666SOL    HW137634   1.866   2.254   7.122 -1.0539  1.3649  3.7022
 8666SOL    HW237635   1.770   2.194   7.035  1.8528  0.3080 -0.1674
 8667SOL     OW37636   3.018   0.111   5.460 -0.6182 -0.2180  0.1583
 8667SOL    HW137637   3.059   0.146   5.539 -1.3162  0.7705  0.0736
 8667SOL    HW237638   2.933   0.075   5.487 -0.3844  0.2959  1.6036
 8668SOL     OW37639   4.599   3.684   5.012  0.0296  0.2169 -0.0565
 8668SOL    HW137640   4.547   3.759   5.040 -0.2361 -0.4359  1.1786
 8668SOL    HW237641   4.541   3.614   5.040  1.8899 -1.7438 -1.0921
 8669SOL     OW37642   2.943   2.781  16.274  0.1690 -0.0455 -0.1650
 8669SOL    HW137643   2.937   2.692  16.239 -1.4189  0.3397 -0.8654
 8669SOL    HW237644   2.909   2.835  16.203  2.0082  0.4699 -0.6502
 8670SOL     OW37645   3.731   3.971   8.454  0.2322  0.5403 -0.4271
 8670SOL    HW137646   3.807   3.981   8.396 -0.8046  0.1778 -1.8305
 8670SOL    HW237647   3.746   3.881   8.486 -3.0016  0.5579  1.1599
 8671SOL     OW37648   3.066   3.015   3.960  0.1846  0.5902 -0.2309
 8671SOL    HW137649   3.122   2.976   4.027  0.1761  1.0542  0.0433
 8671SOL    HW237650   3.084   3.106   3.984  0.3487  0.1976  1.1655
 8672SOL     OW37651   3.639   2.920   3.289  0.7269  0.0981 -0.0326
 8672SOL    HW137652   3.644   2.878   3.203 -0.4678 -1.3170  0.5876
 8672SOL    HW237653   3.654   2.843   3.343 -4.1539 -0.5356  0.3785
 8673SOL     OW37654   4.013   1.299   5.911  0.3935  0.0322  0.0658
 8673SOL    HW137655   4.034   1.360   5.982  0.8036 -1.5027  1.2681
 8673SOL    HW237656   4.090   1.303   5.854 -1.5434 -1.1409 -2.6372
 8674SOL     OW37657   3.071   1.272   5.916 -0.0760 -0.1922 -0.3940
 8674SOL    HW137658   3.141   1.331   5.886 -1.2624  1.1420 -0.5477
 8674SOL    HW237659   3.086   1.199   5.855  0.3877 -1.0151  0.7067
 8675SOL     OW37660   1.389   3.998  11.988  0.4940 -0.5297 -0.1049
 8675SOL    HW137661   1.391   3.926  12.051 -1.2196 -1.4715 -1.0893
 8675SOL    HW237662   1.367   3.953  11.906  2.7782 -1.7627 -0.0550
 8676SOL     OW37663   4.269   0.766   6.677 -0.0017 -0.2522  0.4525
 8676SOL    HW137664   4.294   0.740   6.766 -0.8469 -2.3063  0.1015
 8676SOL    HW237665   4.356   0.743   6.644 -0.0098  0.1036  0.1924
 8677SOL     OW37666   0.717   3.742   8.716  0.1610 -0.0250  0.0660
 8677SOL    HW137667   0.804   3.773   8.693  1.1301 -2.1703  0.8121
 8677SOL    HW237668   0.658   3.815   8.694 -0.8468 -0.4275  1.4133
 8678SOL     OW37669   3.374   3.138   0.160  0.4030  0.1029  0.2512
 8678SOL    HW137670   3.426   3.189   0.221 -1.6286 -0.3006  2.3042
 8678SOL    HW237671   3.293   3.129   0.210 -0.3389 -2.5089 -1.3877
 8679SOL     OW37672   2.955   0.875   2.301  0.2466  0.6307  0.2601
 8679SOL    HW137673   2.935   0.841   2.213 -1.4220 -0.0666  0.9032
 8679SOL    HW237674   2.884   0.939   2.305 -0.4371 -0.0494 -0.6796
 8680SOL     OW37675   2.705   0.813  17.193 -0.2751  0.1425  0.4981
 8680SOL    HW137676   2.624   0.865  17.191 -0.1904  0.3028  1.3730
 8680SOL    HW237677   2.739   0.839  17.107 -0.6529  0.6941  0.5136
 8681SOL     OW37678   3.108   3.269   4.054  0.0586 -0.3732  0.0913
 8681SOL    HW137679   3.189   3.280   4.104  2.1377  0.6011 -3.4806
 8681SOL    HW237680   3.069   3.356   4.047  1.7468  0.3732  0.0009
 8682SOL     OW37681   1.545   4.098   6.828 -0.0484 -0.3842  0.6178
 8682SOL    HW137682   1.495   4.170   6.867  0.7292 -0.7260  2.2135
 8682SOL    HW237683   1.498   4.088   6.745  1.1691  0.0763 -0.1191
 8683SOL     OW37684   3.696   4.001   2.013 -0.2190 -0.2218  0.1715
 8683SOL    HW137685   3.623   4.017   1.952  0.2488 -0.7403 -0.5320
 8683SOL    HW237686   3.689   4.082   2.062  1.9457 -0.4011  0.7698
 8684SOL     OW37687   4.112   2.786   4.928 -0.8668 -0.2727  0.7510
 8684SOL    HW137688   4.087   2.876   4.948 -0.1907  0.1472 -0.2849
 8684SOL    HW237689   4.051   2.763   4.857  2.1041 -3.2141 -0.8578
 8685SOL     OW37690   2.750   4.227  15.593 -0.3825  0.5777 -0.1306
 8685SOL    HW137691   2.666   4.223  15.639  0.6498 -1.1439  1.6037
 8685SOL    HW237692   2.740   4.311  15.549  0.8285  0.7483 -0.0762
 8686SOL     OW37693   2.358   4.573   0.587  0.4192 -0.1334 -0.3916
 8686SOL    HW137694   2.443   4.616   0.584 -0.3077  1.4651  1.9763
 8686SOL    HW237695   2.296   4.640   0.557 -1.7153 -0.7020  2.7466
 8687SOL     OW37696   1.959   2.914   8.504  0.3125  0.2029 -0.5227
 8687SOL    HW137697   1.868   2.929   8.479  0.3838 -0.2993 -1.0938
 8687SOL    HW237698   1.937   2.850   8.572  0.0913 -1.1285 -1.8486
 8688SOL     OW37699   3.864   4.686   4.016 -0.2256 -0.1471  0.3498
 8688SOL    HW137700   3.888   4.594   4.010  1.1246  0.3117 -1.1005
 8688SOL    HW237701   3.948   4.726   3.995  0.2555 -0.3094  1.9143
 8689SOL     OW37702   4.473   3.551   8.991 -0.2073 -0.0604 -0.0408
 8689SOL    HW137703   4.409   3.619   9.009 -0.9042 -0.3604 -1.3891
 8689SOL    HW237704   4.455   3.499   9.069 -0.4368  0.2364  0.1028
 8690SOL     OW37705   2.555   0.692   5.567 -0.1794  0.3109  0.2204
 8690SOL    HW137706   2.504   0.728   5.495 -0.9578 -0.6059  0.3288
 8690SOL    HW237707   2.551   0.759   5.636  1.9613 -0.8096  1.4398
 8691SOL     OW37708   1.502   2.757  16.462  0.4814  0.1204  0.0407
 8691SOL    HW137709   1.463   2.686  16.410  1.2292  1.0285 -1.7369
 8691SOL    HW237710   1.482   2.842  16.422 -1.8978 -0.2904  0.3257
 8692SOL     OW37711   2.129   0.182   9.540 -0.0033  0.1375 -0.4896
 8692SOL    HW137712   2.214   0.146   9.516  1.2430  1.5156  1.8889
 8692SOL    HW237713   2.174   0.223   9.613 -1.0644 -0.6001  0.5750
 8693SOL     OW37714   2.929   1.444   9.055 -0.1681  0.1030 -0.0640
 8693SOL    HW137715   3.016   1.405   9.067 -1.1888 -2.1865 -0.1807
 8693SOL    HW237716   2.889   1.397   9.127  0.1281  0.1666  0.1419
 8694SOL     OW37717   2.947   3.099   5.189  0.0836 -0.2452  0.6820
 8694SOL    HW137718   2.903   3.014   5.188  1.7426 -1.0812 -0.3832
 8694SOL    HW237719   3.016   3.080   5.253  0.7926  2.0169  0.5823
 8695SOL     OW37720   4.322   0.817   3.405  0.3242  0.8202  0.2117
 8695SOL    HW137721   4.376   0.788   3.332 -2.2361 -1.9975 -0.5432
 8695SOL    HW237722   4.262   0.872   3.355  0.6450  0.5503 -0.4679
 8696SOL     OW37723   3.760   0.675   5.646 -0.0262  0.0718 -0.0065
 8696SOL    HW137724   3.838   0.621   5.629 -0.4106 -1.4348  3.1312
 8696SOL    HW237725   3.698   0.602   5.643 -1.4602  1.3564 -1.3466
 8697SOL     OW37726   1.150   1.485   4.364  0.1481  0.2154  0.2226
 8697SOL    HW137727   1.240   1.515   4.379  0.1525  0.0781  0.4604
 8697SOL    HW237728   1.124   1.535   4.286  1.8350  0.9936  0.1633
 8698SOL     OW37729   1.754   2.454   6.637  0.2601  0.0515 -0.1119
 8698SOL    HW137730   1.841   2.491   6.651  0.6980 -0.5666 -1.1549
 8698SOL    HW237731   1.704   2.492   6.708  1.9704  0.0748  1.0825
 8699SOL     OW37732   0.273   0.272  15.247  0.4524  0.5081 -0.1283
 8699SOL    HW137733   0.262   0.258  15.341 -2.0823 -2.4650 -0.8984
 8699SOL    HW237734   0.218   0.348  15.226 -1.3430 -0.5180  0.8981
 8700SOL     OW37735   3.449   1.935   9.528  0.0411  0.0942 -0.3493
 8700SOL    HW137736   3.376   1.915   9.470  0.0580 -1.7062  0.2274
 8700SOL    HW237737   3.440   2.030   9.534 -0.1947 -0.0808  2.1753
 8701SOL     OW37738   2.910   0.707   5.539 -0.4882 -0.4339 -0.1875
 8701SOL    HW137739   3.003   0.703   5.516 -0.6147  0.9368 -0.9405
 8701SOL    HW237740   2.896   0.635   5.600 -1.0843  0.1010  0.2923
 8702SOL     OW37741   0.391   2.401  15.084  0.0148  0.3861 -0.0977
 8702SOL    HW137742   0.462   2.455  15.050  0.1543 -0.2630 -0.8157
 8702SOL    HW237743   0.360   2.360  15.004 -0.3981 -0.3726  0.4530
 8703SOL     OW37744   2.833   4.514   6.883  0.3695  0.6636  0.1351
 8703SOL    HW137745   2.786   4.460   6.820 -0.4949  1.3324  0.2000
 8703SOL    HW237746   2.925   4.488   6.881 -0.0748 -1.0515  2.3199
 8704SOL     OW37747   1.013   1.831   6.103 -0.1346  0.4188  0.3096
 8704SOL    HW137748   0.976   1.906   6.056  1.0628  1.0252  0.3271
 8704SOL    HW237749   1.059   1.880   6.172  1.1127  0.2076 -0.3758
 8705SOL     OW37750   0.927   3.775   8.999 -0.2914 -0.4492 -0.8276
 8705SOL    HW137751   0.865   3.794   9.070  2.4279 -1.8261  1.8846
 8705SOL    HW237752   0.877   3.737   8.928 -2.2598  0.7161 -0.0894
 8706SOL     OW37753   1.135   4.011  13.034  0.2122 -0.0763 -0.1863
 8706SOL    HW137754   1.128   4.023  13.128  1.2071 -0.0533 -0.1169
 8706SOL    HW237755   1.066   4.069  13.001  1.0573  0.8557 -0.3213
 8707SOL     OW37756   3.504   0.052   6.700  0.4991  0.2645  0.2904
 8707SOL    HW137757   3.527   0.132   6.654 -0.9339  1.5934  1.8940
 8707SOL    HW237758   3.416   0.038   6.666  0.5048 -0.5307  0.6057
 8708SOL     OW37759   2.334   3.495  16.602  0.0466 -0.3915  0.1093
 8708SOL    HW137760   2.354   3.445  16.523  2.0920 -0.1039  0.4431
 8708SOL    HW237761   2.360   3.430  16.668  1.0164 -0.5166 -0.4015
 8709SOL     OW37762   1.280   1.216   8.592  0.1225 -0.2565  0.0359
 8709SOL    HW137763   1.268   1.154   8.520  2.8702  0.8685 -1.4152
 8709SOL    HW237764   1.188   1.237   8.606 -0.3617 -1.9830 -0.5199
 8710SOL     OW37765   4.203   0.093   7.316 -0.8071  0.4671  0.4095
 8710SOL    HW137766   4.245   0.021   7.269 -0.6809  1.6865 -1.3216
 8710SOL    HW237767   4.111   0.072   7.330 -0.5770 -1.3521 -0.8327
 8711SOL     OW37768   2.579   3.393   7.889 -0.4670  0.1205  0.4697
 8711SOL    HW137769   2.649   3.454   7.910 -0.2733  0.5133 -1.3322
 8711SOL    HW237770   2.512   3.453   7.858 -1.3114 -1.4063 -0.6708
 8712SOL     OW37771   1.448   1.206  14.757  0.0244  0.2684  0.7052
 8712SOL    HW137772   1.486   1.198  14.845 -1.4902  1.6267  1.4923
 8712SOL    HW237773   1.413   1.118  14.746 -0.8547  0.8600 -1.1835
 8713SOL     OW37774   2.554   3.833   1.960  0.8401 -0.6065 -0.5512
 8713SOL    HW137775   2.493   3.827   2.033  0.5015 -1.6676 -0.9228
 8713SOL    HW237776   2.558   3.745   1.923  2.8844 -0.9194  0.3911
 8714SOL     OW37777   3.178   4.407   0.177  0.1829 -0.4652  0.1887
 8714SOL    HW137778   3.191   4.457   0.096  2.5206  0.4740  1.1627
 8714SOL    HW237779   3.225   4.330   0.146  0.9032  0.3147 -0.6571
 8715SOL     OW37780   1.852   1.186   8.327 -0.3908  0.4574  0.3459
 8715SOL    HW137781   1.880   1.278   8.327 -0.2809  0.4207  0.7157
 8715SOL    HW237782   1.801   1.177   8.408 -1.0371 -0.9596 -0.2101
 8716SOL     OW37783   0.284   1.587   8.577 -0.2466 -0.7048  0.7926
 8716SOL    HW137784   0.211   1.562   8.521  0.0251  0.3974 -0.0543
 8716SOL    HW237785   0.306   1.676   8.549 -1.1674 -0.3602  1.1765
 8717SOL     OW37786   1.477   2.585   3.937  0.1542  0.1326  0.0117
 8717SOL    HW137787   1.484   2.509   3.880  1.6264 -0.5571  1.1290
 8717SOL    HW237788   1.407   2.560   3.998  0.0888  1.5890  0.5417
 8718SOL     OW37789   0.633   1.192   9.313  0.0000  0.6749 -0.6070
 8718SOL    HW137790   0.612   1.286   9.310  0.7356  0.8401 -0.5827
 8718SOL    HW237791   0.698   1.189   9.383  1.0250 -1.0168 -1.6386
 8719SOL     OW37792   0.818   2.362   4.787 -0.2364 -0.1802  0.1225
 8719SOL    HW137793   0.850   2.334   4.702  0.2895  2.9865 -0.7190
 8719SOL    HW237794   0.897   2.395   4.831  0.6698 -0.5851 -1.2166
 8720SOL     OW37795   3.677   1.072   1.533 -0.0302 -0.5821  0.6987
 8720SOL    HW137796   3.729   1.021   1.595  0.1780  0.6717  1.5355
 8720SOL    HW237797   3.602   1.015   1.514  0.4074 -1.2461  0.9435
 8721SOL     OW37798   4.698   2.080   2.332 -0.1957 -0.0226 -0.5025
 8721SOL    HW137799   0.003   2.001   2.357  1.9322  1.6714  0.7790
 8721SOL    HW237800   0.026   2.128   2.288  0.1243  0.8336  0.9454
 8722SOL     OW37801   1.589   2.313   4.393 -0.1376  0.3254  0.3974
 8722SOL    HW137802   1.665   2.255   4.396 -1.6869 -1.6793  1.0468
 8722SOL    HW237803   1.623   2.395   4.431  1.7133 -1.6869  3.1069
 8723SOL     OW37804   0.573   0.343  13.246  0.4292  0.2829  0.0883
 8723SOL    HW137805   0.484   0.347  13.212  0.3506 -0.5538  0.1988
 8723SOL    HW237806   0.605   0.262  13.206 -0.1248  0.8632 -1.5053
 8724SOL     OW37807   0.317   3.496   6.066  0.4827  0.2219 -0.4306
 8724SOL    HW137808   0.269   3.436   6.124 -1.2835  0.6004 -1.4841
 8724SOL    HW237809   0.376   3.549   6.119 -1.8868  2.7370 -0.2805
 8725SOL     OW37810   0.877   3.152   3.654 -0.2056  0.3039  0.6955
 8725SOL    HW137811   0.847   3.173   3.743  0.4635 -1.7607  1.4040
 8725SOL    HW237812   0.972   3.157   3.658  0.1072 -3.9247 -2.2627
 8726SOL     OW37813   2.883   1.342   9.847  0.0109  0.4720 -0.2057
 8726SOL    HW137814   2.861   1.361   9.756 -1.4067  0.7622  0.1982
 8726SOL    HW237815   2.814   1.390   9.892 -1.3526 -3.0574  1.4411
 8727SOL     OW37816   2.108   4.707   4.071  0.5794  0.3289 -0.4993
 8727SOL    HW137817   2.081   0.055   4.052  0.6206  0.3553 -0.4313
 8727SOL    HW237818   2.180   4.698   4.008  1.9803 -1.5519  1.3834
 8728SOL     OW37819   1.864   4.434   6.794 -0.4912 -0.1080 -0.0950
 8728SOL    HW137820   1.900   4.398   6.875 -0.2232 -1.0101 -0.6163
 8728SOL    HW237821   1.846   4.354   6.745 -1.3439 -0.1615  0.3137
 8729SOL     OW37822   4.256   3.506   1.946  0.3904  0.1919  0.4843
 8729SOL    HW137823   4.301   3.566   2.005  2.6875 -0.9116 -0.1561
 8729SOL    HW237824   4.326   3.445   1.923  1.6256  1.1126  1.7817
 8730SOL     OW37825   1.683   2.448   5.096 -0.1283  0.2465 -0.6917
 8730SOL    HW137826   1.695   2.476   5.186 -2.7119  0.6850 -0.4812
 8730SOL    HW237827   1.772   2.415   5.088 -0.7970 -1.3036 -1.7602
 8731SOL     OW37828   0.575   3.428   6.668 -0.0890 -0.4139 -0.2370
 8731SOL    HW137829   0.484   3.456   6.657  0.4752  2.0583  1.4847
 8731SOL    HW237830   0.579   3.429   6.764  0.3719  0.7853 -0.2725
 8732SOL     OW37831   1.909   4.264  16.754  0.1341 -0.1215  0.1019
 8732SOL    HW137832   1.954   4.325  16.696  1.8507 -1.8606 -0.3890
 8732SOL    HW237833   1.983   4.218  16.794 -0.2408  0.4852  1.4837
 8733SOL     OW37834   2.403   1.497   3.252  0.3195  0.1052  0.5061
 8733SOL    HW137835   2.454   1.482   3.332 -2.3379 -0.9933  1.9976
 8733SOL    HW237836   2.470   1.471   3.188  0.3619 -2.0085  1.4047
 8734SOL     OW37837   3.758   1.480  17.659  0.3439  0.0159 -0.0152
 8734SOL    HW137838   3.782   1.572  17.668 -2.2399  0.5463  1.4690
 8734SOL    HW237839   3.745   1.484  17.565 -2.4996 -0.3726  0.3541
 8735SOL     OW37840   4.141   4.725  14.849 -0.1768 -0.1715  0.3675
 8735SOL    HW137841   4.195   4.647  14.856 -1.2016 -0.8723  0.4807
 8735SOL    HW237842   4.075   4.700  14.784 -0.2017  2.7853 -0.7447
 8736SOL     OW37843   3.249   3.899   1.292 -0.6221 -0.2608 -0.1633
 8736SOL    HW137844   3.268   3.981   1.338  1.0237 -0.3443 -0.6636
 8736SOL    HW237845   3.338   3.870   1.272  0.2149  2.3586 -0.2531
 8737SOL     OW37846   4.272   3.902   0.290  0.3518  0.0190 -0.2785
 8737SOL    HW137847   4.347   3.892   0.232  0.4205 -0.9386 -0.0308
 8737SOL    HW237848   4.218   3.969   0.247 -2.4904 -1.5184  0.8977
 8738SOL     OW37849   2.827   3.698  15.781  0.7313 -0.4671 -0.0403
 8738SOL    HW137850   2.778   3.780  15.779 -0.0097 -0.8682  2.1760
 8738SOL    HW237851   2.803   3.674  15.691 -0.3710 -0.7952  0.3355
 8739SOL     OW37852   2.641   2.704  12.706  0.3872 -0.1712 -0.1167
 8739SOL    HW137853   2.589   2.741  12.635 -0.0759 -2.0576 -0.7662
 8739SOL    HW237854   2.701   2.640  12.668 -0.5869 -1.3470  0.2945
 8740SOL     OW37855   1.719   1.158  14.250  0.0847  0.2416 -0.0967
 8740SOL    HW137856   1.807   1.121  14.245 -0.4402 -1.0289  0.1509
 8740SOL    HW237857   1.663   1.083  14.270 -0.1531 -0.0559 -1.9254
 8741SOL     OW37858   0.175   3.837   3.266  0.2919 -0.0509  0.2810
 8741SOL    HW137859   0.168   3.797   3.353 -2.1714 -0.4731 -0.1020
 8741SOL    HW237860   0.246   3.784   3.229  2.4058  1.5592  2.0508
 8742SOL     OW37861   3.484   0.963  11.582 -0.3579  0.1347  0.0036
 8742SOL    HW137862   3.403   0.921  11.611  0.7032 -0.2907  2.3683
 8742SOL    HW237863   3.517   0.894  11.525  2.0919  0.0098  1.5326
 8743SOL     OW37864   0.823   1.162   5.354  0.1724 -0.0282 -0.1459
 8743SOL    HW137865   0.808   1.075   5.392  1.7633 -0.1048  0.2928
 8743SOL    HW237866   0.752   1.168   5.290  0.7373 -1.7796 -0.9364
 8744SOL     OW37867   1.322   1.280   7.748  0.7610  0.0950  0.5789
 8744SOL    HW137868   1.236   1.302   7.711 -0.3041 -3.3882  0.9751
 8744SOL    HW237869   1.369   1.362   7.759 -0.9563  1.1846 -0.1680
 8745SOL     OW37870   1.370   2.544   2.712 -0.4347  0.2071  0.0359
 8745SOL    HW137871   1.416   2.520   2.632 -0.7567  0.4387 -0.2119
 8745SOL    HW237872   1.353   2.465   2.763 -3.1751  0.5601 -0.3518
 8746SOL     OW37873   0.018   1.332   6.980 -0.6189 -0.4791  0.6025
 8746SOL    HW137874   0.053   1.421   6.986 -0.9178 -0.4306  1.6889
 8746SOL    HW237875   4.698   1.348   7.051 -2.6435 -5.1152 -0.1732
 8747SOL     OW37876   2.660   2.462   2.286 -0.0471 -0.2001 -0.2484
 8747SOL    HW137877   2.566   2.458   2.271 -0.0697 -1.2254  0.1628
 8747SOL    HW237878   2.693   2.418   2.208 -1.2642  0.8590 -1.3527
 8748SOL     OW37879   0.438   0.818  14.016  0.5953 -0.2115 -0.0266
 8748SOL    HW137880   0.528   0.849  14.010  0.4530 -0.1418 -1.7272
 8748SOL    HW237881   0.388   0.899  14.011  3.5046  1.6254  0.4444
 8749SOL     OW37882   3.508   3.317   1.297  0.0614 -0.0637  0.3881
 8749SOL    HW137883   3.508   3.238   1.245  1.9278 -1.7180  2.8864
 8749SOL    HW237884   3.582   3.297   1.355 -0.8751  0.1437  1.6605
 8750SOL     OW37885   3.270   2.131   2.068 -0.1689  0.0384 -0.5551
 8750SOL    HW137886   3.270   2.040   2.096  0.9597  0.5558  1.1266
 8750SOL    HW237887   3.339   2.172   2.120 -0.7878  2.3786 -1.5521
 8751SOL     OW37888   1.148   1.451  13.108 -0.1948 -0.1614 -0.1899
 8751SOL    HW137889   1.115   1.444  13.198  0.9896 -0.6996  0.2066
 8751SOL    HW237890   1.114   1.536  13.081 -1.9092 -0.8116 -0.0961
 8752SOL     OW37891   3.898   1.838  12.408  0.6681 -0.1952  0.1420
 8752SOL    HW137892   3.828   1.885  12.452 -1.3776 -1.8477 -1.3437
 8752SOL    HW237893   3.875   1.751  12.442  0.6032  0.7967  2.6065
 8753SOL     OW37894   3.753   2.794   8.932  0.7532  0.4599  0.6987
 8753SOL    HW137895   3.741   2.883   8.900  2.2535  0.5982  0.5299
 8753SOL    HW237896   3.713   2.750   8.857  0.6556 -0.8950  1.5407
 8754SOL     OW37897   0.007   3.998   5.018 -0.2544  0.0598  0.4311
 8754SOL    HW137898   0.030   4.085   5.050  0.4942  0.7265 -1.8813
 8754SOL    HW237899   0.017   3.942   5.095  2.9202  0.2675  0.1937
 8755SOL     OW37900   0.994   1.154   0.899  0.0105  0.2036 -0.0997
 8755SOL    HW137901   0.918   1.211   0.914  0.7138  1.3983 -1.1725
 8755SOL    HW237902   0.984   1.085   0.965 -2.3832  1.9470  1.3957
 8756SOL     OW37903   2.199   0.311   2.280  0.3840 -0.6971 -0.0890
 8756SOL    HW137904   2.282   0.343   2.314  0.8576 -1.2357 -0.7389
 8756SOL    HW237905   2.182   0.254   2.355 -0.8030 -0.2681 -0.0185
 8757SOL     OW37906   2.119   3.268   9.861 -0.1351 -0.0873 -0.3004
 8757SOL    HW137907   2.180   3.228   9.799  0.6887 -0.3717  0.6817
 8757SOL    HW237908   2.075   3.189   9.893 -0.1152  0.8218  1.9814
 8758SOL     OW37909   4.343   4.283  13.044  0.3447 -0.4958  0.2085
 8758SOL    HW137910   4.339   4.317  12.955  1.5261  3.1082  1.5386
 8758SOL    HW237911   4.401   4.208  13.034 -0.6161 -1.0235 -1.3766
 8759SOL     OW37912   0.189   4.132   5.443  0.3554  0.2484  0.2602
 8759SOL    HW137913   0.254   4.197   5.471  0.6943 -0.5475  1.3469
 8759SOL    HW237914   0.261   4.074   5.417  0.6331 -0.1303  1.8226
 8760SOL     OW37915   3.981   1.844   2.351  0.5067 -0.0353 -0.1546
 8760SOL    HW137916   4.034   1.893   2.288  1.3064 -1.6104 -0.6826
 8760SOL    HW237917   4.009   1.886   2.432  1.3144  0.0840 -0.4966
 8761SOL     OW37918   1.772   3.934   1.632  0.0969  0.0517  0.3548
 8761SOL    HW137919   1.727   3.964   1.554  0.7856 -1.6973 -0.7141
 8761SOL    HW237920   1.865   3.921   1.611 -0.2111  1.2372 -1.6599
 8762SOL     OW37921   4.737   4.185  13.556  0.5176  0.1370 -0.1415
 8762SOL    HW137922   4.664   4.147  13.508  0.8119  1.0411 -1.3043
 8762SOL    HW237923   0.050   4.113  13.588  0.6386 -0.0305 -0.7362
 8763SOL     OW37924   3.273   3.480  13.210 -0.1166  0.0699  0.2806
 8763SOL    HW137925   3.323   3.440  13.139  2.0791  0.8032  1.4335
 8763SOL    HW237926   3.303   3.571  13.212 -1.7028  0.6446 -1.6953
 8764SOL     OW37927   0.190   4.503   4.293 -0.1504 -0.1501 -0.8185
 8764SOL    HW137928   0.204   4.508   4.199 -0.1166  2.2320 -0.6931
 8764SOL    HW237929   0.182   4.596   4.312  1.3061 -0.2857  0.5653
 8765SOL     OW37930   2.736   0.506   6.784 -0.3672  0.3815  0.1949
 8765SOL    HW137931   2.826   0.475   6.771 -0.4489  0.4920 -0.6308
 8765SOL    HW237932   2.696   0.443   6.843  0.2448 -0.1261  0.0716
 8766SOL     OW37933   3.528   2.281   8.604  0.1155  0.1511  0.0015
 8766SOL    HW137934   3.623   2.276   8.606  0.1097 -0.4930 -1.1070
 8766SOL    HW237935   3.516   2.346   8.535 -0.9590  0.7818  0.7860
 8767SOL     OW37936   0.603   1.321  12.375 -0.0845 -0.9180  0.5225
 8767SOL    HW137937   0.567   1.314  12.464 -0.2244 -0.9841  0.4601
 8767SOL    HW237938   0.521   1.328  12.326 -1.0130 -1.3507  1.9912
 8768SOL     OW37939   2.122   1.102   8.312  0.4138 -0.4591  0.2830
 8768SOL    HW137940   2.028   1.086   8.327  0.2405  0.5914  0.2808
 8768SOL    HW237941   2.124   1.157   8.234 -0.4884  1.3418  1.5514
 8769SOL     OW37942   3.800   2.371   5.893  0.7892 -0.2562  0.0674
 8769SOL    HW137943   3.825   2.303   5.956  2.3496  0.5491  0.3201
 8769SOL    HW237944   3.875   2.379   5.834  1.7470  0.2029  1.3418
 8770SOL     OW37945   2.647   0.181   5.706  0.3039 -0.0301 -0.3865
 8770SOL    HW137946   2.660   0.262   5.657 -2.1612 -0.6674 -2.0989
 8770SOL    HW237947   2.677   0.115   5.643  0.1795 -0.6993  0.2500
 8771SOL     OW37948   0.030   4.042  11.225 -0.0927  0.3427 -0.2188
 8771SOL    HW137949   4.704   4.034  11.292  0.5059  0.6666  0.4208
 8771SOL    HW237950   0.099   4.011  11.283 -0.2353  0.6414  0.1072
 8772SOL     OW37951   3.660   2.549   2.564  0.3262 -0.2587  0.1043
 8772SOL    HW137952   3.591   2.499   2.521 -1.5412  1.7873  0.7393
 8772SOL    HW237953   3.623   2.637   2.564  1.2539  0.1305 -1.2444
 8773SOL     OW37954   2.623   4.679   0.528 -0.6487  0.0523 -0.3393
 8773SOL    HW137955   2.601   0.022   0.489 -0.2513 -1.1191 -3.1277
 8773SOL    HW237956   2.715   4.698   0.542 -0.9093  1.2906 -0.2943
 8774SOL     OW37957   4.095   4.739   3.884 -0.5425  0.3177 -0.0690
 8774SOL    HW137958   4.146   4.740   3.965  0.3933 -1.7631 -0.6513
 8774SOL    HW237959   4.150   0.060   3.837  2.0130 -0.9962  1.1383
 8775SOL     OW37960   0.738   0.544   4.142  0.3450 -0.1544  0.1485
 8775SOL    HW137961   0.643   0.554   4.128  0.4797 -0.7362 -1.2173
 8775SOL    HW237962   0.746   0.452   4.164 -2.6844 -0.4104  0.2619
 8776SOL     OW37963   2.848   1.729   1.843 -0.0318  0.1911 -0.6997
 8776SOL    HW137964   2.765   1.708   1.885 -0.6272  1.1590 -1.3777
 8776SOL    HW237965   2.904   1.654   1.864 -0.6083 -0.5241 -1.7502
 8777SOL     OW37966   0.844   4.428   6.071  0.2032 -0.3711 -0.3238
 8777SOL    HW137967   0.816   4.445   5.981 -2.1044 -0.5370  0.3545
 8777SOL    HW237968   0.824   4.337   6.094  0.0686  0.3252  2.3424
 8778SOL     OW37969   0.986   4.631   2.203 -0.2538 -1.0585  0.4044
 8778SOL    HW137970   0.994   4.726   2.195 -3.1279 -0.7335  1.5327
 8778SOL    HW237971   1.068   4.612   2.249  1.1725  1.2104 -1.2045
 8779SOL     OW37972   2.175   1.385  13.996 -0.2293 -0.2208 -0.5210
 8779SOL    HW137973   2.173   1.481  14.000 -3.3467 -0.2305 -1.6248
 8779SOL    HW237974   2.101   1.368  13.937 -0.2755  1.4015 -0.9219
 8780SOL     OW37975   2.391   4.257   1.188 -0.2704  0.2665 -0.0093
 8780SOL    HW137976   2.470   4.311   1.194 -0.0219  0.0936 -1.8459
 8780SOL    HW237977   2.412   4.214   1.105  0.3802 -0.7188  0.6711
 8781SOL     OW37978   3.987   3.279   7.614  0.3278  0.2862  0.3819
 8781SOL    HW137979   4.010   3.281   7.522  1.0110 -0.2424  0.5364
 8781SOL    HW237980   4.058   3.334   7.646 -0.6002  0.5695  1.9873
 8782SOL     OW37981   3.550   2.918   7.941 -0.5696  0.0783  0.0787
 8782SOL    HW137982   3.554   3.013   7.953 -2.8211 -0.0588  1.9336
 8782SOL    HW237983   3.610   2.891   8.011  0.2989 -0.4278 -0.8691
 8783SOL     OW37984   0.958   2.769  11.711 -0.2862 -0.0780 -0.0410
 8783SOL    HW137985   0.907   2.812  11.780  0.4798 -0.6363  0.8737
 8783SOL    HW237986   0.912   2.788  11.629 -2.0332  1.8545  1.3734
 8784SOL     OW37987   0.347   1.844   9.394  0.0529  0.3262 -0.5484
 8784SOL    HW137988   0.275   1.805   9.345 -0.7300  0.7229  0.2724
 8784SOL    HW237989   0.315   1.933   9.376 -0.3830  0.6939  2.0765
 8785SOL     OW37990   4.025   1.247   2.074 -0.0630 -0.5289 -0.0189
 8785SOL    HW137991   4.001   1.337   2.096 -3.2048 -1.7434  1.5489
 8785SOL    HW237992   4.083   1.267   2.000 -0.6346 -2.8924 -1.0960
 8786SOL     OW37993   2.812   2.661   8.062 -0.0404  0.3528  0.3754
 8786SOL    HW137994   2.830   2.607   8.138 -0.3030  0.1750  0.3099
 8786SOL    HW237995   2.795   2.745   8.104  1.6084  1.4986 -1.2486
 8787SOL     OW37996   3.280   0.762  13.869  0.2176  0.1758 -0.5938
 8787SOL    HW137997   3.247   0.819  13.799 -0.8715  1.1875  0.7447
 8787SOL    HW237998   3.360   0.732  13.826 -0.1121 -1.1543 -0.2781
 8788SOL     OW37999   1.958   0.045   2.013  0.0644  0.4973  0.2255
 8788SOL    HW138000   2.010   4.719   1.971  2.6856  2.1079  0.8570
 8788SOL    HW238001   1.933   0.008   2.098 -0.1289 -0.0542 -0.0729
 8789SOL     OW38002   4.372   3.688  17.657  0.5147  0.1282 -0.4444
 8789SOL    HW138003   4.320   3.650  17.587  1.5930 -1.4857 -0.3666
 8789SOL    HW238004   4.315   3.761  17.681  0.5352  0.1828 -0.5629
 8790SOL     OW38005   2.508   1.888   5.893  0.2015 -0.1895 -0.5874
 8790SOL    HW138006   2.423   1.851   5.868 -0.6601  0.4353  1.4411
 8790SOL    HW238007   2.513   1.853   5.982 -0.4940 -1.5342 -1.0669
 8791SOL     OW38008   3.075   4.255  10.300  0.6555  0.3883  0.2779
 8791SOL    HW138009   2.996   4.209  10.272  0.9316  0.5448 -0.7371
 8791SOL    HW238010   3.117   4.259  10.214 -1.6077 -1.5102 -0.9167
 8792SOL     OW38011   4.620   0.092   7.723 -0.2643  0.1885  0.3436
 8792SOL    HW138012   4.671   0.047   7.790  1.8736 -1.9549 -2.7167
 8792SOL    HW238013   4.538   0.111   7.767  0.1329  0.7384  0.8473
 8793SOL     OW38014   2.735   0.441   3.749  0.1942  0.1121  0.0594
 8793SOL    HW138015   2.700   0.387   3.820 -0.5231 -1.0204 -1.1653
 8793SOL    HW238016   2.814   0.481   3.787 -0.0036  0.0772  0.5073
 8794SOL     OW38017   1.674   2.120   8.248 -0.1013 -0.4711  0.3066
 8794SOL    HW138018   1.607   2.073   8.297 -0.9993 -0.4342 -0.8861
 8794SOL    HW238019   1.615   2.164   8.187 -0.7228  0.0080  1.2306
 8795SOL     OW38020   3.704   2.364   7.723 -0.4320  0.4161  0.4184
 8795SOL    HW138021   3.636   2.341   7.659  2.2964  0.2578 -2.4580
 8795SOL    HW238022   3.699   2.282   7.772 -2.2548  0.7582  0.8254
 8796SOL     OW38023   2.055   3.930  10.894 -0.0871 -0.3220  0.4565
 8796SOL    HW138024   2.112   3.947  10.969  0.9204 -0.8314 -0.1925
 8796SOL    HW238025   1.977   3.982  10.914  1.0914  0.9181  1.8576
 8797SOL     OW38026   4.095   2.383  10.299 -0.8261 -0.3428 -0.1760
 8797SOL    HW138027   4.076   2.436  10.376 -0.0948 -2.0253  1.1712
 8797SOL    HW238028   4.190   2.368  10.302 -0.9221 -0.7994  0.6356
 8798SOL     OW38029   1.951   1.774   5.013  0.1969 -0.0741 -0.6549
 8798SOL    HW138030   1.960   1.840   4.945  0.7753  1.9930  1.4259
 8798SOL    HW238031   1.886   1.720   4.969  1.1765 -3.1696  1.7070
 8799SOL     OW38032   2.213   1.403   6.683  0.4611 -0.0703 -0.4637
 8799SOL    HW138033   2.261   1.473   6.638 -0.3117  0.0882 -1.0540
 8799SOL    HW238034   2.281   1.378   6.746  0.7697  1.3085 -0.2549
 8800SOL     OW38035   4.693   1.084   6.102 -0.1858  0.1697  0.1456
 8800SOL    HW138036   4.722   1.092   6.193 -0.2409 -0.8675  0.2607
 8800SOL    HW238037   0.023   1.038   6.060  2.2101  2.8209  1.4296
 8801SOL     OW38038   2.888   2.603   9.473  0.6992 -0.0568 -0.1936
 8801SOL    HW138039   2.872   2.570   9.385 -1.9191  0.0799  0.2210
 8801SOL    HW238040   2.952   2.540   9.505 -1.0186 -2.4331 -1.4693
 8802SOL     OW38041   2.689   4.047   0.737  0.6177  0.1795  0.2775
 8802SOL    HW138042   2.751   4.106   0.781  0.6670 -1.2939  2.1437
 8802SOL    HW238043   2.673   3.971   0.793  0.1252  0.2716  0.2642
 8803SOL     OW38044   1.746   1.097   3.044 -0.4029  0.1120  1.1269
 8803SOL    HW138045   1.755   1.016   2.993  1.1083  0.8538  0.2568
 8803SOL    HW238046   1.651   1.108   3.041 -0.5688 -1.1746  1.5768
 8804SOL     OW38047   3.244   2.143   5.573 -0.2630  0.5841  0.0618
 8804SOL    HW138048   3.164   2.192   5.555 -0.9419 -0.6307 -0.2085
 8804SOL    HW238049   3.240   2.138   5.669 -2.8952  1.6901  0.0066
 8805SOL     OW38050   3.216   4.666   3.748 -0.0646 -0.4783  0.4127
 8805SOL    HW138051   3.247   4.616   3.673  0.7536  1.6414 -0.6520
 8805SOL    HW238052   3.129   4.701   3.733 -0.2291  0.8065  4.2384
 8806SOL     OW38053   2.463   0.775   5.316 -0.2522 -0.1529 -0.9537
 8806SOL    HW138054   2.384   0.756   5.266 -0.1811 -1.4341 -0.5948
 8806SOL    HW238055   2.478   0.868   5.300 -1.5395  0.2355  0.0804
 8807SOL     OW38056   3.065   2.325   2.836  0.0337 -0.0366  0.0417
 8807SOL    HW138057   3.000   2.276   2.785 -0.9717 -0.3646  1.6378
 8807SOL    HW238058   3.141   2.267   2.838  0.4913  0.4670 -2.1905
 8808SOL     OW38059   3.357   0.913  15.347 -0.3978  0.5562 -0.0849
 8808SOL    HW138060   3.350   0.951  15.260 -1.3041 -0.0828 -0.2900
 8808SOL    HW238061   3.309   0.830  15.352  1.1903 -0.4212 -1.2262
 8809SOL     OW38062   1.732   2.058   2.425  0.1005 -0.2776 -0.6541
 8809SOL    HW138063   1.802   2.109   2.386  0.6900 -1.7346 -1.4945
 8809SOL    HW238064   1.670   2.045   2.353  0.6216  0.5429 -1.2518
 8810SOL     OW38065   1.782   3.154  15.802 -0.0202  0.3950  0.0810
 8810SOL    HW138066   1.844   3.083  15.790  1.2916  1.1829  2.1805
 8810SOL    HW238067   1.703   3.114  15.765 -0.2431  0.9573 -0.0532
 8811SOL     OW38068   3.208   0.167  12.697  0.3931 -0.3131  0.5329
 8811SOL    HW138069   3.282   0.118  12.663 -1.5263 -3.1039  0.3330
 8811SOL    HW238070   3.146   0.105  12.737 -0.7730  0.6862  0.2802
 8812SOL     OW38071   2.063   0.292   3.405  0.2651  0.3157  0.6054
 8812SOL    HW138072   2.061   0.239   3.485  0.0239  0.6727  0.8314
 8812SOL    HW238073   1.971   0.290   3.382  0.0743  2.1938  1.2317
 8813SOL     OW38074   1.243   0.816  17.579  0.2191 -0.4131 -0.1809
 8813SOL    HW138075   1.206   0.903  17.593  1.5451  0.1336 -0.0599
 8813SOL    HW238076   1.177   0.761  17.621  0.8725 -0.2072  1.1315
 8814SOL     OW38077   2.309   1.630   6.513  0.2057 -0.4523 -0.0921
 8814SOL    HW138078   2.263   1.708   6.483  1.1139 -0.4735 -1.5746
 8814SOL    HW238079   2.354   1.665   6.590  3.4012 -0.4217 -1.9624
 8815SOL     OW38080   0.058   3.197   8.812 -0.1312  0.3193 -0.0019
 8815SOL    HW138081   0.057   3.177   8.905 -1.9196  2.9906  0.5509
 8815SOL    HW238082   0.043   3.107   8.782 -0.7140 -0.2470  1.9684
 8816SOL     OW38083   3.478   3.004  13.910 -0.2281  0.3276 -0.1415
 8816SOL    HW138084   3.437   2.952  13.980  1.4074 -2.0056 -0.9285
 8816SOL    HW238085   3.557   2.954  13.894 -0.3300  0.9202 -2.5702
 8817SOL     OW38086   0.923   1.108  11.423  0.5298 -0.1042  0.1076
 8817SOL    HW138087   0.935   1.074  11.334  1.2130 -1.1647  0.6086
 8817SOL    HW238088   0.964   1.038  11.474  0.8109 -0.0918 -0.0987
 8818SOL     OW38089   0.677   4.220   3.241  0.3363  0.0078 -0.2004
 8818SOL    HW138090   0.691   4.129   3.266  1.1498 -0.0484 -0.8662
 8818SOL    HW238091   0.628   4.252   3.317  0.4771  0.6167 -0.3620
 8819SOL     OW38092   0.506   2.707   4.395  0.1973  0.1131  0.1170
 8819SOL    HW138093   0.554   2.744   4.469 -1.0889 -0.2151  1.1036
 8819SOL    HW238094   0.476   2.627   4.436 -0.9635 -0.3978 -1.7604
 8820SOL     OW38095   0.991   2.313   4.472  0.3111 -0.3421 -0.0779
 8820SOL    HW138096   1.050   2.265   4.415 -0.9836 -0.4924 -1.2990
 8820SOL    HW238097   0.910   2.291   4.425  0.6797 -1.6209 -0.1170
 8821SOL     OW38098   3.498   3.627   6.533 -0.2755  0.3973 -0.5644
 8821SOL    HW138099   3.590   3.653   6.529 -0.8756  2.3356 -2.0145
 8821SOL    HW238100   3.512   3.533   6.521  0.9609  0.2088  2.5222
 8822SOL     OW38101   4.168   2.852   0.308  0.0903 -0.5426 -0.3055
 8822SOL    HW138102   4.211   2.929   0.269 -1.0323  1.4526  2.3425
 8822SOL    HW238103   4.214   2.855   0.392 -1.0323 -0.3788  0.3031
 8823SOL     OW38104   3.092   2.546   2.027 -0.0025  0.7478  0.1172
 8823SOL    HW138105   3.177   2.525   2.065 -0.2648  1.6680  1.1963
 8823SOL    HW238106   3.072   2.472   1.969 -0.2225  0.5051  0.5093
 8824SOL     OW38107   1.246   0.087  14.651  0.6091 -0.4012 -0.3656
 8824SOL    HW138108   1.168   0.113  14.602 -0.1304 -1.1305  0.4299
 8824SOL    HW238109   1.215   0.084  14.741 -0.7951 -1.9972 -0.9195
 8825SOL     OW38110   1.347   1.363  12.963  0.9097  0.8707 -0.8646
 8825SOL    HW138111   1.308   1.373  12.876 -5.3872 -1.7489  1.6087
 8825SOL    HW238112   1.282   1.412  13.013  2.8104  0.2072  2.2625
 8826SOL     OW38113   2.482   0.891   5.748 -0.5152 -0.3634  0.8680
 8826SOL    HW138114   2.413   0.936   5.699  1.9563 -0.1454 -2.4040
 8826SOL    HW238115   2.546   0.962   5.755 -0.3357 -0.6169  1.7936
 8827SOL     OW38116   2.630   0.697   7.111 -0.8033 -0.2496  0.3276
 8827SOL    HW138117   2.616   0.605   7.091  2.2343 -0.1006 -2.4242
 8827SOL    HW238118   2.725   0.706   7.118 -1.1500  3.6592 -0.0603
 8828SOL     OW38119   3.018   2.998   2.849 -0.0359 -0.5526  0.6382
 8828SOL    HW138120   3.003   2.975   2.940  0.6538 -1.2516  0.5736
 8828SOL    HW238121   2.942   2.965   2.802  1.3711 -0.0472 -2.0215
 8829SOL     OW38122   2.375   4.736   4.889 -0.2723  0.2525  0.3480
 8829SOL    HW138123   2.453   0.025   4.933  2.1066 -2.5511 -1.8389
 8829SOL    HW238124   2.346   0.075   4.848  1.5039  0.5435 -0.3292
 8830SOL     OW38125   2.620   0.043  11.136  0.1408 -0.0170  0.5196
 8830SOL    HW138126   2.584   0.018  11.222 -1.7933 -2.0652 -0.9016
 8830SOL    HW238127   2.680   4.713  11.121  0.3325  0.1510  0.4821
 8831SOL     OW38128   4.230   2.986   2.462  0.5233 -0.0122  0.0824
 8831SOL    HW138129   4.202   3.057   2.404 -0.8958  0.0626  0.8709
 8831SOL    HW238130   4.155   2.927   2.468  1.7592 -1.4282  1.6485
 8832SOL     OW38131   4.739   1.684   1.387 -0.0030 -0.0100  0.8892
 8832SOL    HW138132   0.025   1.726   1.468 -1.5179  1.5030  0.6369
 8832SOL    HW238133   4.685   1.755   1.352 -5.2174 -4.0219  0.6146
 8833SOL     OW38134   3.812   3.009   6.227  0.2367 -0.0190  0.1916
 8833SOL    HW138135   3.795   2.965   6.310 -0.2839  0.4519  0.3411
 8833SOL    HW238136   3.748   2.981   6.162 -0.7199  2.5985 -0.0161
 8834SOL     OW38137   0.999   1.555   3.584 -0.0916  0.5927 -0.6472
 8834SOL    HW138138   1.074   1.526   3.533 -0.7524 -1.1682 -0.6172
 8834SOL    HW238139   0.974   1.637   3.540 -0.6319  0.9139  0.2574
 8835SOL     OW38140   3.395   2.405   2.562  0.1767 -0.2384  0.2394
 8835SOL    HW138141   3.414   2.313   2.582 -2.4400 -1.3021 -2.2553
 8835SOL    HW238142   3.303   2.403   2.536 -0.0072  1.9840  0.6716
 8836SOL     OW38143   1.722   3.639   2.232 -0.0594  0.3345 -0.2867
 8836SOL    HW138144   1.810   3.603   2.220 -1.2274 -2.2269 -1.0603
 8836SOL    HW238145   1.701   3.676   2.147  2.9892 -2.7085 -2.3795
 8837SOL     OW38146   0.796   1.911   4.172 -0.2934  0.0594  0.0596
 8837SOL    HW138147   0.824   1.842   4.113 -3.3876 -0.5807 -0.6645
 8837SOL    HW238148   0.843   1.986   4.137 -2.2305  0.8640 -0.8528
 8838SOL     OW38149   1.161   2.845  16.903  0.1544 -0.0136  0.5882
 8838SOL    HW138150   1.203   2.857  16.818  0.2241 -3.0173  0.1972
 8838SOL    HW238151   1.208   2.774  16.945 -2.3653 -2.7667 -1.2033
 8839SOL     OW38152   4.674   2.683   3.593 -0.1914 -0.2843  0.1503
 8839SOL    HW138153   4.665   2.776   3.573  1.5680 -0.1877 -0.2527
 8839SOL    HW238154   0.012   2.653   3.551  1.5505  0.1408  3.1888
 8840SOL     OW38155   0.153   1.446  15.900 -0.9166 -0.3759 -0.8733
 8840SOL    HW138156   0.224   1.382  15.900  0.2752  0.9254 -0.9268
 8840SOL    HW238157   0.080   1.396  15.863 -0.3260 -3.6487  2.4303
 8841SOL     OW38158   4.010   0.921   4.949  0.0395 -0.1615  0.0731
 8841SOL    HW138159   3.995   0.881   5.035  0.9763 -0.0925  0.2627
 8841SOL    HW238160   4.008   1.013   4.976  2.0359  0.2853 -1.3445
 8842SOL     OW38161   0.723   2.158  12.027 -0.3091  0.3666  0.1558
 8842SOL    HW138162   0.742   2.072  12.065  1.5862  0.7469  0.0508
 8842SOL    HW238163   0.808   2.181  11.990 -1.0239  2.6544 -0.0303
 8843SOL     OW38164   0.351   2.183  15.528  0.0231  0.3301 -0.6510
 8843SOL    HW138165   0.261   2.199  15.556  0.2686  2.0735 -0.8618
 8843SOL    HW238166   0.358   2.193  15.433  1.9774  0.4772 -0.4980
 8844SOL     OW38167   2.949   2.522   6.756 -0.4519  0.1890 -0.0375
 8844SOL    HW138168   3.042   2.513   6.733 -0.5886  1.3382 -1.0196
 8844SOL    HW238169   2.910   2.443   6.719 -1.2667  0.3698  0.4292
 8845SOL     OW38170   3.941   2.706  16.607  0.0975  0.0893  0.3175
 8845SOL    HW138171   3.943   2.630  16.549  2.2027  0.7912 -0.5145
 8845SOL    HW238172   4.018   2.693  16.663 -0.2459  2.1963  1.3117
 8846SOL     OW38173   3.323   4.685   2.548 -0.5069  0.1300  0.5009
 8846SOL    HW138174   3.399   4.703   2.493 -1.8022  1.2874 -0.9210
 8846SOL    HW238175   3.299   0.032   2.574 -0.2173  0.4637 -0.3853
 8847SOL     OW38176   3.663   1.822  12.546 -0.5007  0.2354  0.1710
 8847SOL    HW138177   3.625   1.747  12.499 -1.4034 -0.1701  1.5370
 8847SOL    HW238178   3.585   1.876  12.552 -0.1144  0.7750  0.2892
 8848SOL     OW38179   2.916   0.892   9.373  0.9435  0.6901  0.5099
 8848SOL    HW138180   2.966   0.935   9.304 -0.2369 -1.5478 -1.7557
 8848SOL    HW238181   2.967   0.811   9.378 -1.1010 -0.7522 -1.5146
 8849SOL     OW38182   4.111   3.794   2.609 -0.3136  0.4659  0.2773
 8849SOL    HW138183   4.073   3.719   2.655  0.1950 -0.0671 -0.1748
 8849SOL    HW238184   4.070   3.802   2.523  1.2479  0.9401 -0.4248
 8850SOL     OW38185   2.048   4.251   7.341 -0.0038 -0.2283 -0.1345
 8850SOL    HW138186   2.038   4.187   7.411  1.0612 -1.8572 -1.4659
 8850SOL    HW238187   2.000   4.327   7.373  1.1483  0.0849  0.8274
 8851SOL     OW38188   1.111   4.431   3.122  0.5135  0.1151  0.0746
 8851SOL    HW138189   1.066   4.411   3.040  0.0317  1.4146  0.0123
 8851SOL    HW238190   1.059   4.382   3.184 -0.6432  0.0955 -0.9086
 8852SOL     OW38191   2.599   2.585   8.575 -0.2087  0.3717  0.0295
 8852SOL    HW138192   2.571   2.649   8.641  0.5631 -0.1653  0.8952
 8852SOL    HW238193   2.620   2.511   8.632 -2.1929 -0.8206 -0.8144
 8853SOL     OW38194   3.035   0.445   2.234 -0.0137  0.3627 -0.0453
 8853SOL    HW138195   2.955   0.472   2.188  0.1062  1.5500  0.4530
 8853SOL    HW238196   3.105   0.473   2.176 -0.6179  2.2295  0.1368
 8854SOL     OW38197   0.823   1.669   6.992 -0.6233  0.2120  0.2151
 8854SOL    HW138198   0.837   1.718   6.911 -1.6716  2.3128  1.3156
 8854SOL    HW238199   0.831   1.578   6.962 -0.4878  0.0098  0.8721
 8855SOL     OW38200   0.806   3.229   6.687  0.1754  0.3460  0.5877
 8855SOL    HW138201   0.752   3.306   6.703 -1.2833 -0.2666 -1.3009
 8855SOL    HW238202   0.732   3.169   6.696  0.7906 -0.4660  0.2196
 8856SOL     OW38203   1.777   3.141   6.067  0.3472  0.1551 -0.0456
 8856SOL    HW138204   1.752   3.219   6.117 -0.1953 -0.5215  0.7430
 8856SOL    HW238205   1.759   3.067   6.124  2.7341 -1.6992 -1.7043
 8857SOL     OW38206   0.200   4.224   6.686 -0.4809 -0.0245 -0.0451
 8857SOL    HW138207   0.273   4.164   6.698  0.6372  0.9595 -1.8309
 8857SOL    HW238208   0.229   4.298   6.740  0.5111 -0.1371 -0.4361
 8858SOL     OW38209   1.763   2.056   9.150 -0.1505  0.2982 -0.4401
 8858SOL    HW138210   1.830   2.047   9.083  2.4639  1.3761  2.0212
 8858SOL    HW238211   1.777   1.980   9.206 -1.5321  1.0584  0.9371
 8859SOL     OW38212   0.097   3.304  17.514 -0.0105  0.2692  0.4321
 8859SOL    HW138213   0.144   3.220  17.521 -0.3679  0.0303 -0.0017
 8859SOL    HW238214   0.073   3.322  17.605 -2.3567  0.8289 -0.2989
 8860SOL     OW38215   2.972   1.499   1.902 -0.2908  0.2570  0.1344
 8860SOL    HW138216   3.033   1.483   1.830  1.5586 -0.6293  1.9446
 8860SOL    HW238217   3.023   1.507   1.982 -0.8747 -0.5466  0.5913
 8861SOL     OW38218   4.362   3.405   4.277  0.4074  0.3985  0.5839
 8861SOL    HW138219   4.335   3.450   4.357 -0.4947  0.4584  0.2380
 8861SOL    HW238220   4.295   3.442   4.220 -0.0743 -2.3852 -0.6354
 8862SOL     OW38221   2.460   1.359   7.912  0.3235  0.2349 -0.4828
 8862SOL    HW138222   2.433   1.398   7.995 -1.5682 -1.0708 -0.4952
 8862SOL    HW238223   2.542   1.324   7.947 -0.2646  0.8327  1.4591
 8863SOL     OW38224   4.636   3.569   3.552  0.3635 -0.4208  0.0514
 8863SOL    HW138225   4.564   3.530   3.602  0.8014  1.7906  2.4137
 8863SOL    HW238226   4.633   3.522   3.469 -0.5838  0.7918 -0.5951
 8864SOL     OW38227   3.523   0.338   4.066  0.3112 -0.1778 -0.1497
 8864SOL    HW138228   3.548   0.263   4.012  0.3041  1.6217 -2.6712
 8864SOL    HW238229   3.546   0.294   4.147  1.5763 -0.9082 -0.8931
 8865SOL     OW38230   3.430   1.189   2.023  0.3217 -0.3371 -0.8471
 8865SOL    HW138231   3.365   1.167   1.957 -0.3297 -0.7634 -0.0663
 8865SOL    HW238232   3.511   1.156   1.985  0.9174 -1.4509  1.3591
 8866SOL     OW38233   0.705   2.171  17.377 -0.1560  0.3837  0.5592
 8866SOL    HW138234   0.759   2.190  17.301 -1.2206  2.7009  0.3833
 8866SOL    HW238235   0.638   2.118  17.333  0.2284  2.0627 -2.0434
 8867SOL     OW38236   0.392   4.450  12.552 -0.9234  0.4555  0.2393
 8867SOL    HW138237   0.427   4.405  12.475 -1.9186  0.7826 -0.4015
 8867SOL    HW238238   0.312   4.488  12.516 -0.7408  2.4831  1.9601
 8868SOL     OW38239   2.236   0.745  14.105  0.4746  0.4092 -0.1408
 8868SOL    HW138240   2.331   0.756  14.091  0.5132 -1.0815 -0.9755
 8868SOL    HW238241   2.227   0.651  14.118 -0.3086  0.3040 -1.4321
 8869SOL     OW38242   0.328   1.739   3.072  0.7471  0.2466  0.1389
 8869SOL    HW138243   0.376   1.819   3.055 -0.0251  0.7975  0.5704
 8869SOL    HW238244   0.243   1.767   3.038  1.6535  0.0590 -2.2827
 8870SOL     OW38245   0.457   0.074   0.362  0.4351 -0.9654  0.2313
 8870SOL    HW138246   0.422   4.729   0.341  3.1417 -2.1870  0.8485
 8870SOL    HW238247   0.375   0.111   0.396  0.8933  0.7381 -0.5166
 8871SOL     OW38248   0.966   4.424  15.049  0.8001 -0.2126  0.5642
 8871SOL    HW138249   0.941   4.341  15.090 -0.0027 -0.3333 -0.1813
 8871SOL    HW238250   0.930   4.409  14.962 -1.9227 -0.2560  1.6837
 8872SOL     OW38251   2.911   1.613  14.383 -0.3192 -0.1484  0.0144
 8872SOL    HW138252   2.875   1.652  14.303  0.1200 -2.0036 -1.0690
 8872SOL    HW238253   2.953   1.538  14.342  0.7552  1.2045 -1.3826
 8873SOL     OW38254   3.287   3.506   7.105 -0.1959  0.1722 -0.2346
 8873SOL    HW138255   3.192   3.497   7.111 -0.0929 -0.5558  0.2563
 8873SOL    HW238256   3.312   3.552   7.184  1.2980 -1.1563  0.0724
 8874SOL     OW38257   1.869   3.999   4.866 -0.1557  0.0083  0.1065
 8874SOL    HW138258   1.931   4.031   4.932  1.8959 -2.1688 -0.7382
 8874SOL    HW238259   1.784   4.028   4.898 -0.9439 -0.7967 -1.2863
 8875SOL     OW38260   0.522   1.358  12.652  0.6978  0.3587 -0.1782
 8875SOL    HW138261   0.612   1.391  12.643  0.9210 -0.7388 -1.8480
 8875SOL    HW238262   0.477   1.439  12.673 -0.5869  0.5737 -3.9467
 8876SOL     OW38263   1.880   2.749   9.920  0.1984 -0.3158  0.9173
 8876SOL    HW138264   1.949   2.789   9.866 -0.1160 -0.1929  0.6041
 8876SOL    HW238265   1.908   2.771  10.008  0.1889 -0.1842  0.8866
 8877SOL     OW38266   4.415   1.849  16.499  0.6271 -0.0828 -0.1009
 8877SOL    HW138267   4.413   1.826  16.406  0.8372  0.9174 -0.3480
 8877SOL    HW238268   4.368   1.932  16.504 -2.0522 -1.6678  0.8060
 8878SOL     OW38269   3.971   2.204   6.084 -0.3455  0.4898  0.3420
 8878SOL    HW138270   4.060   2.172   6.071 -0.2464  1.9599 -2.6515
 8878SOL    HW238271   3.986   2.276   6.145  1.7990 -0.0098  0.3951
 8879SOL     OW38272   2.525   0.073   2.481  0.2561 -0.6598 -0.0371
 8879SOL    HW138273   2.512   4.742   2.421  2.2730 -2.4616  1.7079
 8879SOL    HW238274   2.608   0.059   2.528  0.2813  0.5219  0.2670
 8880SOL     OW38275   0.612   1.370   5.424  0.3243 -0.0741 -0.3327
 8880SOL    HW138276   0.596   1.357   5.330  2.9459  1.5041 -0.9915
 8880SOL    HW238277   0.588   1.281   5.452 -3.8458  0.5992 -1.7274
 8881SOL     OW38278   0.437   3.476   1.800 -0.3553  0.4469  0.1588
 8881SOL    HW138279   0.480   3.409   1.854  0.9071 -0.4578 -1.9490
 8881SOL    HW238280   0.365   3.503   1.857 -0.1673 -2.4541  1.7901
 8882SOL     OW38281   0.131   4.585  12.335  0.2503 -0.2228 -0.5266
 8882SOL    HW138282   0.194   4.654  12.319  1.7298 -1.3759  0.3673
 8882SOL    HW238283   0.183   4.512  12.301  1.7386 -0.6138  2.6356
 8883SOL     OW38284   3.220   1.792  14.186 -0.2536 -0.5441 -0.0000
 8883SOL    HW138285   3.170   1.771  14.265 -0.4637  1.9280  0.5080
 8883SOL    HW238286   3.232   1.703  14.152  1.4141 -0.5541  0.5965
 8884SOL     OW38287   0.917   2.624  11.154 -0.3449  0.0917 -0.1485
 8884SOL    HW138288   0.911   2.639  11.248 -1.5537  0.5810 -0.3000
 8884SOL    HW238289   1.010   2.604  11.143 -0.4828 -0.1217 -0.9085
 8885SOL     OW38290   0.908   4.510   5.534 -0.3244 -0.1927  0.2526
 8885SOL    HW138291   0.995   4.511   5.493 -0.3326 -0.4783  0.2328
 8885SOL    HW238292   0.877   4.599   5.515  2.0064  0.5915  0.0850
 8886SOL     OW38293   3.568   3.808  13.491  0.0003 -0.0017 -0.4083
 8886SOL    HW138294   3.490   3.856  13.518 -0.7467 -0.9853 -0.7952
 8886SOL    HW238295   3.629   3.824  13.563 -0.2248 -2.8468  0.3949
 8887SOL     OW38296   0.435   0.867  15.149 -0.2917 -0.4729  0.7500
 8887SOL    HW138297   0.508   0.904  15.099 -1.7861  1.1985 -0.2042
 8887SOL    HW238298   0.485   0.828  15.221  1.7082 -1.5646 -1.2613
 8888SOL     OW38299   0.423   2.979   3.741 -0.3334  0.2325  0.3168
 8888SOL    HW138300   0.498   2.928   3.772  0.5824 -0.4227 -2.9366
 8888SOL    HW238301   0.377   2.923   3.679  1.4114 -0.4429 -0.3864
 8889SOL     OW38302   1.250   3.553  17.094  0.4735  0.5173  0.2380
 8889SOL    HW138303   1.332   3.597  17.119 -0.7457  2.7718  0.2827
 8889SOL    HW238304   1.196   3.619  17.050 -0.4528  0.6069  1.5218
 8890SOL     OW38305   4.450   1.745   2.430 -0.1031  0.6334  0.1893
 8890SOL    HW138306   4.392   1.670   2.419  0.4411  0.2164  0.1271
 8890SOL    HW238307   4.424   1.791   2.510  1.3257 -0.1094  1.0884
 8891SOL     OW38308   0.584   1.185  17.300 -0.1531  0.2931  0.1524
 8891SOL    HW138309   0.578   1.098  17.260  5.5452 -0.0803  0.1132
 8891SOL    HW238310   0.640   1.163  17.375 -0.7372 -1.4810  0.0806
 8892SOL     OW38311   3.126   4.345   1.815  0.3744 -0.7036 -0.3429
 8892SOL    HW138312   3.082   4.278   1.868  2.4090 -0.7010  1.3025
 8892SOL    HW238313   3.213   4.317   1.843  0.8286 -3.2341 -4.2576
 8893SOL     OW38314   3.930   3.534   0.802  0.1591 -0.1481  0.1606
 8893SOL    HW138315   3.998   3.578   0.853  0.1420 -1.5701  1.3954
 8893SOL    HW238316   3.862   3.594   0.833 -0.4386 -0.4402 -0.5978
 8894SOL     OW38317   2.234   4.196  11.206 -0.5563 -0.8823  0.4070
 8894SOL    HW138318   2.156   4.243  11.179 -0.4539 -0.1872  1.3207
 8894SOL    HW238319   2.299   4.265  11.195 -1.0906 -0.5654 -0.7482
 8895SOL     OW38320   0.576   2.205  16.726  0.2114 -0.9775  0.5202
 8895SOL    HW138321   0.515   2.155  16.673  1.0837 -1.6076  0.0982
 8895SOL    HW238322   0.552   2.294  16.700  2.4884  0.0777  1.9419
 8896SOL     OW38323   2.774   3.140  16.628 -0.1582  0.5568  0.1102
 8896SOL    HW138324   2.814   3.227  16.633  1.7852 -0.3376 -0.0741
 8896SOL    HW238325   2.689   3.150  16.585  0.7958 -1.9700 -2.3569
 8897SOL     OW38326   4.408   0.922   7.253  0.3250 -0.1835  0.2739
 8897SOL    HW138327   4.408   0.826   7.248 -0.2733 -0.1684  0.0306
 8897SOL    HW238328   4.314   0.940   7.248  0.3142 -0.4691 -0.6509
 8898SOL     OW38329   3.093   4.090   4.876  0.1159  0.1599  0.8380
 8898SOL    HW138330   3.016   4.034   4.868  0.0223  0.3685  0.2978
 8898SOL    HW238331   3.051   4.172   4.851 -1.0885 -0.7569 -0.1757
 8899SOL     OW38332   0.344   2.519  17.412 -0.1057  0.1721  0.0189
 8899SOL    HW138333   0.284   2.457  17.453 -2.1798  2.2840  0.1692
 8899SOL    HW238334   0.426   2.470  17.410 -0.8019 -1.0098  0.7208
 8900SOL     OW38335   4.137   4.356   4.789  0.3407  0.2946  0.6743
 8900SOL    HW138336   4.112   4.430   4.845  0.8664  1.1883 -0.2790
 8900SOL    HW238337   4.048   4.322   4.779 -0.1399  1.4715  0.9274
 8901SOL     OW38338   0.680   4.549   4.248  0.1904  0.1067  0.3314
 8901SOL    HW138339   0.699   4.635   4.210  0.0545 -0.1221 -0.2579
 8901SOL    HW238340   0.727   4.490   4.189  1.0299  2.6715 -1.5720
 8902SOL     OW38341   1.944   3.470   2.154  0.1692  0.6575 -0.0187
 8902SOL    HW138342   1.998   3.445   2.229  0.1407  0.3010 -0.1153
 8902SOL    HW238343   1.891   3.391   2.141 -0.4762  1.2951 -1.3654
 8903SOL     OW38344   1.496   4.441  13.074 -0.6590  0.3534 -0.2822
 8903SOL    HW138345   1.526   4.467  12.987  0.8857  2.1890  0.8128
 8903SOL    HW238346   1.541   4.356  13.077  0.0653  0.7507  0.0699
 8904SOL     OW38347   4.084   4.154   3.369  0.3651 -0.4744  0.5437
 8904SOL    HW138348   4.055   4.170   3.458 -1.1682  3.6291 -0.7068
 8904SOL    HW238349   4.019   4.100   3.325  0.7343 -0.8773  0.4898
 8905SOL     OW38350   2.720   2.740   2.380  0.5288  0.0207  0.0832
 8905SOL    HW138351   2.665   2.721   2.455 -0.2393  1.5504 -0.0883
 8905SOL    HW238352   2.706   2.660   2.328  0.6935  1.8769 -2.8381
 8906SOL     OW38353   3.207   4.286  16.392  0.2614  0.2371 -0.3977
 8906SOL    HW138354   3.112   4.280  16.405  0.2548  2.8091  0.8024
 8906SOL    HW238355   3.216   4.334  16.310 -4.0823  1.9483  0.1453
 8907SOL     OW38356   0.995   1.919   0.307  0.1032  0.0261 -0.3280
 8907SOL    HW138357   0.981   2.010   0.279 -1.4423  0.2356  1.1011
 8907SOL    HW238358   1.043   1.885   0.231 -1.9362 -0.1292 -1.5638
 8908SOL     OW38359   2.269   2.232   7.626  0.2780  0.1564  0.0326
 8908SOL    HW138360   2.242   2.270   7.710  0.5761  1.6998 -0.5783
 8908SOL    HW238361   2.209   2.271   7.563  0.5984  3.0087  1.4866
 8909SOL     OW38362   0.509   3.406   3.126 -0.6647 -0.6463 -0.2914
 8909SOL    HW138363   0.593   3.436   3.162 -0.5244 -2.4025  0.8676
 8909SOL    HW238364   0.536   3.384   3.037  0.1075  0.2981 -0.2952
 8910SOL     OW38365   2.192   2.352   7.881 -0.0065  0.3882  0.1056
 8910SOL    HW138366   2.137   2.408   7.935 -2.0064  0.8346 -2.4315
 8910SOL    HW238367   2.209   2.288   7.950  0.6324  0.2773 -0.1554
 8911SOL     OW38368   0.933   2.516   3.898 -0.1930  0.2602 -0.2641
 8911SOL    HW138369   0.862   2.579   3.905 -0.8369 -0.5988  0.8528
 8911SOL    HW238370   0.881   2.440   3.922  0.4437  0.1462  0.7623
 8912SOL     OW38371   1.401   2.503   1.052  0.6004 -0.0630  0.7041
 8912SOL    HW138372   1.374   2.530   0.964 -3.0090 -0.1144  1.8308
 8912SOL    HW238373   1.444   2.584   1.079 -0.5212 -0.0943  2.5504
 8913SOL     OW38374   1.725   0.771  11.779  0.4302  0.1566  0.0615
 8913SOL    HW138375   1.740   0.698  11.839 -1.1074 -0.2358 -0.0236
 8913SOL    HW238376   1.813   0.791  11.748  0.7037  0.2232  0.8939
 8914SOL     OW38377   2.057   1.163   8.606 -0.3399  0.2169 -0.3689
 8914SOL    HW138378   2.084   1.142   8.517  3.0147  0.1476  0.6440
 8914SOL    HW238379   2.074   1.258   8.608 -1.6303  0.4608 -1.7307
 8915SOL     OW38380   1.134   3.585   1.428 -0.4073  0.4402 -0.1657
 8915SOL    HW138381   1.113   3.545   1.343 -1.6765  1.4123 -0.3123
 8915SOL    HW238382   1.057   3.547   1.471 -0.8479  2.1581  0.5452
 8916SOL     OW38383   0.863   4.291  13.215  0.1089 -0.8518  0.3558
 8916SOL    HW138384   0.782   4.324  13.253 -0.1572  2.2595 -2.9409
 8916SOL    HW238385   0.861   4.201  13.248 -0.3470 -0.9031  0.1840
 8917SOL     OW38386   3.369   3.379   4.190 -0.0804  0.1329  0.2851
 8917SOL    HW138387   3.456   3.414   4.212 -0.7406  0.4350  2.4318
 8917SOL    HW238388   3.324   3.464   4.185  1.3963  0.8674 -0.4508
 8918SOL     OW38389   2.509   4.640   7.734 -0.4709 -0.5205 -0.0227
 8918SOL    HW138390   2.553   4.601   7.659  1.0146 -1.4411  1.3335
 8918SOL    HW238391   2.564   4.710   7.771 -0.8148 -1.2698  1.8754
 8919SOL     OW38392   2.251   1.601   1.708 -0.1235 -0.6844  0.4114
 8919SOL    HW138393   2.180   1.538   1.702 -1.1154  0.5476 -0.9485
 8919SOL    HW238394   2.325   1.551   1.672  0.6275  1.1085 -0.5473
 8920SOL     OW38395   2.894   2.480   9.206 -0.0010 -0.0878 -0.0569
 8920SOL    HW138396   2.964   2.461   9.143 -0.5250  2.0257 -1.2861
 8920SOL    HW238397   2.839   2.506   9.132  2.6752 -0.2440 -2.1140
 8921SOL     OW38398   4.597   2.496   5.286  0.4665 -0.0752 -0.2622
 8921SOL    HW138399   4.644   2.436   5.228 -0.0701  0.3782 -1.1611
 8921SOL    HW238400   4.660   2.500   5.358  0.8734  2.0578 -0.7405
 8922SOL     OW38401   0.524   1.609   9.477  0.4353  0.2487 -0.2251
 8922SOL    HW138402   0.530   1.596   9.571 -1.4559 -1.2126 -0.3162
 8922SOL    HW238403   0.432   1.624   9.457  0.8220  0.6515 -1.7289
 8923SOL     OW38404   3.148   2.394   7.132  0.2038  0.3938 -0.6168
 8923SOL    HW138405   3.074   2.340   7.159  1.3431  0.0172  1.7154
 8923SOL    HW238406   3.212   2.325   7.118  0.1453  1.1401 -4.6278
 8924SOL     OW38407   1.848   3.310   5.038 -0.0749  0.4675 -0.7112
 8924SOL    HW138408   1.809   3.227   5.068 -1.2378  0.3963 -2.3934
 8924SOL    HW238409   1.878   3.290   4.950 -0.3162  0.7923 -0.8648
 8925SOL     OW38410   3.579   4.726   6.970  0.0576 -0.3041 -0.1114
 8925SOL    HW138411   3.552   0.015   6.884  1.3614 -1.2084 -0.8510
 8925SOL    HW238412   3.632   0.057   7.002  1.2963 -0.5204 -1.7129
 8926SOL     OW38413   2.383   4.432   3.589 -0.2831  0.4887  0.4319
 8926SOL    HW138414   2.386   4.363   3.523  4.2791  0.7487  0.3664
 8926SOL    HW238415   2.393   4.371   3.661  0.5420 -1.1884 -1.1076
 8927SOL     OW38416   1.590   2.599   8.422  0.2659 -0.4792  0.0320
 8927SOL    HW138417   1.657   2.580   8.357 -1.4486  0.3756 -1.9967
 8927SOL    HW238418   1.517   2.603   8.361 -0.4091 -1.4367  0.7890
 8928SOL     OW38419   0.052   3.018   0.151  0.3052  0.3138 -0.4866
 8928SOL    HW138420   0.120   2.950   0.146  0.5761  0.4484  1.3770
 8928SOL    HW238421   4.728   2.975   0.097  0.5802 -1.8538  0.9154
 8929SOL     OW38422   1.963   2.202   9.427  0.3151 -0.2966 -0.0962
 8929SOL    HW138423   1.969   2.145   9.350  0.5857 -1.1914  0.5890
 8929SOL    HW238424   2.043   2.253   9.413 -1.2354  2.4037  0.9231
 8930SOL     OW38425   2.046   1.712   7.618 -0.2826  0.1434  0.4943
 8930SOL    HW138426   2.017   1.804   7.619 -1.3322 -0.2086  1.7776
 8930SOL    HW238427   2.123   1.717   7.674 -0.0857  2.5034  0.0330
 8931SOL     OW38428   3.391   2.655   8.123 -0.3436  0.9885 -0.0601
 8931SOL    HW138429   3.325   2.689   8.064 -0.7029  1.4108  0.5810
 8931SOL    HW238430   3.474   2.658   8.077 -0.5262  2.0572 -0.3207
 8932SOL     OW38431   0.966   0.960   5.491 -0.1793 -0.1134  0.1570
 8932SOL    HW138432   1.049   0.940   5.533  0.9357  1.7718 -1.1316
 8932SOL    HW238433   0.966   0.912   5.408 -0.1412  4.2068 -2.3762
 8933SOL     OW38434   4.221   3.323   8.297  0.4741 -0.3840 -0.5168
 8933SOL    HW138435   4.292   3.385   8.313  0.0153 -0.5977  2.4441
 8933SOL    HW238436   4.156   3.384   8.261 -2.1189 -2.4971  0.5675
 8934SOL     OW38437   4.131   4.394   8.574 -0.1212 -0.0440  0.1234
 8934SOL    HW138438   4.039   4.409   8.554  0.5934  2.5290 -1.3295
 8934SOL    HW238439   4.131   4.313   8.523 -1.3602 -0.1762  0.3395
 8935SOL     OW38440   1.964   3.461   6.021  0.2365 -0.2800 -0.2536
 8935SOL    HW138441   2.012   3.399   5.966  1.4405 -0.2982  0.8084
 8935SOL    HW238442   2.032   3.520   6.055 -0.9041  0.3842  0.8467
 8936SOL     OW38443   4.633   3.570   5.716 -0.8021 -0.1401 -0.0315
 8936SOL    HW138444   4.709   3.524   5.681 -0.6947  0.5417 -0.6915
 8936SOL    HW238445   4.568   3.499   5.712 -2.1523  1.0058  1.6285
 8937SOL     OW38446   4.396   4.361   1.378 -0.0241 -0.2465  0.7884
 8937SOL    HW138447   4.409   4.411   1.298 -0.8815  3.8415  3.1825
 8937SOL    HW238448   4.379   4.274   1.344  0.8328 -1.5068  3.5567
 8938SOL     OW38449   2.550   4.225   2.169  0.3887 -0.2874  0.9025
 8938SOL    HW138450   2.580   4.210   2.259 -0.2696 -0.3955  1.1009
 8938SOL    HW238451   2.600   4.302   2.142  0.9665 -0.0052  2.7587
 8939SOL     OW38452   3.880   4.590   7.925 -0.0469  0.0804 -0.4553
 8939SOL    HW138453   3.855   4.615   7.836  1.8645 -2.6284 -1.7671
 8939SOL    HW238454   3.975   4.596   7.914  0.2250 -0.4924  1.5064
 8940SOL     OW38455   2.791   1.110   2.301  0.2114  0.0513  0.3856
 8940SOL    HW138456   2.762   1.197   2.329  1.4181  0.5249  0.1557
 8940SOL    HW238457   2.767   1.062   2.380  3.5616 -0.2060  1.2646
 8941SOL     OW38458   4.121   4.436   6.287  0.4768  0.0072 -0.4553
 8941SOL    HW138459   4.070   4.356   6.295 -0.1752  0.4787  0.0960
 8941SOL    HW238460   4.133   4.461   6.379 -0.1148  0.5298 -0.5167
 8942SOL     OW38461   3.135   0.917  13.057  0.1147  0.4888 -0.2685
 8942SOL    HW138462   3.126   0.978  13.130 -0.3887  1.8589 -1.4892
 8942SOL    HW238463   3.062   0.857  13.073  0.6172  0.1868  0.9499
 8943SOL     OW38464   2.547   2.841   0.517  0.4500  0.2737 -0.8309
 8943SOL    HW138465   2.576   2.887   0.596 -0.3434 -1.3654  0.4255
 8943SOL    HW238466   2.592   2.757   0.529  0.3847  0.1115 -1.7343
 8944SOL     OW38467   0.230   1.285   8.325 -0.0959  0.3339  0.2260
 8944SOL    HW138468   0.175   1.344   8.376 -0.3816 -0.8241  1.2477
 8944SOL    HW238469   0.169   1.211   8.324 -0.2745  0.4481  2.7432
 8945SOL     OW38470   1.338   0.750   1.952 -0.2012  0.3275  0.5347
 8945SOL    HW138471   1.419   0.776   1.908  0.2697 -2.0703  0.0027
 8945SOL    HW238472   1.333   0.656   1.935  3.1505  0.3276 -0.5528
 8946SOL     OW38473   0.648   0.124   1.458  0.3135 -0.1415 -0.0296
 8946SOL    HW138474   0.604   0.125   1.373  0.6784  1.4279 -0.2006
 8946SOL    HW238475   0.712   0.054   1.463  1.5325  0.9120 -0.8690
 8947SOL     OW38476   2.114   4.275   1.196 -0.2658  0.2946  0.0429
 8947SOL    HW138477   2.087   4.257   1.106 -1.7909 -0.0603  0.5709
 8947SOL    HW238478   2.208   4.259   1.195 -0.3300 -0.0334 -0.3619
 8948SOL     OW38479   0.335   2.496   0.668 -0.1082  0.0965  0.0002
 8948SOL    HW138480   0.405   2.482   0.732  0.5098 -0.3663 -0.7774
 8948SOL    HW238481   0.373   2.467   0.585 -0.6760 -0.8783  0.0816
 8949SOL     OW38482   0.956   3.859   8.684  0.2572  0.2583  0.0312
 8949SOL    HW138483   1.032   3.831   8.735 -0.8550  0.3086  1.7359
 8949SOL    HW238484   0.972   3.954   8.685 -1.2985  0.5478 -2.0580
 8950SOL     OW38485   2.071   4.484   0.200  0.3925  0.2940  0.2073
 8950SOL    HW138486   2.008   4.542   0.243  0.2779  1.2002 -1.1468
 8950SOL    HW238487   2.148   4.540   0.206 -0.0343  0.8246  0.7115
 8951SOL     OW38488   2.775   3.736   3.612  0.0179  0.0149 -0.1244
 8951SOL    HW138489   2.803   3.748   3.521  0.0926 -1.1016 -0.2420
 8951SOL    HW238490   2.687   3.701   3.606  0.1361 -0.4702  1.0398
 8952SOL     OW38491   3.655   0.862  14.168 -1.0554  0.4712 -0.0437
 8952SOL    HW138492   3.621   0.926  14.106  0.2693 -0.0216 -1.3070
 8952SOL    HW238493   3.630   0.779  14.127 -1.7987  0.5724  0.2070
 8953SOL     OW38494   3.355   3.830   3.690  0.5116 -0.2999  0.2773
 8953SOL    HW138495   3.277   3.853   3.640  1.3359  0.0151 -0.8727
 8953SOL    HW238496   3.323   3.852   3.778 -1.8401  1.7389 -1.0999
 8954SOL     OW38497   1.222   4.499   3.376  0.4257 -0.1562  0.4280
 8954SOL    HW138498   1.182   4.565   3.433 -3.7307  0.1843 -2.8840
 8954SOL    HW238499   1.195   4.521   3.287 -0.0637 -2.0011  0.1081
 8955SOL     OW38500   1.811   4.740   6.168 -0.1139 -0.2208  0.3967
 8955SOL    HW138501   1.746   0.013   6.099  0.3505 -1.6930 -0.3683
 8955SOL    HW238502   1.867   0.068   6.133  1.8069 -0.3734  3.1479
 8956SOL     OW38503   1.725   2.505  16.822 -0.2433  0.5379 -0.2096
 8956SOL    HW138504   1.638   2.530  16.790 -0.1888  2.4138  1.0787
 8956SOL    HW238505   1.762   2.593  16.810  0.3381 -0.0480 -2.7686
 8957SOL     OW38506   0.267   3.693   6.478 -0.0380  0.3587 -0.5926
 8957SOL    HW138507   0.260   3.736   6.563  3.1119  0.2177 -0.2522
 8957SOL    HW238508   0.245   3.603   6.501  0.6922  0.2364 -0.3623
 8958SOL     OW38509   2.128   1.799   6.890 -0.0464  0.1684  0.7117
 8958SOL    HW138510   2.202   1.744   6.862  0.1009  0.8093 -0.1613
 8958SOL    HW238511   2.170   1.866   6.944  0.6091 -0.4759  1.0119
 8959SOL     OW38512   1.041   0.441  12.716  0.8201  0.0892  0.0089
 8959SOL    HW138513   0.954   0.407  12.695 -0.2058  1.3375  2.2756
 8959SOL    HW238514   1.091   0.388  12.654  0.7458 -1.5084  1.3365
 8960SOL     OW38515   2.904   3.268   2.513 -0.8075  0.1887 -0.1748
 8960SOL    HW138516   2.853   3.219   2.577 -1.6678  3.2694  1.4683
 8960SOL    HW238517   2.943   3.332   2.573 -0.3180  1.6080 -1.9853
 8961SOL     OW38518   0.650   1.666   9.187  0.1907  0.2248 -0.4106
 8961SOL    HW138519   0.711   1.595   9.206  0.0926 -0.0008 -0.9642
 8961SOL    HW238520   0.578   1.647   9.248  2.2166 -0.7049  1.6998
 8962SOL     OW38521   1.559   2.835   3.251  0.6586 -0.5680  0.2580
 8962SOL    HW138522   1.491   2.774   3.279  1.0672 -1.9410 -1.7262
 8962SOL    HW238523   1.521   2.908   3.300  0.9998  0.9652 -1.7367
 8963SOL     OW38524   3.061   0.351  11.839  0.7951  0.0050 -0.9052
 8963SOL    HW138525   3.068   0.255  11.838 -0.8927 -0.1117 -1.1589
 8963SOL    HW238526   3.144   0.375  11.880 -0.1668  2.0255 -0.1497
 8964SOL     OW38527   3.216   2.723   8.963  0.5413 -0.1102  0.2990
 8964SOL    HW138528   3.157   2.776   9.017  0.1218  0.4847 -0.7402
 8964SOL    HW238529   3.302   2.739   9.001  1.2979 -0.1965 -1.3836
 8965SOL     OW38530   2.385   2.819   1.706 -0.7818 -0.2502  0.3939
 8965SOL    HW138531   2.351   2.841   1.793  0.6129 -0.9256  1.0992
 8965SOL    HW238532   2.468   2.779   1.731  0.4408  2.3636  0.4957
 8966SOL     OW38533   3.441   2.070   9.178 -0.5599 -0.0056  0.3924
 8966SOL    HW138534   3.480   2.157   9.172  2.1559 -1.3344 -1.0429
 8966SOL    HW238535   3.512   2.031   9.229 -0.1970 -0.6570 -0.6385
 8967SOL     OW38536   1.257   3.083  13.707  0.2546  0.4420  0.4681
 8967SOL    HW138537   1.207   3.164  13.693  0.7295  0.4642 -1.0962
 8967SOL    HW238538   1.215   3.045  13.785 -1.0578 -1.3265 -1.0944
 8968SOL     OW38539   1.797   2.934   1.880  0.0889  0.4961 -0.2815
 8968SOL    HW138540   1.815   3.012   1.932  2.1571 -0.6795  0.7821
 8968SOL    HW238541   1.832   2.954   1.794  1.5737  3.0783  0.9192
 8969SOL     OW38542   2.024   4.300   8.527  0.4688 -0.0114 -0.5649
 8969SOL    HW138543   2.104   4.349   8.511  0.5030  0.1822  0.2365
 8969SOL    HW238544   2.057   4.222   8.572  2.4252  0.9264 -0.3773
 8970SOL     OW38545   4.618   3.748   0.717 -0.3972 -0.5852  0.2720
 8970SOL    HW138546   4.535   3.762   0.763 -0.7726  1.9944 -1.1997
 8970SOL    HW238547   4.674   3.732   0.793  1.1813  1.1263 -0.5147
 8971SOL     OW38548   3.062   3.723   2.257 -0.2860  0.3949  0.4954
 8971SOL    HW138549   3.073   3.814   2.286 -3.4815  1.2078 -0.8471
 8971SOL    HW238550   3.146   3.684   2.279 -0.4419  0.3404  0.9958
 8972SOL     OW38551   4.365   2.346  13.745 -0.2487  0.6248  0.2861
 8972SOL    HW138552   4.450   2.388  13.758 -0.2912  0.7481  0.1675
 8972SOL    HW238553   4.349   2.291  13.822 -0.0756 -0.6453 -0.5835
 8973SOL     OW38554   0.362   3.045   9.326 -0.0112 -0.2536  0.5886
 8973SOL    HW138555   0.365   3.070   9.234 -0.3165  1.1919  0.9695
 8973SOL    HW238556   0.290   2.981   9.327 -0.2895  0.0446 -0.1245
 8974SOL     OW38557   3.974   1.990  15.582 -0.7279  0.6035 -0.2135
 8974SOL    HW138558   3.991   2.020  15.671  0.1229  0.9646 -0.4901
 8974SOL    HW238559   3.931   2.067  15.544  0.5458  0.9974 -0.8590
 8975SOL     OW38560   3.563   2.698   9.312  0.7268 -0.5350  0.0288
 8975SOL    HW138561   3.597   2.783   9.339 -0.2112 -0.9145  2.4763
 8975SOL    HW238562   3.645   2.648   9.316  0.4950 -0.8820  0.4922
 8976SOL     OW38563   1.658   0.883  10.384  0.1689 -0.3138  0.0349
 8976SOL    HW138564   1.650   0.978  10.388  1.5075 -0.3580  3.9774
 8976SOL    HW238565   1.610   0.869  10.302  0.8569 -0.9156 -0.2621
 8977SOL     OW38566   0.332   0.477   5.866 -0.5537 -0.3800 -0.1076
 8977SOL    HW138567   0.301   0.544   5.926 -0.6698 -0.1402 -0.4339
 8977SOL    HW238568   0.418   0.455   5.904  0.1572  0.7810 -1.0486
 8978SOL     OW38569   4.570   1.016   5.874 -0.5614  0.2391  0.0234
 8978SOL    HW138570   4.649   1.013   5.820  0.4501 -1.1755  1.5656
 8978SOL    HW238571   4.612   1.044   5.955 -1.1716  0.8153  0.1446
 8979SOL     OW38572   0.563   3.323   5.300 -0.3188 -0.6652  0.3857
 8979SOL    HW138573   0.534   3.371   5.222 -2.2876 -0.7330  1.0817
 8979SOL    HW238574   0.647   3.285   5.273 -1.1228 -1.8829 -0.3897
 8980SOL     OW38575   3.418   3.644   3.511  0.2651 -0.3432 -0.0338
 8980SOL    HW138576   3.379   3.684   3.588  1.2641  1.2667 -0.3706
 8980SOL    HW238577   3.449   3.560   3.545  5.6006  0.8555 -1.9485
 8981SOL     OW38578   2.612   3.966  16.899 -0.1190 -0.0080  0.0569
 8981SOL    HW138579   2.679   4.023  16.935 -0.0951 -0.3954  0.6295
 8981SOL    HW238580   2.654   3.887  16.866  0.4157  0.6532 -0.8552
 8982SOL     OW38581   3.891   1.006   8.510 -0.0193 -0.2355  0.4780
 8982SOL    HW138582   3.916   1.040   8.596  1.9983 -1.6271  0.4419
 8982SOL    HW238583   3.917   0.915   8.526 -1.2820 -0.7988 -0.6579
 8983SOL     OW38584   4.674   4.286   3.429  0.3449 -0.0866  0.1172
 8983SOL    HW138585   4.732   4.289   3.353  0.7194 -0.4665  0.3862
 8983SOL    HW238586   4.732   4.316   3.498  2.1197 -2.1906 -0.4728
 8984SOL     OW38587   0.168   2.171   9.095  0.1328 -0.0476 -0.0563
 8984SOL    HW138588   0.142   2.085   9.064 -2.9002  0.1107  2.0692
 8984SOL    HW238589   0.212   2.215   9.022  0.7266 -1.7210 -0.6916
 8985SOL     OW38590   0.925   4.371   7.642  0.1191  0.0774  0.2668
 8985SOL    HW138591   0.989   4.390   7.573  1.3135  0.0604  1.3652
 8985SOL    HW238592   0.929   4.451   7.695  0.7855  0.5621 -0.5190
 8986SOL     OW38593   3.956   0.554   3.735  0.0247 -0.0950  0.4153
 8986SOL    HW138594   4.046   0.577   3.761 -0.1485  1.5329 -0.3947
 8986SOL    HW238595   3.923   0.525   3.820 -0.2421  2.3418  1.1471
 8987SOL     OW38596   0.840   0.914   5.905  0.1118 -0.1769  0.0022
 8987SOL    HW138597   0.831   0.985   5.968  0.7867  2.5304 -2.9927
 8987SOL    HW238598   0.819   0.953   5.821 -0.2830  2.0070  1.1273
 8988SOL     OW38599   0.877   1.723   8.719  0.8670 -0.3816  0.2026
 8988SOL    HW138600   0.932   1.691   8.790  0.7303 -0.5477  0.2335
 8988SOL    HW238601   0.792   1.730   8.763  0.2217  0.4899 -1.1542
 8989SOL     OW38602   0.609   0.193   0.048  0.0944 -0.2635 -0.3235
 8989SOL    HW138603   0.528   0.151   0.019 -0.6682  2.4775 -2.1272
 8989SOL    HW238604   0.571   0.242   0.121 -1.4729  0.4026 -1.5983
 8990SOL     OW38605   4.586   3.223   2.885 -0.4414  0.2270 -0.0174
 8990SOL    HW138606   4.592   3.317   2.868 -1.4492  0.5875  1.5870
 8990SOL    HW238607   4.533   3.202   2.807 -1.8592  1.2137  0.6839
 8991SOL     OW38608   4.504   4.640   5.313 -0.2840  0.2705 -0.3480
 8991SOL    HW138609   4.471   4.645   5.403  1.9836 -0.6271  0.5200
 8991SOL    HW238610   4.569   4.571   5.322 -0.8573  0.0539  2.1970
 8992SOL     OW38611   2.703   4.157   1.385  0.0193  0.4591 -0.7284
 8992SOL    HW138612   2.736   4.229   1.331 -0.1970  0.6475 -0.6103
 8992SOL    HW238613   2.788   4.116   1.398 -1.4051 -1.3983  2.7105
 8993SOL     OW38614   0.124   0.790   7.436 -0.0502 -0.4731  0.5298
 8993SOL    HW138615   0.157   0.853   7.373 -0.4642  0.8492  1.6294
 8993SOL    HW238616   0.034   0.821   7.446  0.2881  0.4202  0.8293
 8994SOL     OW38617   4.454   4.073  14.948 -0.2126 -0.1410  0.0272
 8994SOL    HW138618   4.395   4.041  15.016 -0.0041  1.3842  0.9380
 8994SOL    HW238619   4.431   4.014  14.876  0.7387 -1.8095  1.1241
 8995SOL     OW38620   2.317   2.111   2.528 -0.2559  1.0588 -0.1344
 8995SOL    HW138621   2.376   2.099   2.454 -1.3637 -0.4789 -0.7772
 8995SOL    HW238622   2.264   2.031   2.532  1.5257 -0.0690  0.8535
 8996SOL     OW38623   1.230   0.357   9.815  0.3355 -0.3566 -0.0675
 8996SOL    HW138624   1.316   0.364   9.857 -0.7254 -0.5163  2.1374
 8996SOL    HW238625   1.217   0.262   9.822  2.2466 -0.6401 -0.3933
 8997SOL     OW38626   3.809   2.206   3.671 -0.5450 -0.2898 -0.0152
 8997SOL    HW138627   3.766   2.291   3.671  1.7470  0.8930  2.6486
 8997SOL    HW238628   3.740   2.152   3.708 -1.4999  0.8758 -0.0832
 8998SOL     OW38629   0.979   4.158   8.811  0.5689 -0.3763 -0.0643
 8998SOL    HW138630   1.024   4.237   8.841 -4.5073  1.9801  1.2726
 8998SOL    HW238631   1.044   4.121   8.751  1.6343  0.4644  0.5867
 8999SOL     OW38632   2.819   1.125   2.714 -0.3236  0.3137 -0.0246
 8999SOL    HW138633   2.801   1.077   2.633 -0.0647 -1.1299  0.7759
 8999SOL    HW238634   2.836   1.052   2.773 -1.7577 -0.5636 -0.6879
 9000SOL     OW38635   1.829   3.323   5.609 -0.2123 -0.1606 -0.0562
 9000SOL    HW138636   1.877   3.404   5.592  0.2014 -0.3373  0.2555
 9000SOL    HW238637   1.763   3.317   5.540  2.3415  3.2855 -2.8355
 9001SOL     OW38638   1.853   3.602  10.136  0.2561  0.0706  0.2132
 9001SOL    HW138639   1.833   3.623  10.227  0.4885 -0.7033  0.4457
 9001SOL    HW238640   1.851   3.692  10.102  0.7990  0.9012  2.3945
 9002SOL     OW38641   4.169   0.795  14.919 -0.1018  0.4259 -0.0459
 9002SOL    HW138642   4.194   0.705  14.941  2.6799  0.8026 -1.5945
 9002SOL    HW238643   4.134   0.786  14.830  0.5928 -0.2755 -0.2528
 9003SOL     OW38644   0.202   2.272   4.597 -0.1538  0.3288  0.4079
 9003SOL    HW138645   0.169   2.361   4.594 -2.0867 -0.4690 -2.7206
 9003SOL    HW238646   0.238   2.267   4.685  0.5369 -0.4692  0.0843
 9004SOL     OW38647   3.223   3.143   3.364  0.3012 -0.3062 -0.4521
 9004SOL    HW138648   3.173   3.224   3.354  0.5951 -0.0822 -0.1293
 9004SOL    HW238649   3.283   3.151   3.290 -0.1690  0.1143 -0.7884
 9005SOL     OW38650   3.840   0.650   6.423 -0.6371 -0.1916 -0.4308
 9005SOL    HW138651   3.758   0.644   6.374 -0.1623  0.7920 -1.3546
 9005SOL    HW238652   3.806   0.708   6.491  0.6193 -2.1166  1.8397
 9006SOL     OW38653   2.358   4.070   4.918  0.3320 -0.4891  0.2629
 9006SOL    HW138654   2.421   4.068   4.846 -0.0896 -1.0172 -0.0916
 9006SOL    HW238655   2.421   4.068   4.990  2.0112 -1.6508 -1.2554
 9007SOL     OW38656   4.367   3.584   5.545  0.1097 -0.4055 -0.4063
 9007SOL    HW138657   4.343   3.492   5.538  2.2947 -1.1329  1.7497
 9007SOL    HW238658   4.336   3.602   5.634  0.4053  0.1418 -0.4100
 9008SOL     OW38659   0.295   3.065  12.660 -0.1069  0.2182  0.2339
 9008SOL    HW138660   0.291   3.055  12.756 -1.3223 -0.3879  0.1212
 9008SOL    HW238661   0.217   3.015  12.636  0.0253 -0.7399  1.7824
 9009SOL     OW38662   2.709   3.667   7.954 -0.0576  0.1755 -0.0133
 9009SOL    HW138663   2.796   3.701   7.972  0.6084 -1.2915 -0.4691
 9009SOL    HW238664   2.716   3.666   7.859 -1.9263  1.5687 -0.1634
 9010SOL     OW38665   1.150   2.478   8.126 -0.1988 -0.5667  0.0547
 9010SOL    HW138666   1.065   2.518   8.111  0.4851  1.3880  1.3404
 9010SOL    HW238667   1.126   2.386   8.123  0.2875 -0.7136  0.5556
 9011SOL     OW38668   4.436   3.994   7.163 -0.0438  0.7884  0.4709
 9011SOL    HW138669   4.400   4.017   7.249 -1.8582 -0.0949 -0.0523
 9011SOL    HW238670   4.356   3.970   7.117 -0.0111  0.5960  0.5120
 9012SOL     OW38671   3.972   4.461  11.491 -0.8173 -0.0773  0.1786
 9012SOL    HW138672   3.965   4.511  11.410  2.3568  1.2135  0.6682
 9012SOL    HW238673   3.963   4.372  11.456 -0.2364  1.4945 -3.9762
 9013SOL     OW38674   2.279   0.405   6.987 -0.7986 -0.1102  0.1331
 9013SOL    HW138675   2.266   0.388   6.894 -1.4203  0.2309  0.1575
 9013SOL    HW238676   2.202   0.457   7.007 -0.0006  0.6559  1.2276
 9014SOL     OW38677   1.634   1.141   3.489 -0.2347  0.3092  0.9077
 9014SOL    HW138678   1.627   1.219   3.435  0.6169 -0.9032 -0.9448
 9014SOL    HW238679   1.727   1.126   3.473 -0.0493  0.0590  2.1629
 9015SOL     OW38680   3.547   0.287   9.074  0.1081 -0.4975  0.1516
 9015SOL    HW138681   3.627   0.336   9.091 -1.3939  2.4419 -1.1057
 9015SOL    HW238682   3.564   0.245   8.990  2.1139 -1.0113  0.8188
 9016SOL     OW38683   0.694   4.053   6.898  0.4494  0.1174 -0.7754
 9016SOL    HW138684   0.768   4.091   6.945 -0.9745 -0.6944  2.1343
 9016SOL    HW238685   0.630   4.124   6.900  0.6982  0.3790 -1.8523
 9017SOL     OW38686   4.414   2.046  15.748  0.4566 -0.6577  0.1362
 9017SOL    HW138687   4.457   2.110  15.692  0.3395 -0.6857  0.0134
 9017SOL    HW238688   4.345   2.017  15.688  1.3402 -1.3088 -0.5546
 9018SOL     OW38689   3.793   1.660   7.181 -0.2641 -0.1123 -0.3325
 9018SOL    HW138690   3.854   1.713   7.128  0.0746 -0.1985 -0.0268
 9018SOL    HW238691   3.714   1.708   7.154 -1.6542 -1.2824  1.7025
 9019SOL     OW38692   2.465   0.370   0.384 -0.4778 -0.3608 -0.0765
 9019SOL    HW138693   2.510   0.286   0.392 -0.7026 -0.6286 -1.5724
 9019SOL    HW238694   2.437   0.356   0.294  2.2194 -1.4161 -0.7424
 9020SOL     OW38695   1.616   0.613   3.920  0.2950 -0.5757  0.1532
 9020SOL    HW138696   1.560   0.591   3.845 -0.3019  0.3598  0.3268
 9020SOL    HW238697   1.625   0.526   3.958  2.3866 -0.3173  0.2672
 9021SOL     OW38698   2.476   1.636   3.764  0.1710 -0.1794 -0.3688
 9021SOL    HW138699   2.542   1.677   3.709 -0.1122 -1.7346 -1.8537
 9021SOL    HW238700   2.434   1.712   3.804 -1.2321 -0.1873 -1.8736
 9022SOL     OW38701   0.054   1.627   6.923  0.5486  0.1280 -0.3321
 9022SOL    HW138702   0.128   1.649   6.866 -0.0231 -1.7554 -1.8266
 9022SOL    HW238703   4.723   1.663   6.873  0.8156  0.3651 -0.5514
 9023SOL     OW38704   3.198   0.726   7.462  0.2724 -0.3532  0.0532
 9023SOL    HW138705   3.286   0.723   7.498  0.3389 -2.3192 -0.2878
 9023SOL    HW238706   3.152   0.696   7.540  2.5605  0.6132  1.7967
 9024SOL     OW38707   4.479   2.012   4.116 -0.0452  0.5917 -0.3504
 9024SOL    HW138708   4.534   2.002   4.038  2.0520 -1.5390  1.4177
 9024SOL    HW238709   4.399   1.965   4.092  0.0641 -0.0738  0.6034
 9025SOL     OW38710   3.014   3.052  12.274 -0.8223 -0.3680  0.6153
 9025SOL    HW138711   3.087   3.030  12.333 -0.2721 -0.5646 -0.1347
 9025SOL    HW238712   2.933   3.009  12.301 -0.3042 -0.8159  1.4497
 9026SOL     OW38713   0.685   4.510   2.419 -0.3173 -0.2382  0.4010
 9026SOL    HW138714   0.622   4.479   2.484 -0.7053  0.5887  0.4159
 9026SOL    HW238715   0.629   4.529   2.344  1.1011  0.2672 -0.5250
 9027SOL     OW38716   2.187   3.806  10.703  0.3776 -0.1368 -0.2164
 9027SOL    HW138717   2.228   3.889  10.677 -0.3663  0.9731  2.1633
 9027SOL    HW238718   2.130   3.841  10.772  2.5533 -0.7531  1.8689
 9028SOL     OW38719   3.756   0.743   3.793 -0.3230 -0.2333 -0.4516
 9028SOL    HW138720   3.699   0.666   3.799 -2.3964  1.3941  1.0554
 9028SOL    HW238721   3.835   0.702   3.759 -0.7571 -0.3069 -1.3782
 9029SOL     OW38722   4.707   3.579   5.260  0.5093 -0.1659 -0.0025
 9029SOL    HW138723   4.717   3.606   5.169  0.9883  2.0531  0.7101
 9029SOL    HW238724   4.645   3.506   5.259  0.8261 -0.4126 -1.5637
 9030SOL     OW38725   0.752   0.774  15.109  0.5653 -0.0865 -0.1189
 9030SOL    HW138726   0.800   0.741  15.185 -1.5049  0.0749  1.2654
 9030SOL    HW238727   0.733   0.861  15.143  1.8341  0.1039  0.0990
 9031SOL     OW38728   0.194   0.573   9.301  0.6121 -0.3274  0.2271
 9031SOL    HW138729   0.128   0.582   9.370  1.7196 -0.9939  1.3751
 9031SOL    HW238730   0.171   0.485   9.272  0.7029 -0.9873  2.1533
 9032SOL     OW38731   0.802   4.005   3.383  0.2238 -0.1491 -0.3586
 9032SOL    HW138732   0.751   3.940   3.432 -0.3644  0.6804  0.1348
 9032SOL    HW238733   0.880   4.012   3.438  0.6988 -0.4066 -0.9977
 9033SOL     OW38734   2.946   0.818   1.685 -0.0685  0.0114 -0.2104
 9033SOL    HW138735   2.873   0.850   1.737 -0.7374 -0.0075 -1.1339
 9033SOL    HW238736   2.920   0.727   1.672 -0.8139  0.3040 -0.8166
 9034SOL     OW38737   3.629   1.187  14.202  0.2880  0.5112 -0.0437
 9034SOL    HW138738   3.647   1.219  14.290  0.6496  0.5440 -0.1293
 9034SOL    HW238739   3.706   1.214  14.152  0.6487 -1.8352 -0.7628
 9035SOL     OW38740   3.386   4.742   8.974  0.2366  0.1968 -0.1619
 9035SOL    HW138741   3.441   0.068   8.936  0.2575  0.7465  0.8552
 9035SOL    HW238742   3.444   4.675   9.011  2.3478  1.2285 -1.6257
 9036SOL     OW38743   0.911   0.015   5.441  0.1894 -0.3395 -0.7733
 9036SOL    HW138744   0.999   0.039   5.413  0.2351  0.0483 -0.2993
 9036SOL    HW238745   0.856   0.068   5.383 -2.5755 -1.1044  1.1333
 9037SOL     OW38746   0.234   1.114   1.791 -0.0772 -0.4915 -0.2896
 9037SOL    HW138747   0.142   1.140   1.781  0.1523  1.7806  3.5770
 9037SOL    HW238748   0.221   1.041   1.852  0.5483 -0.3078  0.0580
 9038SOL     OW38749   2.182   1.203  13.054  0.3519 -0.6622 -0.5910
 9038SOL    HW138750   2.259   1.208  12.997 -0.3640  0.0987 -1.5014
 9038SOL    HW238751   2.145   1.291  13.044  1.6823  0.0890  1.0544
 9039SOL     OW38752   3.613   3.192   3.340 -0.0011  0.2090 -0.3792
 9039SOL    HW138753   3.542   3.209   3.278 -1.1719 -1.0168  0.6456
 9039SOL    HW238754   3.616   3.098   3.322  1.7933  0.2646 -0.3838
 9040SOL     OW38755   1.934   2.194   2.045  0.1802  0.3474  0.0564
 9040SOL    HW138756   1.963   2.173   1.957 -2.6070 -0.3987 -0.6678
 9040SOL    HW238757   1.908   2.105   2.068  0.3085  0.2466 -0.1981
 9041SOL     OW38758   2.061   2.013   1.368 -0.5558  0.7362 -0.0639
 9041SOL    HW138759   2.151   2.024   1.396 -1.1429 -2.8440  3.1292
 9041SOL    HW238760   2.051   1.921   1.342 -0.2844  0.1987  1.7381
 9042SOL     OW38761   2.016   0.090   5.320 -0.2602  0.9022  0.1621
 9042SOL    HW138762   2.017   4.736   5.316  2.3746  0.9309  0.2431
 9042SOL    HW238763   2.108   0.115   5.327 -0.1677  0.1668  1.7881
 9043SOL     OW38764   0.711   0.044   2.801  0.0580  0.8232 -0.0304
 9043SOL    HW138765   0.631   4.734   2.787  0.8243 -0.3227 -0.1726
 9043SOL    HW238766   0.778   0.021   2.736 -0.4321 -1.7466  0.3729
 9044SOL     OW38767   2.514   2.297  12.515 -0.2344  0.2318  0.2006
 9044SOL    HW138768   2.471   2.331  12.594 -2.3674 -0.0667 -0.8187
 9044SOL    HW238769   2.470   2.212  12.520  0.0521  0.1292  1.0181
 9045SOL     OW38770   2.029   3.781   8.565  0.3997 -0.4322 -0.4089
 9045SOL    HW138771   1.998   3.705   8.515 -1.4277 -0.6048  0.9927
 9045SOL    HW238772   2.052   3.735   8.645 -0.9299  1.1055  0.8444
 9046SOL     OW38773   0.538   0.146   7.877 -0.3107 -0.1369 -1.0152
 9046SOL    HW138774   0.492   0.178   7.955  0.6138 -1.6025  0.1360
 9046SOL    HW238775   0.475   0.082   7.844 -1.5480 -0.7283  2.5049
 9047SOL     OW38776   0.451   2.963   3.375 -0.0124 -0.1522  0.1642
 9047SOL    HW138777   0.500   2.958   3.457 -0.4972  0.3850  0.4898
 9047SOL    HW238778   0.440   3.058   3.369 -0.5235 -0.0761  2.5695
 9048SOL     OW38779   1.144   2.327   1.230 -0.0989 -0.0258  0.2869
 9048SOL    HW138780   1.133   2.395   1.297 -0.7088 -0.6973  0.8649
 9048SOL    HW238781   1.212   2.275   1.273 -1.3352 -0.5066  1.6386
 9049SOL     OW38782   3.223   0.640   6.354 -0.4491  0.6748 -0.3649
 9049SOL    HW138783   3.224   0.692   6.274 -1.0908  0.2338 -0.6622
 9049SOL    HW238784   3.134   0.604   6.349  1.5134 -3.8867 -3.0290
 9050SOL     OW38785   0.096   3.365  11.801  0.2802 -0.0250 -0.2934
 9050SOL    HW138786   0.173   3.378  11.746  1.4418 -2.1078  0.8499
 9050SOL    HW238787   0.031   3.329  11.742  3.6587 -3.5395 -1.8342
 9051SOL     OW38788   3.921   0.274   4.395 -0.0599 -0.7221  0.4183
 9051SOL    HW138789   3.965   0.357   4.415 -0.6960  0.7002 -3.9362
 9051SOL    HW238790   3.843   0.268   4.450  0.5589 -1.2258  1.2394
 9052SOL     OW38791   2.302   2.010   4.168  0.2876 -0.4235  0.3813
 9052SOL    HW138792   2.343   2.086   4.210  1.5003 -1.5411  1.2138
 9052SOL    HW238793   2.344   2.014   4.082  0.1407 -0.6268  0.3026
 9053SOL     OW38794   4.005   1.798   1.220 -0.5463 -0.2974 -0.0205
 9053SOL    HW138795   4.015   1.892   1.206 -0.7649 -0.0658  1.3963
 9053SOL    HW238796   3.950   1.796   1.298 -0.5916  1.0745 -0.0203
 9054SOL     OW38797   1.361   0.404   9.288  0.2079 -0.2699 -0.1206
 9054SOL    HW138798   1.448   0.403   9.247  0.6064  0.9553  0.6877
 9054SOL    HW238799   1.301   0.398   9.214  1.3775  0.2753 -1.1183
 9055SOL     OW38800   0.106   2.259  13.202  0.1174 -0.7030  0.1608
 9055SOL    HW138801   0.068   2.215  13.126 -0.5547 -0.2664  0.2400
 9055SOL    HW238802   0.183   2.204  13.212  1.5393  1.0177 -1.4655
 9056SOL     OW38803   1.724   1.130   3.962  0.0270 -0.1375 -0.1327
 9056SOL    HW138804   1.782   1.185   3.908 -2.1134 -0.3997 -2.7082
 9056SOL    HW238805   1.752   1.040   3.943  2.9534  0.5721  0.7822
 9057SOL     OW38806   0.182   3.787   1.732 -0.3165 -0.4917 -0.1925
 9057SOL    HW138807   0.262   3.827   1.767 -0.0567 -0.6599 -0.5840
 9057SOL    HW238808   0.107   3.846   1.732  1.1347  1.3307  1.1795
 9058SOL     OW38809   3.999   2.217   1.794 -0.5409  0.5717  0.4098
 9058SOL    HW138810   4.059   2.181   1.859 -0.9975 -0.5367  0.2072
 9058SOL    HW238811   4.055   2.289   1.766 -0.2019 -0.2602 -1.0273
 9059SOL     OW38812   4.061   2.265   7.400 -0.5440  0.3224 -0.3027
 9059SOL    HW138813   4.100   2.178   7.403  0.5668  0.7465 -2.3119
 9059SOL    HW238814   3.984   2.247   7.454 -0.1379 -0.6046 -0.0290
 9060SOL     OW38815   4.706   1.977   7.100  0.1685  0.0209 -0.2492
 9060SOL    HW138816   4.678   1.892   7.135 -1.0533  0.1098 -1.0235
 9060SOL    HW238817   4.631   1.994   7.043  1.7522  0.7729 -2.1250
 9061SOL     OW38818   0.997   2.534  17.450 -0.0243  0.4326  0.3643
 9061SOL    HW138819   1.005   2.478  17.527 -0.1165  0.4662  0.3970
 9061SOL    HW238820   0.974   2.474  17.378 -1.4554  0.1656  1.0406
 9062SOL     OW38821   4.255   2.785   1.161 -0.1620  0.5056  0.2131
 9062SOL    HW138822   4.335   2.829   1.133  0.0842  0.8475  1.4653
 9062SOL    HW238823   4.245   2.821   1.249 -0.0885  0.7563  0.1182
 9063SOL     OW38824   1.892   1.883   6.552  0.0977  0.2797  0.4526
 9063SOL    HW138825   1.904   1.826   6.628  1.3694 -1.3288 -0.9503
 9063SOL    HW238826   1.889   1.969   6.594 -1.2683  1.9534 -3.0698
 9064SOL     OW38827   4.366   2.434   3.148 -0.5620 -0.1912  0.3840
 9064SOL    HW138828   4.402   2.387   3.072  1.4448  1.8059  0.1059
 9064SOL    HW238829   4.364   2.525   3.120  1.3706  0.1935  1.4526
 9065SOL     OW38830   1.418   1.876  13.314 -0.5487 -0.2713  0.3829
 9065SOL    HW138831   1.461   1.953  13.352 -0.7641 -0.3477  0.7696
 9065SOL    HW238832   1.431   1.898  13.221  2.2063  1.3168  1.1636
 9066SOL     OW38833   3.537   3.268   6.276 -0.2355  0.0659  0.3312
 9066SOL    HW138834   3.539   3.364   6.273 -0.9907  0.1377  2.3172
 9066SOL    HW238835   3.451   3.252   6.314 -0.6793  1.8296  0.0970
 9067SOL     OW38836   4.501   2.877  10.118  0.6139 -0.1315  0.4343
 9067SOL    HW138837   4.596   2.887  10.125  0.8736 -3.0610  0.9483
 9067SOL    HW238838   4.476   2.948  10.177  1.4731 -2.5129  3.6265
 9068SOL     OW38839   1.034   2.897   7.951 -0.1928 -0.1508 -0.0808
 9068SOL    HW138840   1.062   2.875   8.040  1.0578  1.0898 -0.1632
 9068SOL    HW238841   0.965   2.959   7.976  1.8630  1.7877  0.8132
 9069SOL     OW38842   2.412   3.840   5.188 -0.1037  0.3148  0.7242
 9069SOL    HW138843   2.495   3.836   5.141 -0.9667  1.6616 -0.8949
 9069SOL    HW238844   2.405   3.748   5.214  0.6427  0.5412  1.7550
 9070SOL     OW38845   1.794   3.415  17.407  0.5191 -0.3503  0.4699
 9070SOL    HW138846   1.764   3.405  17.497 -1.5062 -1.4190 -0.3184
 9070SOL    HW238847   1.879   3.370  17.414  0.7150  0.4274  2.7900
 9071SOL     OW38848   3.093   3.608   3.596 -0.1347  0.5526 -0.7927
 9071SOL    HW138849   3.159   3.570   3.653 -0.6959 -1.5196 -1.5253
 9071SOL    HW238850   3.009   3.564   3.607  0.8983 -1.4205 -0.7185
 9072SOL     OW38851   2.428   1.332   8.492 -0.1109  0.3938 -0.1246
 9072SOL    HW138852   2.450   1.353   8.582  1.2653 -0.5251 -0.2477
 9072SOL    HW238853   2.510   1.291   8.466  0.6009  1.3360  0.6742
 9073SOL     OW38854   4.312   2.689  10.159 -0.3745 -0.4085  0.5312
 9073SOL    HW138855   4.244   2.743  10.197  0.9865  1.2469  0.5903
 9073SOL    HW238856   4.381   2.753  10.141 -0.3411 -0.3303  0.9396
 9074SOL     OW38857   2.526   3.071   9.121  0.2017 -0.6496 -0.7106
 9074SOL    HW138858   2.534   3.104   9.031  2.5318 -1.0537 -0.6386
 9074SOL    HW238859   2.578   3.141   9.161  0.5642 -1.6419  0.5329
 9075SOL     OW38860   3.645   1.834   2.985 -0.5244 -0.4037  0.7372
 9075SOL    HW138861   3.727   1.830   3.034  0.0669  0.3868 -0.1745
 9075SOL    HW238862   3.685   1.834   2.898  0.5297 -1.6360  1.2231
 9076SOL     OW38863   4.041   3.828   7.612 -0.0641 -0.9596 -0.5062
 9076SOL    HW138864   4.003   3.914   7.593  2.0264  0.2541  0.6597
 9076SOL    HW238865   4.077   3.795   7.530  1.2935 -1.9098  0.4757
 9077SOL     OW38866   3.653   4.346   9.469 -0.6138 -0.3157  0.9038
 9077SOL    HW138867   3.559   4.328   9.475 -0.9641  0.7093 -1.6545
 9077SOL    HW238868   3.668   4.302   9.386 -2.1835 -1.0915  1.0239
 9078SOL     OW38869   1.117   0.233   7.680  0.6937 -0.0966  0.0887
 9078SOL    HW138870   1.190   0.237   7.618  2.3427  1.1792  2.0920
 9078SOL    HW238871   1.150   0.302   7.738  0.1633 -0.3903  0.7482
 9079SOL     OW38872   1.720   4.479  15.566 -0.0798 -0.0333  0.1333
 9079SOL    HW138873   1.780   4.550  15.589 -0.2001  0.2267 -0.3608
 9079SOL    HW238874   1.677   4.514  15.488 -0.3666  1.9744  1.1869
 9080SOL     OW38875   3.711   4.170   9.252  0.2397  0.1231 -0.1015
 9080SOL    HW138876   3.666   4.091   9.284  0.5813 -0.2427 -0.5202
 9080SOL    HW238877   3.806   4.159   9.261 -0.0595 -1.9894  0.4433
 9081SOL     OW38878   2.565   2.216   3.991  0.2876 -0.0665  0.6522
 9081SOL    HW138879   2.563   2.205   4.086 -2.2013  2.5123  0.9077
 9081SOL    HW238880   2.616   2.296   4.001  1.0073 -0.8497  3.3491
 9082SOL     OW38881   4.172   4.494   3.831  0.0775 -0.0557  0.3033
 9082SOL    HW138882   4.093   4.445   3.855 -0.4232  2.0071  2.9792
 9082SOL    HW238883   4.131   4.579   3.852  0.9897  0.8055 -1.4511
 9083SOL     OW38884   1.504   1.116   6.932  0.7024 -0.2095  0.0177
 9083SOL    HW138885   1.485   1.057   7.004  0.3647 -1.4249 -1.0717
 9083SOL    HW238886   1.421   1.131   6.886  0.2147  0.4430  1.1174
 9084SOL     OW38887   0.157   1.071   4.463 -0.6394 -0.0450  0.0809
 9084SOL    HW138888   0.173   1.035   4.550  1.7492 -0.1637 -0.4036
 9084SOL    HW238889   0.218   1.017   4.414  0.7924  1.5416  0.1267
 9085SOL     OW38890   0.296   2.912  12.357 -0.0552 -0.1632 -0.2201
 9085SOL    HW138891   0.308   2.838  12.297 -1.3888  0.1045 -0.8228
 9085SOL    HW238892   0.384   2.909  12.393 -0.8710 -3.5112  1.5156
 9086SOL     OW38893   1.669   1.739  11.393 -0.4990 -0.0083 -0.0575
 9086SOL    HW138894   1.673   1.833  11.376  0.4781  0.1788  1.1946
 9086SOL    HW238895   1.574   1.730  11.403 -0.6949  2.1464 -0.1190
 9087SOL     OW38896   4.643   0.019   0.420 -0.6055  1.2336 -0.2795
 9087SOL    HW138897   4.643   4.673   0.458  0.3956  2.0081  1.5162
 9087SOL    HW238898   4.694   0.068   0.484  1.1222  0.5445 -1.1182
 9088SOL     OW38899   0.557   2.341   7.371  0.3771  0.0092  0.4729
 9088SOL    HW138900   0.476   2.292   7.357 -0.0293  1.0237 -0.7286
 9088SOL    HW238901   0.525   2.431   7.362 -0.4590 -0.1569  1.7482
 9089SOL     OW38902   4.248   1.918  15.547  0.2236 -0.1747 -0.0866
 9089SOL    HW138903   4.159   1.953  15.557  0.1886 -0.2853 -0.0077
 9089SOL    HW238904   4.242   1.867  15.466 -1.1225 -0.1896  0.0173
 9090SOL     OW38905   1.070   4.701   4.361  0.2089 -0.2343  0.2654
 9090SOL    HW138906   1.113   0.042   4.339  1.1240 -0.6227  0.5989
 9090SOL    HW238907   1.127   4.659   4.425  0.5219  0.2019  0.2780
 9091SOL     OW38908   1.240   2.918   6.868  0.0021  0.6542 -0.2418
 9091SOL    HW138909   1.244   2.922   6.964  1.4195 -1.3384 -0.2046
 9091SOL    HW238910   1.270   2.828   6.853  1.2323  1.3815 -2.1036
 9092SOL     OW38911   2.132   0.180   5.671  0.0844  0.5362  0.1480
 9092SOL    HW138912   2.136   0.273   5.647 -2.6697  0.5255 -0.2915
 9092SOL    HW238913   2.194   0.176   5.744  1.5734  2.2663 -1.0066
 9093SOL     OW38914   4.213   4.433   2.979  0.5283  0.1768  0.5320
 9093SOL    HW138915   4.128   4.476   2.985 -0.3665 -1.6020  0.6332
 9093SOL    HW238916   4.264   4.502   3.020  1.8814 -1.7949  2.1998
 9094SOL     OW38917   0.119   3.724   8.545 -0.5886  0.0532  0.0374
 9094SOL    HW138918   0.098   3.643   8.499  0.0359 -0.1298  0.0799
 9094SOL    HW238919   0.099   3.697   8.634 -1.0024 -0.0493 -0.0868
 9095SOL     OW38920   1.008   4.047   4.858 -0.1104  0.0705  0.0294
 9095SOL    HW138921   0.986   3.988   4.929 -0.2506 -0.2828 -0.3077
 9095SOL    HW238922   0.924   4.044   4.812  0.5100 -0.8865 -1.0363
 9096SOL     OW38923   2.873   3.981   2.762 -0.0912  0.4091  0.7106
 9096SOL    HW138924   2.807   4.041   2.729  0.6366  0.2223 -1.0935
 9096SOL    HW238925   2.830   3.943   2.839 -1.8526  0.3984 -0.2863
 9097SOL     OW38926   0.244   0.736   0.780 -0.4396  0.0145 -0.4385
 9097SOL    HW138927   0.148   0.736   0.778 -0.4715  2.4085  1.0727
 9097SOL    HW238928   0.256   0.759   0.872 -0.6068  1.7893 -0.8707
 9098SOL     OW38929   4.620   0.064   6.349  0.0047  0.2848  0.6040
 9098SOL    HW138930   4.670   0.058   6.268 -1.3853 -1.6155 -0.1427
 9098SOL    HW238931   4.534   0.087   6.314 -0.7495 -0.4631  1.9260
 9099SOL     OW38932   0.265   2.066   1.519 -0.7445 -0.3936  0.3223
 9099SOL    HW138933   0.241   2.026   1.435 -0.9163  1.0807 -0.3462
 9099SOL    HW238934   0.360   2.061   1.525 -0.5995  1.0282 -0.7555
 9100SOL     OW38935   3.259   0.558   0.141  0.2340 -0.2601  0.0640
 9100SOL    HW138936   3.184   0.529   0.193  0.5149 -3.3696 -1.2611
 9100SOL    HW238937   3.272   0.644   0.181 -0.7792 -0.1854  0.2386
 9101SOL     OW38938   2.487   3.988  13.344 -0.0122  0.2877  0.9339
 9101SOL    HW138939   2.436   3.922  13.297  1.2570  1.5280 -2.1860
 9101SOL    HW238940   2.573   3.948  13.330  0.7839  1.7640  1.6398
 9102SOL     OW38941   3.579   1.116  13.911  0.4230  0.2909 -0.5078
 9102SOL    HW138942   3.513   1.115  13.842  1.2532 -0.0760 -1.3064
 9102SOL    HW238943   3.525   1.157  13.978 -0.2556 -1.7936  0.2006
 9103SOL     OW38944   0.290   4.045   9.290  0.2551 -0.0640  0.1185
 9103SOL    HW138945   0.226   4.108   9.324  0.3231  0.5416 -0.8816
 9103SOL    HW238946   0.267   4.044   9.197 -0.9420 -1.3068  0.4383
 9104SOL     OW38947   1.070   2.075   3.575 -0.7522  0.6954 -0.0794
 9104SOL    HW138948   1.144   2.135   3.582 -0.9974  0.6596  2.6212
 9104SOL    HW238949   0.998   2.130   3.542  1.4085  3.7632  0.2768
 9105SOL     OW38950   3.943   3.250   4.155 -0.1936 -0.3453  0.0043
 9105SOL    HW138951   3.999   3.178   4.125 -1.1000 -0.2219 -1.9877
 9105SOL    HW238952   3.908   3.283   4.072 -0.0442  3.6259  1.5416
 9106SOL     OW38953   1.584   3.403   8.922  0.1162 -0.0107 -0.2708
 9106SOL    HW138954   1.496   3.424   8.890  0.0616  0.5264  0.2344
 9106SOL    HW238955   1.552   3.321   8.959  1.7854  0.1567  1.5266
 9107SOL     OW38956   2.568   0.336   5.906 -0.0465  0.0444 -0.0010
 9107SOL    HW138957   2.477   0.306   5.899  0.4128 -1.6081  0.9293
 9107SOL    HW238958   2.606   0.271   5.847 -0.4733 -1.1305  1.0206
 9108SOL     OW38959   3.914   1.875   4.199  0.2981  0.5475  0.3220
 9108SOL    HW138960   3.858   1.854   4.125 -0.2660  0.7703  0.6922
 9108SOL    HW238961   3.979   1.805   4.190 -2.2050 -1.9180  1.5636
 9109SOL     OW38962   4.662   3.064  14.898 -0.3937  0.6209  0.1845
 9109SOL    HW138963   4.678   3.138  14.838  3.4595 -0.8934 -0.6771
 9109SOL    HW238964   0.005   3.072  14.941 -0.4166 -1.9840  0.7026
 9110SOL     OW38965   2.599   0.263   9.157  0.3601 -0.3377 -0.3804
 9110SOL    HW138966   2.609   0.352   9.190 -0.6431  0.2661 -1.7322
 9110SOL    HW238967   2.638   0.222   9.235  0.8469  0.0062 -0.4456
 9111SOL     OW38968   1.732   3.218   2.610 -0.2222  0.0066 -0.0317
 9111SOL    HW138969   1.714   3.260   2.526 -2.4516  0.2632  0.5830
 9111SOL    HW238970   1.671   3.145   2.610  2.0777 -1.8983  0.2716
 9112SOL     OW38971   0.268   3.473   3.388 -0.1882 -0.0074  0.2535
 9112SOL    HW138972   0.227   3.401   3.436  0.5806 -2.1481 -2.2868
 9112SOL    HW238973   0.220   3.481   3.305  4.5635  1.9378 -2.3371
 9113SOL     OW38974   1.224   2.492   1.435  0.2325 -0.5032 -0.0760
 9113SOL    HW138975   1.214   2.526   1.524 -4.9035 -0.0158 -0.8334
 9113SOL    HW238976   1.266   2.409   1.459  0.0278 -0.7434 -0.5453
 9114SOL     OW38977   0.373   0.348  11.406 -0.0564 -0.2991 -0.0107
 9114SOL    HW138978   0.354   0.419  11.467  3.1341  0.4405  0.1595
 9114SOL    HW238979   0.371   0.394  11.323 -0.3589  1.2941  0.8781
 9115SOL     OW38980   0.338   2.123   0.560  0.4279  0.0803 -0.1514
 9115SOL    HW138981   0.263   2.158   0.512  0.2563  0.5502  0.4588
 9115SOL    HW238982   0.364   2.062   0.491 -0.4840 -0.8880  0.3603
 9116SOL     OW38983   0.276   3.421   6.607 -0.2832 -0.2522  0.7169
 9116SOL    HW138984   0.238   3.428   6.695 -1.6475 -1.4150  0.2214
 9116SOL    HW238985   0.266   3.330   6.579 -0.3840 -0.2835  0.8540
 9117SOL     OW38986   0.800   0.034   4.412  0.3783 -0.4342  0.0040
 9117SOL    HW138987   0.748   4.700   4.437 -1.0850  0.7036  0.4234
 9117SOL    HW238988   0.887   0.006   4.382  0.6029 -0.4831  0.6815
 9118SOL     OW38989   2.315   0.111   9.932 -0.3972 -0.7188 -0.1047
 9118SOL    HW138990   2.272   0.124  10.016 -0.9480  1.4837 -0.7284
 9118SOL    HW238991   2.269   0.036   9.894  0.9070 -1.5773 -0.0010
 9119SOL     OW38992   1.761   2.452  10.612 -0.0537  0.0345  0.3745
 9119SOL    HW138993   1.851   2.421  10.606 -0.3305 -0.8196  0.6737
 9119SOL    HW238994   1.778   2.514  10.682  0.8024 -0.4238  0.5794
 9120SOL     OW38995   3.193   4.497   5.850  0.1168 -0.2453  0.5593
 9120SOL    HW138996   3.210   4.572   5.908 -1.8062  0.1004  0.6539
 9120SOL    HW238997   3.283   4.465   5.840 -0.0196 -0.1587 -0.9472
 9121SOL     OW38998   1.117   2.522  15.208  0.1367  0.5077  0.0277
 9121SOL    HW138999   1.053   2.582  15.247 -0.8118  0.4885 -1.5243
 9121SOL    HW239000   1.189   2.521  15.272 -0.8131  1.9375  1.1202
 9122SOL     OW39001   4.502   0.606   8.808 -0.3671  0.2379  0.0844
 9122SOL    HW139002   4.469   0.692   8.784  0.0796  0.7330  1.2336
 9122SOL    HW239003   4.493   0.553   8.729  1.5799  0.6274 -0.3935
 9123SOL     OW39004   3.554   3.946  14.095  0.0502  0.8808  0.3009
 9123SOL    HW139005   3.569   4.036  14.126  1.0843  1.0447 -0.6419
 9123SOL    HW239006   3.459   3.939  14.092  0.2125 -0.8478 -0.5982
 9124SOL     OW39007   0.982   2.877   5.246  0.0253  0.4508 -0.3020
 9124SOL    HW139008   0.991   2.825   5.166 -1.1834  0.6699 -0.5946
 9124SOL    HW239009   1.035   2.828   5.308 -0.3868  0.6794  0.2323
 9125SOL     OW39010   3.732   3.528   3.418  0.4440 -0.7559 -0.7369
 9125SOL    HW139011   3.753   3.479   3.498  1.9871  0.1675 -0.5718
 9125SOL    HW239012   3.641   3.498   3.414  0.7031 -1.5479 -0.6548
 9126SOL     OW39013   2.697   3.162  11.792  0.4748 -0.5440 -0.0308
 9126SOL    HW139014   2.658   3.168  11.705 -1.7536  1.8902  1.1327
 9126SOL    HW239015   2.791   3.159  11.775  0.2580  0.8867 -1.4612
 9127SOL     OW39016   1.374   2.048   9.779  0.0356  0.4279  0.2664
 9127SOL    HW139017   1.340   2.040   9.690  1.1023  0.7675 -0.1700
 9127SOL    HW239018   1.434   2.118   9.754  1.7725 -1.5982 -1.2101
 9128SOL     OW39019   1.402   0.085   1.268  0.5734 -0.2086 -0.4327
 9128SOL    HW139020   1.438   0.043   1.189 -1.2776 -0.4358 -1.1431
 9128SOL    HW239021   1.337   0.142   1.226 -0.1419  1.2438  2.6768
 9129SOL     OW39022   0.021   3.592  13.187 -0.2566 -0.1095 -0.0989
 9129SOL    HW139023   0.050   3.501  13.182 -0.3699 -0.1914  0.6582
 9129SOL    HW239024   0.074   3.613  13.264 -0.9447  1.1485  0.0245
 9130SOL     OW39025   0.244   0.689   4.361  0.1146  0.3875 -0.3763
 9130SOL    HW139026   0.151   0.706   4.378  0.1251 -0.5910  0.6136
 9130SOL    HW239027   0.290   0.752   4.416  0.5963  0.0294 -0.3749
 9131SOL     OW39028   4.514   4.078   8.294  0.1785 -0.7334  0.6853
 9131SOL    HW139029   4.604   4.111   8.299 -0.1191  0.2245 -0.0627
 9131SOL    HW239030   4.520   4.022   8.217 -1.4141 -0.4176  0.3113
 9132SOL     OW39031   2.122   0.683   0.740  0.0209  0.1058  0.0347
 9132SOL    HW139032   2.073   0.766   0.740  1.4456  0.9568 -0.7231
 9132SOL    HW239033   2.171   0.685   0.658  0.4729 -2.8461  0.2413
 9133SOL     OW39034   2.897   3.101   9.419 -0.7107 -0.2574  0.7210
 9133SOL    HW139035   2.991   3.110   9.435 -0.4028  1.2775 -1.8494
 9133SOL    HW239036   2.879   3.170   9.355 -0.2679 -1.1809 -0.4080
 9134SOL     OW39037   4.021   1.827  16.530  0.4591  0.0343  0.6898
 9134SOL    HW139038   3.934   1.860  16.553  1.1591  2.9235 -0.8541
 9134SOL    HW239039   4.060   1.884  16.464 -0.4403  1.4676  1.4149
 9135SOL     OW39040   1.642   1.918   6.860 -0.4617 -0.0080 -0.3068
 9135SOL    HW139041   1.608   1.861   6.929  0.3155  0.9243  0.8468
 9135SOL    HW239042   1.720   1.871   6.831 -0.0888  1.8660 -2.3400
 9136SOL     OW39043   4.094   1.548   9.986 -0.4274  0.9081  0.0510
 9136SOL    HW139044   4.088   1.613  10.057  0.0765  0.7371  0.2530
 9136SOL    HW239045   4.080   1.595   9.904 -2.3166  0.8392  0.3300
 9137SOL     OW39046   1.137   2.451   8.477 -0.3832  0.2901  0.0988
 9137SOL    HW139047   1.208   2.405   8.433 -0.7166 -0.2555  0.1425
 9137SOL    HW239048   1.190   2.525   8.506  0.9162 -0.1742 -1.0828
 9138SOL     OW39049   4.414   4.360   6.633 -0.2298  0.4394  0.0679
 9138SOL    HW139050   4.496   4.314   6.613 -0.6708 -0.7294  0.9666
 9138SOL    HW239051   4.438   4.453   6.636  2.3866 -0.2422  0.7607
 9139SOL     OW39052   0.668   3.076   4.966  0.1905  0.2727 -0.0211
 9139SOL    HW139053   0.758   3.085   4.937 -0.2162  0.9393 -1.0738
 9139SOL    HW239054   0.667   3.136   5.041  0.7497  0.7697 -0.4173
 9140SOL     OW39055   2.061   2.581  16.979  0.9801 -0.4781  0.2019
 9140SOL    HW139056   2.026   2.667  16.957 -0.3188 -0.8765  0.6713
 9140SOL    HW239057   2.096   2.590  17.068  2.8833  1.0389 -0.7096
 9141SOL     OW39058   1.450   1.422  12.254  0.7072 -0.1607  0.5278
 9141SOL    HW139059   1.379   1.414  12.191  2.1537 -0.5381 -1.0336
 9141SOL    HW239060   1.526   1.426  12.197  0.8534 -3.1497  0.4996
 9142SOL     OW39061   1.435   3.880   5.091 -0.2082  0.5791  1.1588
 9142SOL    HW139062   1.481   3.911   5.013 -0.2806  1.2530  1.3841
 9142SOL    HW239063   1.363   3.942   5.100  0.4373  1.5194 -0.1271
 9143SOL     OW39064   2.675   4.422   5.358  0.2738  0.2885 -0.0894
 9143SOL    HW139065   2.686   4.475   5.437  0.5655 -1.2333  0.8734
 9143SOL    HW239066   2.633   4.490   5.305 -0.5622  1.1093  1.6153
 9144SOL     OW39067   3.112   1.855   0.120  0.1815  0.4362 -0.1725
 9144SOL    HW139068   3.180   1.818   0.064  0.7382 -0.0408  0.8176
 9144SOL    HW239069   3.165   1.863   0.200  0.1303  1.0862 -0.1982
 9145SOL     OW39070   1.227   3.505  11.794  0.0170 -0.1017 -0.5231
 9145SOL    HW139071   1.133   3.487  11.805  0.1881 -0.6522  0.0719
 9145SOL    HW239072   1.239   3.525  11.701 -0.4433  0.7259 -0.3991
 9146SOL     OW39073   4.624   3.191  11.959  0.2218 -0.0975  0.1137
 9146SOL    HW139074   4.611   3.254  11.888 -3.6857  0.2138  1.1399
 9146SOL    HW239075   4.710   3.154  11.939  0.2002  0.6491 -1.3298
 9147SOL     OW39076   1.588   0.103   2.238  0.6221 -0.2531  0.3335
 9147SOL    HW139077   1.537   0.042   2.185 -0.7477  0.3806  0.9258
 9147SOL    HW239078   1.541   0.179   2.206 -2.8721 -2.0908  1.0823
 9148SOL     OW39079   2.270   2.479   8.701 -0.8324  0.1321 -0.3975
 9148SOL    HW139080   2.313   2.487   8.616 -0.2540  1.1538 -0.0209
 9148SOL    HW239081   2.251   2.573   8.710 -2.5564 -0.1723 -0.9309
 9149SOL     OW39082   3.360   0.442   9.669  0.6920 -0.5463  0.6719
 9149SOL    HW139083   3.367   0.360   9.717  0.9857  0.2295  1.9508
 9149SOL    HW239084   3.362   0.505   9.741  0.7506  2.0673 -1.5821
 9150SOL     OW39085   0.971   0.268   6.018 -0.5670 -0.2367  0.4308
 9150SOL    HW139086   0.885   0.268   5.974 -1.4306  2.8206  2.1263
 9150SOL    HW239087   1.010   0.213   5.950  0.3608 -0.3156  1.0388
 9151SOL     OW39088   4.222   3.792   9.054 -0.4409 -0.0983  0.0778
 9151SOL    HW139089   4.301   3.822   9.098  0.2783  2.0887 -2.7744
 9151SOL    HW239090   4.247   3.839   8.975  1.6266  0.4930  1.0992
 9152SOL     OW39091   3.674   4.195   1.227  0.7645 -0.4088  0.1144
 9152SOL    HW139092   3.707   4.264   1.170 -1.6878  0.1523 -0.6044
 9152SOL    HW239093   3.653   4.255   1.299  0.8886 -0.9738  0.6303
 9153SOL     OW39094   3.474   2.482   5.416 -0.2106 -0.4491  0.1031
 9153SOL    HW139095   3.515   2.404   5.455  1.6701 -0.1246 -1.2021
 9153SOL    HW239096   3.458   2.532   5.496 -1.5940 -1.4617  0.4675
 9154SOL     OW39097   4.603   4.456   4.526 -0.1666  0.1364 -0.9482
 9154SOL    HW139098   4.541   4.439   4.455 -0.8654  1.0927 -0.5638
 9154SOL    HW239099   4.612   4.365   4.555 -0.1734  0.5084  0.2281
 9155SOL     OW39100   3.565   2.913   8.288  0.1289  0.4144  0.6168
 9155SOL    HW139101   3.545   2.851   8.358 -0.0144  0.9130  1.0085
 9155SOL    HW239102   3.480   2.946   8.260 -0.9879 -0.7505  2.6334
 9156SOL     OW39103   2.676   2.185   2.449  0.0936  0.0250  0.0311
 9156SOL    HW139104   2.666   2.091   2.430 -2.0489  0.1094  0.7706
 9156SOL    HW239105   2.680   2.229   2.364  0.1062  0.2156  0.1322
 9157SOL     OW39106   2.639   2.407   1.639 -0.3850  0.6053  0.0830
 9157SOL    HW139107   2.627   2.340   1.705  3.2489 -0.8076 -0.6591
 9157SOL    HW239108   2.582   2.373   1.570  0.5061 -2.3718  0.8449
 9158SOL     OW39109   4.071   4.410  16.950  0.0945  0.2800  0.0275
 9158SOL    HW139110   4.152   4.461  16.959  0.7781 -1.3024  2.7188
 9158SOL    HW239111   4.095   4.353  16.877 -1.2734  1.0524 -1.0371
 9159SOL     OW39112   3.625   2.594   7.497 -0.3476  0.0726  0.1988
 9159SOL    HW139113   3.557   2.661   7.486  0.8258  1.2873  0.3807
 9159SOL    HW239114   3.575   2.513   7.487 -0.3405 -0.0385  1.0912
 9160SOL     OW39115   0.354   1.895   2.529  0.5949  0.0376 -0.0426
 9160SOL    HW139116   0.412   1.971   2.524 -0.3007  0.6624 -1.0436
 9160SOL    HW239117   0.402   1.848   2.597 -1.1646  0.0430  1.1841
 9161SOL     OW39118   2.499   0.861   3.350  0.3355  0.8254 -0.5788
 9161SOL    HW139119   2.532   0.773   3.332  1.2315  1.6052 -2.8080
 9161SOL    HW239120   2.405   0.847   3.360  0.3848  1.1733  0.3679
 9162SOL     OW39121   1.932   2.312   8.609 -0.4554 -0.2180  0.5281
 9162SOL    HW139122   1.880   2.312   8.689  0.5771 -1.1400  1.1936
 9162SOL    HW239123   1.950   2.406   8.608  1.2177 -0.5539 -1.4510
 9163SOL     OW39124   1.648   1.932   2.935  0.3851  0.1063  0.2789
 9163SOL    HW139125   1.674   1.973   2.853 -1.0482  1.7544  0.6490
 9163SOL    HW239126   1.586   1.868   2.901  3.7512 -1.6046 -2.6129
 9164SOL     OW39127   0.568   3.486   2.189  0.5143 -0.0098  0.2147
 9164SOL    HW139128   0.647   3.540   2.193  0.2191  0.5395 -1.4443
 9164SOL    HW239129   0.518   3.530   2.120  0.2480 -0.3241  0.2049
 9165SOL     OW39130   1.004   0.123  14.518  0.3533  0.2961 -0.2895
 9165SOL    HW139131   1.019   0.099  14.427  0.5004 -0.0630 -0.1750
 9165SOL    HW239132   0.914   0.155  14.512  0.5858  0.2415 -4.0061
 9166SOL     OW39133   3.677   0.894  17.765  0.1918 -0.3597  0.5897
 9166SOL    HW139134   3.715   0.836  17.699 -2.5323 -0.6206 -0.7514
 9166SOL    HW239135   3.666   0.832   0.070  0.3539 -0.2497  0.7104
 9167SOL     OW39136   1.670   4.149   5.416 -0.1325  0.0861 -0.3412
 9167SOL    HW139137   1.717   4.224   5.380 -0.5004  0.7906  0.6484
 9167SOL    HW239138   1.578   4.162   5.392 -0.0418 -1.1879 -1.3805
 9168SOL     OW39139   1.028   0.059   5.129 -0.2586 -0.3720  0.1777
 9168SOL    HW139140   1.049   4.714   5.096 -0.0115 -0.6591  1.1057
 9168SOL    HW239141   0.935   0.061   5.109  0.1726  5.0020 -1.4115
 9169SOL     OW39142   4.735   2.102  13.012 -0.0701  0.3020 -0.0729
 9169SOL    HW139143   4.649   2.065  13.032 -0.8529  2.4581  0.5304
 9169SOL    HW239144   4.719   2.140  12.925  0.5535  1.6306  0.3866
 9170SOL     OW39145   4.074   2.536   9.508  0.4471  0.4290  0.2597
 9170SOL    HW139146   4.127   2.493   9.441  1.7871  0.2769  1.4340
 9170SOL    HW239147   4.036   2.462   9.555 -2.3245  0.9205 -1.2056
 9171SOL     OW39148   0.655   3.240   1.226  0.3223  0.0170 -0.0445
 9171SOL    HW139149   0.725   3.249   1.290  0.8199  1.4264 -0.7865
 9171SOL    HW239150   0.681   3.304   1.160  0.9791 -0.0034  0.2002
 9172SOL     OW39151   4.150   0.651  16.743 -0.4632  0.1639  0.0926
 9172SOL    HW139152   4.089   0.605  16.800  0.4258 -0.8301  0.2344
 9172SOL    HW239153   4.086   0.707  16.699 -0.2889  0.3793  0.1090
 9173SOL     OW39154   1.190   1.196   6.858  0.2657 -0.1091 -0.2819
 9173SOL    HW139155   1.174   1.287   6.834 -1.6673 -0.3896 -0.0536
 9173SOL    HW239156   1.251   1.169   6.789  0.5019 -0.6334  0.1288
 9174SOL     OW39157   3.408   1.999   2.956 -0.0984  0.3854  0.9744
 9174SOL    HW139158   3.481   1.938   2.955 -0.2473  0.2227  0.2875
 9174SOL    HW239159   3.336   1.937   2.944  1.0980 -0.4747 -1.7816
 9175SOL     OW39160   3.847   3.118   8.875  0.1234 -0.5145  0.3024
 9175SOL    HW139161   3.889   3.125   8.961 -1.5796  1.9441  0.9484
 9175SOL    HW239162   3.783   3.188   8.888 -0.3711 -0.6507 -1.3549
 9176SOL     OW39163   4.018   3.996   1.617  0.7861  0.1366  0.4402
 9176SOL    HW139164   3.979   4.022   1.533  1.3613  0.7810  0.3644
 9176SOL    HW239165   4.104   3.973   1.582  1.9626  2.2374  1.8759
 9177SOL     OW39166   1.634   0.331   0.362  0.4630 -0.2784  0.6617
 9177SOL    HW139167   1.647   0.424   0.345  1.9335 -0.6094 -0.0254
 9177SOL    HW239168   1.626   0.338   0.457  1.1225 -1.0640  0.7755
 9178SOL     OW39169   4.084   1.777   4.924  0.6705  0.3066 -0.0673
 9178SOL    HW139170   4.162   1.737   4.886 -1.0434 -1.4808 -1.6772
 9178SOL    HW239171   4.124   1.853   4.967  1.8664  0.0991 -0.8042
 9179SOL     OW39172   3.210   3.140   4.748  0.3774 -0.8147  0.2538
 9179SOL    HW139173   3.184   3.048   4.737  0.5191 -0.7571 -0.6142
 9179SOL    HW239174   3.205   3.153   4.842 -1.3058 -1.2317  0.2139
 9180SOL     OW39175   0.157   0.206   4.478  0.0049 -0.3955 -0.3470
 9180SOL    HW139176   0.082   0.188   4.420 -0.4030 -0.6136  0.2535
 9180SOL    HW239177   0.160   0.133   4.539 -2.4115 -1.5718 -1.6175
 9181SOL     OW39178   2.474   3.481   6.312 -0.1663 -0.1067 -0.0319
 9181SOL    HW139179   2.468   3.470   6.217 -0.0155 -0.5359  0.0044
 9181SOL    HW239180   2.430   3.398   6.330  0.4041 -0.7979 -1.7759
 9182SOL     OW39181   0.847   4.616   1.400 -0.3435  0.1662  0.4239
 9182SOL    HW139182   0.791   4.555   1.448 -0.8690  0.6434  0.4193
 9182SOL    HW239183   0.910   4.639   1.468  0.7518  0.9275 -0.8531
 9183SOL     OW39184   1.293   2.201   1.416 -0.1141  0.2618 -0.4188
 9183SOL    HW139185   1.388   2.197   1.405 -0.2108 -0.9168 -0.7398
 9183SOL    HW239186   1.275   2.207   1.510  3.3284  1.7317  0.1795
 9184SOL     OW39187   2.373   3.338  12.131  0.4612 -0.3253  0.4673
 9184SOL    HW139188   2.296   3.394  12.140  0.3498 -0.2657 -0.8472
 9184SOL    HW239189   2.394   3.321  12.223  1.2485  1.2407  0.5698
 9185SOL     OW39190   3.832   2.301   8.325  0.3523  0.2797 -0.4799
 9185SOL    HW139191   3.826   2.221   8.272 -1.5801 -0.2410  0.5161
 9185SOL    HW239192   3.861   2.368   8.264  1.3267 -0.4586 -0.8315
 9186SOL     OW39193   0.457   0.589  12.255 -0.1985  0.0510  0.0088
 9186SOL    HW139194   0.507   0.641  12.192  1.0440 -1.2718 -0.1221
 9186SOL    HW239195   0.523   0.538  12.303 -0.1276  0.0236 -0.1188
 9187SOL     OW39196   2.369   3.931   5.478  0.5942 -0.3823  0.2726
 9187SOL    HW139197   2.460   3.954   5.459 -0.2825  1.5392 -1.6903
 9187SOL    HW239198   2.371   3.937   5.573  0.0585 -0.0739  0.2653
 9188SOL     OW39199   1.005   4.290   1.996 -0.0423  0.5433  0.3863
 9188SOL    HW139200   0.972   4.342   2.068 -3.3660 -0.3540 -0.4944
 9188SOL    HW239201   1.098   4.291   2.018  0.4149 -0.7348 -1.4054
 9189SOL     OW39202   0.610   1.331  13.735 -0.2218  0.5927  0.1550
 9189SOL    HW139203   0.652   1.345  13.650  2.6916 -1.6702  1.1887
 9189SOL    HW239204   0.543   1.280  13.690  0.8248 -1.5249  1.0065
 9190SOL     OW39205   2.522   0.472  14.618 -0.2040  0.0661  0.1439
 9190SOL    HW139206   2.592   0.454  14.681  0.6148  1.0015 -0.4976
 9190SOL    HW239207   2.470   0.513  14.687 -1.5361 -1.2300 -0.0757
 9191SOL     OW39208   4.732   2.674   2.096  0.3106  0.2935 -0.2275
 9191SOL    HW139209   0.066   2.634   2.138 -0.1176 -0.6724 -0.3772
 9191SOL    HW239210   4.665   2.606   2.104 -0.0098  0.5701 -0.5954
 9192SOL     OW39211   2.513   3.440   8.843  0.0117  0.2089  0.0018
 9192SOL    HW139212   2.554   3.481   8.766  1.5794 -2.5231 -0.6186
 9192SOL    HW239213   2.446   3.505   8.867 -2.5729 -2.9201  1.2129
 9193SOL     OW39214   0.375   0.235   7.465  0.1686  0.1189  0.7125
 9193SOL    HW139215   0.316   0.178   7.514 -1.0802  0.6740 -0.1396
 9193SOL    HW239216   0.358   0.322   7.501  0.1535 -0.3669  1.8705
 9194SOL     OW39217   3.988   2.496   4.943  0.0830 -0.5256 -0.5493
 9194SOL    HW139218   4.037   2.484   4.862 -0.8927  0.2985 -1.2694
 9194SOL    HW239219   3.921   2.557   4.911  1.5628  0.7751 -1.2097
 9195SOL     OW39220   2.908   4.027   3.482  0.6761 -0.2636  0.8202
 9195SOL    HW139221   2.914   4.119   3.505 -1.1617  0.3856 -1.3582
 9195SOL    HW239222   2.819   4.000   3.506  0.3998  0.8634  1.0516
 9196SOL     OW39223   2.456   2.158   5.990 -0.3474  0.1303 -0.2826
 9196SOL    HW139224   2.472   2.098   5.916  0.4350 -0.4136  0.3308
 9196SOL    HW239225   2.435   2.089   6.052  1.7844  0.1539  0.4660
 9197SOL     OW39226   1.915   0.365   9.696 -0.1086 -0.2032 -0.4565
 9197SOL    HW139227   1.995   0.312   9.694  1.0960  1.6113 -0.3831
 9197SOL    HW239228   1.869   0.336   9.617  0.4268  2.3391 -1.7319
 9198SOL     OW39229   3.521   3.082  14.400 -0.3417  0.4421  0.0926
 9198SOL    HW139230   3.579   3.009  14.423 -1.2667  0.0768  1.2725
 9198SOL    HW239231   3.555   3.113  14.316  0.8080  0.0491  0.4042
 9199SOL     OW39232   3.014   2.832   1.580 -0.0795  0.0163  0.7873
 9199SOL    HW139233   2.982   2.898   1.519  0.4610 -2.0501 -1.7504
 9199SOL    HW239234   2.966   2.839   1.663 -0.5161  0.8511  0.4552
 9200SOL     OW39235   4.722   3.662   7.890 -0.1582  0.0336  0.5678
 9200SOL    HW139236   4.682   3.580   7.921 -0.3219  0.0168  0.3114
 9200SOL    HW239237   4.649   3.700   7.842  1.1378  2.2613  0.3921
 9201SOL     OW39238   2.243   0.390  16.454 -0.4395 -0.1558  0.1873
 9201SOL    HW139239   2.195   0.334  16.394 -0.3637 -1.5410  1.4310
 9201SOL    HW239240   2.248   0.474  16.408 -0.3089 -0.9150 -1.1762
 9202SOL     OW39241   1.470   0.373  11.355 -0.3309 -0.2945 -0.5147
 9202SOL    HW139242   1.426   0.372  11.440  1.0209 -2.9198  0.1729
 9202SOL    HW239243   1.467   0.284  11.320  0.2000 -0.4666 -0.1348
 9203SOL     OW39244   4.662   0.060  17.187 -0.2056  0.1958 -0.1431
 9203SOL    HW139245   0.010   0.034  17.173 -0.5932  0.4477 -3.1661
 9203SOL    HW239246   4.624   4.716  17.203  2.0643 -0.5165  1.3963
 9204SOL     OW39247   4.688   2.135   2.030  0.9258 -0.6131 -0.0529
 9204SOL    HW139248   4.703   2.168   1.941 -1.4010 -0.1192 -0.2464
 9204SOL    HW239249   0.023   2.161   2.081  1.6802 -2.2582 -0.3560
 9205SOL     OW39250   1.854   0.960   9.234  0.7237  0.0947  0.0539
 9205SOL    HW139251   1.891   0.922   9.314  1.2481 -0.4457 -0.4387
 9205SOL    HW239252   1.845   1.053   9.257 -0.3091  0.0074 -0.0051
 9206SOL     OW39253   2.651   0.107   7.840 -0.6134 -0.0795  0.0785
 9206SOL    HW139254   2.738   0.117   7.881 -1.2765  1.7782  1.0309
 9206SOL    HW239255   2.619   0.197   7.838 -1.5717 -0.4829 -2.1131
 9207SOL     OW39256   0.897   2.376  11.750  0.4268 -0.0221 -0.1909
 9207SOL    HW139257   0.865   2.289  11.728  3.2260 -1.6836  2.3951
 9207SOL    HW239258   0.949   2.362  11.828 -1.1509  1.9590  1.2270
 9208SOL     OW39259   0.097   1.539   6.559 -0.2670  0.3672  0.1848
 9208SOL    HW139260   0.012   1.500   6.540 -0.5230  1.5987 -1.2428
 9208SOL    HW239261   0.154   1.472   6.519 -0.7933 -0.6006  1.0559
 9209SOL     OW39262   3.924   2.171  13.356  0.2226 -0.0608 -0.4953
 9209SOL    HW139263   3.907   2.086  13.397  0.6042  1.0732  2.0071
 9209SOL    HW239264   3.865   2.167  13.281 -0.3601  0.6994 -0.0794
 9210SOL     OW39265   0.510   3.146   3.959 -0.2566 -0.3002  0.3111
 9210SOL    HW139266   0.477   3.093   4.031 -0.5967  1.1360  1.2082
 9210SOL    HW239267   0.482   3.094   3.884 -0.1350 -1.0189  0.7551
 9211SOL     OW39268   1.994   1.841   6.007 -0.4987  0.6102  0.3940
 9211SOL    HW139269   2.053   1.898   6.056  1.9894  1.1265 -3.2052
 9211SOL    HW239270   1.934   1.821   6.079 -3.4677 -1.2319 -2.5796
 9212SOL     OW39271   3.020   0.788   6.781  0.2011 -0.9636 -0.0662
 9212SOL    HW139272   2.954   0.836   6.830  0.5982  0.8885 -1.3619
 9212SOL    HW239273   2.982   0.700   6.788  0.3919 -1.1819 -1.9542
 9213SOL     OW39274   0.971   3.524   3.275 -0.4715 -0.1495  0.2989
 9213SOL    HW139275   0.943   3.567   3.356 -0.1524  2.3580 -0.9126
 9213SOL    HW239276   0.889   3.483   3.247  0.3612  0.6802 -3.3798
 9214SOL     OW39277   2.492   1.807  15.077 -0.0202 -0.0459 -0.7142
 9214SOL    HW139278   2.570   1.759  15.104 -1.2291 -2.4864 -1.5513
 9214SOL    HW239279   2.522   1.854  14.999 -0.7370 -1.5129 -1.8688
 9215SOL     OW39280   4.707   0.806   6.399 -0.0618  0.1300 -0.0965
 9215SOL    HW139281   4.620   0.842   6.382 -0.5111 -1.0774 -0.3611
 9215SOL    HW239282   4.701   0.779   6.491 -2.5230  0.9543 -0.0083
 9216SOL     OW39283   1.300   1.811   8.389  0.7785  0.2694  0.1048
 9216SOL    HW139284   1.271   1.740   8.333  2.3026  1.1342 -1.7744
 9216SOL    HW239285   1.233   1.792   8.454  0.6300 -0.3157 -0.2296
 9217SOL     OW39286   4.108   4.005  17.436 -0.9134 -0.4163  0.3710
 9217SOL    HW139287   4.042   3.988  17.503 -1.7522  0.2925 -0.2768
 9217SOL    HW239288   4.184   3.968  17.481 -0.6143 -1.6263 -1.1282
 9218SOL     OW39289   2.794   0.608   9.807  0.6256 -0.4681  0.1219
 9218SOL    HW139290   2.839   0.528   9.780  0.2252 -0.9795  0.9757
 9218SOL    HW239291   2.737   0.562   9.869 -0.0620 -0.9885 -0.8901
 9219SOL     OW39292   0.291   3.035  17.589 -0.5679  0.2956 -0.3345
 9219SOL    HW139293   0.338   2.953  17.576 -0.3789  0.2928  0.3493
 9219SOL    HW239294   0.211   3.015  17.542  0.8392 -2.5229 -1.4920
 9220SOL     OW39295   4.551   0.170   5.704  0.3381 -0.0339  0.0675
 9220SOL    HW139296   4.501   0.230   5.648  1.3341  0.2017 -0.5725
 9220SOL    HW239297   4.626   0.228   5.720 -0.8969  1.1110  1.6522
 9221SOL     OW39298   2.002   3.788   2.300 -0.1971 -0.6817  0.1991
 9221SOL    HW139299   2.061   3.716   2.278  0.3413 -0.6648  1.5987
 9221SOL    HW239300   2.024   3.827   2.215 -0.4116 -0.5982  0.1819
 9222SOL     OW39301   2.474   2.718   4.019 -0.8949 -0.3224  0.2578
 9222SOL    HW139302   2.426   2.674   4.090 -1.7874 -1.3047 -0.9547
 9222SOL    HW239303   2.472   2.651   3.951 -0.1681 -0.0222 -0.0599
 9223SOL     OW39304   0.027   4.034   2.841  0.0792  0.1150 -0.0267
 9223SOL    HW139305   0.049   3.977   2.766 -3.4649  1.2512 -1.9114
 9223SOL    HW239306   0.107   4.086   2.850 -0.1483  0.3432  0.6175
 9224SOL     OW39307   2.502   1.861   2.153 -0.3650 -0.0402 -0.1278
 9224SOL    HW139308   2.523   1.777   2.192  0.9685  0.2413 -0.2378
 9224SOL    HW239309   2.419   1.883   2.195 -0.3000 -0.8934  0.4425
 9225SOL     OW39310   2.096   0.244   1.617  0.2675  0.0597 -0.0638
 9225SOL    HW139311   2.079   0.331   1.652  0.1470 -0.2139  0.5618
 9225SOL    HW239312   2.009   0.207   1.634  0.3290 -0.4143 -0.7712
 9226SOL     OW39313   1.000   2.435   5.210  0.0905  0.2910  0.0763
 9226SOL    HW139314   1.025   2.346   5.237  1.0962  0.7904  0.8158
 9226SOL    HW239315   0.934   2.419   5.143  0.4011  1.7466 -0.5740
 9227SOL     OW39316   3.139   2.125   5.167  0.0403 -0.1757 -0.0759
 9227SOL    HW139317   3.086   2.178   5.107 -0.7427 -2.3635 -1.3148
 9227SOL    HW239318   3.228   2.158   5.157 -0.3449  0.0914 -2.6185
 9228SOL     OW39319   1.667   2.281  12.286  0.0791  0.5584  0.4336
 9228SOL    HW139320   1.717   2.211  12.245 -0.8526  0.8357 -1.1761
 9228SOL    HW239321   1.589   2.278  12.231 -0.5908  0.6662  1.3726
 9229SOL     OW39322   0.215   3.488   6.862 -0.5604  0.6089  0.6279
 9229SOL    HW139323   0.167   3.422   6.911  1.0156 -1.1450 -0.1634
 9229SOL    HW239324   0.291   3.501   6.919 -0.5157 -3.4872  1.4646
 9230SOL     OW39325   0.231   4.519  15.648  0.1486  0.3813  0.1556
 9230SOL    HW139326   0.153   4.469  15.626  0.4755 -1.2603  2.6511
 9230SOL    HW239327   0.286   4.446  15.676  1.0697  0.8147 -0.5330
 9231SOL     OW39328   3.743   2.929   8.676  0.0107  0.1035  0.2336
 9231SOL    HW139329   3.834   2.914   8.652  0.5994  2.1236  1.2363
 9231SOL    HW239330   3.754   2.994   8.745  2.5513  1.3789 -1.3997
 9232SOL     OW39331   2.834   1.884   8.094  0.3067  0.2673 -0.6333
 9232SOL    HW139332   2.842   1.806   8.040 -2.4163 -0.8554  0.5477
 9232SOL    HW239333   2.746   1.858   8.123  0.1762  1.3600 -0.0231
 9233SOL     OW39334   3.095   4.377   1.235 -0.3778  0.3750  0.2190
 9233SOL    HW139335   3.060   4.307   1.289  1.0052 -0.8405 -0.4789
 9233SOL    HW239336   3.024   4.393   1.174  1.9510  0.6595 -2.4126
 9234SOL     OW39337   2.532   4.404  14.495 -0.3034  0.4245 -0.2450
 9234SOL    HW139338   2.538   4.309  14.485 -1.0167  0.2876  0.7138
 9234SOL    HW239339   2.623   4.428  14.513 -0.0719 -2.5532  2.6355
 9235SOL     OW39340   3.484   1.099  14.691 -0.4164  0.2247 -0.3341
 9235SOL    HW139341   3.523   1.146  14.765 -2.8969 -0.2086  1.2215
 9235SOL    HW239342   3.391   1.106  14.713  0.4773  0.0850  3.4365
 9236SOL     OW39343   4.205   4.150   8.059  0.2433  0.2882 -0.8517
 9236SOL    HW139344   4.226   4.203   8.136  0.0443  0.6209 -1.0253
 9236SOL    HW239345   4.270   4.186   7.999  1.0920 -1.9397 -1.2833
 9237SOL     OW39346   0.035   1.601   2.623 -0.5607 -0.2672  0.7506
 9237SOL    HW139347   0.019   1.695   2.627  0.0825 -0.1023 -0.5399
 9237SOL    HW239348   4.715   1.563   2.685 -1.2552 -1.4740 -0.6650
 9238SOL     OW39349   0.189   1.015  12.870  0.5442  0.4943 -0.4372
 9238SOL    HW139350   0.228   0.971  12.946  2.5803  1.4721 -0.9182
 9238SOL    HW239351   0.216   1.106  12.885  2.0826  0.0251 -0.3437
 9239SOL     OW39352   2.394   1.308   6.867 -0.1967 -0.1656  0.0718
 9239SOL    HW139353   2.405   1.390   6.916  2.5323 -1.9376  2.4025
 9239SOL    HW239354   2.466   1.258   6.905 -1.0818 -0.9797  0.6774
 9240SOL     OW39355   2.555   1.763   7.326 -0.5607  0.2886  0.2959
 9240SOL    HW139356   2.607   1.781   7.404 -0.2439  2.2152 -0.3351
 9240SOL    HW239357   2.482   1.730   7.378 -1.4269 -0.9624 -1.6978
 9241SOL     OW39358   3.871   2.737   4.812  0.2818  1.2154 -0.5342
 9241SOL    HW139359   3.865   2.764   4.720 -1.0812 -0.8004 -1.0301
 9241SOL    HW239360   3.799   2.786   4.852 -0.5698  0.8584 -1.6234
 9242SOL     OW39361   3.783   0.518   4.283 -0.9722 -0.1337 -0.0749
 9242SOL    HW139362   3.818   0.516   4.372  0.2894  1.2584 -0.5388
 9242SOL    HW239363   3.791   0.611   4.265 -1.9889  0.1265  0.7964
 9243SOL     OW39364   4.017   3.853  12.775 -0.0113  0.4442 -0.2724
 9243SOL    HW139365   4.010   3.759  12.789 -1.1336  0.2913 -1.9836
 9243SOL    HW239366   3.952   3.872  12.708 -0.5710 -1.0929 -0.1647
 9244SOL     OW39367   1.256   2.702   3.010  0.2561  0.7589 -0.1479
 9244SOL    HW139368   1.338   2.711   2.961  0.5054 -1.4252 -0.1336
 9244SOL    HW239369   1.213   2.786   2.992 -0.6212 -0.1109 -2.1437
 9245SOL     OW39370   4.445   3.468   8.603 -0.1865 -0.0085 -0.5400
 9245SOL    HW139371   4.482   3.480   8.516  0.3287 -1.5089 -0.5330
 9245SOL    HW239372   4.377   3.535   8.608  0.5933  0.5463  2.5770
 9246SOL     OW39373   1.922   3.743   3.303  0.4304  0.3292 -0.2612
 9246SOL    HW139374   1.885   3.798   3.234 -1.2606 -0.3315  0.1077
 9246SOL    HW239375   2.004   3.708   3.268  0.2444  0.4760 -0.8445
 9247SOL     OW39376   4.426   3.814   1.763 -0.4450  0.5027 -0.7326
 9247SOL    HW139377   4.465   3.877   1.823 -0.0801 -1.0021  0.5978
 9247SOL    HW239378   4.337   3.823   1.795 -0.2778  0.6627 -0.3226
 9248SOL     OW39379   0.185   1.193   9.506 -0.0632  0.4854 -0.2638
 9248SOL    HW139380   0.125   1.183   9.580  1.0184  0.3859  0.6076
 9248SOL    HW239381   0.127   1.243   9.450 -2.0857 -1.7882 -0.1764
 9249SOL     OW39382   2.287   4.458  16.784 -0.0400  0.2763 -0.0682
 9249SOL    HW139383   2.219   4.425  16.726  0.4190  1.0911 -1.0530
 9249SOL    HW239384   2.307   4.383  16.840  0.8720 -0.8041 -1.8278
 9250SOL     OW39385   4.119   4.232  12.741  0.9620  0.3134  0.7790
 9250SOL    HW139386   4.162   4.310  12.777 -0.6440  0.2194  2.9191
 9250SOL    HW239387   4.178   4.217  12.667 -0.5028 -1.9235  0.0631
 9251SOL     OW39388   4.099   3.829   7.927  0.0774 -0.2347 -0.5710
 9251SOL    HW139389   4.108   3.854   7.835 -1.6687  1.6801 -0.2158
 9251SOL    HW239390   4.042   3.890   7.973  0.0311  1.5498 -3.0074
 9252SOL     OW39391   2.588   2.165  13.308 -0.1508 -0.3085 -0.2855
 9252SOL    HW139392   2.617   2.239  13.254 -1.0391  0.0041 -0.3205
 9252SOL    HW239393   2.505   2.206  13.330  0.6335 -0.1827  2.4186
 9253SOL     OW39394   3.206   1.440   7.858  0.1127  0.1306  0.5776
 9253SOL    HW139395   3.119   1.431   7.898 -1.0661 -0.9408 -2.1776
 9253SOL    HW239396   3.189   1.411   7.768  0.1831  1.5090  0.1293
 9254SOL     OW39397   1.188   4.448   5.431 -0.4933 -0.3847  0.0121
 9254SOL    HW139398   1.155   4.366   5.396  1.7399 -2.2794  2.3856
 9254SOL    HW239399   1.276   4.453   5.394  0.0578  1.9806  1.6258
 9255SOL     OW39400   3.220   0.501   6.892 -0.5161  0.0882  0.0279
 9255SOL    HW139401   3.272   0.467   6.964  0.0767 -0.8622 -0.8389
 9255SOL    HW239402   3.274   0.567   6.848 -3.3613  1.8187 -0.8925
 9256SOL     OW39403   1.652   3.058   8.452 -0.1345 -0.1748 -0.6188
 9256SOL    HW139404   1.598   3.027   8.524 -1.3262 -0.1130 -1.4834
 9256SOL    HW239405   1.663   2.990   8.386 -1.9328 -0.4782 -0.5981
 9257SOL     OW39406   4.322   0.877  13.362 -0.5402 -0.1980  0.0875
 9257SOL    HW139407   4.280   0.933  13.426  1.0430  1.9993 -0.7729
 9257SOL    HW239408   4.268   0.798  13.350  0.3341 -0.7191 -0.4738
 9258SOL     OW39409   1.966   2.386   5.040 -0.3844 -0.4001 -0.3192
 9258SOL    HW139410   2.050   2.344   5.054  0.4908  1.0833 -1.1785
 9258SOL    HW239411   1.999   2.473   5.017 -1.0758 -0.7829 -2.6746
 9259SOL     OW39412   0.039   2.905   4.564  0.1156  0.2819 -0.2647
 9259SOL    HW139413   0.128   2.881   4.539  0.2148 -0.9388  1.2810
 9259SOL    HW239414   0.014   2.824   4.607  0.7276  0.6837  0.8653
 9260SOL     OW39415   1.025   4.264   7.966  0.1500 -0.1459 -0.4841
 9260SOL    HW139416   1.050   4.173   7.951  0.1243 -0.1456 -0.5297
 9260SOL    HW239417   0.931   4.260   7.952  0.1237 -0.4106 -0.2034
 9261SOL     OW39418   2.247   2.256   6.605  0.3635 -0.2477  0.0023
 9261SOL    HW139419   2.236   2.325   6.539  1.6921  1.3855  1.4715
 9261SOL    HW239420   2.287   2.295   6.682 -1.1131 -0.8603  1.0630
 9262SOL     OW39421   1.309   3.528   3.433 -0.2028  0.3845 -0.2928
 9262SOL    HW139422   1.291   3.620   3.412 -1.1784  0.0706 -0.8070
 9262SOL    HW239423   1.388   3.538   3.486  1.3402 -2.0849 -2.0945
 9263SOL     OW39424   1.598   2.951   3.890  0.4639 -0.3670 -0.2997
 9263SOL    HW139425   1.504   2.955   3.911  0.1491 -0.0741 -1.7925
 9263SOL    HW239426   1.610   3.045   3.895 -0.0085 -0.4096  1.5287
 9264SOL     OW39427   0.890   3.818  16.984  0.5880 -0.4868  0.2192
 9264SOL    HW139428   0.863   3.813  17.076 -1.0402 -1.8426 -0.3216
 9264SOL    HW239429   0.804   3.801  16.945  0.8710  0.6043 -0.8775
 9265SOL     OW39430   3.193   0.451   8.347 -0.2049 -0.1319 -0.4953
 9265SOL    HW139431   3.277   0.451   8.394 -0.0848  0.8828 -0.7065
 9265SOL    HW239432   3.144   0.435   8.428  0.1401  2.9536  0.3259
 9266SOL     OW39433   2.536   0.898   6.963  0.1582  0.1178  0.6434
 9266SOL    HW139434   2.583   0.916   6.881  0.7400  0.5068  1.0627
 9266SOL    HW239435   2.587   0.830   7.006  0.4503  0.6590  1.1498
 9267SOL     OW39436   0.397   3.471   5.787 -0.0545  0.4176  0.0583
 9267SOL    HW139437   0.342   3.492   5.863 -1.2679 -1.6756 -0.2372
 9267SOL    HW239438   0.479   3.459   5.835  0.1650 -0.2267 -0.4821
 9268SOL     OW39439   4.133   2.074   3.491 -0.1560  0.2094  0.1622
 9268SOL    HW139440   4.134   2.146   3.554 -0.3721  0.7340 -0.4360
 9268SOL    HW239441   4.226   2.056   3.486 -0.4175 -1.0506 -0.0281
 9269SOL     OW39442   1.433   0.080  13.148 -0.0432  0.0461 -0.4687
 9269SOL    HW139443   1.349   0.118  13.122  0.2647  0.0944 -1.4052
 9269SOL    HW239444   1.434   4.742  13.096  1.8610 -0.9335  1.0801
 9270SOL     OW39445   4.362   4.068   1.240 -0.1318 -0.1541 -0.5378
 9270SOL    HW139446   4.281   4.021   1.216 -0.1153  1.0995 -3.0501
 9270SOL    HW239447   4.424   4.016   1.189  0.5849  0.5804 -0.4049
 9271SOL     OW39448   4.706   2.432   3.221 -0.7181 -0.1888 -0.3276
 9271SOL    HW139449   4.702   2.515   3.175  0.3056 -0.3043 -0.6345
 9271SOL    HW239450   4.644   2.377   3.173 -1.2120 -0.6307  0.8062
 9272SOL     OW39451   3.689   1.376   5.415  0.3155 -0.4984 -0.1150
 9272SOL    HW139452   3.758   1.414   5.361 -0.0768  0.4727  0.0655
 9272SOL    HW239453   3.700   1.421   5.498 -0.0912  1.1218 -0.9282
 9273SOL     OW39454   2.767   3.507   6.964 -0.2951  0.2707 -0.3420
 9273SOL    HW139455   2.760   3.439   6.897 -1.8861  1.0008 -0.9035
 9273SOL    HW239456   2.832   3.470   7.025 -1.9381  0.7394  1.7218
 9274SOL     OW39457   3.756   3.324   8.106 -0.1825 -0.2269 -0.0484
 9274SOL    HW139458   3.708   3.276   8.037 -0.2907  0.7185 -0.6273
 9274SOL    HW239459   3.837   3.274   8.115  0.5165  0.9469  0.0705
 9275SOL     OW39460   4.677   2.959  12.188  0.2278 -0.6637  0.7714
 9275SOL    HW139461   4.607   3.023  12.197  0.2768 -0.1135 -3.0064
 9275SOL    HW239462   4.634   2.914  12.116  0.9216  0.4828 -0.3445
 9276SOL     OW39463   4.641   1.890   3.622  0.4989 -0.0802 -0.0026
 9276SOL    HW139464   4.707   1.828   3.654 -0.2777 -0.5994  0.5858
 9276SOL    HW239465   4.697   1.942   3.564  0.3110 -1.8141 -1.7897
 9277SOL     OW39466   0.096   0.149   3.166 -0.3756 -0.3564 -0.0958
 9277SOL    HW139467   0.051   0.112   3.242 -0.7815 -2.1352 -1.2124
 9277SOL    HW239468   0.181   0.171   3.203 -1.3893  2.4445  0.6019
 9278SOL     OW39469   1.392   2.557   5.126 -0.2326  0.3246  0.0100
 9278SOL    HW139470   1.379   2.481   5.182  0.4264  1.5446  1.8231
 9278SOL    HW239471   1.479   2.539   5.090  0.1968  2.0613  0.1756
 9279SOL     OW39472   0.370   4.526  13.288 -0.0245 -0.2673 -0.1406
 9279SOL    HW139473   0.326   4.519  13.204 -1.7832  0.3632  0.7232
 9279SOL    HW239474   0.296   4.518  13.349 -0.8727 -1.1207 -1.2995
 9280SOL     OW39475   0.376   0.417   5.611  0.5840  0.3198  0.5602
 9280SOL    HW139476   0.369   0.417   5.707 -2.8647 -3.0742  0.3056
 9280SOL    HW239477   0.305   0.356   5.590 -0.2259  1.2443  0.6239
 9281SOL     OW39478   1.627   1.682   7.025 -0.2716 -0.9903 -0.2365
 9281SOL    HW139479   1.630   1.623   7.101  0.9198 -0.1429  0.3744
 9281SOL    HW239480   1.711   1.670   6.982 -0.2404 -1.5390 -0.0241
 9282SOL     OW39481   0.849   4.422   3.771 -0.8253  0.8693  0.0522
 9282SOL    HW139482   0.933   4.448   3.810 -1.0404 -1.7316  2.2227
 9282SOL    HW239483   0.861   4.438   3.677  1.3057 -0.2552  0.1369
 9283SOL     OW39484   3.613   4.500   3.223  0.4748  0.1900 -0.2010
 9283SOL    HW139485   3.707   4.513   3.207  0.5713 -0.1396  0.0916
 9283SOL    HW239486   3.566   4.523   3.143  0.7743 -0.4535 -0.5631
 9284SOL     OW39487   2.544   3.500   4.011  0.1013  0.1169  0.2303
 9284SOL    HW139488   2.533   3.425   4.070  1.2110 -0.2418 -0.0188
 9284SOL    HW239489   2.640   3.502   4.002  0.0090  1.2449 -0.5256
 9285SOL     OW39490   1.107   2.962   9.265 -0.6629 -0.5730 -0.2511
 9285SOL    HW139491   1.065   2.997   9.344  0.8173  0.7696 -0.0391
 9285SOL    HW239492   1.038   2.935   9.205 -1.1744  0.0575  0.0524
 9286SOL     OW39493   1.445   0.698  11.985  0.4043  0.0013 -0.0455
 9286SOL    HW139494   1.466   0.606  11.969 -2.5066 -0.6902  0.1024
 9286SOL    HW239495   1.480   0.714  12.072  1.3249 -2.6210  0.0540
 9287SOL     OW39496   3.896   4.603   0.694  0.0702 -0.4230  0.2403
 9287SOL    HW139497   3.853   4.530   0.738  0.1998  0.1283  1.2796
 9287SOL    HW239498   3.843   4.678   0.721 -1.1754 -1.7327  1.4106
 9288SOL     OW39499   4.206   3.544   4.503 -0.7121 -0.2752  0.1844
 9288SOL    HW139500   4.185   3.467   4.556 -1.2714 -0.3599 -0.1586
 9288SOL    HW239501   4.165   3.612   4.557  1.9354  0.2437  1.5956
 9289SOL     OW39502   3.960   4.042   6.843  0.6015 -0.3902  0.3849
 9289SOL    HW139503   3.888   4.103   6.859  1.6619  0.8011  0.6198
 9289SOL    HW239504   4.037   4.093   6.817  0.0220  0.1654 -0.2446
 9290SOL     OW39505   3.228   3.482   3.812 -0.1262 -0.1743  0.0327
 9290SOL    HW139506   3.306   3.427   3.800 -1.4544 -1.6885 -1.7827
 9290SOL    HW239507   3.168   3.441   3.874 -0.4415  2.0055  1.1601
 9291SOL     OW39508   1.171   1.089   2.367  0.1662 -0.3710  0.4907
 9291SOL    HW139509   1.104   1.039   2.415  1.7248 -1.0869  1.9327
 9291SOL    HW239510   1.248   1.032   2.369  0.3985 -0.1795 -3.2854
 9292SOL     OW39511   2.184   4.605   9.881 -0.1221  0.1347 -0.1996
 9292SOL    HW139512   2.159   4.570   9.795 -1.0284 -1.8836  0.8832
 9292SOL    HW239513   2.217   4.529   9.928 -1.2197  0.2264  0.7303
 9293SOL     OW39514   2.688   2.538   7.275 -0.3095  0.6355 -0.0787
 9293SOL    HW139515   2.687   2.449   7.309 -0.3628  0.8292  0.4204
 9293SOL    HW239516   2.740   2.577   7.345  0.1578  1.6229 -0.9744
 9294SOL     OW39517   1.292   0.112   6.351 -0.3476 -0.7180  0.0249
 9294SOL    HW139518   1.219   0.162   6.315  0.0822 -0.5548 -0.6340
 9294SOL    HW239519   1.317   0.058   6.276 -0.3815 -1.1083  0.2927
 9295SOL     OW39520   2.546   3.305  12.577  0.3376 -0.3592  0.6138
 9295SOL    HW139521   2.469   3.347  12.616  1.0590  1.2240  0.3433
 9295SOL    HW239522   2.605   3.320  12.651 -2.8873  2.0600  2.7323
 9296SOL     OW39523   3.885   0.482  15.670 -0.1234  0.2251  0.2512
 9296SOL    HW139524   3.805   0.495  15.720  1.0044 -1.2669  2.4449
 9296SOL    HW239525   3.941   0.551  15.705 -2.4545  1.8221  0.8248
 9297SOL     OW39526   1.364   3.960   2.566 -0.4403 -0.2228  0.2642
 9297SOL    HW139527   1.279   3.949   2.523 -0.4411  0.2365  0.1460
 9297SOL    HW239528   1.386   4.046   2.532 -2.4299 -0.6021 -2.0303
 9298SOL     OW39529   2.061   2.025   9.198  0.1494 -0.2581 -0.3173
 9298SOL    HW139530   2.045   1.974   9.118  2.1509 -2.0495  0.4170
 9298SOL    HW239531   2.110   1.962   9.251  0.7591  0.6025  0.1346
 9299SOL     OW39532   3.854   0.148   1.879 -0.0234  0.0591  0.3001
 9299SOL    HW139533   3.827   0.140   1.787 -2.4513  0.2698  0.9966
 9299SOL    HW239534   3.923   0.213   1.870 -0.5954  0.4815 -1.0213
 9300SOL     OW39535   2.754   3.535   5.845  0.4617  0.7988  0.2683
 9300SOL    HW139536   2.723   3.612   5.797  0.0389  0.7218  0.4257
 9300SOL    HW239537   2.793   3.483   5.775  1.0275 -0.9220  1.8723
 9301SOL     OW39538   0.490   0.004   6.541  0.5650  0.7820 -0.2009
 9301SOL    HW139539   0.427   4.733   6.470  4.1282 -2.8272 -2.7038
 9301SOL    HW239540   0.552   0.064   6.500  0.6302  0.6045 -0.3646
 9302SOL     OW39541   2.228   4.715   8.192 -0.1404 -0.2686  0.3790
 9302SOL    HW139542   2.231   0.031   8.116 -0.0646 -0.6281  0.1103
 9302SOL    HW239543   2.253   4.625   8.173  0.1035 -0.2281  0.5056
 9303SOL     OW39544   0.020   3.016   3.384 -0.3535 -0.1664  0.5052
 9303SOL    HW139545   0.040   3.109   3.394  1.5467 -0.3527 -1.4892
 9303SOL    HW239546   0.036   2.986   3.473  0.7093 -1.0370  0.0217
 9304SOL     OW39547   0.775   3.193  11.380  0.1038 -0.1174 -0.1610
 9304SOL    HW139548   0.816   3.271  11.342  1.7661 -1.0753 -0.3581
 9304SOL    HW239549   0.756   3.149  11.298 -0.5618  1.2134 -0.7184
 9305SOL     OW39550   3.942   0.770   5.180  0.5858 -0.3477  0.6044
 9305SOL    HW139551   3.965   0.733   5.266  0.1910 -0.4047  0.6866
 9305SOL    HW239552   3.932   0.690   5.129  0.5777 -0.6978  1.1484
 9306SOL     OW39553   2.338   1.744  11.882  0.3903 -0.0035  0.6791
 9306SOL    HW139554   2.263   1.751  11.823  1.0589 -0.3380 -0.2209
 9306SOL    HW239555   2.400   1.675  11.857 -1.5509 -0.7245 -2.0770
 9307SOL     OW39556   3.914   1.504   4.454  0.3976 -0.1573 -0.0808
 9307SOL    HW139557   4.009   1.514   4.450  0.2955  0.2760 -1.5238
 9307SOL    HW239558   3.904   1.463   4.368  2.7479 -0.2146 -0.3221
 9308SOL     OW39559   2.958   1.746   4.655  0.3924 -0.8373 -0.0166
 9308SOL    HW139560   3.039   1.704   4.628  1.8716  1.3766  1.0104
 9308SOL    HW239561   2.985   1.810   4.721  0.3569 -0.3685 -0.4577
 9309SOL     OW39562   3.527   0.251   2.620  0.6054  0.5766 -0.8443
 9309SOL    HW139563   3.448   0.210   2.583  1.2403 -1.8168  0.5057
 9309SOL    HW239564   3.537   0.220   2.710  0.2635 -1.6804 -1.5809
 9310SOL     OW39565   1.823   0.167   5.699  0.3787 -0.6736 -0.0777
 9310SOL    HW139566   1.836   0.250   5.745 -1.0796 -1.5745  1.9364
 9310SOL    HW239567   1.913   0.135   5.687  0.2709 -0.2294 -2.0441
 9311SOL     OW39568   4.685   3.169   4.463  0.0789  0.1250  0.0025
 9311SOL    HW139569   4.710   3.081   4.490 -0.2675  0.6255  1.9012
 9311SOL    HW239570   0.012   3.222   4.502 -0.3114  0.1193  0.6924
 9312SOL     OW39571   0.515   3.768   2.960  0.0258 -0.2852 -0.5786
 9312SOL    HW139572   0.508   3.738   3.051 -0.8555  0.4288 -0.4219
 9312SOL    HW239573   0.491   3.860   2.956  0.7811  0.1128  3.2545
 9313SOL     OW39574   1.047   0.060  16.933 -0.6460  0.2713 -0.1568
 9313SOL    HW139575   1.133   0.019  16.940 -0.5105  0.5843 -0.0034
 9313SOL    HW239576   1.034   0.074  17.026 -0.5463 -2.7077  0.3161
 9314SOL     OW39577   4.544   3.951   5.518 -0.8044  0.7256 -0.0843
 9314SOL    HW139578   4.465   3.908   5.551 -0.5704  0.4560  0.1233
 9314SOL    HW239579   4.605   3.877   5.513  0.5595  1.7922  0.7136
 9315SOL     OW39580   1.589   3.934   3.329  0.1726 -0.6013 -0.2146
 9315SOL    HW139581   1.647   3.898   3.397  1.0971  0.4047 -0.4783
 9315SOL    HW239582   1.525   3.990   3.372  0.9270 -0.6377  0.9634
 9316SOL     OW39583   4.650   2.631   5.770 -0.1232 -0.3229  0.1516
 9316SOL    HW139584   4.653   2.536   5.775 -1.1885 -0.4716 -2.2274
 9316SOL    HW239585   4.706   2.646   5.693 -1.3202 -2.0705 -1.0465
 9317SOL     OW39586   0.941   1.379   9.275  0.0823  0.2832  0.4548
 9317SOL    HW139587   0.899   1.403   9.192 -1.9056 -0.0232  1.3688
 9317SOL    HW239588   0.880   1.422   9.335 -0.1609 -1.9807  1.8180
 9318SOL     OW39589   3.422   1.940   6.644  0.1676  0.1210  0.2874
 9318SOL    HW139590   3.351   1.997   6.672 -1.3436 -2.4668  1.7303
 9318SOL    HW239591   3.490   1.999   6.676 -0.1401  0.1498  0.8872
 9319SOL     OW39592   4.133   1.669  10.344  0.2034 -0.3405 -0.5830
 9319SOL    HW139593   4.173   1.724  10.412  2.2929 -0.7075 -1.5250
 9319SOL    HW239594   4.136   1.577  10.372  1.7775 -0.7847 -2.2016
 9320SOL     OW39595   1.347   3.127   2.834  0.2263  0.2065 -0.5903
 9320SOL    HW139596   1.408   3.201   2.834  1.7950 -1.0964  1.7786
 9320SOL    HW239597   1.317   3.110   2.924 -1.7030  1.8597 -0.9183
 9321SOL     OW39598   2.725   0.172   3.523  0.1956  0.1663 -0.0640
 9321SOL    HW139599   2.701   0.264   3.531 -0.0863  0.0651  0.2217
 9321SOL    HW239600   2.683   0.144   3.442 -0.6779  3.0901 -0.6446
 9322SOL     OW39601   0.122   3.258   3.500 -0.3933 -0.4779 -0.5092
 9322SOL    HW139602   0.200   3.226   3.545  1.0595  1.0363 -1.9681
 9322SOL    HW239603   0.059   3.261   3.572 -1.4429 -2.2805 -1.3473
 9323SOL     OW39604   3.511   3.216   8.685 -0.1632 -0.2693 -0.0334
 9323SOL    HW139605   3.425   3.253   8.665 -0.4726 -2.0851 -2.0341
 9323SOL    HW239606   3.500   3.126   8.652  0.4030  0.9002 -3.4180
 9324SOL     OW39607   3.430   3.492   2.819 -0.1006 -0.3861  0.1895
 9324SOL    HW139608   3.349   3.500   2.769 -1.4458 -4.4883  1.7390
 9324SOL    HW239609   3.495   3.531   2.761 -1.6365  1.8953 -0.0479
 9325SOL     OW39610   4.512   4.621   6.597 -0.3468  0.0831  0.3175
 9325SOL    HW139611   4.505   4.697   6.656 -2.4096 -0.5450  0.8965
 9325SOL    HW239612   4.573   4.661   6.535 -2.8445  0.5830 -1.8279
 9326SOL     OW39613   3.101   0.132   8.171  0.3102  0.8756  0.6258
 9326SOL    HW139614   3.061   0.064   8.225  1.0027  0.8280  1.0850
 9326SOL    HW239615   3.177   0.083   8.137  0.6072  0.7631  1.4526
 9327SOL     OW39616   4.680   2.628   8.601  0.2190 -0.0379 -0.2775
 9327SOL    HW139617   4.681   2.665   8.690  1.9242 -0.0053 -0.3189
 9327SOL    HW239618   4.592   2.652   8.571 -0.2049 -1.1275  0.0911
 9328SOL     OW39619   2.298   2.516  16.517 -0.2933 -0.0708 -0.6712
 9328SOL    HW139620   2.332   2.473  16.595  2.2405 -1.1888 -2.3744
 9328SOL    HW239621   2.209   2.536  16.544 -0.2005 -1.6911  0.8048
 9329SOL     OW39622   2.663   1.775   3.611 -0.3095 -0.2719  0.1936
 9329SOL    HW139623   2.753   1.777   3.578  0.3427 -0.2156  1.9405
 9329SOL    HW239624   2.629   1.825   3.537  0.1194 -0.4233 -0.1058
 9330SOL     OW39625   3.940   3.619   1.873  0.2379  0.5620  0.4870
 9330SOL    HW139626   4.001   3.549   1.899  2.2329  2.6633  1.4031
 9330SOL    HW239627   3.861   3.583   1.913 -0.1388  2.4618  1.4367
 9331SOL     OW39628   2.279   1.030   4.059  0.5439 -0.2801 -0.1620
 9331SOL    HW139629   2.224   1.044   4.136 -0.6440 -2.0376 -0.6963
 9331SOL    HW239630   2.360   0.991   4.089  0.6637 -0.8833 -1.2650
 9332SOL     OW39631   2.762   0.953  10.120  0.3376 -0.2168 -0.3081
 9332SOL    HW139632   2.849   0.927  10.151  1.2548  1.0038 -1.8186
 9332SOL    HW239633   2.732   0.873  10.076 -1.0269 -0.7061  1.5497
 9333SOL     OW39634   1.365   2.314   8.367 -0.2066  0.5390 -0.4967
 9333SOL    HW139635   1.337   2.222   8.366 -0.7756  0.7197 -1.0749
 9333SOL    HW239636   1.426   2.309   8.441 -0.0048  1.4653 -0.6041
 9334SOL     OW39637   3.647   1.636   3.365  0.0213  0.0472 -0.2010
 9334SOL    HW139638   3.598   1.565   3.407 -0.2542  1.1780  1.3978
 9334SOL    HW239639   3.691   1.587   3.296  0.4893 -1.0454  0.8860
 9335SOL     OW39640   0.149   0.867  10.936  0.4890 -0.4389 -0.1930
 9335SOL    HW139641   0.233   0.905  10.913  1.3015 -1.8088  0.5285
 9335SOL    HW239642   0.168   0.793  10.993  1.5991  0.3802  0.4919
 9336SOL     OW39643   4.350   0.774   7.609 -0.1655 -0.6910  0.1974
 9336SOL    HW139644   4.280   0.751   7.671  0.0747 -0.5018  0.5333
 9336SOL    HW239645   4.376   0.861   7.636 -0.1576 -1.1547  1.6837
 9337SOL     OW39646   0.363   2.688   2.612  0.0682 -0.4228 -0.6387
 9337SOL    HW139647   0.286   2.646   2.573 -0.3226 -0.5114  0.2359
 9337SOL    HW239648   0.359   2.775   2.572  1.1869  0.4133  1.0558
 9338SOL     OW39649   4.377   0.194   1.446 -0.0850  0.0517  0.1169
 9338SOL    HW139650   4.367   0.122   1.385 -0.9601  0.6433 -0.4403
 9338SOL    HW239651   4.406   0.156   1.529  0.4362  2.2209  0.9331
 9339SOL     OW39652   3.374   4.460   9.905  0.2805  0.9150  0.7978
 9339SOL    HW139653   3.377   4.412   9.822  0.7477  1.4515  0.5069
 9339SOL    HW239654   3.466   4.471   9.928  0.6053 -1.1471  0.5089
 9340SOL     OW39655   3.705   4.151   4.539 -0.2056  0.6260 -0.3704
 9340SOL    HW139656   3.782   4.132   4.593 -1.2840  1.4514  1.4493
 9340SOL    HW239657   3.710   4.081   4.474 -0.8693 -0.7454  1.0590
 9341SOL     OW39658   1.851   3.098  15.037 -0.2471 -0.2228 -0.3303
 9341SOL    HW139659   1.786   3.077  14.970 -3.1843 -0.3893  2.5907
 9341SOL    HW239660   1.891   3.175  14.997 -0.4155  0.3153  0.5538
 9342SOL     OW39661   0.019   1.155   8.052  0.3889  0.4750  0.3910
 9342SOL    HW139662   0.001   1.149   8.146  1.1193  1.5901  0.6005
 9342SOL    HW239663   0.104   1.111   8.047  0.1398 -0.0362  0.7213
 9343SOL     OW39664   4.666   1.232   1.910 -0.0545  0.4656 -0.3938
 9343SOL    HW139665   4.674   1.144   1.873 -2.1005 -0.8005  2.2207
 9343SOL    HW239666   4.688   1.226   2.003 -0.3915  1.2435 -0.2674
 9344SOL     OW39667   0.975   3.907   7.822  0.0987 -0.1547 -0.3303
 9344SOL    HW139668   1.027   3.960   7.883  1.7967  0.8630 -2.6552
 9344SOL    HW239669   0.919   3.973   7.782  1.3723  1.5350  0.7140
 9345SOL     OW39670   0.105   3.232   3.009 -0.6682 -0.0896  0.3596
 9345SOL    HW139671   0.142   3.157   3.055  0.4346 -1.0744 -2.1321
 9345SOL    HW239672   0.015   3.201   2.996 -0.4256 -0.0727 -1.3045
 9346SOL     OW39673   0.089   0.433  15.464 -0.0178 -0.1158  0.6943
 9346SOL    HW139674   0.057   0.366  15.404 -0.2093  2.2450 -1.8521
 9346SOL    HW239675   0.035   0.419  15.541 -1.4214 -1.9205 -0.6347
 9347SOL     OW39676   3.851   0.902   5.541  0.1985 -0.1112 -0.2837
 9347SOL    HW139677   3.861   0.978   5.599 -2.3563  0.4088 -0.5307
 9347SOL    HW239678   3.784   0.845   5.578  1.3355 -1.5083 -0.3869
 9348SOL     OW39679   3.938   3.540  12.728 -0.0621  0.1164 -0.3648
 9348SOL    HW139680   3.844   3.524  12.722  0.0005 -0.9538  1.2538
 9348SOL    HW239681   3.960   3.569  12.640  1.8158 -1.3304 -0.3822
 9349SOL     OW39682   0.640   3.065   8.848  0.2668  0.1328  0.4796
 9349SOL    HW139683   0.648   3.034   8.938  0.7923 -1.5642 -0.1430
 9349SOL    HW239684   0.601   3.151   8.867  0.9232  0.8952 -1.6637
 9350SOL     OW39685   3.133   3.056   5.374  0.0285  0.6883 -0.3569
 9350SOL    HW139686   3.196   2.998   5.417 -1.1905 -0.8179 -0.6055
 9350SOL    HW239687   3.145   3.134   5.429  1.1535  1.2459 -1.3854
 9351SOL     OW39688   0.616   2.047  16.979  0.4283  0.1113  0.4647
 9351SOL    HW139689   0.700   2.092  16.967  0.1981  0.8699  1.6385
 9351SOL    HW239690   0.568   2.085  16.906 -0.0836  0.0706  0.7760
 9352SOL     OW39691   2.098   4.492   1.372 -0.6302 -0.1061 -0.8523
 9352SOL    HW139692   2.088   4.415   1.317 -1.2646  0.0382 -0.9438
 9352SOL    HW239693   2.007   4.510   1.397  0.3593  1.2651  1.8340
 9353SOL     OW39694   1.509   2.509   1.316 -0.3890  0.1957 -0.9634
 9353SOL    HW139695   1.446   2.508   1.243 -0.3209  0.0778 -1.0218
 9353SOL    HW239696   1.589   2.473   1.279  0.0118 -0.2296  0.3131
 9354SOL     OW39697   1.513   1.470  10.944  0.1657 -0.5959 -0.1192
 9354SOL    HW139698   1.574   1.498  11.013  1.6629  1.6166 -2.3592
 9354SOL    HW239699   1.567   1.404  10.900  0.6539 -0.2715 -0.0082
 9355SOL     OW39700   1.136   0.079  13.846 -0.7339  0.1161  0.0684
 9355SOL    HW139701   1.138   0.062  13.752  2.5169 -0.4194  0.2444
 9355SOL    HW239702   1.125   0.174  13.845  0.9532  0.3134 -0.4710
 9356SOL     OW39703   0.423   3.328  10.010 -0.3040 -0.3765 -0.7786
 9356SOL    HW139704   0.469   3.245  10.025 -1.4094 -1.0109 -0.9075
 9356SOL    HW239705   0.365   3.345  10.084 -0.0238  3.8736 -1.5400
 9357SOL     OW39706   2.938   1.667   7.895  0.2759  0.0596 -0.5206
 9357SOL    HW139707   2.998   1.733   7.930 -0.3345  0.1034  0.4401
 9357SOL    HW239708   2.955   1.681   7.802  3.2249 -1.5291 -0.2557
 9358SOL     OW39709   1.080   2.299   6.197 -0.1975 -0.0879  0.0574
 9358SOL    HW139710   1.123   2.219   6.166 -1.3543  0.1990 -2.2721
 9358SOL    HW239711   1.145   2.315   6.265 -0.7212 -0.9999  0.7826
 9359SOL     OW39712   4.315   3.599   7.794  0.3182 -0.3548  0.3647
 9359SOL    HW139713   4.309   3.527   7.731  0.5831 -0.7367  0.7770
 9359SOL    HW239714   4.227   3.632   7.778  1.0723  1.5193  0.1062
 9360SOL     OW39715   2.226   3.565   8.393  0.3386  0.1482 -0.0971
 9360SOL    HW139716   2.134   3.580   8.412  0.1365 -0.5693 -0.4960
 9360SOL    HW239717   2.238   3.470   8.404  0.8062  0.3622  1.3323
 9361SOL     OW39718   0.770   0.828   8.342  0.5505 -0.0521 -0.2687
 9361SOL    HW139719   0.843   0.769   8.323 -0.8093 -1.5546 -0.8695
 9361SOL    HW239720   0.782   0.892   8.272  2.0340 -2.4537 -2.2143
 9362SOL     OW39721   1.858   4.211  17.263 -0.3986 -0.2314  0.2979
 9362SOL    HW139722   1.922   4.281  17.250 -2.0064  0.5381 -3.2961
 9362SOL    HW239723   1.881   4.151  17.192 -0.1390  0.2061  0.0106
 9363SOL     OW39724   2.497   2.254   2.672  0.3198 -0.9475 -0.7840
 9363SOL    HW139725   2.568   2.243   2.609  0.5961  2.7809 -1.1465
 9363SOL    HW239726   2.435   2.189   2.639 -0.1972 -0.1640 -1.3712
 9364SOL     OW39727   1.097   3.391   0.554  0.0531  0.0384  0.8058
 9364SOL    HW139728   1.180   3.355   0.522  0.9022 -0.0216  3.0586
 9364SOL    HW239729   1.043   3.381   0.476  0.6583 -1.2071  0.5454
 9365SOL     OW39730   2.876   2.907  16.739  0.0198 -0.1575 -0.0553
 9365SOL    HW139731   2.918   2.879  16.657 -0.9439  1.3292 -1.0489
 9365SOL    HW239732   2.863   3.000  16.721 -0.5513 -0.3354 -0.5594
 9366SOL     OW39733   3.340   0.007   8.042  0.0498 -0.1078  0.2840
 9366SOL    HW139734   3.411   4.693   8.013 -1.4458 -1.3502 -0.9753
 9366SOL    HW239735   3.284   4.737   7.965 -2.7544  2.7336  1.8637
 9367SOL     OW39736   4.611   4.098   9.606 -0.4779  0.2844 -0.0469
 9367SOL    HW139737   4.548   4.050   9.553  0.9610  0.6883 -2.0862
 9367SOL    HW239738   4.597   4.049   9.687  1.1423 -1.2032 -0.6816
 9368SOL     OW39739   1.765   3.580   8.792  0.5005  0.2545  0.0353
 9368SOL    HW139740   1.811   3.614   8.869 -1.0537  1.6242  0.3634
 9368SOL    HW239741   1.718   3.505   8.829  1.4789 -1.9826 -3.2368
 9369SOL     OW39742   0.007   3.186   0.362 -0.1748  0.6003 -0.1775
 9369SOL    HW139743   0.094   3.217   0.386 -0.2343 -0.1599  1.0442
 9369SOL    HW239744   0.025   3.133   0.285  0.9794 -1.5518  1.5632
 9370SOL     OW39745   0.372   1.032   0.979 -0.4023  0.4667  0.0537
 9370SOL    HW139746   0.417   1.050   0.896 -0.5309 -0.1985 -0.1654
 9370SOL    HW239747   0.282   1.053   0.953 -0.2532 -0.2528 -1.0640
 9371SOL     OW39748   1.581   3.257   3.849  0.4604 -0.1338 -0.2977
 9371SOL    HW139749   1.655   3.302   3.888  0.3965 -0.4741  0.2255
 9371SOL    HW239750   1.503   3.302   3.882 -0.9565 -1.1132 -2.2744
 9372SOL     OW39751   4.388   3.343  12.471 -0.0023  0.4360  0.4848
 9372SOL    HW139752   4.321   3.306  12.528  1.3621  0.6748  2.2206
 9372SOL    HW239753   4.336   3.375  12.397 -1.9908 -4.4105 -0.1669
 9373SOL     OW39754   3.173   0.293   4.731  0.4364  0.0228  0.2639
 9373SOL    HW139755   3.234   0.294   4.658 -2.3712 -1.6722 -2.0858
 9373SOL    HW239756   3.106   0.242   4.686 -0.9511  1.2993  0.8900
 9374SOL     OW39757   2.447   2.587  12.868 -0.1219  0.2179  0.4738
 9374SOL    HW139758   2.510   2.640  12.819  0.2903 -1.8763 -1.3175
 9374SOL    HW239759   2.419   2.653  12.931  2.7574 -0.4042  2.3746
 9375SOL     OW39760   4.577   4.134   4.330  0.5567 -0.5422  0.2052
 9375SOL    HW139761   4.527   4.147   4.250 -0.2334 -0.1065  0.7599
 9375SOL    HW239762   4.660   4.180   4.316 -1.2092  2.4214 -0.5435
 9376SOL     OW39763   3.882   3.560   9.064 -0.2639 -0.4798 -0.0194
 9376SOL    HW139764   3.888   3.585   9.156  0.6685  1.3428 -0.5629
 9376SOL    HW239765   3.844   3.474   9.078  0.8167 -0.9013  0.3327
 9377SOL     OW39766   3.605   3.435  16.698  0.4146 -0.1556  0.0228
 9377SOL    HW139767   3.603   3.409  16.606  2.0877 -0.4360  0.0498
 9377SOL    HW239768   3.701   3.431  16.707  0.3395  1.5433  1.3856
 9378SOL     OW39769   3.006   1.826  12.879 -0.1814 -0.1893 -0.5508
 9378SOL    HW139770   2.960   1.805  12.797 -0.7938 -0.3562 -0.1622
 9378SOL    HW239771   3.089   1.864  12.851  0.0156 -0.7094 -0.6771
 9379SOL     OW39772   4.515   1.308   6.142 -0.0565  0.2370 -0.6188
 9379SOL    HW139773   4.503   1.329   6.050  1.6694  0.3303 -0.8328
 9379SOL    HW239774   4.597   1.259   6.141 -1.1758 -1.6165 -1.3303
 9380SOL     OW39775   1.374   4.487   6.171 -0.1511 -0.1557 -0.1992
 9380SOL    HW139776   1.357   4.394   6.182 -0.4624 -0.0959 -0.1665
 9380SOL    HW239777   1.287   4.529   6.178  0.3746  0.6605  1.3612
 9381SOL     OW39778   3.022   3.353   5.321 -0.2042  0.6931 -0.7055
 9381SOL    HW139779   2.942   3.318   5.281 -0.1806 -0.5742  0.3779
 9381SOL    HW239780   3.065   3.386   5.242  1.2267  4.1133  1.5106
 9382SOL     OW39781   3.292   3.543   8.105 -0.6668 -0.1464  0.2879
 9382SOL    HW139782   3.370   3.489   8.115 -1.5339 -1.5875 -0.7765
 9382SOL    HW239783   3.327   3.631   8.120  1.7910 -1.2137  0.8829
 9383SOL     OW39784   3.908   1.049  10.864  0.3872  0.0426  0.2895
 9383SOL    HW139785   3.818   1.072  10.840  0.0761  1.9366  3.2447
 9383SOL    HW239786   3.929   0.973  10.810 -0.3142  0.2677 -0.2937
 9384SOL     OW39787   4.636   3.049  14.461 -0.2454 -0.1310  0.6942
 9384SOL    HW139788   4.586   3.099  14.526 -1.1025 -0.1739  0.0625
 9384SOL    HW239789   4.719   3.068  14.505 -0.4638 -1.1497  1.5317
 9385SOL     OW39790   1.550   1.094   4.189 -0.2635 -0.0270  0.4166
 9385SOL    HW139791   1.531   1.015   4.138  3.5571 -0.4467 -0.3117
 9385SOL    HW239792   1.623   1.135   4.144 -1.2876  2.4400  0.9746
 9386SOL     OW39793   2.752   4.502   0.076  0.2783  0.6037  0.1485
 9386SOL    HW139794   2.834   4.547   0.095  0.4154  0.0369  0.8640
 9386SOL    HW239795   2.729   4.449   0.152 -0.4009  0.1118 -0.3990
 9387SOL     OW39796   4.659   4.094   1.526 -0.2419 -0.2642  0.1796
 9387SOL    HW139797   4.722   4.090   1.598 -0.2788 -1.0348  0.1705
 9387SOL    HW239798   4.676   4.183   1.497  0.1178 -0.3632  0.0907
 9388SOL     OW39799   1.787   3.601  16.920 -0.1302  0.5160 -0.2063
 9388SOL    HW139800   1.830   3.662  16.861 -1.5554  2.3389  0.6313
 9388SOL    HW239801   1.714   3.578  16.862  1.2449  1.2999 -2.2145
 9389SOL     OW39802   1.482   0.984   9.047  0.2786  0.3892  0.3209
 9389SOL    HW139803   1.575   0.960   9.039  0.1733  0.4538 -1.0822
 9389SOL    HW239804   1.460   1.035   8.969  0.0981 -1.0785 -0.6010
 9390SOL     OW39805   3.493   0.355   8.011 -0.4366  0.6740  0.1153
 9390SOL    HW139806   3.529   0.405   7.938  0.3343 -0.2440 -0.1297
 9390SOL    HW239807   3.466   0.278   7.962  0.4718 -0.2216  1.0006
 9391SOL     OW39808   2.985   4.234   8.321  0.1401  0.1493 -0.1293
 9391SOL    HW139809   2.892   4.254   8.308 -0.7378 -3.6903  0.2241
 9391SOL    HW239810   2.986   4.229   8.416  0.9439 -1.4856 -0.2370
 9392SOL     OW39811   0.838   0.108   3.044  0.4738 -0.5491 -0.2347
 9392SOL    HW139812   0.864   0.015   3.044  1.5692 -0.2527 -1.3606
 9392SOL    HW239813   0.811   0.111   2.952 -1.9318  0.5291  0.5272
 9393SOL     OW39814   3.229   3.365   9.615 -0.1992 -0.0882  0.1598
 9393SOL    HW139815   3.161   3.301   9.639 -1.3789  1.0051 -0.2682
 9393SOL    HW239816   3.257   3.394   9.702  0.5118  3.5215 -1.2661
 9394SOL     OW39817   1.339   1.446   8.245 -0.0920  0.5745  0.4686
 9394SOL    HW139818   1.433   1.463   8.248  0.0974 -0.5112  0.8000
 9394SOL    HW239819   1.340   1.352   8.265  0.3386  0.8949  1.9950
 9395SOL     OW39820   2.107   2.732   6.225 -0.7559 -0.1168  0.2962
 9395SOL    HW139821   2.120   2.644   6.190 -0.5150 -0.6549  1.7392
 9395SOL    HW239822   2.012   2.732   6.210 -0.8431  0.2392  0.8386
 9396SOL     OW39823   0.162   0.251   4.918  0.3624 -0.1079 -0.4212
 9396SOL    HW139824   0.196   0.327   4.871 -0.1142  1.6248  2.0338
 9396SOL    HW239825   0.237   0.192   4.911  3.4436  3.4732  2.5364
 9397SOL     OW39826   0.900   2.069   6.050 -0.2224 -0.3971 -0.2079
 9397SOL    HW139827   0.819   2.042   6.093 -1.7187 -1.2574 -3.6076
 9397SOL    HW239828   0.872   2.068   5.959  0.4418 -0.5556 -0.4118
 9398SOL     OW39829   4.378   4.094   9.894  0.3464 -0.5795 -0.6622
 9398SOL    HW139830   4.443   4.042   9.847  1.0096 -0.3484 -0.0052
 9398SOL    HW239831   4.316   4.026   9.919 -0.6112  0.1091 -1.1657
 9399SOL     OW39832   2.507   0.110  16.909 -0.1658  0.1126  0.5417
 9399SOL    HW139833   2.539   0.151  16.829  1.0310 -2.5935 -0.3738
 9399SOL    HW239834   2.494   0.022  16.872  1.2982  0.1276  0.0091
 9400SOL     OW39835   1.277   2.398   3.341 -0.2407  0.3296 -0.4980
 9400SOL    HW139836   1.329   2.320   3.363 -0.5119  0.8443  2.0362
 9400SOL    HW239837   1.215   2.393   3.415  2.3338  2.1096  1.7651
 9401SOL     OW39838   1.268   1.009   4.018 -0.7957 -0.1350  0.2733
 9401SOL    HW139839   1.314   1.093   4.011 -0.5479 -0.2665  0.3238
 9401SOL    HW239840   1.257   0.980   3.927 -0.2178  1.2257 -0.2328
 9402SOL     OW39841   2.487   4.188   6.361  0.2440 -0.9512 -0.3006
 9402SOL    HW139842   2.530   4.211   6.444 -1.3373 -1.2313  0.5981
 9402SOL    HW239843   2.393   4.196   6.377  0.1143  0.5806 -1.7889
 9403SOL     OW39844   0.327   1.038   3.750  0.0643  0.6480 -0.4954
 9403SOL    HW139845   0.393   1.104   3.729 -0.1093  0.9024 -0.2407
 9403SOL    HW239846   0.352   0.961   3.698 -0.9006  0.1839 -0.2793
 9404SOL     OW39847   4.738   1.823   4.675 -0.1606 -0.8039 -0.4729
 9404SOL    HW139848   0.063   1.772   4.721  1.1615  0.0996 -1.4081
 9404SOL    HW239849   0.044   1.900   4.645 -1.5809  0.4173  0.3962
 9405SOL     OW39850   4.636   3.731   0.449 -0.0303  0.5503  0.3093
 9405SOL    HW139851   4.697   3.659   0.469  0.8122  0.5000 -2.5605
 9405SOL    HW239852   4.599   3.745   0.536 -0.5201 -2.9661  0.6683
 9406SOL     OW39853   3.175   2.401   3.874 -0.3055 -0.4578  0.4619
 9406SOL    HW139854   3.220   2.427   3.794  0.5060 -1.6632  0.5235
 9406SOL    HW239855   3.107   2.468   3.882 -0.2228 -0.2744 -0.4528
 9407SOL     OW39856   4.153   2.755   7.225  0.0018  0.4169  0.1433
 9407SOL    HW139857   4.221   2.785   7.286  0.7501 -1.1487  0.0693
 9407SOL    HW239858   4.112   2.695   7.288 -2.4585 -0.0916 -1.9546
 9408SOL     OW39859   3.569   4.731   1.247 -0.7096  0.0524  0.2173
 9408SOL    HW139860   3.628   0.064   1.247 -1.4165  0.6075  0.0266
 9408SOL    HW239861   3.642   4.670   1.238 -1.4551 -0.5917 -1.2666
 9409SOL     OW39862   2.238   2.300   1.293  0.4964  0.3950  0.1022
 9409SOL    HW139863   2.286   2.302   1.211  0.0384 -1.1035 -0.1873
 9409SOL    HW239864   2.309   2.291   1.357 -1.6773 -3.3279  1.9651
 9410SOL     OW39865   0.131   2.780   1.128  0.0692 -0.1336 -0.1554
 9410SOL    HW139866   0.131   2.797   1.034  0.4084 -0.1660 -0.1610
 9410SOL    HW239867   0.205   2.839   1.144 -0.1582  0.2113 -0.3931
 9411SOL     OW39868   4.585   1.544   2.846  0.3231 -0.2266  0.1901
 9411SOL    HW139869   4.501   1.511   2.876  0.2107 -2.3814 -2.5591
 9411SOL    HW239870   4.577   1.635   2.875  1.2185  0.0170 -0.3073
 9412SOL     OW39871   2.644   0.762  15.633  0.1978 -0.6213 -0.4780
 9412SOL    HW139872   2.693   0.844  15.634  0.8497 -1.0259  0.4427
 9412SOL    HW239873   2.671   0.724  15.716  1.5910  0.3036 -0.5148
 9413SOL     OW39874   1.619   2.776   9.108  0.0921  0.1551 -0.1488
 9413SOL    HW139875   1.581   2.724   9.178  1.1286  2.0865  1.8394
 9413SOL    HW239876   1.549   2.771   9.043  0.0994 -0.1838 -0.1317
 9414SOL     OW39877   3.105   2.178   8.354 -0.9321 -0.4355  0.3490
 9414SOL    HW139878   3.106   2.087   8.324  0.7736  0.3011 -1.7717
 9414SOL    HW239879   3.079   2.175   8.447  0.8399 -1.0742  0.8182
 9415SOL     OW39880   4.015   1.997  12.206 -0.1230 -0.1134  0.4409
 9415SOL    HW139881   3.982   2.001  12.295  0.8781  3.0073  0.6861
 9415SOL    HW239882   3.959   2.063  12.164 -0.2309  0.6899  1.8494
 9416SOL     OW39883   4.176   3.143   1.616 -0.2717  0.0268 -0.7876
 9416SOL    HW139884   4.147   3.227   1.652 -1.0212 -1.6032  2.4195
 9416SOL    HW239885   4.254   3.169   1.566 -0.2026 -1.1974 -1.3243
 9417SOL     OW39886   0.836   2.417  15.337  0.0019 -0.0099 -0.1728
 9417SOL    HW139887   0.902   2.487  15.332 -1.4529  1.3729 -0.0863
 9417SOL    HW239888   0.893   2.348  15.371 -2.4808 -1.9249  0.1396
 9418SOL     OW39889   1.820   1.833  13.006  0.2492  0.0209  0.3788
 9418SOL    HW139890   1.911   1.834  12.978  0.5283  0.5529  1.3136
 9418SOL    HW239891   1.792   1.757  12.955 -1.0530  1.1371 -0.5572
 9419SOL     OW39892   3.268   2.433   6.759 -0.3165  0.1233 -0.1063
 9419SOL    HW139893   3.350   2.424   6.710  1.8466 -1.4491  3.8432
 9419SOL    HW239894   3.281   2.509   6.816  1.7737  0.2257 -0.7098
 9420SOL     OW39895   2.996   4.157   5.954 -0.2348 -0.3109  0.3182
 9420SOL    HW139896   2.930   4.110   6.004 -1.8215  1.6425  0.0725
 9420SOL    HW239897   3.011   4.108   5.873  3.8088  1.8770 -0.2988
 9421SOL     OW39898   3.181   0.903   5.414 -0.5766  0.1830  0.6178
 9421SOL    HW139899   3.153   0.812   5.405  0.3599  0.1041 -1.4985
 9421SOL    HW239900   3.275   0.893   5.425 -0.6726 -0.7929  0.5519
 9422SOL     OW39901   4.654   1.921   9.356 -0.0457 -0.4378 -0.5547
 9422SOL    HW139902   4.679   1.921   9.264  0.1002 -1.3243 -0.5134
 9422SOL    HW239903   4.571   1.963   9.333  0.6329  1.3329  0.1725
 9423SOL     OW39904   0.627   0.706  11.319 -0.3245  0.2311 -0.2404
 9423SOL    HW139905   0.720   0.707  11.295 -0.4387 -0.4019 -0.7389
 9423SOL    HW239906   0.587   0.752  11.245  0.7590  0.5630 -0.6265
 9424SOL     OW39907   4.401   4.549  13.820  0.0977 -0.0947  0.0971
 9424SOL    HW139908   4.375   4.637  13.792 -2.0585 -0.6738  0.3386
 9424SOL    HW239909   4.483   4.527  13.775  0.2690 -0.9454  0.8169
 9425SOL     OW39910   0.808   2.731  14.941  0.3095  0.4619  0.1931
 9425SOL    HW139911   0.900   2.716  14.963  0.5314  1.2323 -0.1836
 9425SOL    HW239912   0.814   2.727  14.846 -0.1129  2.8726  0.0575
 9426SOL     OW39913   0.729   0.090   0.503 -0.3260  0.0582 -0.5822
 9426SOL    HW139914   0.810   0.075   0.551 -0.0642 -0.7990 -1.2963
 9426SOL    HW239915   0.744   0.045   0.420  0.4121 -0.3638 -0.2115
 9427SOL     OW39916   3.931   0.732   8.005  0.3594 -0.5084 -0.4642
 9427SOL    HW139917   3.844   0.697   8.026  0.7883  0.2467  2.5728
 9427SOL    HW239918   3.900   0.820   7.983 -0.2498 -0.4572  0.6211
 9428SOL     OW39919   3.846   3.989  14.222  0.4793 -0.5336  0.2340
 9428SOL    HW139920   3.777   3.939  14.178 -1.2037  1.0542  1.0320
 9428SOL    HW239921   3.818   3.996  14.314  0.6657  2.0099  0.1053
 9429SOL     OW39922   1.182   2.110   9.954  0.4900  0.5833 -0.3160
 9429SOL    HW139923   1.197   2.188  10.008 -0.6893 -0.7299  1.8969
 9429SOL    HW239924   1.255   2.105   9.893  1.3206  0.1561  0.7072
 9430SOL     OW39925   1.467   1.174   8.362 -0.0269  0.0488  0.5553
 9430SOL    HW139926   1.511   1.173   8.447  0.7384  0.2684  0.1627
 9430SOL    HW239927   1.391   1.118   8.374 -0.5771  0.1513 -2.4697
 9431SOL     OW39928   1.392   0.938   2.244  0.4052  0.1514 -0.7649
 9431SOL    HW139929   1.475   0.892   2.257  1.5210  2.1189 -1.0126
 9431SOL    HW239930   1.421   1.019   2.202  1.6667  1.7460  3.2486
 9432SOL     OW39931   2.102   0.223   0.293  0.2147  0.2005  0.0543
 9432SOL    HW139932   2.089   0.281   0.368 -1.0377  3.9160 -3.0533
 9432SOL    HW239933   2.017   0.211   0.251  0.2320  1.0454 -0.2299
 9433SOL     OW39934   1.769   3.364   7.190 -0.9279  0.1993 -0.2711
 9433SOL    HW139935   1.741   3.451   7.163 -0.5410 -0.1018 -1.6268
 9433SOL    HW239936   1.731   3.316   7.117  0.3052  0.8215 -1.3159
 9434SOL     OW39937   2.240   4.294   7.022 -0.0902  0.4905 -0.3656
 9434SOL    HW139938   2.232   4.374   7.074  2.0966  0.5363 -0.1204
 9434SOL    HW239939   2.311   4.311   6.961 -1.3529  0.2714 -1.8731
 9435SOL     OW39940   2.497   1.483   5.647 -0.4674 -0.1292  0.1919
 9435SOL    HW139941   2.420   1.523   5.688 -1.3543 -0.9530 -0.7019
 9435SOL    HW239942   2.570   1.520   5.698 -0.9791  1.7004 -0.3853
 9436SOL     OW39943   4.332   1.798   9.362 -0.1014 -0.1932  0.9597
 9436SOL    HW139944   4.266   1.851   9.406  1.3610  3.0803 -0.7635
 9436SOL    HW239945   4.371   1.861   9.301 -0.5395  1.1343  2.0647
 9437SOL     OW39946   0.994   1.972   6.466 -0.3406  0.1327  0.6850
 9437SOL    HW139947   1.035   1.949   6.550  1.1931 -0.1687 -0.1506
 9437SOL    HW239948   1.080   1.983   6.427 -0.7433 -1.3585 -0.6434
 9438SOL     OW39949   4.656   2.215  12.727  0.6060  0.5636  0.0201
 9438SOL    HW139950   0.002   2.238  12.701  0.5149  1.1044  0.1854
 9438SOL    HW239951   4.614   2.254  12.651 -0.6956 -0.1460  0.3599
 9439SOL     OW39952   3.562   2.533   4.261  0.4631  0.2696 -0.2399
 9439SOL    HW139953   3.492   2.517   4.197 -0.0302 -1.7123  0.7968
 9439SOL    HW239954   3.503   2.536   4.337 -0.8287 -0.4251 -1.2086
 9440SOL     OW39955   3.180   2.159  14.323 -0.1599  0.3437  0.1804
 9440SOL    HW139956   3.123   2.233  14.307 -2.1358 -0.9511  1.2230
 9440SOL    HW239957   3.144   2.125  14.405  2.6602 -1.2992  0.7454
 9441SOL     OW39958   2.925   2.068   5.570  0.0502 -0.6082 -0.0841
 9441SOL    HW139959   2.893   2.002   5.509 -1.9866  0.1083  0.1978
 9441SOL    HW239960   2.944   2.008   5.643 -0.2576 -2.3017 -1.4009
 9442SOL     OW39961   4.081   1.284   2.473 -0.2132  0.1423  0.0913
 9442SOL    HW139962   3.985   1.284   2.475 -0.2033  1.2115  0.6406
 9442SOL    HW239963   4.105   1.377   2.467  1.5562 -0.3183  0.0227
 9443SOL     OW39964   1.555   4.074   9.621  0.3130 -0.4538 -0.5980
 9443SOL    HW139965   1.550   3.979   9.623 -3.1549 -0.2818 -1.5172
 9443SOL    HW239966   1.468   4.104   9.595 -0.3711  0.8106  3.0753
 9444SOL     OW39967   4.696   4.482   5.258  0.8087 -0.1603  0.1752
 9444SOL    HW139968   4.693   4.516   5.169 -0.7550  0.2506  0.3861
 9444SOL    HW239969   4.723   4.393   5.237  0.3602 -0.0413 -0.9148
 9445SOL     OW39970   0.462   1.279   3.798 -0.6138 -0.3274 -0.0843
 9445SOL    HW139971   0.429   1.329   3.873  1.8004 -0.7421  1.2674
 9445SOL    HW239972   0.555   1.304   3.800  0.0362 -2.7708 -0.2106
 9446SOL     OW39973   4.630   3.526   4.031  0.9539  0.2762  0.5596
 9446SOL    HW139974   4.693   3.454   4.026 -0.0068 -0.4140 -1.4401
 9446SOL    HW239975   4.574   3.497   4.103 -0.8201  1.1078 -0.4836
 9447SOL     OW39976   3.852   4.434   3.555  0.1984 -0.2282 -0.3334
 9447SOL    HW139977   3.888   4.519   3.578  2.2567 -0.8909 -1.1478
 9447SOL    HW239978   3.910   4.415   3.482  0.1891 -0.3863 -0.3000
 9448SOL     OW39979   0.474   3.183   6.320  0.0469  0.1968  0.3954
 9448SOL    HW139980   0.482   3.212   6.230  0.3635 -0.0135  0.3593
 9448SOL    HW239981   0.534   3.251   6.351 -0.9228  1.3905 -0.3388
 9449SOL     OW39982   1.289   0.916   1.044 -0.1071 -0.0804 -0.0587
 9449SOL    HW139983   1.257   0.996   1.086 -1.7921 -0.5811 -0.3904
 9449SOL    HW239984   1.369   0.902   1.095 -0.3315  0.1960  0.3719
 9450SOL     OW39985   3.201   3.067  15.505  0.4667  0.3723  0.3727
 9450SOL    HW139986   3.264   3.136  15.526 -0.4739  1.9922 -2.0999
 9450SOL    HW239987   3.248   3.051  15.423  1.4856 -3.7206  1.7824
 9451SOL     OW39988   2.994   3.181  11.762  0.5861 -0.6060  0.2493
 9451SOL    HW139989   3.073   3.134  11.736  1.0500  1.0051 -1.2190
 9451SOL    HW239990   2.981   3.181  11.857  0.2213 -1.9950  0.2122
 9452SOL     OW39991   4.391   0.740  10.239 -0.4192 -0.5264  0.6400
 9452SOL    HW139992   4.390   0.682  10.315  0.7311 -0.9624  0.3191
 9452SOL    HW239993   4.357   0.814  10.291 -1.6209  0.3377 -1.3669
 9453SOL     OW39994   3.090   4.243   9.221 -0.1803  0.0537 -0.3437
 9453SOL    HW139995   3.160   4.231   9.157 -1.5023 -0.8193 -1.6213
 9453SOL    HW239996   3.030   4.300   9.174 -0.3040  0.1996 -0.0055
 9454SOL     OW39997   0.585   2.061  13.986  0.2157  0.2408  0.0676
 9454SOL    HW139998   0.581   1.977  14.031  1.4562  1.1381  1.8888
 9454SOL    HW239999   0.656   2.107  14.031 -0.5807  1.4712  0.0699
 9455SOL     OW40000   2.792   2.443   3.692  0.5246 -0.1991 -0.3338
 9455SOL    HW140001   2.844   2.363   3.698 -0.0999 -0.4888  1.0811
 9455SOL    HW240002   2.717   2.389   3.664  0.1907  1.5877 -2.8939
 9456SOL     OW40003   1.710   2.758   6.496  0.1125 -0.0003  0.2713
 9456SOL    HW140004   1.624   2.784   6.465 -0.1319  0.9812  1.7912
 9456SOL    HW240005   1.700   2.664   6.480 -0.3659  0.6000 -3.0480
 9457SOL     OW40006   0.487   2.525   6.916 -0.1122  0.3158  0.3889
 9457SOL    HW140007   0.395   2.520   6.892 -0.2512  1.3861  0.6807
 9457SOL    HW240008   0.487   2.612   6.957  0.8417  0.3167  0.3981
 9458SOL     OW40009   0.081   1.940  13.390  0.5695  0.1621  0.7517
 9458SOL    HW140010   0.034   2.010  13.436  0.9563  0.3190  0.9049
 9458SOL    HW240011   0.158   1.989  13.363 -0.1177  0.6534 -0.3388
 9459SOL     OW40012   1.131   0.204  14.152 -0.1914  0.6915  0.3255
 9459SOL    HW140013   1.091   0.278  14.197 -0.4890 -0.4185  1.8885
 9459SOL    HW240014   1.215   0.245  14.130 -0.0377  0.6557  0.8409
 9460SOL     OW40015   4.626   4.710   2.096 -0.0715 -0.1669 -0.2440
 9460SOL    HW140016   4.543   0.011   2.116  0.9938  1.5330  0.5385
 9460SOL    HW240017   4.633   4.738   2.005 -1.0301 -1.0343 -0.5896
 9461SOL     OW40018   1.396   3.064  16.455 -0.1545  0.0538 -0.5467
 9461SOL    HW140019   1.328   3.006  16.421  0.4675 -0.3426 -1.1304
 9461SOL    HW240020   1.367   3.146  16.415  0.1215 -0.3278 -1.5252
 9462SOL     OW40021   1.596   3.644  17.384  0.3798  0.4997  0.0609
 9462SOL    HW140022   1.569   3.654  17.293  1.9662  0.6411 -0.3970
 9462SOL    HW240023   1.636   3.558  17.375 -1.5721 -0.2835 -1.0744
 9463SOL     OW40024   4.309   1.098   2.475  0.3749 -0.2659  0.3760
 9463SOL    HW140025   4.282   1.047   2.399 -2.2352  1.2133  0.3138
 9463SOL    HW240026   4.225   1.136   2.501  1.3024  0.4704  2.2578
 9464SOL     OW40027   1.693   0.059  15.962  0.4407 -0.1429  0.0281
 9464SOL    HW140028   1.744   0.120  16.015  1.5393  1.0462 -2.4303
 9464SOL    HW240029   1.605   0.094  15.973 -0.2626 -2.0296  0.4643
 9465SOL     OW40030   3.791   2.438   8.913 -0.3254 -0.0707 -0.0946
 9465SOL    HW140031   3.812   2.518   8.962 -1.9000 -0.3409  1.0279
 9465SOL    HW240032   3.801   2.466   8.822  0.1732 -0.9394 -0.2990
 9466SOL     OW40033   2.960   2.331   5.066 -0.3956  0.1530 -0.0219
 9466SOL    HW140034   2.914   2.324   5.149 -2.3082  0.3255 -1.0808
 9466SOL    HW240035   2.884   2.309   5.013 -1.2253 -0.2430  1.3470
 9467SOL     OW40036   2.056   3.502  11.189  0.1774 -0.0104 -0.2263
 9467SOL    HW140037   1.969   3.495  11.227  1.4546 -0.9860  2.5254
 9467SOL    HW240038   2.093   3.566  11.250  1.9427 -1.4791  0.2525
 9468SOL     OW40039   1.227   0.468  12.107  0.1165 -0.3055  0.0383
 9468SOL    HW140040   1.200   0.559  12.115 -1.0623 -0.4193 -2.6255
 9468SOL    HW240041   1.274   0.458  12.190 -0.0680 -1.2852  0.0287
 9469SOL     OW40042   2.873   3.214   3.610 -0.1085  0.1611  0.0019
 9469SOL    HW140043   2.875   3.302   3.647 -0.8144 -0.1588  0.8036
 9469SOL    HW240044   2.859   3.164   3.691  0.3194 -2.0626 -1.2809
 9470SOL     OW40045   3.887   0.643   1.689  0.1752  0.3412  0.6572
 9470SOL    HW140046   3.813   0.620   1.745  0.3745 -1.4527  0.1855
 9470SOL    HW240047   3.907   0.571   1.629  2.3698  2.0020 -0.6027
 9471SOL     OW40048   2.102   2.517   3.755 -0.2085  0.0938 -0.4203
 9471SOL    HW140049   2.100   2.594   3.698  1.0062 -0.1699 -0.8146
 9471SOL    HW240050   2.014   2.509   3.791 -0.4572 -1.2341 -1.3365
 9472SOL     OW40051   1.321   4.206   1.018 -0.4179  0.6208  0.3375
 9472SOL    HW140052   1.253   4.142   0.996  0.0769 -0.0693  0.7995
 9472SOL    HW240053   1.381   4.194   0.944 -1.2568  0.8412 -0.3798
 9473SOL     OW40054   0.428   2.252   6.496  0.1371 -0.4310 -0.0182
 9473SOL    HW140055   0.404   2.343   6.482 -1.0031 -0.8189 -0.6762
 9473SOL    HW240056   0.339   2.217   6.497  0.1749 -0.5150  0.2921
 9474SOL     OW40057   0.460   2.627   8.585 -0.4124  0.4603 -1.1326
 9474SOL    HW140058   0.515   2.705   8.577  0.0550  0.3257  0.7102
 9474SOL    HW240059   0.504   2.567   8.525 -0.9056 -1.1448  0.1255
 9475SOL     OW40060   0.894   0.731   9.102 -0.1244 -0.0922 -0.0005
 9475SOL    HW140061   0.963   0.735   9.168  0.5533  2.1024 -0.8427
 9475SOL    HW240062   0.855   0.818   9.114 -0.3815 -0.4480  1.6787
 9476SOL     OW40063   4.649   3.650   7.263  0.2739 -0.7856 -0.5474
 9476SOL    HW140064   4.570   3.683   7.305 -0.1506  0.4229 -2.2729
 9476SOL    HW240065   4.667   3.723   7.203 -0.0212  1.2421  1.8220
 9477SOL     OW40066   0.181   0.348   7.179 -0.5545  0.2449  0.0139
 9477SOL    HW140067   0.152   0.438   7.164 -0.6225  0.0752 -0.8531
 9477SOL    HW240068   0.275   0.356   7.160 -0.9952  0.7421 -1.8890
 9478SOL     OW40069   2.460   0.225  16.622  0.6479 -0.2582 -0.9185
 9478SOL    HW140070   2.390   0.290  16.619  0.3267 -0.4541  2.0549
 9478SOL    HW240071   2.535   0.269  16.582  0.4482 -0.1129 -1.1313
 9479SOL     OW40072   3.076   3.088   1.825  0.2037  0.0990  0.3089
 9479SOL    HW140073   2.998   3.032   1.820  0.9474 -1.1155  2.2449
 9479SOL    HW240074   3.090   3.105   1.732 -0.1195  0.1006  0.2592
 9480SOL     OW40075   3.091   0.290   0.145  0.0201 -0.6300  0.0284
 9480SOL    HW140076   3.065   0.368   0.097  1.6916 -1.2446 -1.8259
 9480SOL    HW240077   3.175   0.260   0.113 -0.7424  0.1891 -2.6907
 9481SOL     OW40078   3.574   0.398   4.691 -0.1339  0.1925 -0.5562
 9481SOL    HW140079   3.507   0.331   4.678  0.5586 -0.5644 -0.1877
 9481SOL    HW240080   3.524   0.472   4.655 -0.4308  0.3031  0.0957
 9482SOL     OW40081   0.179   0.104  11.779  0.5358  0.1199 -0.2240
 9482SOL    HW140082   0.116   0.036  11.806 -1.7701  2.3914  0.1249
 9482SOL    HW240083   0.118   0.173  11.752  2.0148  1.8520  0.8343
 9483SOL     OW40084   2.384   1.437   5.208  0.0641 -0.0214  0.1448
 9483SOL    HW140085   2.460   1.398   5.164  0.4696  1.1964 -0.2456
 9483SOL    HW240086   2.383   1.383   5.287  2.6308 -0.1751  0.0623
 9484SOL     OW40087   1.304   0.449   3.453  0.3069  0.3970  0.1255
 9484SOL    HW140088   1.288   0.356   3.468  2.8740  0.0159  0.4981
 9484SOL    HW240089   1.290   0.438   3.359  1.4465 -1.0333  0.1324
 9485SOL     OW40090   1.424   3.795  13.051 -0.1210 -0.2101 -0.0997
 9485SOL    HW140091   1.519   3.784  13.050 -0.0976  0.0671 -1.2972
 9485SOL    HW240092   1.408   3.863  13.116  0.5604 -0.1960  0.0484
 9486SOL     OW40093   2.541   0.979  12.382  0.2275 -0.1834 -0.6022
 9486SOL    HW140094   2.483   0.911  12.347 -0.7259  0.2983  0.0425
 9486SOL    HW240095   2.624   0.939  12.357  0.2019 -0.8605  0.3798
 9487SOL     OW40096   0.647   3.670   2.468  0.1420  0.0427 -0.3927
 9487SOL    HW140097   0.621   3.753   2.428  0.0671  0.5030  0.6064
 9487SOL    HW240098   0.711   3.697   2.535 -0.7804 -1.7044  1.1923
 9488SOL     OW40099   0.368   3.252   3.654 -0.4783  0.2809  0.3122
 9488SOL    HW140100   0.358   3.312   3.727  2.4130  0.2362  0.7504
 9488SOL    HW240101   0.408   3.172   3.689  2.0662  0.3469 -2.3857
 9489SOL     OW40102   4.115   2.910   2.732  0.5395 -0.0071  0.4202
 9489SOL    HW140103   4.110   2.990   2.784  3.0241  1.7318 -2.0734
 9489SOL    HW240104   4.169   2.941   2.659  0.9716  0.4555  0.9418
 9490SOL     OW40105   0.511   3.101  15.441 -0.2800  0.0654  0.1069
 9490SOL    HW140106   0.474   3.189  15.452  2.4625  1.3217 -0.5931
 9490SOL    HW240107   0.446   3.046  15.398  0.0918 -0.4691  0.2251
 9491SOL     OW40108   1.645   1.845   9.478 -0.3444 -0.3419  0.4114
 9491SOL    HW140109   1.713   1.843   9.546 -0.3920 -0.1396  0.4672
 9491SOL    HW240110   1.571   1.810   9.528 -2.3836  2.4286 -0.6528
 9492SOL     OW40111   4.347   4.020   3.969 -0.0304 -0.1644  0.2613
 9492SOL    HW140112   4.426   3.970   3.988 -0.5206 -1.1954 -0.3928
 9492SOL    HW240113   4.353   4.012   3.873 -1.9864  0.5642  0.0876
 9493SOL     OW40114   3.132   1.536   2.146 -0.0984 -0.5782 -1.0684
 9493SOL    HW140115   3.221   1.559   2.118 -0.5702  1.2292 -1.1216
 9493SOL    HW240116   3.144   1.444   2.169 -1.8236 -0.7314 -0.7956
 9494SOL     OW40117   3.962   3.047   1.905 -0.1049 -0.3973 -0.1451
 9494SOL    HW140118   3.966   2.954   1.929  1.0096 -0.2144  0.3734
 9494SOL    HW240119   3.966   3.102   1.983  0.7722 -2.4648  1.2804
 9495SOL     OW40120   4.600   2.311   6.496 -0.1446  1.0279 -0.0394
 9495SOL    HW140121   4.636   2.390   6.537 -1.7852  0.6511  2.1205
 9495SOL    HW240122   4.574   2.262   6.574 -0.2182  0.7334 -0.2496
 9496SOL     OW40123   4.437   2.923   1.429 -0.6900  0.1320  0.0151
 9496SOL    HW140124   4.481   2.927   1.514  1.2599  1.0843 -1.0529
 9496SOL    HW240125   4.500   2.875   1.375 -0.1829 -0.9712  1.5752
 9497SOL     OW40126   1.928   3.546   4.381 -0.3720 -0.1099 -0.2907
 9497SOL    HW140127   2.004   3.539   4.323  1.0474 -0.2213  1.5745
 9497SOL    HW240128   1.933   3.458   4.418 -0.6505 -1.1860 -2.8601
 9498SOL     OW40129   1.562   4.688   8.914 -0.5717  0.2727 -0.2292
 9498SOL    HW140130   1.627   4.662   8.978  2.6786  1.7620 -2.8970
 9498SOL    HW240131   1.526   0.017   8.967  0.2529 -0.3542  1.1647
 9499SOL     OW40132   1.146   0.216   8.918  0.2015 -0.1069  0.2586
 9499SOL    HW140133   1.190   0.286   8.966  1.4535 -0.4951 -0.3172
 9499SOL    HW240134   1.117   0.163   8.992 -0.4031 -0.6197 -0.3388
 9500SOL     OW40135   3.848   2.638  17.515 -0.1571  0.4250 -0.1928
 9500SOL    HW140136   3.831   2.546  17.534 -0.8766  0.2806 -1.5555
 9500SOL    HW240137   3.911   2.637  17.443  0.6376 -2.2275  0.5565
 9501SOL     OW40138   4.172   1.751   7.994  0.7359  0.0499 -0.0851
 9501SOL    HW140139   4.199   1.669   8.034 -1.4517 -0.4087  0.4173
 9501SOL    HW240140   4.220   1.761   7.911 -1.6906  0.4769 -1.4475
 9502SOL     OW40141   1.636   2.052  15.928  0.3560  0.2228  0.1742
 9502SOL    HW140142   1.693   2.109  15.980  0.0124  0.4071  0.3460
 9502SOL    HW240143   1.706   2.015  15.874 -0.9804 -1.9510 -0.0281
 9503SOL     OW40144   1.079   0.725   5.017  0.4398  1.0696  0.6558
 9503SOL    HW140145   1.120   0.684   4.941 -1.8679  0.1885 -0.1187
 9503SOL    HW240146   1.079   0.814   4.982  0.7012  0.6869 -0.3036
 9504SOL     OW40147   2.009   2.176   2.925 -0.2747  0.0062 -0.2650
 9504SOL    HW140148   1.913   2.176   2.918 -0.2141 -0.0456 -1.1057
 9504SOL    HW240149   2.024   2.174   2.830 -0.1423 -0.1803 -0.2385
 9505SOL     OW40150   0.603   1.819   1.937 -0.4262 -0.3326 -0.0048
 9505SOL    HW140151   0.573   1.900   1.978  2.5237  0.8570 -0.2100
 9505SOL    HW240152   0.585   1.749   2.000 -0.3966  0.8204  1.2879
 9506SOL     OW40153   2.993   3.164   0.698  0.1858  0.7756  0.3095
 9506SOL    HW140154   2.942   3.171   0.779 -2.6306 -0.0947 -1.3848
 9506SOL    HW240155   2.967   3.242   0.650 -2.0815  0.0608  0.3693
 9507SOL     OW40156   4.009   2.137   7.849  0.0924 -0.6004  0.4579
 9507SOL    HW140157   4.095   2.096   7.861  1.0341  1.3618  0.2590
 9507SOL    HW240158   3.962   2.152   7.931  2.7451 -1.9109  2.2182
 9508SOL     OW40159   4.708   3.411  16.315 -0.1512 -0.2144  0.3542
 9508SOL    HW140160   0.041   3.364  16.278 -0.7530  1.2443 -2.7581
 9508SOL    HW240161   4.636   3.349  16.310  0.5069 -0.8687 -0.9788
 9509SOL     OW40162   1.729   1.641   3.392 -1.0399 -0.0972 -0.4756
 9509SOL    HW140163   1.686   1.710   3.342 -0.3610 -0.2856 -1.3176
 9509SOL    HW240164   1.744   1.579   3.321  0.1844  0.4997 -0.7452
 9510SOL     OW40165   0.538   0.546   1.508 -0.1916  0.1096 -0.3655
 9510SOL    HW140166   0.622   0.554   1.552  0.0056 -2.6192 -0.2862
 9510SOL    HW240167   0.558   0.608   1.437 -1.0570  0.6797 -0.1160
 9511SOL     OW40168   4.237   2.924   6.401 -0.2044  0.1151  0.2044
 9511SOL    HW140169   4.179   2.879   6.340  0.5712  0.9159 -1.1101
 9511SOL    HW240170   4.197   3.010   6.394 -0.9708 -0.6011 -4.1646
 9512SOL     OW40171   1.917   1.769  15.809  0.4235  0.1740  0.1149
 9512SOL    HW140172   2.005   1.801  15.824  0.1332  0.1200  1.9199
 9512SOL    HW240173   1.870   1.850  15.786 -0.5524 -0.6795 -0.9126
 9513SOL     OW40174   2.137   3.115   8.560 -0.3242 -0.1630  0.2863
 9513SOL    HW140175   2.099   3.036   8.521 -1.6617  1.3941 -1.5892
 9513SOL    HW240176   2.085   3.121   8.640 -1.0351 -0.7537 -0.1331
 9514SOL     OW40177   2.273   2.480   1.977 -0.3442 -0.0426 -0.0734
 9514SOL    HW140178   2.185   2.469   1.941 -0.0357  1.0092 -1.1134
 9514SOL    HW240179   2.306   2.558   1.934  0.4759 -0.2438  0.2021
 9515SOL     OW40180   2.291   0.020  16.574 -0.2387 -0.4266  0.0218
 9515SOL    HW140181   2.318   4.684  16.525  2.3202  1.4146 -1.5512
 9515SOL    HW240182   2.362   0.084  16.575 -0.9905  0.3810  1.8256
 9516SOL     OW40183   0.701   3.105   0.598  0.2245  0.4023  0.4600
 9516SOL    HW140184   0.697   3.172   0.530 -2.7040  0.3560  0.5572
 9516SOL    HW240185   0.794   3.085   0.598  0.3610  1.0489 -0.1977
 9517SOL     OW40186   1.867   3.196   3.746 -0.3810  0.3191  0.1590
 9517SOL    HW140187   1.829   3.112   3.721 -0.9459  0.1458  1.5979
 9517SOL    HW240188   1.886   3.190   3.839 -0.8824 -3.1180  0.0338
 9518SOL     OW40189   2.586   4.428   4.318 -0.2268  0.1085 -0.2234
 9518SOL    HW140190   2.618   4.357   4.375 -2.8744  0.7010  2.0168
 9518SOL    HW240191   2.600   4.395   4.229  0.2237 -1.2411  0.3451
 9519SOL     OW40192   3.805   4.529   1.524  0.3843 -0.2433  0.2313
 9519SOL    HW140193   3.853   4.446   1.521  1.2859  0.2473  1.0109
 9519SOL    HW240194   3.819   4.571   1.439 -1.7478 -2.1933 -1.0962
 9520SOL     OW40195   2.556   1.841  17.566 -0.1471 -0.2278 -0.2471
 9520SOL    HW140196   2.578   1.897  17.640  0.4454 -1.6707  0.6880
 9520SOL    HW240197   2.469   1.821  17.601 -1.2367 -0.4340 -3.0730
 9521SOL     OW40198   2.433   4.251  13.287  0.1539 -0.1554 -0.1259
 9521SOL    HW140199   2.445   4.160  13.316 -1.7681  0.0961  1.4272
 9521SOL    HW240200   2.338   4.256  13.302  0.3044  1.9453  0.0338
 9522SOL     OW40201   3.368   4.480  14.961 -0.2174  0.1999  0.0087
 9522SOL    HW140202   3.412   4.431  14.892  1.1019 -0.9156  1.6594
 9522SOL    HW240203   3.379   4.573  14.938  0.4512 -0.3131 -1.6940
 9523SOL     OW40204   4.024   3.650   3.376 -0.5798 -0.0642 -0.0020
 9523SOL    HW140205   4.049   3.560   3.354  0.4780  0.1556  0.3231
 9523SOL    HW240206   3.997   3.686   3.291  0.3364  0.4470 -0.0720
 9524SOL     OW40207   0.243   0.659  15.444  0.0907  0.5814 -0.4093
 9524SOL    HW140208   0.196   0.576  15.459 -0.3686  1.1662  1.3804
 9524SOL    HW240209   0.335   0.634  15.452  0.2673  1.5956  0.7587
 9525SOL     OW40210   3.829   1.732   8.576 -0.7953  0.0228  0.3737
 9525SOL    HW140211   3.892   1.661   8.564 -0.3665  0.7213 -1.6781
 9525SOL    HW240212   3.749   1.686   8.596 -1.2595  0.9326  0.6207
 9526SOL     OW40213   1.657   2.398   3.630  0.1452  0.1945  0.0602
 9526SOL    HW140214   1.649   2.331   3.562 -0.4525  1.3851 -1.0315
 9526SOL    HW240215   1.566   2.428   3.634  0.4911  1.2950 -0.6647
 9527SOL     OW40216   2.617   0.340   5.239  0.1065  0.1296 -0.4142
 9527SOL    HW140217   2.635   0.429   5.210  1.2377  0.4340  1.2349
 9527SOL    HW240218   2.707   0.306   5.244  0.8591  1.9348 -1.7864
 9528SOL     OW40219   1.511   0.822   4.051 -0.0143  0.3389  0.4962
 9528SOL    HW140220   1.428   0.780   4.031  0.2580  0.0791 -0.0876
 9528SOL    HW240221   1.564   0.755   4.008 -1.4687 -2.2272  2.7125
 9529SOL     OW40222   2.168   0.745   5.645 -0.1029  0.2134  0.3932
 9529SOL    HW140223   2.194   0.821   5.592  0.4681 -0.9843 -1.0376
 9529SOL    HW240224   2.229   0.752   5.718 -0.6826  0.6668  0.8395
 9530SOL     OW40225   4.669   2.652   3.069  1.0405  0.3278  0.4080
 9530SOL    HW140226   4.712   2.717   3.012 -1.1739  0.8132 -0.7049
 9530SOL    HW240227   4.629   2.714   3.130 -0.6780  0.0145 -0.4142
 9531SOL     OW40228   4.004   4.500   9.260 -0.0224 -0.0478 -0.4092
 9531SOL    HW140229   3.976   4.441   9.330 -1.2552  0.8702 -0.1225
 9531SOL    HW240230   3.995   4.581   9.312  0.8159  0.5094 -1.1329
 9532SOL     OW40231   1.571   3.581   6.075 -0.2571 -0.1156 -0.0013
 9532SOL    HW140232   1.558   3.672   6.049  0.8361 -0.3989 -1.5644
 9532SOL    HW240233   1.500   3.570   6.138  0.1666 -2.7406  0.0298
 9533SOL     OW40234   0.877   2.542   8.598 -0.4041  0.2582 -0.5657
 9533SOL    HW140235   0.858   2.511   8.687  2.3804 -3.0966 -1.1007
 9533SOL    HW240236   0.965   2.505   8.589 -0.5839 -0.4725  0.6338
 9534SOL     OW40237   4.201   1.602   0.671  0.1893 -0.2314 -0.0146
 9534SOL    HW140238   4.206   1.508   0.691 -1.0648 -0.0800  1.0296
 9534SOL    HW240239   4.283   1.614   0.623  0.4791  1.2390  0.8559
 9535SOL     OW40240   1.110   0.287  16.763 -0.1135  0.1931 -0.5682
 9535SOL    HW140241   1.065   0.205  16.783  2.4179 -1.3286 -1.1971
 9535SOL    HW240242   1.071   0.337  16.836 -0.1365  0.8400 -1.0212
 9536SOL     OW40243   1.201   0.944   2.627 -0.1163  0.2945 -0.1497
 9536SOL    HW140244   1.229   0.853   2.618 -0.6589  0.0762  0.3314
 9536SOL    HW240245   1.289   0.982   2.628  0.1877 -0.3856 -0.8596
 9537SOL     OW40246   2.983   1.714   7.637 -0.2716 -0.6919  0.1687
 9537SOL    HW140247   2.995   1.804   7.607  0.6052 -1.1551 -0.8550
 9537SOL    HW240248   3.034   1.675   7.566 -0.8815 -1.4992  0.1649
 9538SOL     OW40249   0.170   3.890  10.851 -0.1083 -0.0632 -0.2314
 9538SOL    HW140250   0.169   3.798  10.879 -0.1694  0.4710  1.5502
 9538SOL    HW240251   0.086   3.927  10.879 -0.7474 -1.4119 -0.3372
 9539SOL     OW40252   1.271   3.733   8.380 -0.3229 -0.5335  0.4923
 9539SOL    HW140253   1.361   3.762   8.400 -0.3229 -2.4421  3.2104
 9539SOL    HW240254   1.219   3.808   8.409  1.3079 -0.5966  3.6030
 9540SOL     OW40255   1.379   0.517   8.003 -0.6600  0.7526 -0.3020
 9540SOL    HW140256   1.394   0.538   8.095  0.2826 -0.0055 -0.2813
 9540SOL    HW240257   1.468   0.530   7.971 -0.2372 -1.7658 -0.1799
 9541SOL     OW40258   2.723   2.868   5.730  0.6190 -0.7518  0.1516
 9541SOL    HW140259   2.699   2.778   5.709  0.6241 -0.2900 -1.8546
 9541SOL    HW240260   2.642   2.895   5.774  1.5407  0.0152  1.3601
 9542SOL     OW40261   3.594   2.582   5.143 -0.0891 -0.1010 -0.9236
 9542SOL    HW140262   3.589   2.559   5.236 -0.6113 -2.6447 -1.5977
 9542SOL    HW240263   3.510   2.629   5.148 -0.6738 -1.4391  2.0829
 9543SOL     OW40264   3.504   3.265   5.040  0.0130 -0.0767  0.5037
 9543SOL    HW140265   3.591   3.227   5.051 -0.8582 -2.2038 -0.1540
 9543SOL    HW240266   3.524   3.322   4.965 -1.2128  0.6591  0.7429
 9544SOL     OW40267   0.654   0.744   3.736 -0.3033 -0.8265  0.2469
 9544SOL    HW140268   0.599   0.670   3.761 -2.4658  0.3019 -1.2481
 9544SOL    HW240269   0.634   0.741   3.643  0.9801  0.0839 -0.0753
 9545SOL     OW40270   0.498   1.162   9.068  0.3514  0.7720  0.0455
 9545SOL    HW140271   0.495   1.216   8.989  0.9089  0.3846 -0.2342
 9545SOL    HW240272   0.557   1.214   9.124  1.2382  0.0798 -0.2607
 9546SOL     OW40273   4.080   3.149   8.430  0.1704 -0.0252  0.1537
 9546SOL    HW140274   4.128   3.209   8.372  2.5553  0.9132  3.1398
 9546SOL    HW240275   4.048   3.213   8.494 -0.7910  0.6553 -1.0033
 9547SOL     OW40276   2.610   1.952   4.591 -0.3101 -0.7025  0.4594
 9547SOL    HW140277   2.603   1.857   4.599  4.1365 -0.9194  1.5750
 9547SOL    HW240278   2.622   1.965   4.685 -0.6340  2.4164  0.0681
 9548SOL     OW40279   3.921   3.848   5.140 -0.1423 -0.2772 -0.7799
 9548SOL    HW140280   4.003   3.808   5.110  0.5503  2.3352 -2.3673
 9548SOL    HW240281   3.878   3.782   5.195  0.1502 -0.4594 -0.7713
 9549SOL     OW40282   1.538   3.387   7.724 -0.2373 -0.2721  0.5320
 9549SOL    HW140283   1.463   3.446   7.719  1.2712  1.8410  2.8077
 9549SOL    HW240284   1.557   3.365   7.633 -0.8800 -0.6696  0.4927
 9550SOL     OW40285   1.291   0.163   3.496 -0.2384 -0.2680 -0.2307
 9550SOL    HW140286   1.262   0.074   3.514 -0.0538 -0.8027 -2.5577
 9550SOL    HW240287   1.282   0.205   3.581 -0.9420  1.5948 -1.2325
 9551SOL     OW40288   4.560   3.464   7.946 -0.2157  0.9659 -0.6022
 9551SOL    HW140289   4.533   3.388   7.894 -0.6032 -0.4227  1.6202
 9551SOL    HW240290   4.608   3.419   8.017 -0.6509 -0.1431 -1.0117
 9552SOL     OW40291   0.409   0.410   2.242 -0.4730 -0.3839  0.0136
 9552SOL    HW140292   0.490   0.439   2.200 -0.9592  1.0203  0.0522
 9552SOL    HW240293   0.347   0.472   2.203  1.0791  0.5321 -0.9949
 9553SOL     OW40294   2.631   3.865   5.009  0.1527 -0.1176 -0.8715
 9553SOL    HW140295   2.624   3.960   5.022 -3.9565 -0.7612  1.7215
 9553SOL    HW240296   2.719   3.843   5.038  0.7012  2.5076 -0.5551
 9554SOL     OW40297   3.034   3.531   2.906 -0.2790 -0.3088 -0.3932
 9554SOL    HW140298   3.070   3.589   2.973 -0.2402  0.4948 -1.1096
 9554SOL    HW240299   2.946   3.564   2.891  0.4211  0.4222 -2.8929
 9555SOL     OW40300   3.479   4.100   6.112  0.1520  0.5244  0.3239
 9555SOL    HW140301   3.453   4.188   6.085  2.7692  1.6639  1.5676
 9555SOL    HW240302   3.574   4.103   6.107  0.1299  0.7612  0.0190
 9556SOL     OW40303   3.684   2.199   9.399 -0.8281 -0.3829  0.2845
 9556SOL    HW140304   3.651   2.231   9.315 -0.5302 -3.6755 -1.0737
 9556SOL    HW240305   3.602   2.205   9.447 -0.0622  2.4228  1.2787
 9557SOL     OW40306   4.283   0.414   1.587 -0.2612  0.0337  0.2061
 9557SOL    HW140307   4.350   0.377   1.643 -1.6095 -0.3513  1.5557
 9557SOL    HW240308   4.312   0.388   1.499 -0.9011 -0.4307  0.1348
 9558SOL     OW40309   4.426   0.200  11.563  0.0634 -0.8239 -0.6257
 9558SOL    HW140310   4.353   0.260  11.547 -0.2347 -1.1339 -0.4252
 9558SOL    HW240311   4.496   0.263  11.576  0.1313 -1.3541  1.5742
 9559SOL     OW40312   4.560   1.985   4.379  0.3506 -0.0187 -0.2999
 9559SOL    HW140313   4.554   1.908   4.435 -1.1431  0.9133  0.8145
 9559SOL    HW240314   4.526   1.956   4.294 -0.9074 -0.9115  0.5022
 9560SOL     OW40315   2.266   2.698   7.769 -0.3516  0.6361  0.3034
 9560SOL    HW140316   2.330   2.627   7.767 -0.7146  0.3135  0.1663
 9560SOL    HW240317   2.320   2.769   7.737  0.7219  0.2366  1.2029
 9561SOL     OW40318   1.228   4.084  10.708  0.2496  0.1790 -0.2152
 9561SOL    HW140319   1.271   4.169  10.716 -2.7595  1.7180 -0.2740
 9561SOL    HW240320   1.295   4.020  10.730  0.3832 -0.4200 -2.3446
 9562SOL     OW40321   3.407   0.522   6.525 -0.6622 -0.1378 -0.8719
 9562SOL    HW140322   3.333   0.561   6.478 -1.5617  1.0486  1.5124
 9562SOL    HW240323   3.393   0.564   6.610 -0.3542 -1.3055 -0.2465
 9563SOL     OW40324   0.947   3.124   1.767 -0.4780  0.1181 -0.2254
 9563SOL    HW140325   0.859   3.091   1.785 -1.7587  3.4379 -0.4135
 9563SOL    HW240326   0.960   3.126   1.673  0.4978  0.9968 -0.0792
 9564SOL     OW40327   2.137   0.054  16.827 -0.2760 -0.0007 -0.1838
 9564SOL    HW140328   2.112   0.142  16.799  2.6970  1.4402  1.7289
 9564SOL    HW240329   2.191   0.013  16.759 -2.0589  0.0642 -1.6366
 9565SOL     OW40330   2.078   1.877   3.438  0.1865  0.1167 -0.7225
 9565SOL    HW140331   2.131   1.940   3.390  1.9354 -0.3842  0.5491
 9565SOL    HW240332   2.140   1.805   3.449  1.2853  1.3112  0.7277
 9566SOL     OW40333   3.676   3.682   4.982 -0.7383  0.2853 -0.1744
 9566SOL    HW140334   3.668   3.695   4.888  3.3422 -0.0880 -0.5803
 9566SOL    HW240335   3.657   3.771   5.010  1.6127  0.3329  1.3485
 9567SOL     OW40336   0.269   3.174   1.055 -0.2498 -0.1485 -0.4369
 9567SOL    HW140337   0.363   3.179   1.041 -0.3019  0.0552 -0.7218
 9567SOL    HW240338   0.239   3.100   1.002 -1.0223 -0.8783  1.0084
 9568SOL     OW40339   4.707   3.184  11.252  0.0207  0.2759  0.9822
 9568SOL    HW140340   4.642   3.253  11.245 -0.2114 -0.0489  0.0041
 9568SOL    HW240341   0.041   3.225  11.212 -0.8063  1.7595  0.9275
 9569SOL     OW40342   2.749   4.378   3.087 -0.4436 -0.1176 -0.2589
 9569SOL    HW140343   2.710   4.300   3.047 -1.5670  0.5551 -0.4715
 9569SOL    HW240344   2.808   4.329   3.146 -1.0103  1.1454  1.3592
   4.74228   4.74228  17.76615
