Membrane in water
40344
    1TMC1    C1    1   1.990   1.975  11.269  0.3778  0.6079 -0.3053
    1TMC1    C2    2   1.898   2.074  11.246 -0.1055 -0.4871 -0.8755
    1TMC1    C3    3   1.944   2.191  11.201  0.1088 -0.0980  0.3389
    1TMC1    C4    4   2.124   2.000  11.260 -0.1862 -0.7294 -0.2517
    1TMC1    C5    5   2.168   2.132  11.244  0.5608 -0.1433 -0.2440
    1TMC1    C6    6   2.078   2.226  11.211  0.3340 -0.3899 -1.0840
    1TMC1     C    7   1.934   1.843  11.285  1.2786 -0.0360 -0.2595
    1TMC1     O    8   1.829   1.843  11.352  0.4911 -0.3695 -0.0920
    1TMC1     H    9   1.795   2.048  11.226  0.1242 -0.2156 -2.4353
    1TMC1    H1   10   2.199   1.923  11.275  2.2052  1.8174  1.0031
    1TMC1    H2   11   2.101   2.328  11.185  0.3517 -0.5722 -1.7752
    1TMC1    C7   12   2.286   2.167  11.315 -0.1044 -0.2010  0.8099
    1TMC1    C8   13   1.866   2.285  11.104  0.1144  0.0276  0.1434
    1TMC1    O1   14   2.319   2.096  11.408 -0.0957 -0.5634  0.2763
    1TMC1    O2   15   1.909   2.309  10.993 -0.0637 -0.1551 -0.2937
    1TMC1    O3   16   2.287   2.305  11.326  0.3858  0.1710 -0.6480
    1TMC1    H3   17   2.246   2.346  11.247 -1.8718  0.2240  0.5370
    1TMC1    O5   18   1.738   2.258  11.145  0.0294 -0.3780  0.0322
    1TMC1    H5   19   1.725   2.257  11.242 -0.8048  1.6689 -0.0601
    2MPD2     C   20   1.900   1.329  11.239 -0.1944  0.5294  0.9836
    2MPD2    C1   21   1.816   1.415  11.303  1.1179  0.6102  0.2151
    2MPD2    C2   22   1.845   1.548  11.296  0.9710 -0.0895  0.3158
    2MPD2    C3   23   1.965   1.594  11.247 -0.5539  0.2904  0.2176
    2MPD2    C4   24   2.038   1.502  11.178 -0.4052 -0.3563  0.1373
    2MPD2    C5   25   2.007   1.372  11.180 -1.3992 -0.4259  0.7486
    2MPD2     H   26   1.786   1.627  11.342 -2.0578 -2.5955  0.7819
    2MPD2    H1   27   2.130   1.526  11.126 -1.5814  0.0536 -1.7518
    2MPD2    H2   28   1.878   1.224  11.222 -0.8326  0.5241  1.8582
    2MPD2    H3   29   2.078   1.297  11.145 -1.7186 -0.9893  1.3311
    2MPD2     N   30   2.011   1.733  11.245 -0.2432  0.1321 -0.5726
    2MPD2    H5   31   2.083   1.762  11.179 -0.3382  0.9942 -0.2896
    2MPD2    N1   32   1.702   1.378  11.376 -0.2978  0.2415 -0.2223
    2MPD2    H7   33   1.653   1.454  11.423 -2.1441 -0.4774 -0.9969
    3TMC1    C1   34   0.597   1.695  10.819  0.6812 -0.5037 -0.4830
    3TMC1    C2   35   0.521   1.655  10.933 -0.0209 -0.1308  0.6379
    3TMC1    C3   36   0.555   1.697  11.060 -0.3499  0.3522 -0.1243
    3TMC1    C4   37   0.709   1.764  10.836  0.2414 -0.0368 -0.9366
    3TMC1    C5   38   0.740   1.806  10.965 -0.3993 -0.7485  0.3518
    3TMC1    C6   39   0.670   1.765  11.076 -0.7592 -0.5866 -0.5794
    3TMC1     C   40   0.532   1.689  10.691 -0.3879  1.0005 -0.7080
    3TMC1     O   41   0.440   1.608  10.686 -0.4615  0.1530  0.1012
    3TMC1     H   42   0.423   1.613  10.911  0.8097 -0.7761 -1.7991
    3TMC1    H1   43   0.769   1.804  10.754  1.3075  1.3926  0.5279
    3TMC1    H2   44   0.697   1.801  11.174  2.7255  0.9132 -2.1027
    3TMC1    C7   45   0.836   1.916  10.981  0.3100 -0.6461  0.5464
    3TMC1    C8   46   0.491   1.653  11.180  0.2460  0.2049  0.3123
    3TMC1    O1   47   0.868   1.987  10.888  0.3754 -0.7222  0.0929
    3TMC1    O2   48   0.508   1.700  11.289  0.0040 -0.3004 -0.5106
    3TMC1    O3   49   0.913   1.886  11.088 -0.1015 -0.3180 -0.2822
    3TMC1    H3   50   0.895   1.798  11.129  0.6104 -1.0904 -1.6077
    3TMC1    O5   51   0.445   1.528  11.142  0.0987 -0.6352  0.0119
    3TMC1    H5   52   0.450   1.505  11.047  2.4284  1.7003 -0.4550
    4MPD2     C   53   0.241   1.968  10.365  0.4429  0.3640  0.8476
    4MPD2    C1   54   0.366   2.032  10.397 -0.5929 -0.2619  0.4359
    4MPD2    C2   55   0.470   1.970  10.464  0.2816  0.4905 -0.1073
    4MPD2    C3   56   0.450   1.841  10.508  0.7514 -0.4485 -0.3765
    4MPD2    C4   57   0.331   1.773  10.482  0.4255 -0.7694 -0.2397
    4MPD2    C5   58   0.235   1.836  10.405  0.0538 -0.7716  0.4171
    4MPD2     H   59   0.560   2.026  10.491 -0.6418  0.5193  2.8746
    4MPD2    H1   60   0.313   1.671  10.514  1.0333 -0.3475  1.4652
    4MPD2    H2   61   0.153   2.020  10.333 -0.4085  0.6322  3.6034
    4MPD2    H3   62   0.144   1.777  10.397  1.3369 -2.8747  1.5040
    4MPD2     N   63   0.549   1.799  10.607  0.1185  0.2698  0.1045
    4MPD2    H5   64   0.620   1.864  10.641 -0.5628  0.3327  1.4273
    4MPD2    N1   65   0.368   2.175  10.381  0.3626  0.1473 -0.1851
    4MPD2    H7   66   0.455   2.211  10.418  1.4194 -0.9585 -1.5883
    5TCq1    O1   67   2.202   3.807  11.862 -0.1875 -0.5492  0.5221
    5TCq1    C1   68   2.280   3.868  11.763  0.8256 -0.1565  0.2313
    5TCq1    O2   69   2.397   3.897  11.783 -0.4575 -0.1605  0.2848
    5TCq1    C2   70   2.194   3.952  11.693  0.5955 -0.0080  0.5275
    5TCq1    C3   71   2.250   4.065  11.635 -0.0934  0.8024 -0.2480
    5TCq1    C4   72   2.190   4.132  11.534  0.3825  0.4301  0.1380
    5TCq1    C5   73   2.072   4.083  11.472 -0.3218  0.3127  0.3838
    5TCq1    C6   74   2.018   3.972  11.539  0.3834  0.5669  0.3303
    5TCq1    C7   75   2.078   3.901  11.647 -0.3531 -0.5031  0.3594
    5TCq1    C8   76   1.895   3.907  11.485 -0.2214  0.2698  0.7698
    5TCq1    O4   77   1.892   3.785  11.490 -0.6928 -0.0362  0.6397
    5TCq1    C9   78   2.260   4.239  11.476 -0.4308  0.3734  0.0279
    5TCq1    O5   79   2.189   4.305  11.391 -0.1227  0.0147 -0.0137
    5TCq1    O6   80   2.370   4.275  11.529  0.3268  0.1431  0.2379
    5TCq1    H1   81   2.108   3.833  11.861  0.5636  2.1614 -1.8325
    5TCq1    H2   82   2.341   4.100  11.682 -1.0332  2.2200  0.5308
    5TCq1    H3   83   2.019   4.137  11.395 -0.2566  0.7111  0.6171
    5TCq1    H4   84   2.041   3.803  11.675  0.8044 -0.4459  2.0704
    6MPD2     C   85   1.662   4.064  11.250  0.2631 -0.2055 -0.3515
    6MPD2    C1   86   1.723   3.955  11.316 -0.5626  0.3582 -0.7964
    6MPD2    C2   87   1.676   3.827  11.290 -0.3267  0.0272  0.3024
    6MPD2    C3   88   1.570   3.798  11.204 -0.5112 -0.6866 -0.2214
    6MPD2    C4   89   1.510   3.905  11.142  0.2536 -0.0676 -0.1481
    6MPD2    C5   90   1.559   4.033  11.165  0.1947  0.0625  0.4050
    6MPD2     H   91   1.723   3.742  11.338  2.2908  0.9291 -0.7051
    6MPD2    H1   92   1.433   3.898  11.067  0.5254  0.5554 -0.4870
    6MPD2    H2   93   1.684   4.168  11.270  0.2404 -0.5801  1.6517
    6MPD2    H3   94   1.512   4.114  11.109  1.6627  2.2415  2.3271
    6MPD2     N   95   1.531   3.666  11.185 -0.4368 -0.0458 -0.3041
    6MPD2    H5   96   1.588   3.590  11.222  0.0415  0.0851 -0.7577
    6MPD2    N1   97   1.819   3.989  11.414  0.0644  0.6247  0.1536
    6MPD2    H7   98   1.845   4.086  11.423  0.2755  0.8594 -2.8732
    7TCq1    O1   99   2.767   3.690  13.996  0.0057 -0.4683 -0.2870
    7TCq1    C1  100   2.866   3.604  13.982 -0.2919 -0.4196  0.5764
    7TCq1    O2  101   2.875   3.494  14.039  0.0615  0.3193  0.2427
    7TCq1    C2  102   2.931   3.634  13.860 -0.0756  0.1322 -0.0535
    7TCq1    C3  103   2.990   3.756  13.853 -0.7397 -0.5497  0.3929
    7TCq1    C4  104   3.079   3.772  13.748  0.0587  0.1889 -0.9271
    7TCq1    C5  105   3.105   3.667  13.661  0.4421  0.5976  0.2245
    7TCq1    C6  106   3.033   3.552  13.667 -0.4903  1.0184  0.0659
    7TCq1    C7  107   2.947   3.528  13.773  0.3735 -0.6300 -0.0929
    7TCq1    C8  108   3.052   3.449  13.574  0.4839 -0.8527  0.1152
    7TCq1    O4  109   3.051   3.333  13.616 -0.5818  0.7973  0.0269
    7TCq1    C9  110   3.134   3.904  13.733 -0.3280 -0.1091  0.4839
    7TCq1    O5  111   3.185   3.931  13.616  0.4127 -0.0178 -0.4138
    7TCq1    O6  112   3.131   3.981  13.831  0.2000  0.2950 -0.1392
    7TCq1    H1  113   2.760   3.759  13.927  2.4065 -0.9489 -1.0262
    7TCq1    H2  114   2.963   3.836  13.921  2.7104  0.6595  0.3709
    7TCq1    H3  115   3.187   3.676  13.591  0.4704 -0.5446  0.1053
    7TCq1    H4  116   2.895   3.434  13.778 -0.3379 -0.1532  1.3714
    8MPD2     C  117   3.181   3.248  13.142  0.3822 -1.0003  0.5880
    8MPD2    C1  118   3.231   3.227  13.270  0.5066  0.1434 -0.1553
    8MPD2    C2  119   3.190   3.314  13.370  0.0928 -0.1908 -0.1477
    8MPD2    C3  120   3.095   3.410  13.346 -0.1970 -0.4766  0.2266
    8MPD2    C4  121   3.059   3.435  13.220 -0.0970 -0.2059 -0.3422
    8MPD2    C5  122   3.104   3.357  13.117 -0.1093 -0.5259  0.5397
    8MPD2     H  123   3.224   3.299  13.472 -2.4738 -1.6427  0.4901
    8MPD2    H1  124   2.986   3.512  13.196  0.7151  0.1141 -1.7915
    8MPD2    H2  125   3.202   3.188  13.054  1.4587  1.5699 -0.8985
    8MPD2    H3  126   3.063   3.378  13.019 -2.1925  2.3523  2.0248
    8MPD2     N  127   3.052   3.495  13.447 -0.3672 -0.1379 -0.1873
    8MPD2    H5  128   3.024   3.591  13.433  0.6646  0.0639 -0.9106
    8MPD2    N1  129   3.331   3.130  13.284 -0.0505 -0.3928  0.2765
    8MPD2    H7  130   3.355   3.065  13.210  0.1780 -1.9756  1.7390
    9TMC1    C1  131   1.704   2.732  10.893  0.0972 -0.4099  0.0652
    9TMC1    C2  132   1.694   2.854  10.838  0.2990 -0.2335 -0.3186
    9TMC1    C3  133   1.574   2.881  10.778  0.0649  0.7379  1.1446
    9TMC1    C4  134   1.619   2.630  10.869  0.0995 -0.3730  0.0915
    9TMC1    C5  135   1.503   2.662  10.805 -0.2457  0.2623  0.4488
    9TMC1    C6  136   1.477   2.785  10.765 -0.1678 -1.0624 -0.0233
    9TMC1     C  137   1.823   2.707  10.971  0.2022 -0.0921 -0.3205
    9TMC1     O  138   1.922   2.770  10.939  0.4276 -0.0697  0.0468
    9TMC1     H  139   1.763   2.933  10.868  0.3072 -0.0145 -0.9109
    9TMC1    H1  140   1.635   2.527  10.899 -1.0727 -0.0281  1.9377
    9TMC1    H2  141   1.379   2.810  10.728  0.7550 -2.0608 -3.1358
    9TMC1    C7  142   1.390   2.572  10.815 -0.5752 -0.1067  0.0592
    9TMC1    C8  143   1.533   3.015  10.743  0.3703 -0.2861 -0.6253
    9TMC1    O1  144   1.276   2.613  10.827  0.4122  0.1874 -0.1144
    9TMC1    O2  145   1.414   3.033  10.745  0.3966 -0.9647 -0.1750
    9TMC1    O3  146   1.425   2.440  10.814 -0.2579 -0.1210 -0.4221
    9TMC1    H3  147   1.521   2.426  10.799 -0.4275 -2.0857  0.4296
    9TMC1    O5  148   1.619   3.059  10.647  0.0622 -0.1422 -0.0045
    9TMC1    H5  149   1.712   3.042  10.675 -0.1273 -0.5240  0.3871
   10MPD2     C  150   2.034   2.622  11.169  0.3752 -0.8214 -0.1326
   10MPD2    C1  151   1.899   2.599  11.177 -0.3533  0.4177 -0.1792
   10MPD2    C2  152   1.857   2.536  11.294  0.0689  0.8224  0.2299
   10MPD2    C3  153   1.947   2.503  11.397  0.7549  0.4165 -0.0421
   10MPD2    C4  154   2.082   2.535  11.391  0.5001  0.0413 -0.1832
   10MPD2    C5  155   2.119   2.593  11.272  0.6039 -0.2457 -0.7171
   10MPD2     H  156   1.752   2.511  11.302  1.1780 -3.0059  2.8882
   10MPD2    H1  157   2.166   2.521  11.458  1.0824  0.1508 -0.8917
   10MPD2    H2  158   2.063   2.678  11.080 -0.0760 -1.0853 -0.4402
   10MPD2    H3  159   2.225   2.613  11.260  1.0666 -3.1335 -1.3748
   10MPD2     N  160   1.899   2.425  11.503 -0.5402  0.2435 -0.6726
   10MPD2    H5  161   1.965   2.404  11.578  1.8721  1.2908 -2.4743
   10MPD2    N1  162   1.798   2.633  11.083  0.2061  0.2724  0.2417
   10MPD2    H7  163   1.700   2.616  11.102  0.0488  1.2372  0.2827
   11TCq1    O1  164   1.919   2.406  14.702 -0.2771 -0.2825  0.4089
   11TCq1    C1  165   1.802   2.371  14.651  0.1232  0.1769  0.7962
   11TCq1    O2  166   1.705   2.341  14.719  0.0148 -0.0062  0.0457
   11TCq1    C2  167   1.823   2.352  14.509  0.1870 -0.2700  0.5090
   11TCq1    C3  168   1.933   2.272  14.479 -0.0836  0.0688 -0.2821
   11TCq1    C4  169   1.932   2.195  14.363 -1.1049  0.4546  1.1039
   11TCq1    C5  170   1.829   2.211  14.269 -0.7683  0.3688  0.1221
   11TCq1    C6  171   1.735   2.302  14.302  0.6572  0.0837 -0.3351
   11TCq1    C7  172   1.725   2.370  14.423 -0.2246 -0.2338  0.2118
   11TCq1    C8  173   1.641   2.335  14.206 -0.2527  0.0827  0.7714
   11TCq1    O4  174   1.585   2.444  14.213 -0.1040 -0.4722 -0.0133
   11TCq1    C9  175   2.029   2.096  14.346 -0.5131 -0.3015  0.3347
   11TCq1    O5  176   2.026   2.034  14.235 -0.2591  0.2182  0.0650
   11TCq1    O6  177   2.113   2.079  14.437  0.1106 -0.0673 -0.1700
   11TCq1    H1  178   1.978   2.440  14.631 -0.3842  1.2813  1.0670
   11TCq1    H2  179   2.009   2.256  14.555 -1.7247 -2.6163  0.8075
   11TCq1    H3  180   1.824   2.153  14.178 -2.9046 -1.0468  1.1632
   11TCq1    H4  181   1.636   2.426  14.449  0.0202  0.3084 -0.1033
   12MPD2     C  182   1.464   2.337  13.973  0.5466 -0.1795 -0.0798
   12MPD2    C1  183   1.530   2.220  14.014  0.2577  0.2737  0.2654
   12MPD2    C2  184   1.511   2.102  13.943  0.3206 -1.4001 -0.5121
   12MPD2    C3  185   1.427   2.092  13.831 -0.0282 -0.1604  0.9982
   12MPD2    C4  186   1.355   2.206  13.804 -0.2502 -0.7760 -0.0140
   12MPD2    C5  187   1.366   2.324  13.877  0.6161 -0.0230 -0.9623
   12MPD2     H  188   1.555   2.012  13.984  0.8889 -1.1907 -0.6661
   12MPD2    H1  189   1.290   2.204  13.717 -1.5590 -0.1760  0.9544
   12MPD2    H2  190   1.480   2.435  14.017  0.2334 -0.4752  0.6706
   12MPD2    H3  191   1.315   2.416  13.853 -0.1482 -0.1397  0.2293
   12MPD2     N  192   1.407   1.980  13.748  0.3888 -0.5000  0.1024
   12MPD2    H5  193   1.334   1.986  13.678  0.5982 -2.3329 -0.2797
   12MPD2    N1  194   1.614   2.221  14.128  0.2033 -0.2223 -0.5623
   12MPD2    H7  195   1.655   2.131  14.150  0.3335  0.5903  2.5982
   13TCq1    O1  196   1.724   1.387  10.768 -0.8772  1.0228 -0.3686
   13TCq1    C1  197   1.777   1.303  10.860  0.5274  0.8147 -0.4401
   13TCq1    O2  198   1.864   1.223  10.836  0.1994  0.3508 -0.6748
   13TCq1    C2  199   1.674   1.278  10.946  0.4441  0.2382 -0.1994
   13TCq1    C3  200   1.619   1.154  10.945 -0.5878 -0.2208  0.1860
   13TCq1    C4  201   1.516   1.130  11.028  0.0491 -0.1138  0.4929
   13TCq1    C5  202   1.449   1.233  11.091  0.4571  0.2207 -0.7641
   13TCq1    C6  203   1.499   1.360  11.074  0.3786  0.1070 -0.0301
   13TCq1    C7  204   1.613   1.385  10.999  0.3016 -0.1975 -0.3935
   13TCq1    C8  205   1.430   1.465  11.149 -0.3501  0.1355 -0.1811
   13TCq1    O4  206   1.323   1.442  11.203 -0.1642  0.4083  0.4502
   13TCq1    C9  207   1.456   1.001  11.023  0.2330  0.2521 -0.4612
   13TCq1    O5  208   1.502   0.931  10.930  0.1256 -0.3245  0.1395
   13TCq1    O6  209   1.384   0.968  11.120  0.8194  0.2238 -0.2943
   13TCq1    H1  210   1.628   1.410  10.770 -1.4343 -1.4626  0.6695
   13TCq1    H2  211   1.681   1.074  10.907  1.8212  0.1537  3.3598
   13TCq1    H3  212   1.355   1.211  11.140  0.3785 -1.8620 -1.8359
   13TCq1    H4  213   1.668   1.477  10.989 -0.1205  0.2993  1.9440
   14MPD2     C  214   1.539   1.811  11.189  0.2316 -0.5805  0.4210
   14MPD2    C1  215   1.452   1.705  11.193  0.5765 -0.4881  0.5831
   14MPD2    C2  216   1.334   1.733  11.259  0.1600  0.1391 -0.1779
   14MPD2    C3  217   1.297   1.863  11.302 -0.3905  0.3291 -0.0558
   14MPD2    C4  218   1.390   1.966  11.277 -0.1824  0.5783 -0.3938
   14MPD2    C5  219   1.512   1.934  11.230 -0.1833 -0.0080 -0.4189
   14MPD2     H  220   1.272   1.645  11.271 -1.4311  1.4287  1.0881
   14MPD2    H1  221   1.367   2.069  11.301 -1.5496  0.5383 -1.5100
   14MPD2    H2  222   1.636   1.793  11.146  0.4415  0.3099  0.5241
   14MPD2    H3  223   1.591   2.008  11.224  0.3727 -0.6164 -0.5881
   14MPD2     N  224   1.175   1.882  11.369  0.0165 -0.0540 -0.0506
   14MPD2    H5  225   1.118   1.798  11.377  2.2982 -1.5639  0.1324
   14MPD2    N1  226   1.498   1.587  11.133 -0.2423 -0.4274  0.0755
   14MPD2    H7  227   1.587   1.594  11.085 -0.3888 -2.6187 -0.5447
   15TCq1    O1  228   4.560   1.140   2.098 -0.2694  0.1246  0.0123
   15TCq1    C1  229   4.588   1.195   1.979  0.4157 -0.6794  0.2162
   15TCq1    O2  230   4.671   1.169   1.893 -0.1431 -0.0895 -0.1348
   15TCq1    C2  231   4.460   1.257   1.927 -0.3437 -0.3195 -0.8284
   15TCq1    C3  232   4.379   1.327   2.011 -0.4956  0.3579 -0.3796
   15TCq1    C4  233   4.262   1.375   1.954 -0.7289 -1.1781  0.0079
   15TCq1    C5  234   4.222   1.345   1.833  0.7703  0.4619  0.3923
   15TCq1    C6  235   4.308   1.274   1.753  0.6708 -0.3204 -1.0506
   15TCq1    C7  236   4.431   1.230   1.798  0.6169 -0.3456 -0.6000
   15TCq1    C8  237   4.270   1.251   1.613  0.2356 -0.6445  0.2259
   15TCq1    O4  238   4.356   1.192   1.551  0.4861  0.4038 -0.3320
   15TCq1    C9  239   4.172   1.457   2.035 -0.4427 -0.3931  0.0004
   15TCq1    O5  240   4.231   1.507   2.136 -0.2701 -1.0401 -0.3662
   15TCq1    O6  241   4.048   1.447   2.015 -0.3042  0.3497 -0.2629
   15TCq1    H1  242   4.474   1.157   2.143 -0.1377 -0.3801  0.4444
   15TCq1    H2  243   4.406   1.357   2.111 -0.1785 -0.8118 -0.1188
   15TCq1    H3  244   4.132   1.382   1.787 -1.1369 -2.5425  1.7071
   15TCq1    H4  245   4.498   1.171   1.737  0.5065  0.4252 -1.4546
   16MPD2     C  246   3.944   1.293   1.456 -0.3894  0.3942  0.4126
   16MPD2    C1  247   4.072   1.251   1.465  0.8830  0.1125 -0.3004
   16MPD2    C2  248   4.128   1.183   1.354  0.0968 -0.0788 -0.1283
   16MPD2    C3  249   4.037   1.134   1.259  0.1337 -0.1653 -0.4865
   16MPD2    C4  250   3.906   1.173   1.261 -0.3579 -0.2078  0.2992
   16MPD2    C5  251   3.857   1.259   1.355  0.1978  0.3518  0.2225
   16MPD2     H  252   4.228   1.141   1.358 -0.5499 -1.8019 -2.1316
   16MPD2    H1  253   3.836   1.130   1.191  0.9049 -0.8224 -0.5887
   16MPD2    H2  254   3.900   1.341   1.542 -1.0926 -0.7986  0.7230
   16MPD2    H3  255   3.755   1.296   1.359 -0.2417 -0.5005 -3.4499
   16MPD2     N  256   4.086   1.041   1.174  0.8698 -0.7663  0.0011
   16MPD2    H5  257   4.174   1.003   1.207  1.4915 -0.6352 -1.5097
   16MPD2    N1  258   4.142   1.273   1.588  0.0076 -0.4132  0.0053
   16MPD2    H7  259   4.086   1.298   1.669 -0.7296 -0.6556 -0.4297
   17TMC1    C1  260   1.262   0.628  10.940 -0.3805  0.0944  0.5169
   17TMC1    C2  261   1.376   0.611  11.006  0.9375  0.8112  0.4376
   17TMC1    C3  262   1.377   0.658  11.130 -0.4200 -0.3112  0.3195
   17TMC1    C4  263   1.153   0.699  10.988 -0.5938 -0.3729  0.7877
   17TMC1    C5  264   1.166   0.745  11.116  0.1703 -0.8142  0.4327
   17TMC1    C6  265   1.276   0.723  11.190 -0.4668  0.6073  0.2039
   17TMC1     C  266   1.255   0.595  10.798 -0.4080 -0.0675  0.5165
   17TMC1     O  267   1.146   0.572  10.751  0.6660  0.4355 -0.4825
   17TMC1     H  268   1.456   0.548  10.970  0.3948 -0.7955  2.0192
   17TMC1    H1  269   1.061   0.710  10.932 -0.0462  3.2035  0.6351
   17TMC1    H2  270   1.268   0.749  11.295 -0.2518 -2.8038  1.0789
   17TMC1    C7  271   1.074   0.849  11.167 -0.2856  0.0548  0.1323
   17TMC1    C8  272   1.498   0.648  11.204 -0.5334  0.3943 -0.2801
   17TMC1    O1  273   0.959   0.823  11.196 -0.3922 -0.1613  0.1618
   17TMC1    O2  274   1.583   0.567  11.175  0.1538  0.3280  0.3726
   17TMC1    O3  275   1.155   0.947  11.218 -0.0115  0.3948 -0.4038
   17TMC1    H3  276   1.242   0.946  11.172  0.0159  1.3784 -0.3651
   17TMC1    O5  277   1.530   0.778  11.218  0.3381 -0.0129 -0.3036
   17TMC1    H5  278   1.465   0.839  11.178 -0.3808  0.5305  1.7328
   18MPD2     C  279   1.287   0.644  10.502  0.0058  0.3397 -0.5019
   18MPD2    C1  280   1.389   0.649  10.597 -0.5795  0.0255  0.3668
   18MPD2    C2  281   1.518   0.689  10.559 -0.1081 -0.6116  0.1795
   18MPD2    C3  282   1.539   0.726  10.425  0.3578  0.7968 -0.5150
   18MPD2    C4  283   1.440   0.701  10.330  0.3549  0.3588 -0.0032
   18MPD2    C5  284   1.321   0.664  10.372 -0.4480  1.2002 -0.2335
   18MPD2     H  285   1.599   0.698  10.630 -0.2721  0.1278  0.2770
   18MPD2    H1  286   1.462   0.733  10.229  0.4405  1.0075  0.2250
   18MPD2    H2  287   1.183   0.619  10.520  0.3855  0.4562  1.9009
   18MPD2    H3  288   1.241   0.660  10.300  2.0002  0.2657 -2.8738
   18MPD2     N  289   1.654   0.789  10.379  0.5231 -0.1787  0.1311
   18MPD2    H5  290   1.645   0.828  10.286 -1.5004  2.3578  1.4037
   18MPD2    N1  291   1.371   0.628  10.740  0.2527  0.8622  0.2461
   18MPD2    H7  292   1.441   0.652  10.809 -0.9948  1.0611  1.4574
   19TMC2    C1  293   2.773   2.097  13.707  0.4628  0.1806  0.9047
   19TMC2    C2  294   2.743   2.171  13.600 -0.3924 -0.3905  0.6010
   19TMC2    C3  295   2.626   2.143  13.543  0.2991 -0.0891 -0.8443
   19TMC2    C4  296   2.682   2.008  13.764 -0.0918  0.4518  0.2872
   19TMC2    C5  297   2.563   1.990  13.701  0.5466  0.0047 -1.0413
   19TMC2    C6  298   2.530   2.057  13.587 -0.3494  0.2384  0.0548
   19TMC2     C  299   2.898   2.142  13.770  0.5745 -0.1351  0.5988
   19TMC2     O  300   2.942   2.244  13.719  0.2854  0.0810  0.1206
   19TMC2     H  301   2.815   2.222  13.538 -0.2853 -1.8038 -0.4438
   19TMC2    H1  302   2.705   1.944  13.848 -0.8775 -0.1259  0.0573
   19TMC2    H2  303   2.437   2.049  13.533 -0.3795 -1.0915  0.2991
   19TMC2    C7  304   2.504   1.858  13.700 -0.0612 -0.0077  0.3771
   19TMC2    C8  305   2.603   2.205  13.413 -0.3665  0.1090  0.0974
   19TMC2    O1  306   2.576   1.760  13.706 -0.1778  0.3314  1.1308
   19TMC2    O2  307   2.669   2.190  13.307  0.5174  0.2469  0.3051
   19TMC2    O5  308   2.546   2.323  13.460  0.0687 -0.4393  0.2600
   19TMC2    H5  309   2.496   2.319  13.545  2.1928  2.6382  1.6526
   20MPD2     C  310   3.067   2.226  13.983 -0.2332 -0.5251 -0.4197
   20MPD2    C1  311   3.044   2.099  13.957 -1.1003  1.2949 -0.5026
   20MPD2    C2  312   3.126   2.006  14.015 -0.3609 -0.7246  0.2488
   20MPD2    C3  313   3.224   2.043  14.108  0.0013  0.2894 -0.0257
   20MPD2    C4  314   3.242   2.176  14.139 -0.8157 -0.4197 -0.1770
   20MPD2    C5  315   3.158   2.267  14.074 -0.2674 -0.4366 -1.2236
   20MPD2     H  316   3.126   1.901  13.987 -0.8206 -0.7333  0.2817
   20MPD2    H1  317   3.313   2.218  14.209 -0.6307  0.2701 -0.7827
   20MPD2    H2  318   3.014   2.306  13.933 -0.0553  0.0778  0.3545
   20MPD2    H3  319   3.173   2.372  14.094 -1.4677 -0.6210  0.7091
   20MPD2     N  320   3.323   1.957  14.161  0.0658 -0.6186  0.2569
   20MPD2    H5  321   3.402   1.997  14.210 -0.1261 -0.2079  0.2293
   20MPD2    N1  322   2.957   2.055  13.864  0.3767  0.0039  0.6415
   20MPD2    H7  323   2.928   1.958  13.857  0.2923  0.0954 -0.3111
   21TMC2    C1  324   0.508   1.962  14.631 -0.3111  0.2432 -0.7321
   21TMC2    C2  325   0.577   1.876  14.705  0.1966  0.0656 -0.2208
   21TMC2    C3  326   0.595   1.890  14.838  0.2064  0.1722 -0.1356
   21TMC2    C4  327   0.451   2.077  14.687  0.1957 -0.3170  0.0913
   21TMC2    C5  328   0.462   2.086  14.827  0.0516  0.2957  0.1939
   21TMC2    C6  329   0.539   1.999  14.900  0.7177  0.6534  0.1536
   21TMC2     C  330   0.520   1.955  14.488  0.2584  0.3526 -0.4154
   21TMC2     O  331   0.616   1.889  14.447 -0.3680  0.4538  0.1378
   21TMC2     H  332   0.643   1.803  14.660 -2.3349 -2.0398 -0.5288
   21TMC2    H1  333   0.408   2.158  14.630  1.6785 -0.2029 -0.8583
   21TMC2    H2  334   0.530   2.002  15.008 -0.1415 -2.2699  0.1718
   21TMC2    C7  335   0.424   2.206  14.897  0.1708  0.1461 -0.3376
   21TMC2    C8  336   0.694   1.803  14.900 -0.0279 -0.6731 -0.0101
   21TMC2    O1  337   0.467   2.231  15.010  0.1353 -0.0884 -0.2385
   21TMC2    O2  338   0.743   1.708  14.846  0.5682 -0.0696  0.6419
   21TMC2    O5  339   0.761   1.875  14.993 -0.1611  0.1340  0.0818
   21TMC2    H5  340   0.720   1.959  15.025  0.6749 -0.1191  1.8271
   22MPD2     C  341   0.436   2.154  14.023  0.2571  0.6161 -0.2543
   22MPD2    C1  342   0.550   2.107  14.086 -0.6573  0.7366  0.6704
   22MPD2    C2  343   0.546   2.059  14.213  0.9203 -0.0712  0.2402
   22MPD2    C3  344   0.428   2.056  14.278  0.6237  0.3349 -0.0434
   22MPD2    C4  345   0.316   2.113  14.221 -0.6145  0.7499  1.2924
   22MPD2    C5  346   0.320   2.147  14.094  0.3925  0.3729 -0.1461
   22MPD2     H  347   0.644   2.030  14.250  1.3125 -0.9143 -1.4509
   22MPD2    H1  348   0.222   2.122  14.274 -1.5337  3.1637 -0.7335
   22MPD2    H2  349   0.432   2.178  13.918 -0.7083  0.6432 -0.2123
   22MPD2    H3  350   0.225   2.168  14.045  0.0569 -1.9035 -0.4549
   22MPD2     N  351   0.418   2.014  14.413  0.2760 -0.1522 -0.2886
   22MPD2    H5  352   0.337   2.041  14.468  0.5723 -0.9661  0.5574
   22MPD2    N1  353   0.676   2.108  14.017  0.0995 -0.6079 -1.0934
   22MPD2    H7  354   0.750   2.060  14.068  0.6657  0.2910 -1.0685
   23TMC2    C1  355   2.218   3.427  14.381 -0.2187  0.5781 -0.1828
   23TMC2    C2  356   2.116   3.440  14.472  1.1875  0.2235  0.6953
   23TMC2    C3  357   1.988   3.395  14.436  0.5397  0.0387  0.4688
   23TMC2    C4  358   2.182   3.373  14.256  0.1351 -0.2870 -0.1029
   23TMC2    C5  359   2.053   3.340  14.231  0.1400  0.6513  0.0259
   23TMC2    C6  360   1.957   3.333  14.317 -0.5167 -0.2599  0.2257
   23TMC2     C  361   2.339   3.380  14.437 -0.2738 -0.2093  0.7538
   23TMC2     O  362   2.324   3.336  14.550 -0.5698 -0.3831  0.0430
   23TMC2     H  363   2.138   3.489  14.567 -0.7569 -1.1633  1.8667
   23TMC2    H1  364   2.255   3.368  14.176 -1.1021  1.1218 -1.3379
   23TMC2    H2  365   1.858   3.292  14.299 -0.7503 -0.0718  1.0774
   23TMC2    C7  366   2.016   3.340  14.081  0.4782  0.2098 -0.0305
   23TMC2    C8  367   1.889   3.367  14.538 -0.0644 -0.4538  0.5041
   23TMC2    O1  368   2.106   3.341  13.999 -0.0457  0.4489 -0.3831
   23TMC2    O2  369   1.787   3.300  14.523  0.3148  0.2035  0.4173
   23TMC2    O5  370   1.903   3.459  14.640 -0.2104 -0.3130 -0.2580
   23TMC2    H5  371   1.974   3.526  14.625 -0.5741  0.7364  2.7399
   24MPD2     C  372   2.836   3.239  14.448 -0.2350 -0.3414 -0.1943
   24MPD2    C1  373   2.731   3.198  14.525 -0.8020 -0.6811 -0.2621
   24MPD2    C2  374   2.605   3.243  14.503  0.2666  0.3271 -0.5801
   24MPD2    C3  375   2.577   3.338  14.402  0.4705  0.1894  0.3907
   24MPD2    C4  376   2.683   3.378  14.330 -0.7028  0.6026  0.0859
   24MPD2    C5  377   2.808   3.320  14.349  0.3022  0.2801  0.3613
   24MPD2     H  378   2.519   3.215  14.563  0.1985 -1.1900 -1.3842
   24MPD2    H1  379   2.676   3.438  14.240  2.9998 -0.2835 -0.7975
   24MPD2    H2  380   2.934   3.205  14.481  0.0555 -0.6061 -1.3356
   24MPD2    H3  381   2.888   3.343  14.279 -0.3441 -0.4941 -0.6179
   24MPD2     N  382   2.454   3.387  14.365 -0.4372  0.5226  0.2499
   24MPD2    H5  383   2.449   3.433  14.274 -1.6922  1.9799  1.0530
   24MPD2    N1  384   2.744   3.105  14.627  0.0755  0.2489 -0.5845
   24MPD2    H7  385   2.661   3.090  14.684 -0.6933 -0.4289 -1.9036
   25TMC2    C1  386   0.994   0.368  11.383 -0.4475 -0.6983  0.2037
   25TMC2    C2  387   1.123   0.371  11.432 -0.0803  0.0282  0.0846
   25TMC2    C3  388   1.133   0.371  11.566  1.1579  0.2454 -0.0766
   25TMC2    C4  389   0.885   0.407  11.458  0.1439  0.0048 -0.2489
   25TMC2    C5  390   0.901   0.419  11.593 -0.4452 -0.0830  0.6324
   25TMC2    C6  391   1.027   0.389  11.646  0.4855 -0.3217 -0.1544
   25TMC2     C  392   0.982   0.399  11.242 -0.7840  0.1710 -0.3151
   25TMC2     O  393   1.077   0.460  11.195 -0.3550 -0.1331  0.4941
   25TMC2     H  394   1.204   0.338  11.368 -1.0783 -1.0203 -0.6453
   25TMC2    H1  395   0.791   0.418  11.404 -0.0361  0.9036  0.2422
   25TMC2    H2  396   1.038   0.396  11.754 -0.4907 -2.1988  0.0675
   25TMC2    C7  397   0.806   0.487  11.673 -0.2219  0.0749 -0.4791
   25TMC2    C8  398   1.254   0.422  11.613 -0.1907  0.1454 -0.3414
   25TMC2    O1  399   0.798   0.461  11.791 -0.5308  0.1283  0.6500
   25TMC2    O2  400   1.311   0.393  11.721 -0.4316  0.3628  0.2538
   25TMC2    O5  401   1.297   0.522  11.534  0.2233 -0.3014 -0.2916
   25TMC2    H5  402   1.232   0.550  11.466 -1.0254 -2.7423 -0.1248
   26MPD2     C  403   0.724   0.443  10.801 -0.5584  0.2787  0.2889
   26MPD2    C1  404   0.648   0.368  10.890 -0.6207 -0.7369  0.7504
   26MPD2    C2  405   0.699   0.350  11.018  0.0824  0.0011  0.4841
   26MPD2    C3  406   0.825   0.389  11.058 -0.0799 -0.2490  0.5217
   26MPD2    C4  407   0.899   0.459  10.967 -0.0219  0.2005  0.4253
   26MPD2    C5  408   0.849   0.479  10.840  0.4240  0.4690 -0.0291
   26MPD2     H  409   0.642   0.299  11.095  0.9225 -0.9013  0.4949
   26MPD2    H1  410   0.996   0.499  10.992  0.1702 -0.0539  0.0939
   26MPD2    H2  411   0.690   0.472  10.702  2.4105 -1.1270 -1.1517
   26MPD2    H3  412   0.907   0.532  10.765 -0.9580  0.8749 -0.8262
   26MPD2     N  413   0.866   0.361  11.188  0.0165 -0.4900  0.3274
   26MPD2    H5  414   0.810   0.305  11.251 -1.8397  1.1106  0.1057
   26MPD2    N1  415   0.523   0.315  10.849  0.0159 -0.3406 -0.4082
   26MPD2    H7  416   0.485   0.344  10.759  0.7477  0.6818 -0.3908
   27TMC2    C1  417   0.041   2.781  11.882 -0.0082  0.2121 -0.3712
   27TMC2    C2  418   0.131   2.801  11.777  0.7747 -0.6924 -0.2847
   27TMC2    C3  419   0.227   2.891  11.798  0.0860  0.0248 -0.0441
   27TMC2    C4  420   0.057   2.841  12.001  0.3117  0.1472  0.5770
   27TMC2    C5  421   0.162   2.922  12.021 -0.2451 -0.3848  0.1132
   27TMC2    C6  422   0.246   2.957  11.917  0.2022  0.5844 -0.1246
   27TMC2     C  423   4.668   2.690  11.858  0.1792 -0.3538 -0.1618
   27TMC2     O  424   4.658   2.623  11.752  0.0031  0.0694  0.5911
   27TMC2     H  425   0.119   2.750  11.682  1.9761 -0.9241 -0.3074
   27TMC2    H1  426   4.723   2.831  12.082  0.0220  1.5349  0.4950
   27TMC2    H2  427   0.332   3.019  11.939  2.1620 -1.3247 -2.4163
   27TMC2    C7  428   0.179   2.985  12.145 -0.0841 -0.6087  0.5939
   27TMC2    C8  429   0.313   2.920  11.684 -0.0387 -0.1732 -0.4041
   27TMC2    O1  430   0.222   3.099  12.154 -0.2195 -0.6581 -0.4727
   27TMC2    O2  431   0.279   2.892  11.569 -0.0688 -0.1113  0.0062
   27TMC2    O5  432   0.445   2.917  11.726  0.7410  0.8617 -0.2167
   27TMC2    H5  433   0.449   2.937  11.822  2.1171  0.7463 -0.2537
   28MPD2     C  434   4.225   2.497  12.066 -0.0681 -0.6634  0.2949
   28MPD2    C1  435   4.263   2.618  12.116  0.2573  0.8472 -0.0069
   28MPD2    C2  436   4.375   2.684  12.085  0.5846 -0.4224 -0.1437
   28MPD2    C3  437   4.452   2.640  11.980  0.5518  0.4151  0.5490
   28MPD2    C4  438   4.422   2.518  11.929 -0.0398  0.2051 -0.3613
   28MPD2    C5  439   4.308   2.452  11.967 -0.6794  0.2863 -0.3659
   28MPD2     H  440   4.408   2.780  12.125 -1.5988  0.5930 -0.7487
   28MPD2    H1  441   4.476   2.473  11.847 -1.7633  1.6671 -2.3041
   28MPD2    H2  442   4.141   2.443  12.107  1.3115 -2.5822  0.5800
   28MPD2    H3  443   4.280   2.357  11.923 -0.5534 -0.0755  0.3247
   28MPD2     N  444   4.570   2.715  11.950 -0.0513 -0.7545 -0.0569
   28MPD2    H5  445   4.582   2.796  12.010  0.2257 -0.5401 -0.3994
   28MPD2    N1  446   4.183   2.651  12.223  0.0329  0.0491  0.8294
   28MPD2    H7  447   4.115   2.581  12.253 -0.6526  0.9434  1.3498
   29TMC2    C1  448   4.175   0.744  14.650 -0.1874 -0.0126  0.2239
   29TMC2    C2  449   4.104   0.810  14.747 -0.3081 -0.7362 -0.0977
   29TMC2    C3  450   4.177   0.853  14.853  0.2859  0.5016  0.1125
   29TMC2    C4  451   4.308   0.749  14.643  0.6762  0.0294  0.3348
   29TMC2    C5  452   4.375   0.793  14.753 -0.4046  0.1138  0.6352
   29TMC2    C6  453   4.312   0.848  14.862  0.4711 -0.3604 -0.2730
   29TMC2     C  454   4.109   0.652  14.549  0.8812 -0.1063  0.7515
   29TMC2     O  455   4.186   0.581  14.482  0.4093  0.0919 -0.1501
   29TMC2     H  456   3.997   0.793  14.746 -0.1781 -1.4612 -1.9365
   29TMC2    H1  457   4.362   0.704  14.560  0.6275 -1.3458  1.0421
   29TMC2    H2  458   4.360   0.892  14.949 -0.0580  0.6461 -0.4951
   29TMC2    C7  459   4.516   0.812  14.742  0.5521 -0.1627 -0.0015
   29TMC2    C8  460   4.099   0.879  14.973 -0.0887  0.4431 -0.8942
   29TMC2    O1  461   4.590   0.721  14.728  0.3104  0.4070 -0.0679
   29TMC2    O2  462   4.127   0.851  15.087 -0.2118 -0.1431 -0.2744
   29TMC2    O5  463   3.975   0.932  14.938  0.3211 -0.9153  0.5067
   29TMC2    H5  464   3.972   0.983  14.854 -1.0299 -3.1006 -0.7658
   30MPD2     C  465   3.711   0.410  14.353 -0.5320 -0.2929  0.6942
   30MPD2    C1  466   3.848   0.369  14.355  0.1970  0.2923 -0.1432
   30MPD2    C2  467   3.931   0.458  14.415 -0.3842 -0.1330  0.5083
   30MPD2    C3  468   3.885   0.572  14.480 -0.2579  0.8435 -0.6256
   30MPD2    C4  469   3.754   0.611  14.471  0.6536  0.0912 -1.3807
   30MPD2    C5  470   3.673   0.532  14.401  0.7105 -0.9216 -0.4401
   30MPD2     H  471   4.036   0.433  14.421 -1.0817 -3.1180  0.1793
   30MPD2    H1  472   3.718   0.704  14.511 -0.6762 -1.4528  1.0194
   30MPD2    H2  473   3.636   0.349  14.304 -2.3015  0.0685  2.8995
   30MPD2    H3  474   3.569   0.560  14.388  0.9897  0.5449  0.5669
   30MPD2     N  475   3.971   0.659  14.549 -0.0268 -0.1346  0.0267
   30MPD2    H5  476   3.924   0.734  14.598  0.3181  0.3777 -0.4205
   30MPD2    N1  477   3.899   0.243  14.317 -0.1899  0.3810  0.2805
   30MPD2    H7  478   3.995   0.223  14.346 -1.1818 -0.9431  2.6713
   31TMC2    C1  479   1.928   4.007  15.175 -0.6717  0.1135  0.4610
   31TMC2    C2  480   1.827   4.084  15.223 -0.6083 -0.3048 -0.2454
   31TMC2    C3  481   1.793   4.060  15.349 -0.7403  0.1288  0.4717
   31TMC2    C4  482   1.995   3.908  15.242  0.1250  0.8646 -0.2446
   31TMC2    C5  483   1.963   3.898  15.380  0.3942 -0.2456  0.3491
   31TMC2    C6  484   1.850   3.966  15.429 -0.1033 -0.0705 -0.4046
   31TMC2     C  485   1.955   4.047  15.035  0.3995 -0.8098 -0.7906
   31TMC2     O  486   1.876   4.127  14.982 -0.0010  0.0297 -0.0905
   31TMC2     H  487   1.767   4.155  15.167  0.5483  1.2504  0.4613
   31TMC2    H1  488   2.070   3.842  15.199 -0.0846  0.8836 -0.6343
   31TMC2    H2  489   1.806   3.926  15.520 -0.8508 -0.0049 -0.7374
   31TMC2    C7  490   2.056   3.832  15.466 -0.0334  0.0714 -0.1802
   31TMC2    C8  491   1.661   4.118  15.391  0.4530  0.7301  0.0135
   31TMC2    O1  492   2.129   3.749  15.419 -0.0266 -0.3296  0.3147
   31TMC2    O2  493   1.587   4.181  15.316 -0.1286  0.0480 -1.1940
   31TMC2    O5  494   1.660   4.123  15.529 -0.3195 -0.3676 -0.1882
   31TMC2    H5  495   1.748   4.110  15.570 -0.7720  1.7019  1.4672
   32MPD2     C  496   2.263   4.137  14.641 -0.8178  0.2001 -0.5457
   32MPD2    C1  497   2.140   4.185  14.672  0.3437  0.5542  0.7173
   32MPD2    C2  498   2.075   4.134  14.781  0.0385  0.6737 -0.3657
   32MPD2    C3  499   2.130   4.040  14.866  0.1962 -0.4232  0.3668
   32MPD2    C4  500   2.256   3.995  14.833 -0.3063 -0.4902  0.2871
   32MPD2    C5  501   2.316   4.040  14.722  0.7860  0.1405  0.0552
   32MPD2     H  502   1.967   4.145  14.782 -0.1618 -1.2468 -0.7432
   32MPD2    H1  503   2.317   3.934  14.899 -1.7879 -1.3209  0.9019
   32MPD2    H2  504   2.323   4.175  14.560  0.9006  0.1066  0.6653
   32MPD2    H3  505   2.420   4.011  14.709 -0.0077 -3.0089  0.9597
   32MPD2     N  506   2.066   3.999  14.984  0.1304  0.8394  0.3294
   32MPD2    H5  507   2.112   3.937  15.050  2.1359  0.6165 -1.2747
   32MPD2    N1  508   2.084   4.284  14.588  0.0283  0.0592  0.5118
   32MPD2    H7  509   2.135   4.308  14.504 -3.8659  2.2540 -1.2183
   33TMC2    C1  510   1.666   1.725   9.760  0.1923  0.1205 -0.1059
   33TMC2    C2  511   1.535   1.705   9.713 -0.0290 -0.1290 -0.4267
   33TMC2    C3  512   1.482   1.800   9.635  0.4688  0.9692 -0.6925
   33TMC2    C4  513   1.732   1.846   9.733 -0.4906 -0.0965  0.6083
   33TMC2    C5  514   1.671   1.940   9.657  0.3059 -0.4684 -0.5945
   33TMC2    C6  515   1.547   1.917   9.600 -0.3136 -0.3391 -1.0091
   33TMC2     C  516   1.720   1.634   9.854  0.2184  0.6320 -0.5919
   33TMC2     O  517   1.683   1.519   9.851  0.3478 -0.3486  1.0100
   33TMC2     H  518   1.484   1.610   9.726  1.6301 -1.0091 -0.3413
   33TMC2    H1  519   1.826   1.881   9.775 -0.7610  0.1271  1.0263
   33TMC2    H2  520   1.490   1.997   9.554  0.4049  0.6627 -0.1537
   33TMC2    C7  521   1.721   2.075   9.667  0.0490  0.4387 -0.1195
   33TMC2    C8  522   1.368   1.761   9.558  0.2443  0.5916  0.7837
   33TMC2    O1  523   1.816   2.097   9.740  0.9037 -0.2356  0.0576
   33TMC2    O2  524   1.299   1.666   9.600  0.5947  0.1457  0.2819
   33TMC2    O5  525   1.396   1.794   9.435  0.3079  0.2298  0.6187
   33TMC2    H5  526   1.477   1.848   9.426  0.2344  0.2393 -0.0156
   34MPD2     C  527   2.009   1.501  10.276 -0.5956  0.2727 -0.1471
   34MPD2    C1  528   1.939   1.425  10.182 -0.8530 -0.0694 -0.1103
   34MPD2    C2  529   1.872   1.484  10.075  0.5270 -0.2006 -0.6356
   34MPD2    C3  530   1.867   1.623  10.060  0.5586 -0.4230 -0.1841
   34MPD2    C4  531   1.933   1.700  10.157 -0.4627 -0.2477  0.0751
   34MPD2    C5  532   2.007   1.639  10.258 -0.9361  0.1110  0.5935
   34MPD2     H  533   1.818   1.418  10.008  2.1597 -1.3527 -0.8125
   34MPD2    H1  534   1.927   1.808  10.153 -0.4409 -0.2855 -1.2043
   34MPD2    H2  535   2.067   1.452  10.352  0.1678  1.1809 -0.1447
   34MPD2    H3  536   2.056   1.704  10.330 -2.5738  0.3211  1.5364
   34MPD2     N  537   1.805   1.693   9.952  0.1730 -0.3122 -0.0899
   34MPD2    H5  538   1.820   1.793   9.943 -0.3725 -0.2458 -0.2679
   34MPD2    N1  539   1.947   1.286  10.203  0.0426 -0.0278 -0.2441
   34MPD2    H7  540   2.006   1.255  10.280  1.8525  3.8925 -0.0676
   35TMC2    C1  541   3.102   3.062  11.397  0.3109 -0.0989 -0.7080
   35TMC2    C2  542   2.984   3.125  11.392  0.2857 -0.2581 -0.3117
   35TMC2    C3  543   2.875   3.050  11.414  0.1864 -0.3925 -0.1481
   35TMC2    C4  544   3.123   2.931  11.432 -0.5610  1.3290  0.4130
   35TMC2    C5  545   3.006   2.855  11.455 -0.8154 -0.0308 -0.7563
   35TMC2    C6  546   2.884   2.914  11.450  0.3821 -1.0793  1.2987
   35TMC2     C  547   3.215   3.147  11.366  0.4527 -0.4844 -0.3819
   35TMC2     O  548   3.204   3.247  11.297  0.2888  0.6938  0.2150
   35TMC2     H  549   2.967   3.228  11.363  1.1301  0.0902  0.4240
   35TMC2    H1  550   3.215   2.875  11.419 -1.5727 -0.4260  0.8353
   35TMC2    H2  551   2.798   2.855  11.479 -0.2296 -0.0588  1.5467
   35TMC2    C7  552   3.009   2.715  11.499  0.8195  0.3675  0.7155
   35TMC2    C8  553   2.747   3.122  11.401  0.3446  0.2784 -0.0491
   35TMC2    O1  554   2.903   2.655  11.510  0.4871 -0.1647 -0.2217
   35TMC2    O2  555   2.742   3.241  11.407  0.2026  0.0699  0.6390
   35TMC2    O5  556   2.639   3.045  11.424 -0.2647 -0.3073  0.2245
   35TMC2    H5  557   2.655   2.951  11.400  0.2128  0.4107 -2.2078
   36MPD2     C  558   3.696   3.282  11.477  0.2432 -0.1051 -0.5398
   36MPD2    C1  559   3.673   3.162  11.537 -0.2907  0.2837 -0.2690
   36MPD2    C2  560   3.548   3.103  11.528  0.3838 -0.9453 -0.4527
   36MPD2    C3  561   3.450   3.168  11.453 -0.4938 -0.2419 -0.3316
   36MPD2    C4  562   3.475   3.283  11.381  0.2739 -0.3956  0.0421
   36MPD2    C5  563   3.600   3.333  11.395  0.0853  0.2533 -0.2733
   36MPD2     H  564   3.518   3.007  11.570  2.4382  0.2893  3.8083
   36MPD2    H1  565   3.405   3.335  11.317 -0.1453  0.4472  1.1860
   36MPD2    H2  566   3.788   3.337  11.492  1.5734 -2.0354 -1.6699
   36MPD2    H3  567   3.632   3.423  11.345 -2.4608  0.4019 -1.6503
   36MPD2     N  568   3.321   3.104  11.443 -0.5784  0.1592  0.3001
   36MPD2    H5  569   3.306   3.025  11.506  0.1239 -0.1933  0.0230
   36MPD2    N1  570   3.773   3.106  11.625  0.4563 -0.2023 -0.2642
   36MPD2    H7  571   3.844   3.171  11.657 -0.0033 -0.2801  0.9074
   37TMC2    C1  572   0.548   3.220  11.394  0.2510  0.1723 -0.0493
   37TMC2    C2  573   0.468   3.204  11.286  0.0564  0.1094  0.1282
   37TMC2    C3  574   0.525   3.226  11.166  0.4562 -0.1129 -0.3589
   37TMC2    C4  575   0.680   3.254  11.381  0.5496  0.1604 -0.0492
   37TMC2    C5  576   0.731   3.258  11.258  0.5755  0.2026 -0.3337
   37TMC2    C6  577   0.659   3.242  11.141 -0.4918  0.8365 -0.0305
   37TMC2     C  578   0.488   3.237  11.528  0.3931 -0.5418 -1.0128
   37TMC2     O  579   0.370   3.265  11.527  0.4824 -0.5802 -0.8483
   37TMC2     H  580   0.362   3.192  11.304 -0.1949  5.4615  2.1356
   37TMC2    H1  581   0.748   3.246  11.465 -1.2992 -0.3110  1.4241
   37TMC2    H2  582   0.701   3.250  11.042 -1.6603  1.1272 -0.5013
   37TMC2    C7  583   0.874   3.232  11.252  0.8965 -0.3916 -0.4086
   37TMC2    C8  584   0.445   3.208  11.047 -1.0279  0.8885 -0.3000
   37TMC2    O1  585   0.940   3.278  11.348 -0.1798 -0.5370 -0.3062
   37TMC2    O2  586   0.486   3.158  10.944  0.0946  0.0390  0.2147
   37TMC2    O5  587   0.322   3.247  11.070 -0.0425  0.2993 -0.1122
   37TMC2    H5  588   0.320   3.332  11.119 -2.7158 -0.2854  0.7973
   38MPD2     C  589   0.542   3.257  12.039  0.1961  0.1595 -0.1743
   38MPD2    C1  590   0.663   3.211  11.989  0.1461 -0.4118  0.2884
   38MPD2    C2  591   0.673   3.190  11.854  0.1803  0.0710  0.1427
   38MPD2    C3  592   0.564   3.216  11.767 -0.1175 -0.0191  0.3047
   38MPD2    C4  593   0.445   3.268  11.816  0.3841  0.2959  0.2924
   38MPD2    C5  594   0.441   3.293  11.955 -0.1711  0.2346  0.3001
   38MPD2     H  595   0.766   3.147  11.820 -0.6105 -2.6983  1.5171
   38MPD2    H1  596   0.358   3.298  11.759  0.7768  0.2973 -0.3099
   38MPD2    H2  597   0.537   3.288  12.143 -1.5605 -1.4410  0.2262
   38MPD2    H3  598   0.353   3.341  11.997 -0.0613  1.3342 -0.7133
   38MPD2     N  599   0.581   3.216  11.630 -0.3027  0.0014  0.1020
   38MPD2    H5  600   0.674   3.183  11.606  0.9559  1.4119  3.1537
   38MPD2    N1  601   0.764   3.167  12.071  0.1380  0.0554 -0.2060
   38MPD2    H7  602   0.848   3.129  12.028  0.5243 -0.3427  0.9023
   39TMC2    C1  603   0.100   0.105   1.344  0.3714 -0.6662 -0.0067
   39TMC2    C2  604   0.068   0.018   1.446  0.2455  0.2444 -0.0111
   39TMC2    C3  605   0.159   0.000   1.544  0.7167  0.8089  0.2125
   39TMC2    C4  606   0.211   0.171   1.336  0.5467 -0.5120 -1.0466
   39TMC2    C5  607   0.305   0.148   1.433 -0.4148  0.0971 -0.4936
   39TMC2    C6  608   0.277   0.065   1.539  0.3290  0.3973 -0.0292
   39TMC2     C  609   0.001   0.126   1.246 -0.1805 -0.1810 -0.0157
   39TMC2     O  610   4.639   0.186   1.283  0.3200 -0.6405  0.2638
   39TMC2     H  611   4.707   4.706   1.450  0.5518 -0.0598  3.4159
   39TMC2    H1  612   0.207   0.237   1.250 -1.8131  0.4334 -0.2095
   39TMC2    H2  613   0.349   0.062   1.620  0.4574  1.4968 -0.1024
   39TMC2    C7  614   0.413   0.254   1.433 -0.2552  0.0587 -0.6059
   39TMC2    C8  615   0.129   4.649   1.648  0.1048  0.3811 -0.2236
   39TMC2    O1  616   0.522   0.235   1.493 -0.3526 -0.0759  0.1148
   39TMC2    O2  617   0.017   4.602   1.668  0.2903 -0.2472  0.0155
   39TMC2    O5  618   0.244   4.586   1.686 -0.6333 -0.1144 -1.1081
   39TMC2    H5  619   0.330   4.626   1.659  0.3870 -0.8683  1.0004
   40MPD2     C  620   0.060   0.045   0.894 -0.2497 -0.6559  0.1165
   40MPD2    C1  621   4.736   0.099   1.003 -0.7942  0.3358 -0.5011
   40MPD2    C2  622   4.629   0.182   0.976 -0.6833  0.2902  0.1873
   40MPD2    C3  623   4.568   0.183   0.850 -0.1916 -0.1875 -0.7885
   40MPD2    C4  624   4.636   0.127   0.743  0.1616  0.3932 -0.2454
   40MPD2    C5  625   0.020   0.063   0.766  0.1859  0.7511 -0.4513
   40MPD2     H  626   4.585   0.245   1.052  0.2541  0.3845  0.6469
   40MPD2    H1  627   4.606   0.139   0.640 -0.2812 -0.2612 -0.1909
   40MPD2    H2  628   0.155   4.731   0.902 -1.0180 -2.1565 -0.3384
   40MPD2    H3  629   0.073   0.014   0.685  1.5289 -1.2434  1.6403
   40MPD2     N  630   4.439   0.243   0.823  0.2534  0.3032 -0.1390
   40MPD2    H5  631   4.402   0.222   0.731  1.1892 -0.3530 -0.3717
   40MPD2    N1  632   0.051   0.073   1.127 -0.0909  0.7272  0.6434
   40MPD2    H7  633   0.134   0.016   1.142  1.2104  2.3529 -0.3808
   41TMC2    C1  634   2.624   3.180  13.280 -0.5756 -0.3555  0.1157
   41TMC2    C2  635   2.588   3.046  13.277  0.0097 -0.2277  0.4864
   41TMC2    C3  636   2.596   2.993  13.155 -0.4171 -0.4569 -0.1747
   41TMC2    C4  637   2.652   3.259  13.180  0.4996  0.1803 -0.3486
   41TMC2    C5  638   2.653   3.199  13.057  0.4360  0.5704 -0.3330
   41TMC2    C6  639   2.631   3.067  13.046 -0.0851 -0.5208  0.1210
   41TMC2     C  640   2.576   3.253  13.399 -0.6059 -0.3258 -1.2241
   41TMC2     O  641   2.518   3.354  13.375 -0.1790  0.1578 -0.5571
   41TMC2     H  642   2.550   2.994  13.365  0.4763  2.2509  2.1707
   41TMC2    H1  643   2.687   3.362  13.179  0.4015  0.2429  4.8032
   41TMC2    H2  644   2.648   3.022  12.949 -0.0144  0.7973 -0.4853
   41TMC2    C7  645   2.716   3.281  12.953 -0.0228  0.7530 -0.2584
   41TMC2    C8  646   2.561   2.851  13.149 -0.3595  0.1856 -0.3412
   41TMC2    O1  647   2.681   3.396  12.944  0.3878 -0.1364 -0.5160
   41TMC2    O2  648   2.572   2.771  13.242  0.7215  0.3072 -1.2448
   41TMC2    O5  649   2.494   2.826  13.040 -1.2738  0.1411  0.7950
   41TMC2    H5  650   2.505   2.904  12.981  1.2199 -1.5808 -0.9937
   42MPD2     C  651   2.539   3.386  13.669  0.3614 -0.5846  0.3504
   42MPD2    C1  652   2.583   3.253  13.647 -0.6503 -0.4997  0.0040
   42MPD2    C2  653   2.613   3.172  13.757  0.4276 -0.4892  0.1894
   42MPD2    C3  654   2.611   3.229  13.881  0.0986 -0.5558 -0.1426
   42MPD2    C4  655   2.580   3.359  13.904  0.5866  0.1526  0.1746
   42MPD2    C5  656   2.545   3.440  13.797  0.7217 -0.1693  0.6892
   42MPD2     H  657   2.636   3.066  13.746  2.1132 -0.1069 -0.0917
   42MPD2    H1  658   2.585   3.409  14.000  2.4249 -0.7183  0.5275
   42MPD2    H2  659   2.520   3.457  13.590 -0.4271 -2.4973 -1.1884
   42MPD2    H3  660   2.532   3.547  13.802  0.2543 -0.2941  2.2900
   42MPD2     N  661   2.671   3.161  13.991 -0.4592  0.1712  0.0625
   42MPD2    H5  662   2.712   3.220  14.062  3.2231  2.2965 -3.8173
   42MPD2    N1  663   2.600   3.193  13.521 -0.3118 -0.0119  0.0642
   42MPD2    H7  664   2.642   3.100  13.517 -1.9830 -0.7754  0.6908
   43TMC2    C1  665   4.384   1.420   0.634 -0.5158  0.4036 -0.7890
   43TMC2    C2  666   4.331   1.530   0.690 -0.2754  0.0634  0.6347
   43TMC2    C3  667   4.378   1.572   0.808  0.0554  0.3568 -0.1628
   43TMC2    C4  668   4.492   1.357   0.690  0.5973  0.2557  0.6958
   43TMC2    C5  669   4.556   1.419   0.793 -0.0472 -0.1825  0.4295
   43TMC2    C6  670   4.506   1.527   0.856  0.1891  0.9634 -0.5246
   43TMC2     C  671   4.344   1.366   0.505  0.0035 -0.7836  0.4342
   43TMC2     O  672   4.420   1.283   0.459  0.1570 -0.2098  0.0034
   43TMC2     H  673   4.239   1.567   0.644 -1.8326 -1.6768  2.3562
   43TMC2    H1  674   4.542   1.270   0.650 -0.7323 -0.7993  1.3237
   43TMC2    H2  675   4.556   1.577   0.938  1.5415 -1.7249  0.3015
   43TMC2    C7  676   4.686   1.368   0.842  0.3475  0.0172  0.3216
   43TMC2    C8  677   4.317   1.678   0.868  0.2106 -0.3518  0.4525
   43TMC2    O1  678   0.013   1.302   0.760 -0.1713 -0.1494  0.3717
   43TMC2    O2  679   4.214   1.722   0.817  0.1723 -0.1105 -0.5789
   43TMC2    O5  680   4.349   1.680   0.998 -0.5161 -0.2595 -0.5124
   43TMC2    H5  681   4.427   1.625   1.021 -1.0170 -0.9633 -0.4965
   44MPD2     C  682   4.132   1.405   0.038 -0.2630  0.3581 -0.2994
   44MPD2    C1  683   4.243   1.341   0.084  0.0465 -0.4188  0.5643
   44MPD2    C2  684   4.283   1.353   0.217  0.2881  0.1135 -0.0611
   44MPD2    C3  685   4.203   1.415   0.307  0.1090  0.1083  0.3150
   44MPD2    C4  686   4.105   1.497   0.260 -0.6411 -0.3312  0.0379
   44MPD2    C5  687   4.067   1.489   0.126  0.1192 -0.0477 -0.0558
   44MPD2     H  688   4.375   1.304   0.247  0.5690  1.2418  0.9400
   44MPD2    H1  689   4.064   1.569   0.331  0.8494 -0.1552  0.7290
   44MPD2    H2  690   4.091   1.397  17.682 -0.4285  1.7692 -0.3353
   44MPD2    H3  691   3.981   1.542   0.086  1.2306  2.2454  0.5969
   44MPD2     N  692   4.235   1.430   0.444 -0.0019  0.3013  0.3964
   44MPD2    H5  693   4.165   1.475   0.502 -0.7668 -2.3081  1.4800
   44MPD2    N1  694   4.326   1.267  17.743 -0.6802 -0.0419 -0.7677
   44MPD2    H7  695   4.413   1.232   0.039 -0.7927  0.0737 -0.4327
   45TMC2    C1  696   0.989   3.283   9.450  0.3859  0.8338  0.1289
   45TMC2    C2  697   1.123   3.279   9.414 -0.9548 -0.1747 -0.5864
   45TMC2    C3  698   1.194   3.399   9.428 -0.3143  0.6566  0.0301
   45TMC2    C4  699   0.918   3.391   9.488  0.6535  0.4975  0.0790
   45TMC2    C5  700   0.994   3.504   9.494  0.1810  0.5182  0.2696
   45TMC2    C6  701   1.136   3.514   9.470 -0.1384  0.2335  0.1010
   45TMC2     C  702   0.926   3.162   9.420  0.4591  0.9988  0.2386
   45TMC2     O  703   0.993   3.062   9.410  0.5925  0.1167 -0.1534
   45TMC2     H  704   1.175   3.189   9.385  2.2969  1.8681 -1.1441
   45TMC2    H1  705   0.814   3.384   9.515 -0.0414 -0.2192 -2.8102
   45TMC2    H2  706   1.199   3.599   9.495 -1.0968  0.1279  2.8365
   45TMC2    C7  707   0.926   3.632   9.531 -0.0074  0.0714 -0.0298
   45TMC2    C8  708   1.326   3.411   9.372  0.4182 -0.2065  0.2069
   45TMC2    O1  709   0.821   3.621   9.593  0.4603  0.1643  0.1025
   45TMC2    O2  710   1.372   3.519   9.330  0.2150  0.5121 -0.2845
   45TMC2    O5  711   1.398   3.320   9.448 -0.2903 -0.4639 -0.5639
   45TMC2    H5  712   1.344   3.242   9.473 -0.4225 -0.5518 -1.1152
   46MPD2     C  713   0.727   2.939   9.391 -0.3890 -0.7576  0.0715
   46MPD2    C1  714   0.697   3.076   9.386 -1.0825  0.0384  0.4693
   46MPD2    C2  715   0.566   3.124   9.366  0.2177  0.0424  0.5775
   46MPD2    C3  716   0.465   3.023   9.359  0.6405 -0.2684  0.1073
   46MPD2    C4  717   0.494   2.890   9.344 -0.6896 -0.0575 -0.6471
   46MPD2    C5  718   0.624   2.853   9.356 -0.4588  0.3037 -0.6254
   46MPD2     H  719   0.537   3.227   9.353 -3.0887 -0.8161  1.2173
   46MPD2    H1  720   0.429   2.806   9.322 -1.3046  0.4728 -0.8265
   46MPD2    H2  721   0.821   2.898   9.425  0.2439  0.9494  0.3763
   46MPD2    H3  722   0.646   2.746   9.358  0.7462  0.5394 -1.2334
   46MPD2     N  723   0.331   3.073   9.348  0.0546 -0.1011  0.3462
   46MPD2    H5  724   0.315   3.172   9.334  0.9553  0.1174  0.8564
   46MPD2    N1  725   0.792   3.179   9.396  0.0961  0.5838  0.1064
   46MPD2    H7  726   0.760   3.274   9.405 -0.9447  0.3168 -0.8883
   47TMC2    C1  727   2.902   3.850   9.179  0.3650  0.5208 -0.0650
   47TMC2    C2  728   2.991   3.754   9.139  0.5641  0.3982  0.5244
   47TMC2    C3  729   2.957   3.695   9.025  0.2128  0.0785 -0.3607
   47TMC2    C4  730   2.791   3.887   9.109  0.3215 -0.8769  0.1045
   47TMC2    C5  731   2.760   3.822   8.996 -0.5700  0.0680  0.0273
   47TMC2    C6  732   2.845   3.726   8.949 -0.3752  0.8743  0.7121
   47TMC2     C  733   2.913   3.914   9.307 -0.7164  0.3503  0.0004
   47TMC2     O  734   2.869   4.028   9.324 -0.3673  0.4042 -0.4294
   47TMC2     H  735   3.075   3.730   9.203 -0.2581 -0.3619  1.3065
   47TMC2    H1  736   2.733   3.971   9.145 -0.3668 -0.0426 -2.9720
   47TMC2    H2  737   2.820   3.673   8.858 -0.7876  2.1746  0.0700
   47TMC2    C7  738   2.639   3.862   8.923 -0.1539  0.0755 -0.3076
   47TMC2    C8  739   3.040   3.600   8.956 -0.8104 -0.3088 -0.6116
   47TMC2    O1  740   2.561   3.915   9.000  1.1721  0.0811 -0.1256
   47TMC2    O2  741   3.028   3.579   8.835  0.0756 -0.0598 -0.0013
   47TMC2    O5  742   3.083   3.504   9.045  0.1729 -0.1498 -0.3707
   47TMC2    H5  743   3.070   3.531   9.138 -3.1695 -1.6300 -0.3979
   48MPD2     C  744   2.965   3.971   9.591  0.4340  0.8188 -0.3747
   48MPD2    C1  745   2.976   3.845   9.535  0.8340  0.2070  0.6825
   48MPD2    C2  746   2.982   3.726   9.615 -0.4481  0.0292  0.9323
   48MPD2    C3  747   2.992   3.741   9.749  0.2749 -0.0727 -0.2029
   48MPD2    C4  748   2.993   3.866   9.809 -0.0701  0.1797  0.1491
   48MPD2    C5  749   2.976   3.977   9.731 -0.3384  0.2610  0.2474
   48MPD2     H  750   2.979   3.627   9.572  3.6419  0.6181 -0.7482
   48MPD2    H1  751   3.004   3.878   9.916  3.6785  1.8083 -0.4137
   48MPD2    H2  752   2.946   4.058   9.528  0.9858  0.5566 -0.9036
   48MPD2    H3  753   2.973   4.069   9.787 -1.0328 -0.7232  1.8388
   48MPD2     N  754   2.991   3.623   9.823  0.1421  0.1846 -0.2781
   48MPD2    H5  755   3.018   3.539   9.774 -2.4307  0.5899 -2.4115
   48MPD2    N1  756   2.956   3.818   9.400 -0.6451  0.5030 -0.0954
   48MPD2    H7  757   2.977   3.729   9.356 -0.9091  1.3515 -1.9603
   49TMC2    C1  758   0.689   1.017   9.732 -0.0542 -0.0132  0.7651
   49TMC2    C2  759   0.669   1.034   9.593  0.7487  0.6759  0.3322
   49TMC2    C3  760   0.562   0.964   9.545 -0.0439  0.0301  0.5248
   49TMC2    C4  761   0.646   0.907   9.799  0.0041  0.8802 -0.0650
   49TMC2    C5  762   0.553   0.834   9.738  0.0418  0.0387 -0.2577
   49TMC2    C6  763   0.507   0.860   9.616  0.2732 -0.3133  0.3926
   49TMC2     C  764   0.807   1.081   9.776 -0.2800 -0.3336  0.3954
   49TMC2     O  765   0.844   1.169   9.700 -0.1654 -0.8646  0.3512
   49TMC2     H  766   0.685   1.130   9.544  0.2333  0.7943  0.3944
   49TMC2    H1  767   0.654   0.903   9.907  0.2948  0.9750 -0.0827
   49TMC2    H2  768   0.443   0.795   9.557  1.0831 -0.0114 -0.8210
   49TMC2    C7  769   0.455   0.746   9.813  0.4688 -0.3961  0.1865
   49TMC2    C8  770   0.539   0.973   9.402  0.6104 -0.1554 -0.3324
   49TMC2    O1  771   0.354   0.719   9.748 -0.4999  0.8214  0.0907
   49TMC2    O2  772   0.447   0.920   9.344  1.0612  0.7063  0.3285
   49TMC2    O5  773   0.647   1.011   9.338 -0.5786 -0.2287 -0.6550
   49TMC2    H5  774   0.708   1.065   9.392 -0.7509 -3.6794  3.0340
   50MPD2     C  775   1.067   1.187   9.847 -0.0611 -0.6579 -0.0321
   50MPD2    C1  776   1.000   1.090   9.924  0.8690  0.0637 -1.1540
   50MPD2    C2  777   1.057   1.040  10.037 -0.1292  0.0013 -0.0135
   50MPD2    C3  778   1.169   1.094  10.095  0.3446 -0.0769  0.0815
   50MPD2    C4  779   1.232   1.192  10.022  0.7453 -0.1351  0.0768
   50MPD2    C5  780   1.180   1.239   9.904 -0.4224 -0.0078  0.6414
   50MPD2     H  781   1.007   0.967  10.100 -0.7534  2.2551  2.0963
   50MPD2    H1  782   1.311   1.247  10.071 -1.9528  1.6844  2.3509
   50MPD2    H2  783   1.039   1.242   9.758 -0.5433  0.1550  0.6209
   50MPD2    H3  784   1.231   1.321   9.853  0.0269 -1.7462 -1.7145
   50MPD2     N  785   1.220   1.072  10.225  0.4541 -0.2188 -0.8651
   50MPD2    H5  786   1.307   1.124  10.238  0.2480  0.9009 -3.9407
   50MPD2    N1  787   0.871   1.043   9.888  0.2854  0.6263 -0.1180
   50MPD2    H7  788   0.830   0.986   9.961  1.4246 -0.1905 -0.1040
   51TMC2    C1  789   1.179   0.970   1.094  0.4505 -0.9936  0.0271
   51TMC2    C2  790   1.137   1.094   1.032  0.5341  0.5526  0.4722
   51TMC2    C3  791   1.231   1.190   1.032 -0.2417 -0.2807  0.0312
   51TMC2    C4  792   1.305   0.952   1.150 -0.1608 -0.2515 -0.4180
   51TMC2    C5  793   1.398   1.056   1.147 -0.0885 -0.1733  0.4818
   51TMC2    C6  794   1.359   1.178   1.083  0.2198 -0.9462  0.4953
   51TMC2     C  795   1.113   0.852   1.060 -0.7034 -0.6100 -0.1891
   51TMC2     O  796   1.164   0.747   1.093 -0.0365  0.4172 -0.6939
   51TMC2     H  797   1.037   1.110   0.994  1.6697 -0.5670 -2.9977
   51TMC2    H1  798   1.326   0.869   1.216  0.2236 -0.5470 -0.9123
   51TMC2    H2  799   1.433   1.257   1.074 -1.1401  0.2896  0.1109
   51TMC2    C7  800   1.531   1.014   1.133 -0.1246  0.7288  0.1304
   51TMC2    C8  801   1.188   1.313   0.959 -0.4642  0.4981  0.3042
   51TMC2    O1  802   1.555   0.891   1.141  0.7789 -0.0632  0.0019
   51TMC2    O2  803   1.080   1.364   0.976 -0.4627  0.1203  0.4530
   51TMC2    O5  804   1.295   1.377   0.909  0.1397 -0.0413 -0.0058
   51TMC2    H5  805   1.365   1.308   0.903 -0.0119 -0.1573 -0.4716
   52MPD2     C  806   0.752   0.587   0.811 -0.0125 -0.1379  0.8127
   52MPD2    C1  807   0.884   0.560   0.841 -0.4783  0.0407 -1.4174
   52MPD2    C2  808   0.969   0.656   0.905 -0.3794  0.4455  0.1133
   52MPD2    C3  809   0.916   0.780   0.932 -0.6862  0.0317  0.3122
   52MPD2    C4  810   0.789   0.812   0.896 -0.8218  0.4275 -0.2489
   52MPD2    C5  811   0.707   0.714   0.851 -0.2406  0.2673 -0.0606
   52MPD2     H  812   1.072   0.626   0.915 -0.5582  0.2774  1.4155
   52MPD2    H1  813   0.744   0.909   0.916 -1.7060 -0.0299 -0.0024
   52MPD2    H2  814   0.689   0.522   0.751 -0.4582  0.9046  0.1505
   52MPD2    H3  815   0.611   0.741   0.809  0.9950  1.7387 -1.9550
   52MPD2     N  816   0.985   0.878   1.010 -0.5076 -0.4827 -0.6001
   52MPD2    H5  817   0.947   0.972   1.017 -1.3891 -1.2067  4.4323
   52MPD2    N1  818   0.937   0.432   0.797 -0.5395  0.1711  0.0755
   52MPD2    H7  819   1.033   0.417   0.828 -0.8497 -1.8225  0.0702
   53TMC2    C1  820   1.519   2.984  11.468  0.5118  0.3860 -0.5628
   53TMC2    C2  821   1.646   2.935  11.495 -0.5378 -0.4601 -0.1970
   53TMC2    C3  822   1.706   2.967  11.611 -0.3678  0.2864  0.3871
   53TMC2    C4  823   1.450   3.055  11.563 -0.1568  0.0465  0.4350
   53TMC2    C5  824   1.512   3.074  11.684 -0.0451 -0.5812 -0.1572
   53TMC2    C6  825   1.641   3.031  11.711  0.2709 -0.4831 -0.1545
   53TMC2     C  826   1.451   2.943  11.350 -0.6952 -0.7398 -0.6840
   53TMC2     O  827   1.489   2.841  11.298  0.6896  1.0079  0.3817
   53TMC2     H  828   1.693   2.871  11.422  0.3595 -0.5940  0.4974
   53TMC2    H1  829   1.347   3.084  11.550  0.4099  1.8350 -0.0152
   53TMC2    H2  830   1.679   3.041  11.812  0.1418 -1.6617  0.0193
   53TMC2    C7  831   1.456   3.174  11.782 -0.2510 -0.6136  0.1498
   53TMC2    C8  832   1.837   2.924  11.642  0.4084 -0.1824  0.3428
   53TMC2    O1  833   1.343   3.205  11.754  0.8399 -0.7030  0.5904
   53TMC2    O2  834   1.918   2.989  11.708 -0.2218 -0.1260  0.0572
   53TMC2    O5  835   1.849   2.796  11.614 -0.0598 -0.2960  0.3744
   53TMC2    H5  836   1.767   2.746  11.596 -0.1101 -0.6927  1.7163
   54MPD2     C  837   1.267   2.912  11.122  0.0946 -0.2996 -0.3637
   54MPD2    C1  838   1.247   3.007  11.217 -0.0383  0.5057  0.4279
   54MPD2    C2  839   1.132   3.078  11.235  0.0668  0.0078  0.3259
   54MPD2    C3  840   1.032   3.059  11.139 -0.0178  0.0390  0.3073
   54MPD2    C4  841   1.034   2.953  11.052  0.4343  0.0730  0.2079
   54MPD2    C5  842   1.155   2.888  11.043  0.1078 -0.2114 -0.0023
   54MPD2     H  843   1.120   3.151  11.315  1.5474  0.7050 -0.0916
   54MPD2    H1  844   0.954   2.915  10.989 -0.2647  1.6186  0.1626
   54MPD2    H2  845   1.362   2.862  11.107 -0.1451 -0.6645 -0.6844
   54MPD2    H3  846   1.160   2.807  10.970  0.0622 -2.8335  2.8804
   54MPD2     N  847   0.908   3.133  11.153 -0.4350  0.3229  0.1895
   54MPD2    H5  848   0.832   3.104  11.092  0.0323 -1.2850  0.3802
   54MPD2    N1  849   1.344   3.028  11.318 -0.3421 -1.1224 -0.1365
   54MPD2    H7  850   1.324   3.110  11.374  0.7311  0.9287 -2.7412
   55TMC2    C1  851   2.298   0.912  17.671  0.7474 -0.8431 -0.1059
   55TMC2    C2  852   2.343   0.839  17.565  0.0516 -0.4211 -0.5087
   55TMC2    C3  853   2.366   0.703  17.591 -0.3733  0.7488  0.3348
   55TMC2    C4  854   2.286   0.852   0.052 -0.5551  0.4262 -0.0664
   55TMC2    C5  855   2.300   0.718   0.065  0.1712 -0.4407 -0.0051
   55TMC2    C6  856   2.354   0.646  17.711  0.4627 -0.4535 -0.1758
   55TMC2     C  857   2.246   1.045  17.651  0.1550  0.3580  0.3436
   55TMC2     O  858   2.159   1.075  17.733  0.1658  0.6652 -0.1824
   55TMC2     H  859   2.339   0.860  17.459  0.1727 -1.5529 -0.7382
   55TMC2    H1  860   2.243   0.909   0.134  2.3669  0.8091  1.2017
   55TMC2    H2  861   2.356   0.539  17.731 -0.2134 -0.5351 -0.5297
   55TMC2    C7  862   2.260   0.656   0.192 -0.3691 -0.4536  0.0011
   55TMC2    C8  863   2.433   0.633  17.488 -0.4811 -0.8869  0.2288
   55TMC2    O1  864   2.329   0.557   0.219 -0.2935  0.3131 -0.1282
   55TMC2    O2  865   2.454   0.666  17.371 -0.0729  0.3720 -0.4469
   55TMC2    O5  866   2.498   0.530  17.543  0.0412  0.1069  0.4080
   55TMC2    H5  867   2.520   0.528  17.639 -0.1641  2.4109  0.5017
   56MPD2     C  868   2.273   1.283  17.363 -0.1846  0.0132 -0.8216
   56MPD2    C1  869   2.232   1.233  17.485  0.2343  1.3263 -0.4785
   56MPD2    C2  870   2.152   1.317  17.562  0.2190  0.3627  0.8691
   56MPD2    C3  871   2.116   1.449  17.527 -0.4273 -0.4292 -0.2625
   56MPD2    C4  872   2.154   1.491  17.404 -0.3278  0.1299 -0.1640
   56MPD2    C5  873   2.233   1.412  17.321  0.4576 -0.9513 -0.7964
   56MPD2     H  874   2.146   1.295  17.668 -1.3680  1.2635  0.9536
   56MPD2    H1  875   2.114   1.582  17.361 -0.3371  1.0812  1.8691
   56MPD2    H2  876   2.339   1.225  17.298  0.5147  1.3247 -1.2943
   56MPD2    H3  877   2.261   1.450  17.223 -0.3079  1.8691  0.0880
   56MPD2     N  878   2.034   1.531  17.608  0.3080  0.3107  0.3935
   56MPD2    H5  879   2.030   1.629  17.582  1.7655  0.0966 -0.6681
   56MPD2    N1  880   2.285   1.113  17.534 -0.0618  0.1941  0.0565
   56MPD2    H7  881   2.371   1.081  17.490 -0.2415 -2.6195  1.7899
   57TMC2    C1  882   1.227   2.017  12.786  0.2214 -0.6540 -0.7788
   57TMC2    C2  883   1.193   2.084  12.673 -0.3750 -0.8317 -0.3361
   57TMC2    C3  884   1.290   2.148  12.599  0.2938  0.1879 -0.5616
   57TMC2    C4  885   1.357   2.027  12.834  0.1461 -0.3112 -0.2375
   57TMC2    C5  886   1.449   2.100  12.763 -0.9740  0.3374 -0.1620
   57TMC2    C6  887   1.420   2.163  12.646 -0.4188 -0.7646 -0.4047
   57TMC2     C  888   1.132   1.979  12.873 -0.0983  0.7612  0.8176
   57TMC2     O  889   1.157   1.969  12.994 -0.6564  0.0763  0.2887
   57TMC2     H  890   1.088   2.104  12.654 -0.7668 -0.2466  2.5330
   57TMC2    H1  891   1.373   1.961  12.918  2.6161  0.5106 -0.0455
   57TMC2    H2  892   1.492   2.225  12.594 -0.8797  0.7520  0.7656
   57TMC2    C7  893   1.590   2.083  12.781  0.1999  0.2346 -0.0174
   57TMC2    C8  894   1.265   2.184  12.458 -0.2680 -1.3192 -0.6567
   57TMC2    O1  895   1.670   2.166  12.737  0.4056 -0.4837  0.1161
   57TMC2    O2  896   1.324   2.135  12.365 -0.1366  1.0444 -0.1512
   57TMC2    O5  897   1.143   2.238  12.454  0.0425  0.3356  0.2533
   57TMC2    H5  898   1.128   2.290  12.535  1.7837  4.0736 -1.8120
   58MPD2     C  899   0.653   1.839  12.980 -0.8357  0.6097  0.0244
   58MPD2    C1  900   0.743   1.910  13.051  0.2186  0.2751 -0.9045
   58MPD2    C2  901   0.868   1.932  12.997 -0.2689  0.1181  0.1963
   58MPD2    C3  902   0.901   1.886  12.871 -0.5803 -0.0609 -0.2115
   58MPD2    C4  903   0.814   1.803  12.804  0.5289 -0.0171  0.2794
   58MPD2    C5  904   0.686   1.783  12.860  0.0779  0.6205  0.0827
   58MPD2     H  905   0.936   1.991  13.058 -1.5862  3.2890 -1.4369
   58MPD2    H1  906   0.841   1.755  12.710 -3.0392  1.8309 -1.6832
   58MPD2    H2  907   0.558   1.811  13.022 -0.0710  1.3631  2.2377
   58MPD2    H3  908   0.616   1.713  12.816  0.4541 -0.1951  0.7689
   58MPD2     N  909   1.027   1.915  12.810  0.6550 -0.0610 -0.4073
   58MPD2    H5  910   1.041   1.880  12.716  0.6492  0.3135 -0.5473
   58MPD2    N1  911   0.731   1.947  13.185 -0.5870  0.4834 -0.1683
   58MPD2    H7  912   0.811   1.998  13.222 -0.6352  0.2415  0.2754
   59TMC2    C1  913   3.967   2.097  12.687  0.2203 -0.5585 -0.7752
   59TMC2    C2  914   3.984   1.956  12.707 -0.4337  0.4582  0.8401
   59TMC2    C3  915   3.944   1.879  12.601  0.0903  0.3352 -0.4615
   59TMC2    C4  916   3.921   2.163  12.571 -0.0757 -0.1481 -0.6683
   59TMC2    C5  917   3.876   2.075  12.474  0.5558  0.3546 -0.1744
   59TMC2    C6  918   3.885   1.938  12.487 -0.9839 -0.0569 -0.4654
   59TMC2     C  919   3.948   2.184  12.805  0.0931 -0.0007  0.3534
   59TMC2     O  920   3.864   2.274  12.794 -0.7652 -0.3819  0.5109
   59TMC2     H  921   4.014   1.908  12.799  1.1207 -1.6093 -0.7421
   59TMC2    H1  922   3.900   2.268  12.560 -0.2920  0.0742  1.8156
   59TMC2    H2  923   3.845   1.870  12.413 -0.8202 -1.0625  0.3711
   59TMC2    C7  924   3.909   2.113  12.344 -0.1387  0.2282  0.1583
   59TMC2    C8  925   3.982   1.735  12.608  0.4325  0.5338  0.1226
   59TMC2    O1  926   3.938   2.015  12.278 -0.6232 -0.3835 -0.1908
   59TMC2    O2  927   4.091   1.695  12.647  0.1184  0.8055 -0.0715
   59TMC2    O5  928   3.887   1.677  12.530 -0.1757 -0.4851 -0.1418
   59TMC2    H5  929   3.796   1.702  12.555 -0.9306 -3.0913 -0.2858
   60MPD2     C  930   3.933   2.299  13.079  0.7006  0.7113 -0.1804
   60MPD2    C1  931   4.034   2.223  13.035  0.0062 -0.2238  0.6858
   60MPD2    C2  932   4.146   2.214  13.121 -0.2616 -0.5430  0.3439
   60MPD2    C3  933   4.148   2.279  13.241 -0.0667  0.4056 -0.4870
   60MPD2    C4  934   4.050   2.364  13.274 -0.6532 -0.2406 -0.1558
   60MPD2    C5  935   3.940   2.369  13.197  0.2059 -0.2636 -0.5651
   60MPD2     H  936   4.215   2.133  13.099  0.8097 -0.1293  2.1974
   60MPD2    H1  937   4.062   2.420  13.366 -3.6366 -0.1914  0.1854
   60MPD2    H2  938   3.839   2.297  13.025  0.6333  0.4526 -0.0541
   60MPD2    H3  939   3.857   2.432  13.227  0.3610  0.0805 -0.8586
   60MPD2     N  940   4.259   2.272  13.338  0.0812  0.2420 -0.4470
   60MPD2    H5  941   4.256   2.329  13.422 -1.0338 -0.6591  0.1348
   60MPD2    N1  942   4.033   2.158  12.911 -0.0013  0.3216 -0.2702
   60MPD2    H7  943   4.112   2.102  12.881  0.1093  0.1112  0.4244
   61TMC2    C1  944   3.029   3.556  15.402 -0.0472 -0.5302 -0.5001
   61TMC2    C2  945   3.023   3.503  15.528 -0.2923 -0.1513  0.5427
   61TMC2    C3  946   2.998   3.590  15.628 -0.5500 -0.7052  0.0782
   61TMC2    C4  947   3.037   3.692  15.372  0.1065 -0.0872  0.0314
   61TMC2    C5  948   3.016   3.775  15.478 -0.1977  0.6563 -0.3460
   61TMC2    C6  949   2.996   3.725  15.603  0.4984  0.3525 -0.5668
   61TMC2     C  950   3.069   3.463  15.297  0.4711 -0.1481 -0.2165
   61TMC2     O  951   3.092   3.346  15.320 -0.0524 -0.5613 -0.3639
   61TMC2     H  952   3.009   3.397  15.548 -2.1993  0.2165  1.1643
   61TMC2    H1  953   3.026   3.732  15.273 -0.3790 -0.8294 -0.2221
   61TMC2    H2  954   2.986   3.788  15.691  0.4024 -0.6192  0.1151
   61TMC2    C7  955   3.028   3.912  15.448  0.1925 -0.7150 -0.3086
   61TMC2    C8  956   2.968   3.547  15.757  0.1657  0.2419  0.3445
   61TMC2    O1  957   3.051   3.941  15.334  0.2052  0.2466 -0.2524
   61TMC2    O2  958   2.916   3.617  15.842  0.5132  0.3602 -0.3089
   61TMC2    O5  959   3.037   3.429  15.779 -0.2270  0.5355 -0.0569
   61TMC2    H5  960   3.089   3.402  15.700 -1.3742  0.8406 -0.9294
   62MPD2     C  961   3.080   3.351  15.031  0.3443 -0.2934  0.0995
   62MPD2    C1  962   3.134   3.473  15.058  0.0110  0.1001  0.4128
   62MPD2    C2  963   3.198   3.549  14.964  0.4165  0.6177  0.1834
   62MPD2    C3  964   3.210   3.503  14.830  0.5397  0.0204  0.6230
   62MPD2    C4  965   3.128   3.400  14.798 -0.5889 -0.1501  0.4666
   62MPD2    C5  966   3.057   3.332  14.897 -0.1679  0.2519 -0.0143
   62MPD2     H  967   3.235   3.649  14.988  3.7814 -0.3036 -1.1550
   62MPD2    H1  968   3.116   3.381  14.692 -0.3493  1.0665  0.2261
   62MPD2    H2  969   3.033   3.295  15.111  0.9970 -1.1623 -0.1239
   62MPD2    H3  970   3.000   3.249  14.857 -0.5052  0.5118 -0.0659
   62MPD2     N  971   3.287   3.572  14.735 -0.0136  0.0011 -0.1102
   62MPD2    H5  972   3.300   3.520  14.649  0.4724 -0.5556  0.3046
   62MPD2    N1  973   3.114   3.534  15.184 -0.5012 -0.1877 -0.1171
   62MPD2    H7  974   3.124   3.635  15.185  0.0381 -0.2470  0.3571
   63TMC2    C1  975   2.323   3.815  10.737  0.5561 -0.0022 -0.4417
   63TMC2    C2  976   2.341   3.915  10.835  0.7848  0.1348  0.6867
   63TMC2    C3  977   2.447   3.995  10.829  0.1797 -0.5074 -0.3859
   63TMC2    C4  978   2.402   3.814  10.623 -0.9037  0.1556  0.4835
   63TMC2    C5  979   2.511   3.899  10.628 -0.3905 -0.4656 -0.2956
   63TMC2    C6  980   2.529   3.995  10.722  0.0727 -0.3041 -0.6507
   63TMC2     C  981   2.189   3.764  10.719  0.1480  0.6796  0.1379
   63TMC2     O  982   2.095   3.827  10.766 -0.4330  0.1203 -0.1286
   63TMC2     H  983   2.263   3.926  10.910 -1.2184  0.2648 -1.3938
   63TMC2    H1  984   2.387   3.746  10.541 -1.7363 -0.2872  1.0028
   63TMC2    H2  985   2.615   4.060  10.729  0.0963 -0.3398 -0.6101
   63TMC2    C7  986   2.567   3.932  10.499  0.3411  0.0407  0.3940
   63TMC2    C8  987   2.457   4.102  10.931 -0.8756 -0.0818  0.1414
   63TMC2    O1  988   2.520   3.871  10.404  0.1326 -0.0616 -0.1892
   63TMC2    O2  989   2.565   4.152  10.957  0.1471  0.4456  0.5402
   63TMC2    O5  990   2.335   4.156  10.952 -0.4133  0.4841  0.4273
   63TMC2    H5  991   2.259   4.104  10.918  1.2728 -2.8984  1.7696
   64MPD2     C  992   1.896   3.336  10.684 -0.5520  0.1226 -0.0900
   64MPD2    C1  993   2.026   3.299  10.675  0.4554  0.0498  0.6001
   64MPD2    C2  994   2.118   3.403  10.677  0.1151 -1.1194 -0.0568
   64MPD2    C3  995   2.090   3.539  10.695 -0.0214 -0.4049  1.2532
   64MPD2    C4  996   1.961   3.575  10.692 -0.8190  0.1581 -0.3254
   64MPD2    C5  997   1.867   3.473  10.686 -0.1212 -0.4265 -0.5648
   64MPD2     H  998   2.221   3.375  10.660  0.1722 -1.1051  0.2796
   64MPD2    H1  999   1.932   3.679  10.688  0.3447  0.5369  1.3721
   64MPD2    H2 1000   1.819   3.262  10.704 -0.1244 -0.9441 -2.4400
   64MPD2    H3 1001   1.766   3.510  10.681 -0.5168 -1.4848 -0.5030
   64MPD2     N 1002   2.201   3.629  10.691  0.1276  0.4154  0.2540
   64MPD2    H5 1003   2.296   3.594  10.686 -0.1496 -0.4347  0.9774
   64MPD2    N1 1004   2.072   3.165  10.687  0.0043 -0.2800 -0.3095
   64MPD2    H7 1005   2.173   3.154  10.688 -0.1163 -1.6305 -2.8316
   65TMC2    C1 1006   3.316   3.084  15.393 -0.0274 -0.5236 -0.3691
   65TMC2    C2 1007   3.288   3.026  15.270  0.4226  0.1758  0.0749
   65TMC2    C3 1008   3.318   3.106  15.159  0.8698  0.3424  0.6701
   65TMC2    C4 1009   3.371   3.211  15.407 -0.3010  0.1504  0.6200
   65TMC2    C5 1010   3.390   3.280  15.289 -0.3734  0.6131  0.0989
   65TMC2    C6 1011   3.357   3.230  15.165 -0.5578 -0.3369  0.1594
   65TMC2     C 1012   3.319   3.001  15.514 -0.6534 -0.6196  0.1372
   65TMC2     O 1013   3.321   3.061  15.620 -0.5632  0.3995 -0.2808
   65TMC2     H 1014   3.220   2.943  15.257 -1.7615  1.9107  0.3817
   65TMC2    H1 1015   3.405   3.249  15.503 -0.2049 -0.0951  0.6843
   65TMC2    H2 1016   3.354   3.291  15.075  0.6580  0.9829  1.0122
   65TMC2    C7 1017   3.445   3.411  15.292 -0.5610  0.3248  0.1532
   65TMC2    C8 1018   3.289   3.051  15.022 -1.0235 -0.5091 -0.1100
   65TMC2    O1 1019   3.501   3.454  15.195 -0.2040 -0.9155  0.3444
   65TMC2    O2 1020   3.293   3.108  14.912  0.4495  0.8494 -0.0822
   65TMC2    O5 1021   3.285   2.912  15.043 -0.3451  0.1495  0.0439
   65TMC2    H5 1022   3.319   2.882  15.130 -0.3659  0.3530  0.1210
   66MPD2     C 1023   3.358   2.789  15.712  0.1502 -0.0215  0.0503
   66MPD2    C1 1024   3.334   2.757  15.578 -0.2702 -0.3506 -0.0237
   66MPD2    C2 1025   3.331   2.626  15.533 -0.4446 -0.4008  0.2620
   66MPD2    C3 1026   3.362   2.529  15.625  0.4856 -0.0074  0.5965
   66MPD2    C4 1027   3.393   2.563  15.757  1.0074  0.2082 -0.3781
   66MPD2    C5 1028   3.396   2.692  15.801 -0.2050 -0.2738 -0.5982
   66MPD2     H 1029   3.300   2.597  15.433  0.3021  2.9514 -0.9583
   66MPD2    H1 1030   3.421   2.477  15.817  0.2898  0.1910 -0.0643
   66MPD2    H2 1031   3.366   2.889  15.752  0.1968  0.3170 -0.8003
   66MPD2    H3 1032   3.425   2.712  15.903 -1.2750 -0.0985 -0.3257
   66MPD2     N 1033   3.361   2.391  15.592  0.3521  0.6198  0.2431
   66MPD2    H5 1034   3.388   2.329  15.667 -1.7255 -2.2790 -1.4297
   66MPD2    N1 1035   3.322   2.865  15.485 -0.2073  0.1059 -0.1777
   66MPD2    H7 1036   3.315   2.831  15.390  0.4994  1.9991 -0.9197
   67TMC2    C1 1037   4.276   2.470  13.905  0.2832  0.7720  0.2119
   67TMC2    C2 1038   4.274   2.606  13.917 -0.3182  0.5414  0.0702
   67TMC2    C3 1039   4.262   2.661  14.044  0.3142  0.6363 -0.6308
   67TMC2    C4 1040   4.261   2.391  14.016 -0.3686 -0.5160  0.3630
   67TMC2    C5 1041   4.248   2.447  14.141  0.2636 -0.7235  1.3099
   67TMC2    C6 1042   4.245   2.581  14.157 -0.1731 -0.2376  0.6699
   67TMC2     C 1043   4.216   2.400  13.796  0.1775  0.1485  0.2336
   67TMC2     O 1044   4.240   2.284  13.765  0.0614 -0.1577  0.1841
   67TMC2     H 1045   4.307   2.666  13.834 -2.8309  1.1588 -0.4880
   67TMC2    H1 1046   4.257   2.284  14.003 -2.6671 -0.4740  0.6551
   67TMC2    H2 1047   4.251   2.629  14.254 -0.4291  1.6720 -0.2695
   67TMC2    C7 1048   4.250   2.366  14.256  0.7960  0.7330 -0.4798
   67TMC2    C8 1049   4.290   2.800  14.064  0.4046 -0.4763  0.0613
   67TMC2    O1 1050   4.288   2.251  14.237 -0.7384 -0.4599 -0.2958
   67TMC2    O2 1051   4.337   2.840  14.165 -0.6692  0.5623 -0.6505
   67TMC2    O5 1052   4.224   2.868  13.971  0.1758 -0.0086  0.2251
   67TMC2    H5 1053   4.177   2.810  13.907  1.2359 -1.5510  0.8583
   68MPD2     C 1054   4.002   2.303  13.616 -0.2974 -0.6595  0.1074
   68MPD2    C1 1055   3.990   2.414  13.697  0.5039 -0.4167 -0.2994
   68MPD2    C2 1056   3.863   2.466  13.715  0.5910 -0.1929 -0.1899
   68MPD2    C3 1057   3.756   2.403  13.659  0.3220  0.3295 -0.0397
   68MPD2    C4 1058   3.768   2.306  13.567 -0.0186 -0.3347 -0.4865
   68MPD2    C5 1059   3.890   2.261  13.542  0.3295 -0.2212 -0.1555
   68MPD2     H 1060   3.861   2.547  13.787 -2.8072 -2.0784  1.8538
   68MPD2    H1 1061   3.687   2.256  13.515 -0.8683  0.0296  0.4914
   68MPD2    H2 1062   4.095   2.254  13.592  1.0188  2.1177 -0.3961
   68MPD2    H3 1063   3.897   2.192  13.458 -1.5464  0.2852 -0.7286
   68MPD2     N 1064   3.627   2.453  13.693 -0.0676 -0.0793 -0.6129
   68MPD2    H5 1065   3.546   2.414  13.645  0.1269  1.0614 -1.8610
   68MPD2    N1 1066   4.095   2.462  13.778  0.4969  0.9832  0.3377
   68MPD2    H7 1067   4.078   2.550  13.825 -1.1210  0.1424  1.3005
   69TMC2    C1 1068   1.291   3.739  12.318 -0.1355  1.0378  0.3713
   69TMC2    C2 1069   1.196   3.730  12.220  0.8559 -0.0214 -0.0757
   69TMC2    C3 1070   1.239   3.697  12.098  0.2474  0.0876  0.4577
   69TMC2    C4 1071   1.425   3.703  12.297  0.3029 -0.6642  0.7640
   69TMC2    C5 1072   1.460   3.683  12.169 -1.2427  1.1290 -0.4715
   69TMC2    C6 1073   1.369   3.682  12.065  0.2510  0.2264 -0.4947
   69TMC2     C 1074   1.236   3.713  12.447 -0.7650  0.0038  0.1737
   69TMC2     O 1075   1.128   3.660  12.463 -0.1166 -0.2433 -0.0992
   69TMC2     H 1076   1.093   3.757  12.240  1.3206  0.8505  1.1158
   69TMC2    H1 1077   1.495   3.705  12.380  0.1908  0.8125  0.8263
   69TMC2    H2 1078   1.399   3.654  11.965 -1.0361 -2.7115 -0.0440
   69TMC2    C7 1079   1.599   3.646  12.137  0.0034 -0.4911  0.5320
   69TMC2    C8 1080   1.146   3.728  11.997  0.5057 -0.6884  0.2831
   69TMC2    O1 1081   1.645   3.655  12.022 -0.0427  0.1680 -0.4420
   69TMC2    O2 1082   1.027   3.731  12.028  0.2817  0.4658 -0.0459
   69TMC2    O5 1083   1.209   3.812  11.909  0.1904 -0.1978  0.0838
   69TMC2    H5 1084   1.305   3.824  11.926  0.4392 -0.2708 -1.3107
   70MPD2     C 1085   1.366   3.821  12.777  0.9411 -0.2662  0.3743
   70MPD2    C1 1086   1.290   3.744  12.689 -0.0215 -0.1508 -0.3334
   70MPD2    C2 1087   1.222   3.634  12.738 -0.2753 -0.1883  0.1198
   70MPD2    C3 1088   1.236   3.595  12.872 -0.0233 -0.5775 -0.3578
   70MPD2    C4 1089   1.300   3.680  12.961 -0.3182  0.1363  0.3487
   70MPD2    C5 1090   1.358   3.797  12.911 -0.4509  0.5847  0.5527
   70MPD2     H 1091   1.177   3.568  12.665 -1.3731  1.9961 -1.1664
   70MPD2    H1 1092   1.307   3.652  13.065 -0.2017 -0.7896  0.0906
   70MPD2    H2 1093   1.420   3.910  12.746 -1.3728  0.4556 -1.5538
   70MPD2    H3 1094   1.392   3.873  12.981  0.9367  0.3321  0.1536
   70MPD2     N 1095   1.196   3.479  12.925  0.0637  0.0501  0.4457
   70MPD2    H5 1096   1.248   3.443  13.005 -0.5753 -1.5648  0.1168
   70MPD2    N1 1097   1.305   3.771  12.548  0.3372 -0.2789  0.3382
   70MPD2    H7 1098   1.376   3.837  12.517 -0.2773  0.6950  1.0068
   71TMC2    C1 1099   0.105   4.381   0.609 -0.3511  0.4956  0.6300
   71TMC2    C2 1100   0.226   4.333   0.578 -0.3433 -0.0962  0.9127
   71TMC2    C3 1101   0.303   4.305   0.679  0.0168 -0.0597  0.0639
   71TMC2    C4 1102   0.053   4.375   0.733 -0.9953 -0.1460  0.0180
   71TMC2    C5 1103   0.135   4.330   0.834 -0.2364 -0.3023 -0.5449
   71TMC2    C6 1104   0.270   4.309   0.810 -0.0759  0.1385 -0.5103
   71TMC2     C 1105   0.024   4.453   0.509  0.7467  0.2840  0.0759
   71TMC2     O 1106   4.642   4.457   0.543  0.4394  0.1019 -0.4741
   71TMC2     H 1107   0.257   4.322   0.475 -0.5722  1.3372  0.6901
   71TMC2    H1 1108   4.694   4.422   0.756 -1.3580 -1.7006  1.6494
   71TMC2    H2 1109   0.336   4.272   0.887 -1.5243 -1.3414  0.0346
   71TMC2    C7 1110   0.101   4.368   0.967  0.4145  0.3720 -0.5379
   71TMC2    C8 1111   0.393   4.203   0.648 -1.0466  0.4854  0.2619
   71TMC2    O1 1112   0.199   4.371   1.045 -0.3128  0.6959 -0.8243
   71TMC2    O2 1113   0.380   4.127   0.556  0.0657 -0.1703 -0.1089
   71TMC2    O5 1114   0.511   4.252   0.687  0.0425  0.0545  0.1444
   71TMC2    H5 1115   0.503   4.337   0.734  0.7402 -0.1168  0.5766
   72MPD2     C 1116   4.680   4.716   0.086  0.6906 -0.0988 -0.4286
   72MPD2    C1 1117   4.586   4.675   0.179  0.9170  0.1572 -0.0587
   72MPD2    C2 1118   4.636   4.592   0.281 -0.0799 -0.5019 -0.0780
   72MPD2    C3 1119   0.034   4.564   0.291 -0.1688  0.0018  0.4065
   72MPD2    C4 1120   0.123   4.611   0.198  0.1741  0.3182 -0.6048
   72MPD2    C5 1121   0.072   4.680   0.092 -0.1703  0.4231  0.0821
   72MPD2     H 1122   4.563   4.550   0.349 -0.3878  0.0648 -0.0635
   72MPD2    H1 1123   0.228   4.584   0.195  0.6209  1.9103  0.7981
   72MPD2    H2 1124   4.655   0.051   0.008 -0.4463  1.1174  1.0582
   72MPD2    H3 1125   0.137   4.708   0.010  0.3155  0.5981  0.5270
   72MPD2     N 1126   0.093   4.496   0.398 -0.0945 -0.1636 -0.3239
   72MPD2    H5 1127   0.192   4.474   0.404  0.2247  1.4145  0.2063
   72MPD2    N1 1128   4.455   4.727   0.173  0.0233  0.3049 -0.6008
   72MPD2    H7 1129   4.402   4.700   0.255 -0.1669  1.5521 -0.3142
   73TMC2    C1 1130   2.826   1.576  13.889  0.6092  0.0947  0.0468
   73TMC2    C2 1131   2.762   1.485  13.809 -0.2460 -0.1057  0.4550
   73TMC2    C3 1132   2.764   1.355  13.858  0.2650 -0.1459  0.4515
   73TMC2    C4 1133   2.897   1.533  13.998 -0.2139 -0.1818  0.1395
   73TMC2    C5 1134   2.914   1.397  14.023 -0.3174 -0.6837 -0.1226
   73TMC2    C6 1135   2.848   1.297  13.947 -0.0761  0.4377  0.2168
   73TMC2     C 1136   2.877   1.698  13.824 -0.4529  0.1171  0.0604
   73TMC2     O 1137   2.932   1.778  13.895 -0.2582  0.7007 -0.4765
   73TMC2     H 1138   2.681   1.509  13.741 -0.9240 -0.8829  1.0007
   73TMC2    H1 1139   2.936   1.610  14.064  0.8910 -0.5474 -0.0862
   73TMC2    H2 1140   2.847   1.190  13.965  0.0579  0.3449 -0.3512
   73TMC2    C7 1141   3.046   1.358  14.077 -0.0368  0.6904 -0.3841
   73TMC2    C8 1142   2.685   1.260  13.781 -0.3590  0.2832  0.6750
   73TMC2    O1 1143   3.076   1.239  14.105  0.1285  0.3426  0.1129
   73TMC2    O2 1144   2.658   1.157  13.841  0.0866 -0.0660 -0.0430
   73TMC2    O5 1145   2.751   1.265  13.669 -0.2645 -0.4440  0.1539
   73TMC2    H5 1146   2.784   1.358  13.661 -3.1143  0.3656 -2.2061
   74MPD2     C 1147   3.093   1.951  13.444 -0.3596  0.3693 -0.1413
   74MPD2    C1 1148   3.146   1.923  13.570 -0.7570  0.1352 -0.1217
   74MPD2    C2 1149   3.070   1.841  13.649 -0.5659 -0.0447 -0.4880
   74MPD2    C3 1150   2.954   1.780  13.597  0.1215 -0.1882 -0.4439
   74MPD2    C4 1151   2.902   1.810  13.477  0.2561  0.8850  1.4216
   74MPD2    C5 1152   2.971   1.897  13.402  0.4547  0.8019  0.4608
   74MPD2     H 1153   3.102   1.803  13.745 -1.0293 -1.2608 -0.8071
   74MPD2    H1 1154   2.807   1.774  13.440  0.0227  2.1178  0.8039
   74MPD2    H2 1155   3.141   2.021  13.377 -0.1275  0.1559 -0.2002
   74MPD2    H3 1156   2.936   1.931  13.305 -1.7895 -1.3282  0.5304
   74MPD2     N 1157   2.877   1.699  13.684 -0.0586 -0.2215 -0.3602
   74MPD2    H5 1158   2.827   1.621  13.643  0.0180 -0.2761 -0.3492
   74MPD2    N1 1159   3.281   1.965  13.601  0.6567  0.3851  0.5511
   74MPD2    H7 1160   3.329   2.015  13.526 -1.5945  0.9271 -0.5214
   75TMC2    C1 1161   3.454   2.566  13.804  0.4439 -0.6265  0.1251
   75TMC2    C2 1162   3.396   2.604  13.924 -0.7550  0.0559 -0.1426
   75TMC2    C3 1163   3.268   2.645  13.926 -0.4251 -0.9917  0.4503
   75TMC2    C4 1164   3.384   2.571  13.687  0.7384 -0.1427 -0.5388
   75TMC2    C5 1165   3.259   2.622  13.698  0.2434 -0.2245  0.0470
   75TMC2    C6 1166   3.194   2.650  13.814 -0.1806 -0.3371  0.7679
   75TMC2     C 1167   3.596   2.539  13.800 -0.5153  0.2722 -0.7029
   75TMC2     O 1168   3.663   2.566  13.899 -0.7350  1.0015 -0.1186
   75TMC2     H 1169   3.457   2.611  14.014 -0.3154  0.3781 -0.4625
   75TMC2    H1 1170   3.437   2.570  13.593 -0.4179 -0.3541 -1.1843
   75TMC2    H2 1171   3.091   2.679  13.829 -0.1936 -0.7229  1.4364
   75TMC2    C7 1172   3.189   2.635  13.573 -0.3612 -0.4759 -0.1994
   75TMC2    C8 1173   3.212   2.681  14.061 -0.0384 -0.0494  0.0658
   75TMC2    O1 1174   3.233   2.564  13.478 -0.2928  0.7829  0.1181
   75TMC2    O2 1175   3.240   2.626  14.165 -0.2619 -0.1385  0.1537
   75TMC2    O5 1176   3.211   2.815  14.044 -0.5469  0.0875 -0.6899
   75TMC2    H5 1177   3.191   2.838  13.950  2.0923  0.1586 -1.2482
   76TMC2    C1 1178   2.738   2.470  11.772  0.1591  0.1368 -0.0159
   76TMC2    C2 1179   2.674   2.347  11.750 -0.2055  0.0643 -0.0984
   76TMC2    C3 1180   2.738   2.234  11.744 -0.9820  0.7935 -0.1449
   76TMC2    C4 1181   2.872   2.473  11.804 -0.0855 -0.4701 -0.1869
   76TMC2    C5 1182   2.935   2.357  11.803  0.3457 -0.6263 -0.2721
   76TMC2    C6 1183   2.875   2.240  11.760 -0.2376 -0.1363 -0.4029
   76TMC2     C 1184   2.661   2.575  11.834 -0.2884 -0.1908 -0.6759
   76TMC2     O 1185   2.710   2.684  11.809 -0.0638 -0.1999  0.1786
   76TMC2     H 1186   2.567   2.350  11.737 -0.3144 -3.4295  0.1360
   76TMC2    H1 1187   2.922   2.566  11.829 -2.3639  0.6593  0.2443
   76TMC2    H2 1188   2.930   2.147  11.772 -1.1335 -0.5092  0.7870
   76TMC2    C7 1189   3.084   2.352  11.828  0.3242  0.3523 -0.9074
   76TMC2    C8 1190   2.678   2.104  11.744 -1.1778  0.4901 -0.3357
   76TMC2    O1 1191   3.146   2.265  11.773  0.3101 -0.3297 -1.1408
   76TMC2    O2 1192   2.741   2.000  11.749  0.1144  0.4414 -0.2267
   76TMC2    O5 1193   2.559   2.103  11.678  0.1795 -0.4024 -0.8382
   76TMC2    H5 1194   2.522   2.193  11.670 -2.1946 -1.3788 -0.9774
   77MPD2     C 1195   2.245   2.764  12.062  0.0065  0.8619  0.0299
   77MPD2    C1 1196   2.330   2.816  11.967 -0.1865 -0.4764  0.7757
   77MPD2    C2 1197   2.435   2.742  11.920  0.1311 -0.2319  0.4562
   77MPD2    C3 1198   2.456   2.610  11.957  0.0714 -0.5039 -0.0405
   77MPD2    C4 1199   2.364   2.557  12.051  0.0145 -0.7055  0.0829
   77MPD2    C5 1200   2.253   2.629  12.092  0.0236 -0.1372  0.5970
   77MPD2     H 1201   2.503   2.792  11.852  0.6148 -1.6568 -0.1109
   77MPD2    H1 1202   2.375   2.453  12.080 -1.5900 -1.5408 -2.3242
   77MPD2    H2 1203   2.175   2.828  12.113 -0.0548  0.0234  1.0085
   77MPD2    H3 1204   2.178   2.591  12.161 -1.5163 -1.1060 -1.5892
   77MPD2     N 1205   2.560   2.528  11.909  0.4509 -0.1368  0.6711
   77MPD2    H5 1206   2.563   2.430  11.938 -0.2717  0.3607  2.4187
   77MPD2    N1 1207   2.319   2.953  11.919 -0.2883 -0.5966  0.1631
   77MPD2    H7 1208   2.377   2.997  11.849 -0.8882 -0.3914 -0.2069
   78TMC2    C1 1209   3.543   4.017   1.521 -0.3027 -0.3167  0.4674
   78TMC2    C2 1210   3.464   3.912   1.485  0.2561 -0.5749  0.2181
   78TMC2    C3 1211   3.528   3.818   1.408  0.0804  0.0208 -0.3308
   78TMC2    C4 1212   3.669   4.040   1.471 -0.5974 -0.5017 -0.0247
   78TMC2    C5 1213   3.713   3.946   1.384  0.0853  0.1938 -0.7494
   78TMC2    C6 1214   3.645   3.837   1.339  0.6086 -0.0273  0.9268
   78TMC2     C 1215   3.475   4.131   1.586  0.3975  0.4178  0.0361
   78TMC2     O 1216   3.352   4.138   1.570 -0.3093  0.8553 -0.3243
   78TMC2     H 1217   3.368   3.898   1.534  0.0915 -1.8964 -0.4629
   78TMC2    H1 1218   3.727   4.130   1.487  0.8328 -1.9207  2.7371
   78TMC2    H2 1219   3.689   3.758   1.278 -3.0897 -1.2978 -0.1029
   78TMC2    C7 1220   3.848   3.959   1.338  0.6098 -0.1366 -0.4330
   78TMC2    C8 1221   3.468   3.679   1.405  0.0644 -0.3178 -1.1534
   78TMC2    O1 1222   3.878   3.921   1.228 -0.8896 -0.2208  0.1148
   78TMC2    O2 1223   3.486   3.603   1.309  0.1633 -0.3485 -0.4550
   78TMC2    O5 1224   3.422   3.640   1.521  0.1117 -0.8428  0.2027
   78TMC2    H5 1225   3.421   3.713   1.587  2.7304 -2.0288  1.5480
   79MPD1     C 1226   3.491   4.591   1.809 -0.4630  0.1062 -0.2464
   79MPD1    C1 1227   3.380   4.502   1.792 -0.0843 -0.3366  0.7315
   79MPD1    C2 1228   3.396   4.391   1.717  0.0404 -0.1451  0.5120
   79MPD1    C3 1229   3.529   4.353   1.686  0.2292  0.1305  0.0320
   79MPD1    C4 1230   3.635   4.442   1.713 -0.1365  0.1906  0.2922
   79MPD1    C5 1231   3.613   4.560   1.771  0.2545  0.0180 -0.4692
   79MPD1     H 1232   3.316   4.325   1.686 -1.4416  2.8428 -2.0869
   79MPD1    H1 1233   3.737   4.421   1.683  0.1668 -1.0393  2.1229
   79MPD1    H2 1234   3.476   4.686   1.858  1.5755  1.9004 -3.1481
   79MPD1    H3 1235   3.693   4.631   1.787 -1.9151  2.3208  0.1028
   79MPD1     N 1236   3.562   4.229   1.628 -0.3203 -0.2083 -0.0607
   79MPD1    H5 1237   3.663   4.215   1.624 -0.7267 -2.7582 -0.8889
   79MPD1    N1 1238   3.253   4.541   1.821 -0.1283  0.0751  0.8527
   79MPD1    H6 1239   3.272   4.588   1.909  0.3066  1.0257  0.2502
   79MPD1    H7 1240   3.192   4.465   1.848  2.4525 -2.7965 -1.4270
   80TMC2    C1 1241   1.441   2.516  11.550  0.0275 -0.0378  0.3475
   80TMC2    C2 1242   1.474   2.549  11.419  0.3177  0.1011  0.5517
   80TMC2    C3 1243   1.376   2.534  11.321  0.0275 -0.8321  0.7127
   80TMC2    C4 1244   1.315   2.473  11.585  0.0019  0.6280 -0.5785
   80TMC2    C5 1245   1.229   2.452  11.483 -0.9737 -0.0662  0.0026
   80TMC2    C6 1246   1.252   2.483  11.351  0.5877  0.3964 -0.3813
   80TMC2     C 1247   1.513   2.597  11.650  0.0791 -0.0389  0.3544
   80TMC2     O 1248   1.630   2.626  11.627  0.0063 -0.1897 -0.2533
   80TMC2     H 1249   1.578   2.575  11.405 -0.5998  3.1034 -0.6850
   80TMC2    H1 1250   1.277   2.464  11.686  0.3500  2.0826 -0.3061
   80TMC2    H2 1251   1.184   2.442  11.278 -1.1127  2.8208 -0.1694
   80TMC2    C7 1252   1.090   2.406  11.512  0.8632  0.1010  0.3316
   80TMC2    C8 1253   1.421   2.530  11.187 -0.4794  0.1514  0.3196
   80TMC2    O1 1254   1.003   2.416  11.426  0.3778 -0.1998 -0.4287
   80TMC2    O2 1255   1.392   2.439  11.109  0.1896  0.1921 -0.1783
   80TMC2    O5 1256   1.538   2.596  11.185 -0.1147 -0.0844 -0.4261
   80TMC2    H5 1257   1.517   2.671  11.245  0.8113 -0.0589 -0.1297
   81MPD2     C 1258   1.588   2.746  11.900 -0.1850  0.4534 -0.7761
   81MPD2    C1 1259   1.464   2.736  11.846 -0.4512  0.1178  0.3520
   81MPD2    C2 1260   1.363   2.801  11.916  0.3225  0.3992  0.4508
   81MPD2    C3 1261   1.390   2.877  12.033  0.6003  0.0407 -0.2132
   81MPD2    C4 1262   1.515   2.888  12.082  0.0485 -0.2154 -0.7011
   81MPD2    C5 1263   1.611   2.819  12.013  0.4084 -0.3975  0.6808
   81MPD2     H 1264   1.266   2.796  11.867  1.8440 -1.1827 -2.3796
   81MPD2    H1 1265   1.538   2.950  12.168 -0.8748  2.3382 -2.3094
   81MPD2    H2 1266   1.667   2.692  11.850  0.9050  1.0786  0.2678
   81MPD2    H3 1267   1.710   2.825  12.057  1.1313  2.1276 -1.3028
   81MPD2     N 1268   1.299   2.948  12.112  0.2712  0.6240 -0.0855
   81MPD2    H5 1269   1.342   2.985  12.197  0.2235 -0.1496  0.2714
   81MPD2    N1 1270   1.427   2.655  11.735  0.1423  0.0507 -0.1040
   81MPD2    H7 1271   1.328   2.658  11.715  0.2960  1.6347 -0.6721
   82TMC2    C1 1272   4.063   1.904  10.501 -0.5934  0.7760  0.3018
   82TMC2    C2 1273   4.150   1.992  10.447  0.0862 -0.0784 -0.5567
   82TMC2    C3 1274   4.271   2.015  10.506  0.1556  0.4311  0.1415
   82TMC2    C4 1275   4.084   1.837  10.618  0.8789 -0.5549 -0.1451
   82TMC2    C5 1276   4.214   1.852  10.665  0.0282 -0.1723 -0.2537
   82TMC2    C6 1277   4.303   1.942  10.611 -0.1865  0.4054 -0.1037
   82TMC2     C 1278   3.933   1.908  10.450  0.3556 -0.3870 -0.3778
   82TMC2     O 1279   3.925   1.929  10.330 -0.7727 -0.3370  0.1175
   82TMC2     H 1280   4.127   2.042  10.354 -2.2526  0.5838  0.3789
   82TMC2    H1 1281   4.012   1.765  10.655  1.8131 -1.6256 -0.3847
   82TMC2    H2 1282   4.393   1.960  10.669 -0.1196  1.5634 -0.5640
   82TMC2    C7 1283   4.245   1.787  10.797  0.0055  0.1465  0.4595
   82TMC2    C8 1284   4.338   2.136  10.467  0.2120 -0.6127 -0.2801
   82TMC2    O1 1285   4.148   1.734  10.848  0.2069  0.4996 -0.4691
   82TMC2    O2 1286   4.306   2.206  10.373  0.1353 -0.1935 -0.1513
   82TMC2    O5 1287   4.394   2.175  10.578  0.3081 -0.4859  0.6527
   82TMC2    H5 1288   4.400   2.118  10.657 -1.6629 -0.4243  0.8241
   83MPD2     C 1289   3.417   1.893  10.483 -0.1303  0.2696 -1.2023
   83MPD2    C1 1290   3.496   1.918  10.373  0.5901 -0.1878 -0.7913
   83MPD2    C2 1291   3.634   1.929  10.388 -0.4848 -0.1859  0.3183
   83MPD2    C3 1292   3.694   1.920  10.518  0.1733  0.2876 -0.4639
   83MPD2    C4 1293   3.611   1.888  10.625 -0.0389  0.4356 -0.3306
   83MPD2    C5 1294   3.476   1.872  10.608 -0.3012  0.2591  0.1521
   83MPD2     H 1295   3.692   1.946  10.298  1.0430 -0.6280  1.2172
   83MPD2    H1 1296   3.654   1.872  10.723 -1.3409 -1.3730 -0.0454
   83MPD2    H2 1297   3.310   1.877  10.475  0.1985 -2.0786 -1.0452
   83MPD2    H3 1298   3.419   1.855  10.699 -0.8235  0.6418 -0.1033
   83MPD2     N 1299   3.833   1.920  10.547  0.6023  0.0435 -0.0265
   83MPD2    H5 1300   3.867   1.898  10.640  0.2263 -0.2113  0.0535
   83MPD2    N1 1301   3.424   1.940  10.252 -0.4719 -0.2990 -0.3623
   83MPD2    H7 1302   3.323   1.938  10.261 -0.2377 -2.3020  1.6470
   84TMC2    C1 1303   1.191   0.993  10.676  0.1711 -0.3331  0.6118
   84TMC2    C2 1304   1.323   1.034  10.690  0.1272  0.0208 -0.2733
   84TMC2    C3 1305   1.406   1.038  10.582  0.9930  0.5300 -0.1827
   84TMC2    C4 1306   1.138   0.974  10.555  0.4062  1.0469  0.1822
   84TMC2    C5 1307   1.221   0.997  10.445  0.0527  0.9599 -0.4808
   84TMC2    C6 1308   1.355   1.018  10.456  0.0235  0.3088 -0.0289
   84TMC2     C 1309   1.106   1.010  10.796 -0.3336  0.4065  0.8462
   84TMC2     O 1310   1.147   1.089  10.880  0.5191  0.4658  0.5313
   84TMC2     H 1311   1.359   1.064  10.788 -0.9467  0.4246 -0.0103
   84TMC2    H1 1312   1.034   0.946  10.540  1.3959 -1.3953 -1.8330
   84TMC2    H2 1313   1.424   1.005  10.373  0.5212  0.6561  0.3333
   84TMC2    C7 1314   1.166   0.985  10.314  0.1445  0.1039 -0.0943
   84TMC2    C8 1315   1.545   1.071  10.590 -0.2262 -0.3003 -0.6203
   84TMC2    O1 1316   1.051   0.938  10.313 -0.0832  0.0349  0.4387
   84TMC2    O2 1317   1.606   1.108  10.493 -0.6716 -0.3781 -0.3653
   84TMC2    O5 1318   1.584   0.980  10.685  0.2482  0.7119 -0.6864
   84TMC2    H5 1319   1.529   0.959  10.763  2.6486 -0.1774  0.7747
   85TMC2    C1 1320   1.739   4.543  15.836 -0.3263 -0.1160  0.2852
   85TMC2    C2 1321   1.663   4.608  15.924 -1.1223  0.4170  0.2653
   85TMC2    C3 1322   1.644   0.007  15.908 -0.2907  0.1952  0.1545
   85TMC2    C4 1323   1.813   4.611  15.741 -1.0072  0.4608  0.1448
   85TMC2    C5 1324   1.791   0.008  15.725 -0.0072  0.5977 -0.0054
   85TMC2    C6 1325   1.716   0.082  15.819 -0.4629 -0.2960  0.2278
   85TMC2     C 1326   1.761   4.400  15.848 -0.6837  0.6807  0.3187
   85TMC2     O 1327   1.868   4.359  15.802 -0.4770  0.3936 -0.0122
   85TMC2     H 1328   1.633   4.563  16.018 -0.8694 -0.6571 -0.1586
   85TMC2    H1 1329   1.877   4.551  15.678  0.9677  0.1106  2.4961
   85TMC2    H2 1330   1.706   0.190  15.811 -1.0145 -0.2465  1.7090
   85TMC2    C7 1331   1.815   0.064  15.597 -0.3219 -0.6638  0.1569
   85TMC2    C8 1332   1.562   0.085  16.003  0.8220  0.3954  0.0216
   85TMC2    O1 1333   1.906   0.009  15.539 -0.4191 -0.3285  0.5423
   85TMC2    O2 1334   1.561   0.207  16.014 -0.2237 -0.2811 -0.2565
   85TMC2    O5 1335   1.459   0.004  16.028  0.0296  0.0055 -0.7783
   85TMC2    H5 1336   1.472   4.644  16.013 -1.1009 -0.1947 -0.4433
   86MPD2     C 1337   1.668   3.954  16.081  0.1358  0.2425 -0.4922
   86MPD2    C1 1338   1.547   4.023  16.059  0.0859 -0.1349  0.1846
   86MPD2    C2 1339   1.545   4.147  16.004 -0.1383 -0.3018  0.3480
   86MPD2    C3 1340   1.666   4.199  15.963  0.0633 -0.2158 -0.3869
   86MPD2    C4 1341   1.788   4.137  15.986  0.7380 -0.4818 -0.7253
   86MPD2    C5 1342   1.782   4.011  16.038  0.7067 -0.0097  0.5962
   86MPD2     H 1343   1.452   4.202  15.994 -0.7061 -1.2087  0.6368
   86MPD2    H1 1344   1.888   4.177  15.974  0.3701  0.6805  0.1401
   86MPD2    H2 1345   1.672   3.854  16.121 -2.7660 -0.1534 -1.1975
   86MPD2    H3 1346   1.876   3.961  16.058  1.4122  0.8421 -0.5576
   86MPD2     N 1347   1.660   4.333  15.919  0.4313  0.4731  0.0281
   86MPD2    H5 1348   1.571   4.383  15.918 -0.9294 -1.9202 -0.1018
   86MPD2    N1 1349   1.430   3.957  16.091 -0.1544  0.6908  0.2228
   86MPD2    H7 1350   1.349   3.984  16.036 -2.0471 -1.0761  2.1460
   87TMC2    C1 1351   4.108   2.718   0.934  0.1082 -0.2453  0.7889
   87TMC2    C2 1352   4.188   2.673   1.039 -0.7017 -0.0604 -0.2875
   87TMC2    C3 1353   4.246   2.766   1.118 -0.0807 -0.1692 -0.8083
   87TMC2    C4 1354   4.078   2.852   0.907 -0.0250  0.7331  0.2445
   87TMC2    C5 1355   4.140   2.934   0.996 -0.0598  0.2863  0.7560
   87TMC2    C6 1356   4.219   2.898   1.098 -0.5635  0.0588  0.7404
   87TMC2     C 1357   4.081   2.629   0.816 -0.1218 -0.5302 -0.2356
   87TMC2     O 1358   4.003   2.674   0.726  0.2926 -0.1107  0.1842
   87TMC2     H 1359   4.194   2.570   1.070 -2.1512 -0.2929 -0.7412
   87TMC2    H1 1360   4.001   2.886   0.838 -1.8768 -0.7706  1.5513
   87TMC2    H2 1361   4.261   2.966   1.171 -2.8294  2.5949 -0.3296
   87TMC2    C7 1362   4.099   3.078   0.995 -0.3719 -0.5138 -0.3644
   87TMC2    C8 1363   4.279   2.726   1.249 -0.2191  0.0149 -0.1249
   87TMC2    O1 1364   4.005   3.112   0.927  0.1319 -0.3654  0.0948
   87TMC2    O2 1365   4.193   2.711   1.334 -0.0125  0.2030  0.2074
   87TMC2    O5 1366   4.376   2.636   1.225 -0.4796  0.2929  0.6114
   87TMC2    H5 1367   4.432   2.665   1.150  0.4716 -1.5374  0.6118
   88MPD2     C 1368   4.286   3.381   1.114 -0.2162  0.4601 -0.0088
   88MPD2    C1 1369   4.176   3.306   1.077  0.6199 -0.0626 -0.7702
   88MPD2    C2 1370   4.053   3.367   1.061  0.1105 -0.1995 -0.2794
   88MPD2    C3 1371   4.047   3.504   1.083 -0.3801  0.0701  0.3857
   88MPD2    C4 1372   4.153   3.574   1.134 -0.0066 -1.4004  0.0751
   88MPD2    C5 1373   4.272   3.510   1.154  0.0931  0.4249  0.5278
   88MPD2     H 1374   3.967   3.310   1.028  0.4082  0.0970 -1.5508
   88MPD2    H1 1375   4.143   3.680   1.150  0.3776 -1.5816  1.5337
   88MPD2    H2 1376   4.379   3.326   1.124  0.3544  1.3990 -0.1566
   88MPD2    H3 1377   4.359   3.560   1.196 -1.1882  0.1845  3.4605
   88MPD2     N 1378   3.933   3.575   1.057  0.0791 -0.0055 -0.2575
   88MPD2    H5 1379   3.943   3.676   1.071 -1.5864 -0.0292  1.0387
   88MPD2    N1 1380   4.189   3.167   1.052  0.2082 -0.4122 -0.3473
   88MPD2    H7 1381   4.279   3.130   1.081 -0.2181  0.2952  1.8654
   89TMC2    C1 1382   0.322   0.934   0.953 -0.2106  0.4532 -0.6830
   89TMC2    C2 1383   0.197   0.916   1.008  0.0315 -0.1414  0.8851
   89TMC2    C3 1384   0.103   0.970   0.927  0.4601 -0.2278  0.0115
   89TMC2    C4 1385   0.359   0.991   0.837 -0.2152 -0.7580  0.2727
   89TMC2    C5 1386   0.257   1.026   0.757  0.0288  0.1107 -0.4381
   89TMC2    C6 1387   0.131   1.025   0.806  0.3672  0.2077  0.8077
   89TMC2     C 1388   0.429   0.874   1.034  0.5250  0.2240 -0.3449
   89TMC2     O 1389   0.527   0.945   1.042 -0.3588  0.2393 -0.6021
   89TMC2     H 1390   0.170   0.890   1.110  1.0725 -0.2287  1.1402
   89TMC2    H1 1391   0.463   0.979   0.810  0.0426  0.8297  0.5844
   89TMC2    H2 1392   0.053   1.066   0.744 -1.0086 -1.3716  1.4989
   89TMC2    C7 1393   0.284   1.056   0.620  0.2521 -0.0836  0.0846
   89TMC2    C8 1394   4.718   1.011   0.982  0.7209  0.2607 -0.1795
   89TMC2    O1 1395   0.381   1.011   0.560  0.2638 -0.0384  0.6238
   89TMC2    O2 1396   4.698   1.013   1.100  0.0583  0.4926  0.1243
   89TMC2    O5 1397   4.632   1.022   0.883 -0.0013  0.0676 -0.0075
   89TMC2    H5 1398   4.677   1.017   0.796  2.3981 -1.9812  1.3292
   90MPD2     C 1399   0.576   0.488   1.340 -0.6966 -0.2872  1.2292
   90MPD2    C1 1400   0.445   0.470   1.308  0.5943 -0.3758  0.5031
   90MPD2    C2 1401   0.374   0.562   1.228 -0.4346 -0.1358 -0.5513
   90MPD2    C3 1402   0.453   0.666   1.174  0.0017  0.0450  0.1592
   90MPD2    C4 1403   0.589   0.679   1.204 -1.0320 -0.6503 -0.2466
   90MPD2    C5 1404   0.654   0.582   1.279 -0.2071  0.2203  0.2398
   90MPD2     H 1405   0.267   0.554   1.213 -0.3923  0.5519 -1.2152
   90MPD2    H1 1406   0.650   0.749   1.148 -0.3448 -0.3061  0.9576
   90MPD2    H2 1407   0.628   0.428   1.414 -0.0467 -1.0372  0.1636
   90MPD2    H3 1408   0.760   0.576   1.301  0.4995  1.8165 -2.7797
   90MPD2     N 1409   0.387   0.755   1.089  0.1759 -0.0527  0.2027
   90MPD2    H5 1410   0.288   0.739   1.073  0.0949  0.1506  0.4968
   90MPD2    N1 1411   0.372   0.362   1.361  0.2540  0.1432  0.0284
   90MPD2    H7 1412   0.273   0.360   1.340 -0.0080 -0.2426  1.3562
   91TMC2    C1 1413   1.270   0.345  16.021  0.3529 -0.2581 -0.1722
   91TMC2    C2 1414   1.323   0.364  16.146 -0.6625  0.2183 -0.3926
   91TMC2    C3 1415   1.308   0.266  16.237  0.0040  0.3621  0.0044
   91TMC2    C4 1416   1.188   0.240  15.987 -0.0807 -0.0730 -0.2587
   91TMC2    C5 1417   1.171   0.148  16.089  1.2078 -0.8976 -0.3217
   91TMC2    C6 1418   1.233   0.157  16.207 -0.0981 -0.2354  0.6087
   91TMC2     C 1419   1.333   0.418  15.912  0.7293 -0.1892 -0.3249
   91TMC2     O 1420   1.279   0.418  15.796 -0.4382 -0.6599 -0.0012
   91TMC2     H 1421   1.378   0.455  16.166 -0.1502 -0.1564 -0.0815
   91TMC2    H1 1422   1.127   0.230  15.898 -0.7237  2.7049 -0.1074
   91TMC2    H2 1423   1.198   0.092  16.286  0.2723  0.4245  1.3230
   91TMC2    C7 1424   1.102   0.023  16.078  0.6146 -1.3237 -0.0849
   91TMC2    C8 1425   1.293   0.316  16.366 -0.6185 -0.4129  0.6178
   91TMC2    O1 1426   1.136   4.666  16.153 -0.1658 -0.1300  0.4051
   91TMC2    O2 1427   1.257   0.431  16.389 -0.0091 -0.1097 -0.1376
   91TMC2    O5 1428   1.334   0.218  16.448  0.1971 -0.3473 -0.2217
   91TMC2    H5 1429   1.381   0.148  16.397  0.8452 -0.4254  0.4668
   92MPD2     C 1430   1.517   0.579  15.730 -0.3229 -0.3868  0.1435
   92MPD2    C1 1431   1.551   0.534  15.862 -0.2820 -0.2846 -0.3778
   92MPD2    C2 1432   1.683   0.547  15.904  0.8122 -0.0465  0.0847
   92MPD2    C3 1433   1.779   0.608  15.817  0.2446  0.2996  0.3731
   92MPD2    C4 1434   1.741   0.659  15.693 -0.7312  0.0425 -0.8525
   92MPD2    C5 1435   1.613   0.644  15.645 -0.3658 -0.0375  0.5432
   92MPD2     H 1436   1.713   0.501  15.998  0.7209 -0.4821 -0.1004
   92MPD2    H1 1437   1.813   0.696  15.621 -0.9844  1.3559 -0.4232
   92MPD2    H2 1438   1.419   0.562  15.688 -1.1847  0.8131  1.6713
   92MPD2    H3 1439   1.588   0.680  15.546 -0.5319 -0.0727  0.5712
   92MPD2     N 1440   1.913   0.605  15.860  0.3447  0.1273 -0.0854
   92MPD2    H5 1441   1.937   0.564  15.950  0.1419 -1.4919 -0.7672
   92MPD2    N1 1442   1.465   0.455  15.943  0.2660  0.3070 -0.8778
   92MPD2    H7 1443   1.512   0.410  16.021 -1.2102  0.3141  0.0110
   93TMC2    C1 1444   2.949   0.789  13.941 -0.0080 -0.5145 -0.2842
   93TMC2    C2 1445   2.863   0.848  14.027  0.7744 -0.1051 -0.5302
   93TMC2    C3 1446   2.925   0.923  14.121 -0.5295  0.3473 -0.0451
   93TMC2    C4 1447   3.086   0.823  13.941  0.8631  0.1111  0.5685
   93TMC2    C5 1448   3.141   0.895  14.039 -0.4292  0.1669 -0.4529
   93TMC2    C6 1449   3.057   0.934  14.143  0.4757 -0.9294 -0.0225
   93TMC2     C 1450   2.910   0.677  13.850  0.8781  0.0271  0.3774
   93TMC2     O 1451   2.995   0.601  13.812 -0.1876 -0.5484  0.4338
   93TMC2     H 1452   2.757   0.826  14.039  1.1295 -1.2561  0.5445
   93TMC2    H1 1453   3.153   0.780  13.868  0.8985 -2.2040  1.9637
   93TMC2    H2 1454   3.097   0.997  14.221  1.2518 -0.6629 -0.6429
   93TMC2    C7 1455   3.280   0.910  14.037 -0.3950 -0.5159 -0.2138
   93TMC2    C8 1456   2.834   0.986  14.215  0.0932  0.3803 -0.1717
   93TMC2    O1 1457   3.349   0.875  13.940  0.1071  0.7812  0.4937
   93TMC2    O2 1458   2.723   1.022  14.178 -0.3956  0.2327  0.1333
   93TMC2    O5 1459   2.863   0.933  14.337  0.1937  0.4486  0.0119
   93TMC2    H5 1460   2.950   0.888  14.350 -1.5149 -3.2884 -1.5785
   94MPD2     C 1461   2.773   0.446  13.725 -0.2599  0.1371 -0.5473
   94MPD2    C1 1462   2.705   0.555  13.778  0.6970 -0.5392  0.2483
   94MPD2    C2 1463   2.573   0.569  13.770  0.0422  0.3109 -1.0939
   94MPD2    C3 1464   2.501   0.461  13.717  0.9660  0.0482 -0.2938
   94MPD2    C4 1465   2.566   0.350  13.668  0.2292  0.5354 -0.6293
   94MPD2    C5 1466   2.700   0.341  13.671  1.2667  0.1463  0.2725
   94MPD2     H 1467   2.515   0.651  13.811 -0.7605  0.2983 -2.1901
   94MPD2    H1 1468   2.502   0.277  13.620 -1.5668  1.4430  0.4002
   94MPD2    H2 1469   2.880   0.429  13.725 -0.1094  1.0528 -2.9359
   94MPD2    H3 1470   2.762   0.264  13.627  1.7752  1.2388 -0.9370
   94MPD2     N 1471   2.358   0.455  13.720 -0.2247 -0.2802  0.1013
   94MPD2    H5 1472   2.318   0.373  13.676 -2.3718  0.1426  1.2655
   94MPD2    N1 1473   2.774   0.654  13.850 -0.2700 -0.2537 -0.0900
   94MPD2    H7 1474   2.723   0.722  13.905  2.4387  1.7693 -0.0811
   95TMC2    C1 1475   3.062   1.948  16.467  0.5216  0.2093  0.2131
   95TMC2    C2 1476   3.043   1.837  16.550 -0.2334 -0.0501  0.2275
   95TMC2    C3 1477   3.023   1.873  16.680 -0.2642  0.1183 -0.2162
   95TMC2    C4 1478   3.061   2.079  16.509 -0.4780 -0.3031 -0.0182
   95TMC2    C5 1479   3.029   2.106  16.640  0.9271  0.1370  0.1270
   95TMC2    C6 1480   3.009   1.999  16.727  0.2080  0.3187  0.1008
   95TMC2     C 1481   3.080   1.930  16.325 -0.2153  0.0937 -0.2388
   95TMC2     O 1482   3.155   2.009  16.266 -0.1213 -0.5360  0.5603
   95TMC2     H 1483   3.053   1.732  16.528 -1.2503  0.0273 -0.6215
   95TMC2    H1 1484   3.067   2.154  16.431  0.8962 -0.7629 -0.3605
   95TMC2    H2 1485   2.973   2.026  16.825  0.6486  1.4643 -0.0580
   95TMC2    C7 1486   3.015   2.240  16.684 -0.3530  0.3078 -0.1548
   95TMC2    C8 1487   2.994   1.758  16.771  0.3530  0.4512  0.4729
   95TMC2    O1 1488   2.950   2.248  16.789 -0.4812 -0.2972  0.3216
   95TMC2    O2 1489   3.000   1.644  16.727  0.3568  0.8976 -0.4407
   95TMC2    O5 1490   2.885   1.796  16.842 -0.5413 -0.3791 -0.7409
   95TMC2    H5 1491   2.871   1.889  16.870  1.6458 -0.4088  0.4467
   96MPD2     C 1492   2.942   1.728  15.870 -0.8640 -0.4189 -0.4978
   96MPD2    C1 1493   3.047   1.813  15.895  0.0767  0.0575  0.6883
   96MPD2    C2 1494   3.063   1.853  16.024  0.1828  0.2926 -0.8025
   96MPD2    C3 1495   2.990   1.796  16.132 -0.4241 -0.8455 -0.7161
   96MPD2    C4 1496   2.885   1.721  16.099 -0.0995  0.0870 -0.2415
   96MPD2    C5 1497   2.866   1.686  15.972 -0.5181 -0.0102  0.3042
   96MPD2     H 1498   3.146   1.919  16.045 -0.1314  1.9252 -4.7904
   96MPD2    H1 1499   2.810   1.686  16.170 -0.3794  0.8940 -0.1407
   96MPD2    H2 1500   2.913   1.703  15.769  0.5252  0.0095 -1.0004
   96MPD2    H3 1501   2.772   1.638  15.946 -0.8345 -0.0112  1.4448
   96MPD2     N 1502   3.000   1.830  16.271  0.0455 -0.3775 -0.0285
   96MPD2    H5 1503   2.933   1.782  16.330 -2.6048  2.4531 -0.7065
   96MPD2    N1 1504   3.125   1.869  15.784 -0.4666 -0.7848  0.1412
   96MPD2    H7 1505   3.111   1.824  15.695 -1.6275 -0.9121  0.3950
   97TMC2    C1 1506   0.411   0.560  17.031 -1.1183  0.0371 -0.0940
   97TMC2    C2 1507   0.326   0.661  16.984  0.1303 -0.2238  0.1543
   97TMC2    C3 1508   0.326   0.775  17.062  0.1237  0.2671  0.2281
   97TMC2    C4 1509   0.504   0.575  17.134  0.5738  0.4469  0.2133
   97TMC2    C5 1510   0.512   0.700  17.192  0.6349  0.0244  0.0564
   97TMC2    C6 1511   0.423   0.798  17.160 -0.3264 -0.2812 -0.3984
   97TMC2     C 1512   0.383   0.415  17.011  0.6674  0.3226 -0.7620
   97TMC2     O 1513   0.475   0.338  17.033  0.3489  0.3812  0.3443
   97TMC2     H 1514   0.269   0.653  16.892 -1.0558  3.3442  0.5886
   97TMC2    H1 1515   0.544   0.488  17.185  0.2351  0.5822  0.7057
   97TMC2    H2 1516   0.441   0.897  17.200 -3.5281  1.2151 -2.6989
   97TMC2    C7 1517   0.598   0.727  17.311  0.1577 -0.7133  1.0913
   97TMC2    C8 1518   0.232   0.881  17.036  0.5007  0.1778 -0.3158
   97TMC2    O1 1519   0.646   0.837  17.325  0.3828  0.3259 -0.1837
   97TMC2    O2 1520   0.178   0.895  16.925 -0.4140  0.1486  0.6185
   97TMC2    O5 1521   0.206   0.928  17.160  0.5980 -0.6409 -0.1216
   97TMC2    H5 1522   0.220   0.868  17.236 -0.4843 -0.9200 -0.1450
   98MPD2     C 1523   0.049   0.064  17.158  0.1594  0.5193  0.0453
   98MPD2    C1 1524   0.174   0.102  17.212  0.4527 -0.4853 -0.7394
   98MPD2    C2 1525   0.241   0.210  17.157 -0.3294  0.5502  0.3608
   98MPD2    C3 1526   0.182   0.284  17.056  0.0560  0.5216  0.2583
   98MPD2    C4 1527   0.057   0.252  17.011 -0.3352  0.5739 -0.1645
   98MPD2    C5 1528   4.729   0.137  17.056  0.3705 -0.4886 -1.2874
   98MPD2     H 1529   0.339   0.243  17.191 -1.5096  1.9504  2.3875
   98MPD2    H1 1530   0.002   0.321  16.948  1.1205  3.0830  1.2953
   98MPD2    H2 1531   4.735   4.709  17.188 -0.6943  0.2387 -2.2040
   98MPD2    H3 1532   4.640   0.101  17.007 -1.2802  2.0862 -0.1770
   98MPD2     N 1533   0.249   0.397  17.003  0.4071 -0.4153 -0.7611
   98MPD2    H5 1534   0.206   0.454  16.931  0.6428  3.3967  2.1435
   98MPD2    N1 1535   0.246   0.023  17.313 -0.0623 -0.1104  0.1801
   98MPD2    H7 1536   0.208   4.670  17.340 -0.9257 -0.2030 -1.3476
   99TMC2    C1 1537   0.184   1.299   1.635  0.8205 -0.1598 -0.2607
   99TMC2    C2 1538   0.256   1.259   1.739  0.2209 -0.0472  0.4368
   99TMC2    C3 1539   0.236   1.322   1.865  0.2134 -0.0011 -0.3902
   99TMC2    C4 1540   0.087   1.395   1.651  0.3840  0.0814  0.0207
   99TMC2    C5 1541   0.058   1.441   1.776 -0.6210  0.8728  0.1804
   99TMC2    C6 1542   0.131   1.411   1.885 -0.2893  0.4563 -0.2410
   99TMC2     C 1543   0.239   1.270   1.497 -0.1289  0.3948 -0.3051
   99TMC2     O 1544   0.341   1.205   1.495 -0.0281  0.3416  0.6917
   99TMC2     H 1545   0.339   1.190   1.738 -0.2183 -0.5769  0.8295
   99TMC2    H1 1546   0.039   1.434   1.562  2.1818  0.6609 -0.6970
   99TMC2    H2 1547   0.105   1.434   1.988  1.7027 -2.4231  0.9296
   99TMC2    C7 1548   4.676   1.536   1.789  0.9406  0.0277  0.3013
   99TMC2    C8 1549   0.326   1.282   1.965  0.2249 -0.2323 -0.1348
   99TMC2    O1 1550   4.670   1.587   1.902 -1.1739  0.0347  1.1423
   99TMC2    O2 1551   0.370   1.165   1.963 -0.1337  0.2703 -0.4209
   99TMC2    O5 1552   0.322   1.367   2.065  0.2317  0.3206  0.2760
   99TMC2    H5 1553   0.293   1.455   2.033  0.2193  0.2085 -0.0181
  100MPD2     C 1554   0.294   1.270   1.202  0.6381 -0.0202  0.1093
  100MPD2    C1 1555   0.178   1.317   1.263  0.3658 -0.6552 -0.5923
  100MPD2    C2 1556   0.074   1.349   1.181  0.1503 -0.3013  0.5323
  100MPD2    C3 1557   0.089   1.343   1.045  0.2886  0.3866  0.3526
  100MPD2    C4 1558   0.208   1.309   0.986  0.3757 -0.0524 -0.2442
  100MPD2    C5 1559   0.311   1.274   1.064 -0.6254  0.5077  0.0813
  100MPD2     H 1560   4.719   1.386   1.225  0.5951  1.0409  0.3241
  100MPD2    H1 1561   0.229   1.320   0.880 -1.3888  3.4555 -0.2281
  100MPD2    H2 1562   0.378   1.238   1.263 -0.5706 -0.5724  1.4754
  100MPD2    H3 1563   0.405   1.237   1.026 -1.4937 -2.8278  1.1837
  100MPD2     N 1564   4.712   1.382   0.977  0.4293  0.0987  0.0578
  100MPD2    H5 1565   4.640   1.429   1.031 -0.2725 -2.4696  1.3528
  100MPD2    N1 1566   0.165   1.336   1.399 -0.2317  0.6917  0.1311
  100MPD2    H7 1567   0.073   1.373   1.421 -0.1218  2.0426 -1.7297
  101TMC2    C1 1568   0.372   2.571  12.685 -0.0379 -0.0339 -0.8606
  101TMC2    C2 1569   0.363   2.533  12.557 -1.0671 -0.1749  0.1572
  101TMC2    C3 1570   0.422   2.619  12.467 -0.6814  0.3663  0.1111
  101TMC2    C4 1571   0.435   2.691  12.729  0.0560 -0.0166 -0.4506
  101TMC2    C5 1572   0.476   2.779  12.634  0.6937 -1.1725  0.7721
  101TMC2    C6 1573   0.477   2.742  12.503 -0.2692 -0.1586  0.4165
  101TMC2     C 1574   0.308   2.492  12.786 -0.4096 -0.4071  0.9451
  101TMC2     O 1575   0.345   2.513  12.902  0.0263 -0.2526  0.2076
  101TMC2     H 1576   0.342   2.430  12.531 -2.5167  0.4840 -1.2760
  101TMC2    H1 1577   0.436   2.715  12.834 -1.4424  1.2953 -0.7438
  101TMC2    H2 1578   0.531   2.798  12.428 -0.4620 -0.3907  0.1055
  101TMC2    C7 1579   0.554   2.898  12.663 -0.0637 -0.1882  0.1341
  101TMC2    C8 1580   0.443   2.574  12.329  0.4429 -0.6807  0.8276
  101TMC2    O1 1581   0.636   2.921  12.577 -0.2622  0.0555  0.2441
  101TMC2    O2 1582   0.428   2.462  12.288  0.5272  1.0648 -0.3363
  101TMC2    O5 1583   0.428   2.688  12.252  0.2480  0.2736  0.0612
  101TMC2    H5 1584   0.435   2.778  12.292 -0.4835 -0.0210  0.8423
  102MPD2     C 1585   4.736   2.294  12.740  0.8223  0.0402  0.3103
  102MPD2    C1 1586   0.099   2.355  12.813 -0.1193  0.2600  0.3088
  102MPD2    C2 1587   0.091   2.361  12.949 -0.5358 -0.3414  0.5553
  102MPD2    C3 1588   4.719   2.303  13.010  0.5854  0.0484  0.0915
  102MPD2    C4 1589   4.627   2.236  12.937  0.1407 -0.1325  0.0465
  102MPD2    C5 1590   4.633   2.225  12.800  0.6807  0.8051  0.8291
  102MPD2     H 1591   0.166   2.409  13.010 -1.8676  1.0854  1.0692
  102MPD2    H1 1592   4.543   2.192  12.989  0.9161 -0.4788  0.9946
  102MPD2    H2 1593   0.007   2.299  12.632  0.2087 -1.0397  0.2224
  102MPD2    H3 1594   4.545   2.178  12.759  2.1204  0.1728 -1.5245
  102MPD2     N 1595   4.692   2.294  13.146 -0.7263 -0.6997 -0.2203
  102MPD2    H5 1596   4.600   2.256  13.165 -1.5781  1.4289 -0.1291
  102MPD2    N1 1597   0.201   2.417  12.737  0.3310 -0.3585  0.2141
  102MPD2    H7 1598   0.189   2.430  12.637 -0.1572  0.4382  0.3702
  103TMC2    C1 1599   3.400   2.774  12.415 -0.3010  0.0604  0.1167
  103TMC2    C2 1600   3.520   2.832  12.404 -0.0757  0.2762  0.4118
  103TMC2    C3 1601   3.541   2.944  12.476 -0.6859  0.2076 -0.0053
  103TMC2    C4 1602   3.303   2.831  12.500  0.3486  0.5227 -0.5351
  103TMC2    C5 1603   3.328   2.946  12.571 -0.0695  0.5103 -0.6779
  103TMC2    C6 1604   3.448   3.010  12.553  0.4706  0.0934  0.1240
  103TMC2     C 1605   3.359   2.684  12.318 -0.0915  0.3771  0.6281
  103TMC2     O 1606   3.247   2.632  12.329  0.1274  0.3028  0.3418
  103TMC2     H 1607   3.597   2.799  12.335  1.1142 -0.0884  1.9134
  103TMC2    H1 1608   3.210   2.776  12.507  0.6979  0.0849  0.6307
  103TMC2    H2 1609   3.468   3.105  12.601 -0.6245  0.0770  0.6180
  103TMC2    C7 1610   3.222   3.015  12.644  0.0415  0.3428 -0.0203
  103TMC2    C8 1611   3.672   3.010  12.467  0.0251 -0.8397 -0.2002
  103TMC2    O1 1612   3.149   2.940  12.711 -0.4734 -0.2453  0.3234
  103TMC2    O2 1613   3.777   2.950  12.440 -0.2342 -0.6703  0.6037
  103TMC2    O5 1614   3.653   3.137  12.432 -0.1196  0.6852  0.1702
  103TMC2    H5 1615   3.576   3.184  12.472 -1.9276 -0.3638 -2.0933
  104MPD2     C 1616   3.525   2.522  12.044  0.2249 -0.5175 -0.2586
  104MPD2    C1 1617   3.421   2.570  12.110 -0.2941 -0.4135  0.3748
  104MPD2    C2 1618   3.290   2.551  12.058 -0.1673  0.8368 -0.9378
  104MPD2    C3 1619   3.268   2.468  11.954  0.3410  0.3420  0.5961
  104MPD2    C4 1620   3.376   2.407  11.891  0.5641  0.1164  0.6574
  104MPD2    C5 1621   3.501   2.440  11.937  0.7631  0.4283 -0.7351
  104MPD2     H 1622   3.206   2.598  12.106  0.3759  0.0446  0.7780
  104MPD2    H1 1623   3.365   2.340  11.807 -0.7860 -0.3259  1.1876
  104MPD2    H2 1624   3.626   2.545  12.073  0.7680 -1.7343 -1.2019
  104MPD2    H3 1625   3.591   2.396  11.895  1.4919  0.7054  0.5311
  104MPD2     N 1626   3.131   2.449  11.915 -0.4100  0.5757  0.4044
  104MPD2    H5 1627   3.061   2.503  11.966 -1.1714  0.0931 -0.1245
  104MPD2    N1 1628   3.450   2.652  12.224  0.1683  0.3762 -0.3305
  104MPD2    H7 1629   3.549   2.677  12.231  1.1493 -3.5232 -0.1002
  105TMC2    C1 1630   3.686   2.041   0.154  0.4665 -0.0387  0.5179
  105TMC2    C2 1631   3.570   2.067   0.224 -0.3168 -0.3223 -0.0549
  105TMC2    C3 1632   3.587   2.144   0.340 -0.3020  0.8690  0.7019
  105TMC2    C4 1633   3.807   2.103   0.185 -0.0581  0.4181  0.4082
  105TMC2    C5 1634   3.817   2.181   0.296 -0.9918  0.0017  0.0785
  105TMC2    C6 1635   3.712   2.190   0.381 -0.3754  0.0213  0.3507
  105TMC2     C 1636   3.680   1.950   0.037 -0.0372  0.6116  0.4344
  105TMC2     O 1637   3.589   1.866   0.034 -0.5522  0.1865  0.0669
  105TMC2     H 1638   3.473   2.035   0.188 -1.1705  0.8208  1.2133
  105TMC2    H1 1639   3.901   2.083   0.136 -0.8223 -1.1496 -0.4184
  105TMC2    H2 1640   3.720   2.250   0.471  2.0508 -1.7864  1.3408
  105TMC2    C7 1641   3.952   2.208   0.340 -0.2083  0.1816  0.3174
  105TMC2    C8 1642   3.476   2.185   0.431 -0.0302  0.2845  0.3844
  105TMC2    O1 1643   4.044   2.152   0.285  0.2599 -0.0468  0.0831
  105TMC2    O2 1644   3.490   2.244   0.540 -0.6165  0.1626 -0.5167
  105TMC2    O5 1645   3.361   2.193   0.364  0.0539  0.2116 -0.3330
  105TMC2    H5 1646   3.351   2.141   0.282 -2.1170  0.8649 -0.5019
  106MPD2     C 1647   3.921   1.796  17.353 -0.6030 -0.0545  0.5714
  106MPD2    C1 1648   3.953   1.926  17.377  0.2054  0.1313  0.9492
  106MPD2    C2 1649   3.889   1.989  17.484 -0.3648  0.4023 -0.0922
  106MPD2    C3 1650   3.809   1.923  17.566 -0.2134  0.2048 -0.1668
  106MPD2    C4 1651   3.767   1.795  17.530 -0.0254 -0.5020 -0.1547
  106MPD2    C5 1652   3.829   1.727  17.427  0.1061 -0.3147  0.2993
  106MPD2     H 1653   3.903   2.089  17.521 -1.1320  0.7142 -0.6417
  106MPD2    H1 1654   3.705   1.736  17.597 -1.8354  2.9979  1.2344
  106MPD2    H2 1655   3.987   1.742  17.287 -1.5681 -0.5682  0.0128
  106MPD2    H3 1656   3.822   1.619  17.426  2.2910 -0.4332 -0.9738
  106MPD2     N 1657   3.772   1.995  17.683  0.3121  0.1251  0.0632
  106MPD2    H5 1658   3.814   2.085  17.705 -0.1421  0.5435 -0.7677
  106MPD2    N1 1659   4.050   2.004  17.307  0.3808 -0.2123 -1.1139
  106MPD2    H7 1660   4.043   2.104  17.322  0.2462 -0.7513  2.5381
  107TMC2    C1 1661   0.688   1.395  11.498  0.1096  0.0975  0.3682
  107TMC2    C2 1662   0.795   1.473  11.480  0.0909  0.3127  0.5262
  107TMC2    C3 1663   0.837   1.482  11.353 -0.0082 -0.1241  0.1243
  107TMC2    C4 1664   0.609   1.343  11.404 -0.7524 -0.2657  0.5353
  107TMC2    C5 1665   0.667   1.337  11.279 -0.2775  0.0459 -0.1925
  107TMC2    C6 1666   0.774   1.416  11.249  0.0760  0.9007 -0.1402
  107TMC2     C 1667   0.627   1.417  11.630 -0.8286 -0.3147 -0.1687
  107TMC2     O 1668   0.503   1.424  11.624  0.2776 -0.5542  0.0691
  107TMC2     H 1669   0.827   1.541  11.558 -1.2268  0.2636  1.1095
  107TMC2    H1 1670   0.516   1.292  11.428 -0.7838 -0.5830 -0.2841
  107TMC2    H2 1671   0.803   1.426  11.145 -0.9264 -2.1278 -0.7186
  107TMC2    C7 1672   0.640   1.220  11.215  0.6039 -0.5180 -0.7489
  107TMC2    C8 1673   0.928   1.588  11.318 -0.2311 -0.2684 -0.1572
  107TMC2    O1 1674   0.531   1.161  11.232 -0.3760  0.3410  0.4287
  107TMC2    O2 1675   0.917   1.650  11.212  0.4232  0.1028 -0.0230
  107TMC2    O5 1676   1.037   1.582  11.396  0.3587  0.5292  0.0742
  107TMC2    H5 1677   1.035   1.513  11.466  1.8388 -0.5188 -0.9112
  108MPD2     C 1678   0.809   1.490  11.939  0.7924  0.2473  0.1152
  108MPD2    C1 1679   0.703   1.444  11.865 -0.4254  0.2638  0.1019
  108MPD2    C2 1680   0.574   1.445  11.915 -0.1331  0.2469  0.0518
  108MPD2    C3 1681   0.556   1.496  12.043  0.1679 -0.5849  0.3253
  108MPD2    C4 1682   0.670   1.535  12.117 -0.5626 -0.0370  0.2954
  108MPD2    C5 1683   0.794   1.525  12.064  0.0312  0.0099  0.0704
  108MPD2     H 1684   0.498   1.393  11.859  1.7782 -1.9646 -0.4976
  108MPD2    H1 1685   0.660   1.575  12.218 -0.7623 -0.9159  0.6259
  108MPD2    H2 1686   0.911   1.493  11.901  0.5895 -4.1780 -0.8164
  108MPD2    H3 1687   0.881   1.567  12.113  0.6766 -0.3575 -0.7630
  108MPD2     N 1688   0.431   1.499  12.116  0.5955  0.4468 -0.2226
  108MPD2    H5 1689   0.440   1.533  12.212 -0.4857  0.1623 -0.0192
  108MPD2    N1 1690   0.723   1.423  11.725 -0.1801  0.8066 -0.2442
  108MPD2    H7 1691   0.821   1.421  11.697  0.0650 -0.0218  0.6621
  109TMC2    C1 1692   4.493   3.632  17.655  1.1506 -0.4178 -0.5022
  109TMC2    C2 1693   4.501   3.574  17.528  0.0503 -0.4692  0.4181
  109TMC2    C3 1694   4.577   3.626  17.436  0.5457  0.2707 -0.2471
  109TMC2    C4 1695   4.566   3.745  17.677 -0.9519 -0.1266  0.2201
  109TMC2    C5 1696   4.647   3.793  17.578 -0.3594 -0.0712  0.4148
  109TMC2    C6 1697   4.647   3.738  17.454  0.2286  0.1115 -0.5399
  109TMC2     C 1698   4.408   3.580   0.021  0.2304  0.9346  0.4210
  109TMC2     O 1699   4.345   3.483  17.725  0.3772  0.1570  0.2611
  109TMC2     H 1700   4.445   3.486  17.499  2.3163 -1.1069 -1.9010
  109TMC2    H1 1701   4.561   3.802   0.024  2.5680  1.7571 -0.7774
  109TMC2    H2 1702   4.713   3.763  17.371 -0.2608  0.9990 -0.6554
  109TMC2    C7 1703   4.734   3.904  17.602  0.0715 -0.3307  0.6608
  109TMC2    C8 1704   4.579   3.554  17.312  0.2402 -0.4445 -0.4875
  109TMC2    O1 1705   0.061   3.951  17.507  0.1567  0.3262  0.0317
  109TMC2    O2 1706   4.665   3.555  17.228  0.3380 -0.0825 -0.5997
  109TMC2    O5 1707   4.450   3.540  17.282 -0.0935 -0.2645  0.0077
  109TMC2    H5 1708   4.392   3.564  17.357  0.5476  1.2431  0.0146
  110MPD2     C 1709   4.244   3.534   0.502  0.1715 -0.6571  0.3275
  110MPD2    C1 1710   4.343   3.628   0.503 -0.7128  0.0801 -0.4994
  110MPD2    C2 1711   4.399   3.661   0.382 -0.0375 -0.3341  0.2525
  110MPD2    C3 1712   4.359   3.595   0.263 -0.5776  0.2313 -0.5512
  110MPD2    C4 1713   4.255   3.510   0.265 -0.0271 -0.7922 -0.1550
  110MPD2    C5 1714   4.200   3.474   0.387 -0.0504 -0.1551 -0.0705
  110MPD2     H 1715   4.493   3.715   0.376  0.0234 -0.6942 -1.8123
  110MPD2    H1 1716   4.208   3.456   0.183 -2.1965  3.2478 -1.5555
  110MPD2    H2 1717   4.191   3.506   0.592  2.2771  0.1823  1.8182
  110MPD2    H3 1718   4.122   3.399   0.396 -0.3930  0.2740  0.5063
  110MPD2     N 1719   4.430   3.634   0.143 -0.0897 -0.4288 -0.3853
  110MPD2    H5 1720   4.491   3.715   0.148 -0.3821 -0.0230 -3.1679
  110MPD2    N1 1721   4.378   3.670   0.632 -0.0834 -0.0191 -0.0098
  110MPD2    H7 1722   4.322   3.645   0.713 -3.9055  0.3766 -2.5310
  111TMC2    C1 1723   0.038   3.557  11.475 -0.6229  0.5249 -0.7917
  111TMC2    C2 1724   4.674   3.518  11.563  0.1913 -0.5467  0.9542
  111TMC2    C3 1725   4.716   3.494  11.688  0.1186  0.0351 -0.8142
  111TMC2    C4 1726   0.169   3.577  11.518  0.1818  0.3166 -0.5919
  111TMC2    C5 1727   0.201   3.540  11.647 -0.0347 -0.4774 -0.3089
  111TMC2    C6 1728   0.108   3.493  11.735 -0.0420 -0.4513 -0.0806
  111TMC2     C 1729   0.017   3.537  11.333 -0.0393  0.0591  0.6771
  111TMC2     O 1730   0.087   3.602  11.253  0.2643 -0.1730  0.3556
  111TMC2     H 1731   4.570   3.508  11.532  0.2533 -2.0893  1.2590
  111TMC2    H1 1732   0.239   3.620  11.448 -0.0778  0.8672 -0.5168
  111TMC2    H2 1733   0.127   3.458  11.836  0.0238 -2.1573 -0.6954
  111TMC2    C7 1734   0.325   3.573  11.715 -0.3179  0.0317  0.1014
  111TMC2    C8 1735   4.617   3.453  11.788  0.0832  0.4720 -0.1593
  111TMC2    O1 1736   0.320   3.557  11.836  0.2913 -0.0927 -0.1667
  111TMC2    O2 1737   4.631   3.474  11.906  0.2944 -0.9766 -0.0479
  111TMC2    O5 1738   4.496   3.447  11.731 -0.2125  0.2508  0.7849
  111TMC2    H5 1739   4.486   3.415  11.639 -0.3940  1.5078  0.3580
  112MPD2     C 1740   4.552   3.270  10.943 -0.1303  0.0872  0.5765
  112MPD2    C1 1741   4.625   3.381  10.942 -0.7744 -0.3109  0.3066
  112MPD2    C2 1742   4.673   3.428  11.065 -0.3940 -0.0445 -0.0047
  112MPD2    C3 1743   4.640   3.374  11.184 -0.6896 -0.2922  0.0115
  112MPD2    C4 1744   4.550   3.263  11.178 -0.3813  0.5810  0.3732
  112MPD2    C5 1745   4.517   3.213  11.060 -0.3505  0.2510  0.3689
  112MPD2     H 1746   4.736   3.517  11.064 -0.3037 -0.1124 -1.3025
  112MPD2    H1 1747   4.513   3.210  11.265  1.2339  1.4349  1.6048
  112MPD2    H2 1748   4.520   3.223  10.851  0.5860  3.2000 -1.2596
  112MPD2    H3 1749   4.467   3.117  11.054 -0.9580  0.7037 -1.9914
  112MPD2     N 1750   4.665   3.433  11.310  0.3896 -0.0560  0.2341
  112MPD2    H5 1751   4.631   3.377  11.387  1.5366  1.9904  2.2391
  112MPD2    N1 1752   4.643   3.458  10.822  0.5623 -0.2810 -0.2190
  112MPD2    H7 1753   4.711   3.533  10.832 -0.2405  0.5701 -1.0596
  113TMC2    C1 1754   3.128   1.946   0.667 -0.1325  0.1172  0.1633
  113TMC2    C2 1755   3.044   2.050   0.672 -0.0574 -0.5718 -0.3998
  113TMC2    C3 1756   2.915   2.033   0.700 -0.0524 -0.0779 -0.6609
  113TMC2    C4 1757   3.072   1.820   0.691 -0.1603 -0.7822 -0.4928
  113TMC2    C5 1758   2.944   1.808   0.734  0.3281 -0.2262  0.4757
  113TMC2    C6 1759   2.869   1.911   0.736 -0.1421  0.0668 -0.0742
  113TMC2     C 1760   3.269   1.960   0.674 -0.4429  0.0468  0.4177
  113TMC2     O 1761   3.315   2.062   0.721  0.0515  0.2529 -0.2653
  113TMC2     H 1762   3.077   2.149   0.643 -1.1447 -0.0221  0.2641
  113TMC2    H1 1763   3.126   1.730   0.664 -0.7305 -1.7441  1.5687
  113TMC2    H2 1764   2.765   1.901   0.766  0.2619 -0.0536  1.2796
  113TMC2    C7 1765   2.890   1.683   0.702 -0.5324  0.3255  0.1613
  113TMC2    C8 1766   2.836   2.155   0.712  0.3190 -0.7536  0.3121
  113TMC2    O1 1767   2.789   1.683   0.630 -0.6594  0.2510  0.2938
  113TMC2    O2 1768   2.884   2.266   0.728  0.7272 -0.0025 -0.3814
  113TMC2    O5 1769   2.711   2.137   0.663  0.2186  0.1428  0.0249
  113TMC2    H5 1770   2.709   2.046   0.626  1.8605  0.8065 -1.6698
  114MPD2     C 1771   3.735   1.839   0.497  0.3274 -0.4055  0.1155
  114MPD2    C1 1772   3.695   1.918   0.602  0.4381 -0.1301 -0.6614
  114MPD2    C2 1773   3.562   1.921   0.640 -0.0972 -0.3976 -0.5505
  114MPD2    C3 1774   3.469   1.855   0.567  0.5798  0.1492 -0.3187
  114MPD2    C4 1775   3.505   1.783   0.459 -0.6770  0.6000  0.7849
  114MPD2    C5 1776   3.635   1.769   0.428  1.2855 -0.0237  0.7289
  114MPD2     H 1777   3.537   1.972   0.732  3.1812 -0.0577  0.1495
  114MPD2    H1 1778   3.434   1.734   0.394 -0.4923 -1.3313  2.0533
  114MPD2    H2 1779   3.833   1.836   0.452  0.5949 -0.5507  0.7143
  114MPD2    H3 1780   3.653   1.724   0.331 -0.0095 -0.7111  0.8046
  114MPD2     N 1781   3.328   1.861   0.592  0.4173 -0.2889 -0.9642
  114MPD2    H5 1782   3.271   1.800   0.534  1.6240  0.1704 -2.6483
  114MPD2    N1 1783   3.780   2.001   0.676 -0.3659  0.3059  0.0660
  114MPD2    H7 1784   3.730   2.071   0.729 -1.8733 -0.4663 -0.3301
  115TMC2    C1 1785   3.947   3.943  16.953  0.3024 -0.3382  0.2513
  115TMC2    C2 1786   4.006   3.906  17.069 -0.0938 -0.0860 -0.3032
  115TMC2    C3 1787   4.053   4.006  17.152 -0.0111 -0.3330 -0.1839
  115TMC2    C4 1788   3.941   4.074  16.917  0.4198 -0.4810 -0.3505
  115TMC2    C5 1789   3.973   4.177  17.005 -0.7533 -0.0276 -0.1729
  115TMC2    C6 1790   4.035   4.141  17.125 -0.1282 -0.5188  0.4136
  115TMC2     C 1791   3.876   3.851  16.872  0.2064 -0.0210  0.0092
  115TMC2     O 1792   3.892   3.856  16.751  0.0353  0.3333  0.3787
  115TMC2     H 1793   4.011   3.802  17.101 -0.4516 -0.0046  0.0232
  115TMC2    H1 1794   3.896   4.101  16.822  1.3744  0.3526 -0.5600
  115TMC2    H2 1795   4.067   4.219  17.193 -0.3298  0.0125 -0.0909
  115TMC2    C7 1796   3.931   4.318  16.971 -0.0002  0.2706 -0.0670
  115TMC2    C8 1797   4.146   3.980  17.261 -0.3178  0.3272  0.3914
  115TMC2    O1 1798   3.857   4.326  16.874 -0.2943 -0.7745  0.3591
  115TMC2    O2 1799   4.149   4.044  17.365 -0.1633 -0.4312  0.5218
  115TMC2    O5 1800   4.231   3.883  17.224  0.2209  0.7565 -0.2139
  115TMC2    H5 1801   4.222   3.868  17.128 -1.6592  0.9505 -0.0683
  116MPD2     C 1802   3.584   3.450  16.815  0.5244 -0.5523  0.1324
  116MPD2    C1 1803   3.669   3.505  16.725 -0.0383  0.0678  0.9527
  116MPD2    C2 1804   3.742   3.611  16.760  0.4624 -1.0894  0.4006
  116MPD2    C3 1805   3.738   3.648  16.894 -0.2567  0.2622  0.5721
  116MPD2    C4 1806   3.660   3.585  16.987  0.0663 -0.9613  0.3401
  116MPD2    C5 1807   3.571   3.498  16.943  1.0688 -0.3284  0.4128
  116MPD2     H 1808   3.804   3.655  16.682  0.5031  2.3443  2.3603
  116MPD2    H1 1809   3.664   3.618  17.090  3.4550  0.2550 -0.1632
  116MPD2    H2 1810   3.517   3.370  16.784  1.7653 -1.6461  0.2823
  116MPD2    H3 1811   3.500   3.458  17.014  1.1374 -0.6088  0.3217
  116MPD2     N 1812   3.812   3.756  16.946  0.2468 -0.0735 -0.8598
  116MPD2    H5 1813   3.808   3.764  17.047  2.2645 -0.1502 -0.7581
  116MPD2    N1 1814   3.691   3.448  16.593 -0.5527  0.2516 -0.4981
  116MPD2    H7 1815   3.759   3.490  16.532  0.1449  0.8312  0.6850
  117TMC2    C1 1816   2.212   1.080  13.406  0.0232 -1.0442 -0.3187
  117TMC2    C2 1817   2.314   0.989  13.402 -0.0409  0.1988 -0.0902
  117TMC2    C3 1818   2.427   1.019  13.469 -0.0180  0.3404  0.3266
  117TMC2    C4 1819   2.216   1.195  13.482  0.3591 -0.4029 -0.0160
  117TMC2    C5 1820   2.335   1.218  13.550 -0.1561 -0.2239  0.0006
  117TMC2    C6 1821   2.439   1.128  13.546  0.2819  0.0544  1.0158
  117TMC2     C 1822   2.094   1.061  13.325  0.3420  0.2102  0.3206
  117TMC2     O 1823   2.081   0.950  13.279 -0.5494  0.1294  0.1016
  117TMC2     H 1824   2.315   0.918  13.320  0.1160 -0.9357  0.8984
  117TMC2    H1 1825   2.141   1.274  13.486  0.4580 -0.2830 -0.5263
  117TMC2    H2 1826   2.531   1.144  13.600  0.3524  0.1088  0.8813
  117TMC2    C7 1827   2.352   1.343  13.622 -0.2609  0.1853  0.2703
  117TMC2    C8 1828   2.541   0.940  13.447 -0.1280  0.1241  0.0302
  117TMC2    O1 1829   2.469   1.388  13.638 -0.1648 -0.5319  0.4906
  117TMC2    O2 1830   2.653   0.979  13.484  0.6553 -0.4631 -0.0656
  117TMC2    O5 1831   2.486   0.818  13.472 -0.3072  0.5186  0.3723
  117TMC2    H5 1832   2.392   0.831  13.449 -0.0700  2.1451  0.3232
  118MPD2     C 1833   2.079   1.565  13.721 -0.4948  0.0405 -0.8838
  118MPD2    C1 1834   2.205   1.534  13.691  0.2065  0.0277  1.0953
  118MPD2    C2 1835   2.305   1.639  13.695 -0.0604 -0.3366 -0.3324
  118MPD2    C3 1836   2.270   1.773  13.709  0.5667  0.6658  0.6267
  118MPD2    C4 1837   2.139   1.808  13.721  0.3746  0.6964  0.1039
  118MPD2    C5 1838   2.048   1.703  13.730  0.1281  0.3194  0.1586
  118MPD2     H 1839   2.407   1.603  13.687  0.2089  0.6893 -1.5158
  118MPD2    H1 1840   2.114   1.914  13.714  0.5686  0.9123  2.7550
  118MPD2    H2 1841   1.991   1.501  13.727  0.0142 -0.6007 -0.3520
  118MPD2    H3 1842   1.943   1.726  13.740  0.1259  0.0368  0.8149
  118MPD2     N 1843   2.368   1.878  13.700  0.4561  0.4166 -0.0246
  118MPD2    H5 1844   2.320   1.967  13.710 -0.4859 -0.0132 -0.6818
  118MPD2    N1 1845   2.227   1.396  13.660 -0.0081  0.0854 -0.1398
  118MPD2    H7 1846   2.146   1.335  13.669  0.5703 -0.6559  0.0392
  119TMC2    C1 1847   0.430   2.211  12.994  0.0128  0.0819 -0.6447
  119TMC2    C2 1848   0.441   2.201  12.860 -0.2159  0.0914 -0.5430
  119TMC2    C3 1849   0.355   2.120  12.789  0.1441  0.4174  0.2202
  119TMC2    C4 1850   0.339   2.139  13.066 -0.2102  0.6517  0.5748
  119TMC2    C5 1851   0.249   2.056  12.997 -0.5859 -0.0670  0.0850
  119TMC2    C6 1852   0.252   2.050  12.857 -0.3122 -0.1163  0.1802
  119TMC2     C 1853   0.536   2.265  13.072 -0.1487 -0.0516  0.4020
  119TMC2     O 1854   0.506   2.289  13.188  0.0355 -0.1503 -0.1593
  119TMC2     H 1855   0.515   2.255  12.801 -0.0542  0.7661  0.2760
  119TMC2    H1 1856   0.342   2.131  13.174  2.5034  0.6657  0.5056
  119TMC2    H2 1857   0.186   1.980  12.807 -0.2576 -0.7961  1.0810
  119TMC2    C7 1858   0.148   1.972  13.056  0.2153 -0.3747 -0.9157
  119TMC2    C8 1859   0.372   2.119  12.645  0.1431  0.1367 -0.1300
  119TMC2    O1 1860   0.052   1.935  12.989 -0.3345  0.2493  0.0992
  119TMC2    O2 1861   0.414   2.207  12.574  0.1509 -0.4036  0.7163
  119TMC2    O5 1862   0.347   2.000  12.604 -0.0525  0.0290  0.0710
  119TMC2    H5 1863   0.323   1.931  12.669  0.5415 -3.2275 -3.1093
  120MPD2     C 1864   1.039   2.286  13.147 -0.1492 -0.3556 -0.9221
  120MPD2    C1 1865   0.931   2.297  13.238  0.3245 -0.1255 -0.0943
  120MPD2    C2 1866   0.806   2.302  13.186  0.2613  0.6475 -0.4177
  120MPD2    C3 1867   0.787   2.269  13.054 -0.3766  0.7023 -0.0928
  120MPD2    C4 1868   0.893   2.257  12.969 -0.1479 -0.1492 -0.0311
  120MPD2    C5 1869   1.018   2.266  13.017  0.5486 -0.8134  0.0149
  120MPD2     H 1870   0.719   2.317  13.249 -0.5645 -0.0746 -1.4004
  120MPD2    H1 1871   0.876   2.239  12.863 -1.4304  2.0272 -0.1875
  120MPD2    H2 1872   1.141   2.295  13.183  0.2479 -0.1807 -2.0614
  120MPD2    H3 1873   1.097   2.260  12.943  1.0885  1.4575  0.4180
  120MPD2     N 1874   0.656   2.257  13.000  0.0505 -1.0104 -0.6466
  120MPD2    H5 1875   0.654   2.234  12.901 -0.2650 -2.1306 -0.3749
  120MPD2    N1 1876   0.963   2.288  13.374 -0.7340 -0.0650  0.1122
  120MPD2    H7 1877   1.063   2.281  13.391 -0.8236  0.1160  0.7217
  121TMC2    C1 1878   2.206   4.271  13.188 -0.0380  0.0845  0.8066
  121TMC2    C2 1879   2.339   4.257  13.167 -0.2887  0.1820 -0.2476
  121TMC2    C3 1880   2.409   4.176  13.247  0.3120  0.2370 -0.9914
  121TMC2    C4 1881   2.139   4.205  13.294 -0.1368  0.0715 -0.9483
  121TMC2    C5 1882   2.218   4.117  13.370  0.4217  0.6767  0.0869
  121TMC2    C6 1883   2.352   4.107  13.347 -0.3708 -0.5948  0.4002
  121TMC2     C 1884   2.120   4.289  13.067  0.3550 -0.0131 -0.3525
  121TMC2     O 1885   2.003   4.302  13.096  0.6143 -0.1991 -0.0186
  121TMC2     H 1886   2.390   4.311  13.088  0.0749  0.2469  0.0316
  121TMC2    H1 1887   2.032   4.216  13.306  0.1622  0.6524  1.2003
  121TMC2    H2 1888   2.412   4.042  13.410  0.9859 -0.1090 -0.3739
  121TMC2    C7 1889   2.167   4.053  13.488 -0.0654 -0.0847  0.5806
  121TMC2    C8 1890   2.553   4.182  13.246 -0.4166 -0.4645 -0.2976
  121TMC2    O1 1891   2.240   3.996  13.567 -0.6694  0.1413  0.6946
  121TMC2    O2 1892   2.623   4.096  13.299  0.2049 -0.1230  0.3843
  121TMC2    O5 1893   2.585   4.317  13.256 -0.5420  0.2708 -0.0029
  121TMC2    H5 1894   2.513   4.376  13.226  0.0344  0.5620 -0.8156
  122MPD2     C 1895   1.995   4.346  12.802 -0.0641  0.0824 -0.3856
  122MPD2    C1 1896   2.129   4.330  12.827  0.2478 -0.1092 -0.3103
  122MPD2    C2 1897   2.215   4.344  12.716 -0.1608 -0.1664 -0.2162
  122MPD2    C3 1898   2.180   4.387  12.594  0.4466 -0.8039 -0.0572
  122MPD2    C4 1899   2.041   4.402  12.572 -0.0438  0.0259  0.0751
  122MPD2    C5 1900   1.952   4.383  12.677  0.0881  0.1979  0.0926
  122MPD2     H 1901   2.319   4.322  12.738  0.6931  1.0466 -3.0753
  122MPD2    H1 1902   1.994   4.457  12.492 -0.9161 -0.9025 -0.0637
  122MPD2    H2 1903   1.924   4.346  12.883  0.6413 -1.4663  0.2109
  122MPD2    H3 1904   1.850   4.414  12.660  0.0064 -0.3491 -0.4147
  122MPD2     N 1905   2.266   4.410  12.485  0.4505 -0.2870 -0.3028
  122MPD2    H5 1906   2.222   4.443  12.400 -1.2306 -2.2106 -0.1858
  122MPD2    N1 1907   2.184   4.310  12.953 -0.5354 -0.7474  0.3248
  122MPD2    H7 1908   2.285   4.319  12.952 -0.7329  1.3568 -0.1659
  123TMC2    C1 1909   1.452   2.394   9.994 -1.0591 -0.3608 -0.6494
  123TMC2    C2 1910   1.571   2.396  10.055 -0.3979  0.1647  0.4417
  123TMC2    C3 1911   1.639   2.277  10.056 -0.3841 -0.1630  0.4804
  123TMC2    C4 1912   1.396   2.284   9.935  0.1249 -0.5533 -0.5505
  123TMC2    C5 1913   1.471   2.168   9.929 -0.0492 -0.0912  0.6411
  123TMC2    C6 1914   1.592   2.164   9.991  0.4930 -0.0019  0.2842
  123TMC2     C 1915   1.350   2.469  10.066  0.1770  0.0215  0.5077
  123TMC2     O 1916   1.356   2.589  10.096 -0.2513 -0.5037  0.3278
  123TMC2     H 1917   1.579   2.464  10.139  1.9098  1.7496 -1.0714
  123TMC2    H1 1918   1.300   2.301   9.887  1.7967  0.6500 -3.4877
  123TMC2    H2 1919   1.649   2.072   9.979  0.1019 -0.2294  0.1857
  123TMC2    C7 1920   1.405   2.045   9.911 -0.5816 -0.0496  0.2197
  123TMC2    C8 1921   1.781   2.293  10.084 -0.4525  0.1812 -0.3909
  123TMC2    O1 1922   1.455   1.953   9.967  0.0356 -0.4514  0.0699
  123TMC2    O2 1923   1.834   2.398  10.064 -0.2337  0.0155 -0.3091
  123TMC2    O5 1924   1.840   2.172  10.087 -0.2621 -0.2467  0.0681
  123TMC2    H5 1925   1.785   2.095  10.110 -1.2915  0.2394 -0.7914
  124MPD2     C 1926   0.872   2.407  10.250 -0.0609  0.3471  0.0129
  124MPD2    C1 1927   0.942   2.293  10.252  0.8410  0.1121 -0.6391
  124MPD2    C2 1928   1.068   2.294  10.212  0.2127  0.0283  0.0084
  124MPD2    C3 1929   1.139   2.407  10.178 -0.2536  0.0840  1.0719
  124MPD2    C4 1930   1.068   2.525  10.182 -0.6393 -0.1891  0.5659
  124MPD2    C5 1931   0.935   2.527  10.210  0.6507 -0.4384 -0.3677
  124MPD2     H 1932   1.110   2.195  10.195 -1.5545 -0.4077 -1.6808
  124MPD2    H1 1933   1.114   2.610  10.133  0.2489 -1.4249 -0.7452
  124MPD2    H2 1934   0.768   2.412  10.281  0.1942 -0.1066  0.9370
  124MPD2    H3 1935   0.866   2.608  10.191 -1.0149 -1.4098  1.4450
  124MPD2     N 1936   1.263   2.382  10.112  0.4526  0.0563  0.2458
  124MPD2    H5 1937   1.284   2.283  10.107 -0.5809 -0.2200  1.6396
  124MPD2    N1 1938   0.867   2.177  10.279  0.2464  0.9127 -0.0980
  124MPD2    H7 1939   0.768   2.193  10.292  0.2924  1.0998  0.0298
  125TMC2    C1 1940   1.819   4.257   8.737 -0.2220 -0.2645 -0.1541
  125TMC2    C2 1941   1.777   4.175   8.835 -0.1157 -0.1380  0.2141
  125TMC2    C3 1942   1.850   4.062   8.864  0.2980  0.1279  0.4386
  125TMC2    C4 1943   1.937   4.241   8.669  0.6757  0.0238  1.1134
  125TMC2    C5 1944   2.008   4.134   8.705  0.8982  0.7455  0.3704
  125TMC2    C6 1945   1.971   4.042   8.795 -0.6313 -0.4621 -0.4875
  125TMC2     C 1946   1.739   4.373   8.696  0.4548 -1.2432  0.1786
  125TMC2     O 1947   1.777   4.430   8.591  0.5673 -0.2441  0.2035
  125TMC2     H 1948   1.685   4.188   8.891 -0.3285  1.0027 -0.4047
  125TMC2    H1 1949   1.984   4.311   8.601  0.2946 -2.1711 -1.3977
  125TMC2    H2 1950   2.023   3.948   8.808  1.2617  0.7909  1.0296
  125TMC2    C7 1951   2.134   4.120   8.633  0.2921  0.2917  0.3324
  125TMC2    C8 1952   1.839   3.988   8.989  0.9556 -0.3472 -0.0551
  125TMC2    O1 1953   2.162   4.186   8.533 -0.1758 -0.6460  0.3408
  125TMC2    O2 1954   1.774   4.016   9.084 -0.4537 -0.4275 -0.0031
  125TMC2    O5 1955   1.881   3.863   8.963  0.2807 -0.2054  0.5531
  125TMC2    H5 1956   1.891   3.853   8.866  0.1709 -0.1094  0.5315
  126MPD1     C 1957   1.440   0.042   8.764  0.0160  0.2203  0.4205
  126MPD1    C1 1958   1.468   4.728   8.885  0.4513 -0.3154  0.1420
  126MPD1    C2 1959   1.541   4.608   8.891 -0.7743 -0.3713 -0.2795
  126MPD1    C3 1960   1.587   4.548   8.779  0.2893 -0.1882 -0.1263
  126MPD1    C4 1961   1.569   4.606   8.653  0.6884  0.1746  0.3687
  126MPD1    C5 1962   1.500   4.727   8.651 -0.6143  0.0237 -0.1687
  126MPD1     H 1963   1.558   4.560   8.987 -0.1095  0.7467  0.1602
  126MPD1    H1 1964   1.596   4.561   8.558  0.6868 -0.5617  0.7144
  126MPD1    H2 1965   1.382   0.134   8.755 -0.3454 -0.0779 -0.3709
  126MPD1    H3 1966   1.470   0.046   8.563  1.5531  3.9128  1.5240
  126MPD1     N 1967   1.650   4.419   8.787 -0.2121 -0.0308  0.2208
  126MPD1    H5 1968   1.629   4.371   8.874 -1.7025  0.1771 -0.0324
  126MPD1    N1 1969   1.410   0.050   9.003 -0.0406  0.4009  0.3891
  126MPD1    H6 1970   1.404   0.151   9.004 -1.6437  0.3143 -0.6501
  126MPD1    H7 1971   1.445   0.019   9.093 -1.3846 -3.5488 -0.4263
  127TMC2    C1 1972   2.130   2.815  10.010  0.6826  0.8497  0.8546
  127TMC2    C2 1973   2.077   2.806  10.139  0.0804  0.0839 -0.5287
  127TMC2    C3 1974   1.951   2.748  10.154  0.4864  0.1290  0.0916
  127TMC2    C4 1975   2.053   2.790   9.900  0.3926 -0.1278  0.1826
  127TMC2    C5 1976   1.933   2.726   9.917  0.5571 -0.1383 -0.4897
  127TMC2    C6 1977   1.883   2.704  10.048 -0.3534  0.8351 -0.1208
  127TMC2     C 1978   2.269   2.855  10.000 -0.3061 -0.2782  0.3171
  127TMC2     O 1979   2.315   2.919  10.095  0.1561 -0.0523  0.3376
  127TMC2     H 1980   2.137   2.827  10.227  0.1431  0.0863 -0.5719
  127TMC2    H1 1981   2.097   2.793   9.801 -1.3875 -0.1124 -0.6184
  127TMC2    H2 1982   1.784   2.663  10.063 -0.3403  0.6567 -0.5265
  127TMC2    C7 1983   1.848   2.691   9.805  0.0342 -0.0679 -1.1274
  127TMC2    C8 1984   1.950   2.675  10.286 -0.7200 -0.2007 -0.0806
  127TMC2    O1 1985   1.840   2.771   9.712 -0.1475 -0.1766  0.1508
  127TMC2    O2 1986   2.050   2.661  10.354  0.5855 -0.6992  0.4726
  127TMC2    O5 1987   1.831   2.703  10.342 -0.0850  0.0000 -0.1233
  127TMC2    H5 1988   1.764   2.728  10.274  1.1014  3.7296  0.0610
  128MPD2     C 1989   2.491   2.802   9.711  0.0662  0.2462  0.0691
  128MPD2    C1 1990   2.446   2.859   9.830  0.2384 -0.2515  0.6058
  128MPD2    C2 1991   2.517   2.963   9.888 -0.0253  0.1014  0.3090
  128MPD2    C3 1992   2.634   3.004   9.830 -0.0673 -0.3096 -0.0821
  128MPD2    C4 1993   2.688   2.949   9.712 -0.4105  0.0527  0.3039
  128MPD2    C5 1994   2.612   2.846   9.662 -0.1279  0.3285 -0.3917
  128MPD2     H 1995   2.484   3.024   9.971 -1.2490 -2.2241  1.5251
  128MPD2    H1 1996   2.780   2.979   9.663 -0.5296 -0.5945 -0.3134
  128MPD2    H2 1997   2.440   2.715   9.670 -0.7719  0.3785  0.8377
  128MPD2    H3 1998   2.649   2.789   9.578 -0.7993 -1.7162  0.6931
  128MPD2     N 1999   2.707   3.098   9.911 -0.0039 -0.4017  0.1798
  128MPD2    H5 2000   2.681   3.114  10.007  0.5537 -2.8584  0.7350
  128MPD2    N1 2001   2.324   2.817   9.879  0.1175 -0.2631 -0.1333
  128MPD2    H7 2002   2.278   2.749   9.820 -1.3334 -0.8816  1.7322
  129TMC2    C1 2003   1.331   3.922   0.573  0.6898 -0.0272  0.2551
  129TMC2    C2 2004   1.414   4.002   0.497 -0.1368 -0.1079  0.4615
  129TMC2    C3 2005   1.540   3.957   0.475  0.2118  0.1211  1.0139
  129TMC2    C4 2006   1.352   3.793   0.598 -0.4685  1.0563  0.1253
  129TMC2    C5 2007   1.476   3.742   0.557 -0.1210 -0.0910 -0.4646
  129TMC2    C6 2008   1.572   3.821   0.506  0.2649  0.0258  0.5083
  129TMC2     C 2009   1.192   3.962   0.573  0.0125 -0.2336  0.2075
  129TMC2     O 2010   1.107   3.875   0.548 -0.2278  0.3635 -0.1416
  129TMC2     H 2011   1.389   4.106   0.479  0.9343 -0.0623 -0.8280
  129TMC2    H1 2012   1.292   3.737   0.670  1.1002  0.9703  1.3614
  129TMC2    H2 2013   1.673   3.786   0.485 -0.3769 -1.6369  0.2250
  129TMC2    C7 2014   1.484   3.601   0.560 -0.2983 -0.3691  0.2146
  129TMC2    C8 2015   1.646   4.048   0.447  0.1677 -0.0772 -1.0713
  129TMC2    O1 2016   1.430   3.537   0.647 -0.4491  0.1406  0.0435
  129TMC2    O2 2017   1.760   4.018   0.419 -0.1956 -0.1625 -0.2353
  129TMC2    O5 2018   1.618   4.158   0.518 -0.3797  0.2935 -0.3614
  129TMC2    H5 2019   1.535   4.145   0.569 -1.8049  0.8154 -2.5665
  130MPD2     C 2020   0.941   4.122   0.576 -0.0770  0.2387  0.2303
  130MPD2    C1 2021   1.061   4.170   0.615  0.2136  0.3605 -0.5012
  130MPD2    C2 2022   1.073   4.299   0.671  1.0277 -0.4812  0.0844
  130MPD2    C3 2023   0.964   4.379   0.690 -0.2547 -0.5577 -0.2247
  130MPD2    C4 2024   0.843   4.334   0.648  0.4037  0.2506  0.4134
  130MPD2    C5 2025   0.829   4.210   0.588  0.2558  0.2669  0.6300
  130MPD2     H 2026   1.172   4.329   0.703 -0.1594  2.3332  1.0739
  130MPD2    H1 2027   0.751   4.392   0.649  0.3594  0.2043 -2.2680
  130MPD2    H2 2028   0.918   4.022   0.541 -0.0018 -0.1152  1.1805
  130MPD2    H3 2029   0.732   4.181   0.551  1.2868 -1.5759 -0.6429
  130MPD2     N 2030   0.978   4.503   0.754  0.1807 -0.0922 -0.5806
  130MPD2    H5 2031   1.074   4.524   0.779 -0.8042  2.9847  0.5783
  130MPD2    N1 2032   1.183   4.092   0.608  0.1962  0.1050 -0.6192
  130MPD2    H7 2033   1.264   4.142   0.644  0.6107 -0.9831 -0.0334
  131TMC2    C1 2034   0.683   2.477   9.647  0.0659  0.5675  0.6044
  131TMC2    C2 2035   0.568   2.545   9.654 -0.1079 -0.1433 -0.2405
  131TMC2    C3 2036   0.560   2.682   9.672 -0.6277 -0.2360 -0.5274
  131TMC2    C4 2037   0.790   2.554   9.672  0.0114 -0.6741 -0.5628
  131TMC2    C5 2038   0.785   2.697   9.681 -0.3171 -0.1261 -0.5602
  131TMC2    C6 2039   0.666   2.763   9.685  0.2348 -0.4095  0.7260
  131TMC2     C 2040   0.695   2.338   9.694  0.3093 -0.0372  0.6476
  131TMC2     O 2041   0.786   2.320   9.775  0.0377  0.2607 -0.6111
  131TMC2     H 2042   0.472   2.496   9.643 -0.2008  0.0753 -0.4110
  131TMC2    H1 2043   0.886   2.509   9.697  0.9665  1.0879 -1.0935
  131TMC2    H2 2044   0.666   2.871   9.689 -3.4772 -0.3451 -1.3778
  131TMC2    C7 2045   0.893   2.742   9.768  0.2417 -0.5129 -0.2866
  131TMC2    C8 2046   0.429   2.741   9.655 -0.2055  0.0069  0.2492
  131TMC2    O1 2047   0.997   2.684   9.753  1.0956  0.3778 -0.2605
  131TMC2    O2 2048   0.336   2.679   9.606  0.1947  0.0313 -0.6722
  131TMC2    O5 2049   0.433   2.866   9.705  0.4198  0.4378  0.1674
  131TMC2    H5 2050   0.502   2.883   9.773 -0.3304  1.1568  0.7616
  132MPD2     C 2051   0.525   2.032   9.593 -0.2191  0.5071  0.4574
  132MPD2    C1 2052   0.619   2.108   9.657 -0.6860  0.5771 -0.0220
  132MPD2    C2 2053   0.701   2.045   9.753  0.9540 -0.0668 -0.0784
  132MPD2    C3 2054   0.653   1.930   9.813 -0.0916  0.1890  0.1064
  132MPD2    C4 2055   0.557   1.849   9.749 -0.6165 -0.1318 -0.3704
  132MPD2    C5 2056   0.497   1.902   9.631  0.2471 -0.1509 -0.1493
  132MPD2     H 2057   0.780   2.096   9.808  1.0303  1.6527 -1.8112
  132MPD2    H1 2058   0.516   1.758   9.792 -1.1802  0.6726  0.7982
  132MPD2    H2 2059   0.463   2.068   9.512  0.4171 -0.0240 -0.2749
  132MPD2    H3 2060   0.408   1.847   9.604  1.0496 -0.9450 -1.1611
  132MPD2     N 2061   0.698   1.901   9.944  0.2363  0.2326  0.1600
  132MPD2    H5 2062   0.756   1.972   9.988 -1.6342  0.5016  2.1949
  132MPD2    N1 2063   0.625   2.247   9.626 -0.0512  0.0517 -0.2499
  132MPD2    H7 2064   0.569   2.273   9.545  0.7692  0.4195 -0.6973
  133TMC2    C1 2065   0.323   3.969   9.375  0.1875 -0.3824  0.2429
  133TMC2    C2 2066   0.292   4.103   9.397  0.1098  0.6786 -0.0167
  133TMC2    C3 2067   0.377   4.202   9.340 -0.2434  0.6053 -0.1260
  133TMC2    C4 2068   0.437   3.939   9.307 -0.4757  0.1440  0.3521
  133TMC2    C5 2069   0.512   4.041   9.243 -0.8159 -0.3444  0.7382
  133TMC2    C6 2070   0.481   4.171   9.261  0.1004  0.8395  0.4649
  133TMC2     C 2071   0.227   3.864   9.385  0.1846 -0.1401  0.3608
  133TMC2     O 2072   0.245   3.761   9.320  0.1618 -0.6005  0.0948
  133TMC2     H 2073   0.207   4.140   9.453 -1.6026 -1.1771 -1.4121
  133TMC2    H1 2074   0.462   3.836   9.285 -1.4560 -0.5416  2.4627
  133TMC2    H2 2075   0.546   4.247   9.217 -1.7547  1.3491 -1.3791
  133TMC2    C7 2076   0.632   4.001   9.161 -0.4096 -0.7684  0.1385
  133TMC2    C8 2077   0.313   4.336   9.350 -0.4894 -0.0006  0.3661
  133TMC2    O1 2078   0.677   3.888   9.172 -0.3433  0.1032  0.3694
  133TMC2    O2 2079   0.200   4.348   9.394  0.1509 -0.0155 -0.4567
  133TMC2    O5 2080   0.407   4.435   9.358  0.4039  0.1477 -0.2012
  133TMC2    H5 2081   0.497   4.397   9.350  0.3151 -0.3828  1.2763
  134MPD2     C 2082   4.617   3.890   9.521 -0.6906  0.3563 -0.0234
  134MPD2    C1 2083   4.728   3.834   9.465  0.5710  0.0735  0.1850
  134MPD2    C2 2084   4.728   3.692   9.445 -0.0807  0.5349 -0.3843
  134MPD2    C3 2085   4.619   3.612   9.481  0.1305  0.2711 -0.3544
  134MPD2    C4 2086   4.508   3.673   9.529  0.0684  0.6022  0.1227
  134MPD2    C5 2087   4.514   3.807   9.558 -0.4486 -0.0837 -0.2419
  134MPD2     H 2088   0.077   3.647   9.397  0.0451 -0.7467  1.0456
  134MPD2    H1 2089   4.420   3.616   9.555  1.0476 -0.8213  0.2872
  134MPD2    H2 2090   4.622   3.998   9.530  0.4233  0.3942 -1.1973
  134MPD2    H3 2091   4.421   3.849   9.594 -0.6228  0.1415 -0.9571
  134MPD2     N 2092   4.621   3.473   9.460 -0.0200  0.5503 -0.5555
  134MPD2    H5 2093   4.544   3.415   9.491 -0.8593  1.0902 -1.6309
  134MPD2    N1 2094   0.107   3.913   9.442 -0.1667 -0.0680 -0.2344
  134MPD2    H7 2095   0.109   4.004   9.486  1.0978  0.6045 -1.6977
  135TMC2    C1 2096   1.894   4.284   9.400 -0.6108  0.1010 -0.5492
  135TMC2    C2 2097   2.011   4.284   9.474 -0.0212 -0.0578 -0.0152
  135TMC2    C3 2098   2.003   4.249   9.603 -0.0484 -0.3737  0.3913
  135TMC2    C4 2099   1.774   4.252   9.453 -0.8353 -0.0107 -0.8121
  135TMC2    C5 2100   1.774   4.214   9.584  0.2645 -0.3819 -0.3378
  135TMC2    C6 2101   1.886   4.219   9.661  0.1458  0.2367 -0.7969
  135TMC2     C 2102   1.902   4.324   9.262 -0.4688  0.0114 -0.2673
  135TMC2     O 2103   1.802   4.387   9.229  0.3812 -0.8371  0.2107
  135TMC2     H 2104   2.104   4.325   9.436 -0.2000  0.8294  0.5121
  135TMC2    H1 2105   1.689   4.262   9.387 -0.5218 -2.3353 -1.5541
  135TMC2    H2 2106   1.887   4.202   9.768  2.0937 -0.8724 -0.9855
  135TMC2    C7 2107   1.643   4.231   9.646  0.1773 -0.2366 -0.2429
  135TMC2    C8 2108   2.119   4.234   9.689 -0.6486 -0.1222 -0.3409
  135TMC2    O1 2109   1.555   4.287   9.582  0.2881 -0.0526 -0.4905
  135TMC2    O2 2110   2.120   4.257   9.809  0.9856  0.4009 -0.4036
  135TMC2    O5 2111   2.232   4.208   9.619  0.4548  0.5848 -0.4120
  135TMC2    H5 2112   2.221   4.167   9.530 -1.0440 -2.9583  1.4163
  136MPD2     C 2113   1.991   4.420   8.993 -0.4606 -0.7545 -0.3813
  136MPD2    C1 2114   2.074   4.341   9.069  0.1490 -0.6283 -0.9319
  136MPD2    C2 2115   2.200   4.310   9.018  0.5124 -0.6086  0.0053
  136MPD2    C3 2116   2.242   4.360   8.898 -0.3772 -0.8470  0.1098
  136MPD2    C4 2117   2.155   4.445   8.828 -0.3746  0.2506 -0.4152
  136MPD2    C5 2118   2.035   4.475   8.883 -0.6227 -0.4382  0.5698
  136MPD2     H 2119   2.259   4.243   9.080  2.3812  1.1427  0.1430
  136MPD2    H1 2120   2.173   4.482   8.727  0.2411  0.3032 -0.2866
  136MPD2    H2 2121   1.896   4.451   9.034  0.7355 -0.2395  1.9755
  136MPD2    H3 2122   1.969   4.539   8.826  2.0947  0.2260 -1.8169
  136MPD2     N 2123   2.368   4.322   8.846  0.3914 -0.5503  0.0780
  136MPD2    H5 2124   2.395   4.349   8.752  2.0608  1.6301  1.1817
  136MPD2    N1 2125   2.029   4.305   9.203  0.0309  0.1170  0.7948
  136MPD2    H7 2126   2.104   4.258   9.252  1.0663  0.8293 -0.1157
  137TMC2    C1 2127   1.241   3.941   9.826  0.7972 -0.1756 -0.6306
  137TMC2    C2 2128   1.288   4.019   9.725  1.0418 -0.3628 -0.4287
  137TMC2    C3 2129   1.197   4.107   9.681  0.1979 -0.4625  0.3588
  137TMC2    C4 2130   1.113   3.948   9.876 -0.6488  0.6471  0.1177
  137TMC2    C5 2131   1.025   4.031   9.813 -0.2731 -0.1192 -0.3164
  137TMC2    C6 2132   1.062   4.123   9.716  0.1917  0.8406 -0.1904
  137TMC2     C 2133   1.348   3.869   9.891  1.2985 -0.6562 -0.5505
  137TMC2     O 2134   1.420   3.807   9.815 -0.0237  0.3831 -0.3171
  137TMC2     H 2135   1.391   4.012   9.694  1.3785  0.6579  0.4342
  137TMC2    H1 2136   1.077   3.880   9.952  0.0408  1.0832  0.8317
  137TMC2    H2 2137   0.994   4.200   9.682 -1.9118 -0.6540  0.6570
  137TMC2    C7 2138   0.896   4.061   9.876  0.0988 -0.0050  0.3803
  137TMC2    C8 2139   1.232   4.164   9.552 -0.4744 -0.7070  0.1826
  137TMC2    O1 2140   0.854   4.176   9.879  0.2570 -0.1361  0.6609
  137TMC2    O2 2141   1.296   4.094   9.477  0.0098  0.6870 -0.0331
  137TMC2    O5 2142   1.173   4.280   9.518 -0.4065 -0.1251  0.4783
  137TMC2    H5 2143   1.131   4.328   9.592 -2.3994  0.7025 -1.1936
  138MPD2     C 2144   1.365   3.843  10.253 -0.0957  0.3613  0.7050
  138MPD2    C1 2145   1.395   3.806  10.124  0.4744 -0.3311  0.2870
  138MPD2    C2 2146   1.489   3.711  10.106  0.2856 -0.1161  0.4376
  138MPD2    C3 2147   1.545   3.639  10.207  0.6875  0.2715  0.1657
  138MPD2    C4 2148   1.505   3.670  10.335  0.6342 -0.2647  0.4080
  138MPD2    C5 2149   1.407   3.763  10.355 -0.2593  0.3917  0.3707
  138MPD2     H 2150   1.526   3.690  10.007  1.8019  1.9888  0.5487
  138MPD2    H1 2151   1.548   3.611  10.415  1.2714 -0.5740 -0.1641
  138MPD2    H2 2152   1.304   3.931  10.268  4.2348  3.2946  1.0576
  138MPD2    H3 2153   1.370   3.785  10.455  1.8852 -0.2864  1.3291
  138MPD2     N 2154   1.642   3.542  10.175 -0.2006 -0.3691 -0.6997
  138MPD2    H5 2155   1.665   3.542  10.076 -0.0598  0.1555 -0.6636
  138MPD2    N1 2156   1.333   3.874  10.026 -0.3904  0.7442  0.2885
  138MPD2    H7 2157   1.263   3.937  10.066 -0.9601  0.1530  0.2210
  139TMC2    C1 2158   2.158   1.630  13.271 -0.1513 -0.2524 -1.0446
  139TMC2    C2 2159   2.257   1.716  13.244 -0.2999  0.2105  0.6631
  139TMC2    C3 2160   2.249   1.836  13.291  0.1124  0.4750 -0.6045
  139TMC2    C4 2161   2.037   1.675  13.309 -0.2742 -0.3916 -0.2957
  139TMC2    C5 2162   2.028   1.808  13.345  0.5633 -0.4332 -0.2888
  139TMC2    C6 2163   2.135   1.887  13.352  0.3175  0.8767  0.1557
  139TMC2     C 2164   2.181   1.493  13.247 -0.3539  0.3374 -0.2356
  139TMC2     O 2165   2.086   1.430  13.214 -0.2572 -0.0538 -0.2056
  139TMC2     H 2166   2.343   1.685  13.186 -0.9773  0.0159 -0.2260
  139TMC2    H1 2167   1.963   1.600  13.333 -0.5501 -0.0555 -0.1025
  139TMC2    H2 2168   2.136   1.980  13.409 -0.7048  0.8918  0.1418
  139TMC2    C7 2169   1.896   1.880  13.359 -0.2943 -0.2443  1.1998
  139TMC2    C8 2170   2.362   1.924  13.274 -0.7926 -0.1450 -0.9724
  139TMC2    O1 2171   1.911   2.001  13.351  0.6262 -0.1653 -0.0578
  139TMC2    O2 2172   2.476   1.885  13.303  0.5511 -0.0139 -0.5605
  139TMC2    O5 2173   2.322   2.051  13.279 -0.0572  0.5170  0.2729
  139TMC2    H5 2174   2.233   2.059  13.239  0.0403  2.2782  0.3744
  140MPD2     C 2175   2.502   1.319  13.253  0.2556  1.2111  0.0811
  140MPD2    C1 2176   2.374   1.344  13.212 -0.2208 -0.3186 -1.1187
  140MPD2    C2 2177   2.315   1.252  13.125 -0.2000 -0.4249  0.0571
  140MPD2    C3 2178   2.379   1.130  13.085  0.2860 -0.3347  0.2605
  140MPD2    C4 2179   2.500   1.110  13.140 -0.6623 -0.1252  0.3789
  140MPD2    C5 2180   2.559   1.198  13.222  0.4237 -0.0954  0.1357
  140MPD2     H 2181   2.217   1.277  13.087 -0.2552 -0.2965  0.2883
  140MPD2    H1 2182   2.557   1.019  13.123  2.5154  1.8858  0.1173
  140MPD2    H2 2183   2.556   1.385  13.320  0.3623  3.0461 -1.7933
  140MPD2    H3 2184   2.644   1.169  13.282  0.9577 -1.1934 -1.1745
  140MPD2     N 2185   2.315   1.025  13.018  0.1971  0.4665  0.0681
  140MPD2    H5 2186   2.215   1.027  12.997  0.2289 -0.7638 -0.1839
  140MPD2    N1 2187   2.309   1.458  13.268  0.0062 -0.0384  0.6517
  140MPD2    H7 2188   2.366   1.524  13.321 -0.4776  1.2757 -0.4700
  141TMC2    C1 2189   2.803   3.003  14.094  0.1558  0.2599 -0.4977
  141TMC2    C2 2190   2.792   2.889  14.162 -0.1792  0.3366 -0.0216
  141TMC2    C3 2191   2.888   2.863  14.252  0.2721 -0.2682  0.0186
  141TMC2    C4 2192   2.906   3.086  14.094  1.2379 -0.2270 -0.2494
  141TMC2    C5 2193   3.020   3.044  14.172  0.0776 -0.1672 -0.6460
  141TMC2    C6 2194   3.013   2.925  14.248  0.0986 -0.3551 -0.1047
  141TMC2     C 2195   2.696   3.025  13.991 -1.3574  0.5259  0.2158
  141TMC2     O 2196   2.638   2.927  13.941 -0.3090 -0.2775 -0.3245
  141TMC2     H 2197   2.708   2.820  14.151  0.8845 -1.2160  1.5101
  141TMC2    H1 2198   2.912   3.171  14.027  3.0426 -0.3985 -0.3173
  141TMC2    H2 2199   3.074   2.900  14.334 -1.4353 -1.1822  0.7565
  141TMC2    C7 2200   3.137   3.122  14.180  0.8261 -0.1935  0.5096
  141TMC2    C8 2201   2.844   2.801  14.378  0.7395 -0.7365  0.9790
  141TMC2    O1 2202   3.129   3.244  14.153  0.2014  0.3795  0.3437
  141TMC2    O2 2203   2.921   2.770  14.466  0.3521  0.4514 -0.5805
  141TMC2    O5 2204   2.720   2.830  14.407  0.1995 -0.1411  1.0963
  141TMC2    H5 2205   2.676   2.875  14.331 -2.8018  0.6117  3.2774
  142TMC2    C1 2206   0.925   1.322  10.214  0.2276 -0.2462 -0.6074
  142TMC2    C2 2207   0.997   1.299  10.331 -0.8837 -0.1076 -0.6696
  142TMC2    C3 2208   1.094   1.384  10.369 -0.1995 -0.2572  0.2009
  142TMC2    C4 2209   0.950   1.429  10.139 -0.0443  0.4256 -0.5631
  142TMC2    C5 2210   1.056   1.508  10.169 -0.4684 -0.7544  0.4078
  142TMC2    C6 2211   1.123   1.488  10.294  0.2798 -0.7237 -0.0850
  142TMC2     C 2212   0.796   1.250  10.196  0.3088 -0.5648 -0.6588
  142TMC2     O 2213   0.717   1.306  10.119 -0.3735 -0.9594 -0.2021
  142TMC2     H 2214   0.974   1.228  10.408 -0.4576  0.8657  0.3575
  142TMC2    H1 2215   0.890   1.447  10.051 -1.8864  1.3323  0.8606
  142TMC2    H2 2216   1.201   1.559  10.319  0.3007 -0.2355 -1.5247
  142TMC2    C7 2217   1.101   1.631  10.100  0.5059  0.6809  0.0203
  142TMC2    C8 2218   1.172   1.358  10.489 -0.3118 -0.0584 -0.7377
  142TMC2    O1 2219   1.163   1.712  10.168  0.1267  0.0154  0.0922
  142TMC2    O2 2220   1.124   1.307  10.593 -0.0071 -0.2148  0.1060
  142TMC2    O5 2221   1.305   1.362  10.458 -0.2505  0.1029 -0.4871
  142TMC2    H5 2222   1.338   1.415  10.382 -1.2154 -1.5349 -2.0410
  143MPD2     C 2223   0.463   0.873  10.275  0.1329  0.3965 -0.4474
  143MPD2    C1 2224   0.454   0.978  10.185  0.0491  0.1486  0.0546
  143MPD2    C2 2225   0.560   1.068  10.182 -1.1825  0.0906  0.4186
  143MPD2    C3 2226   0.669   1.052  10.272  0.3819  0.0870 -0.0109
  143MPD2    C4 2227   0.677   0.946  10.360 -0.0740  0.0080 -0.9063
  143MPD2    C5 2228   0.567   0.861  10.359  0.0953 -0.3148 -0.1053
  143MPD2     H 2229   0.558   1.152  10.113  0.0547 -0.3184 -0.1266
  143MPD2    H1 2230   0.748   0.939  10.441  1.9988  2.6143 -2.5165
  143MPD2    H2 2231   0.390   0.794  10.286 -1.7707  2.2236  0.1002
  143MPD2    H3 2232   0.561   0.779  10.430 -0.5719  0.0112  0.2209
  143MPD2     N 2233   0.776   1.149  10.288  0.3772  0.8614  0.2481
  143MPD2    H5 2234   0.852   1.124  10.351 -0.2242 -1.8689 -0.1342
  143MPD2    N1 2235   0.347   0.974  10.095  0.2443  0.6329 -0.0463
  143MPD2    H7 2236   0.288   0.892  10.091  0.7804  0.0921  3.9068
  144TMC2    C1 2237   3.655   0.865   0.355  0.2884 -0.8289 -0.0243
  144TMC2    C2 2238   3.668   0.809   0.233  0.8732  0.4505 -0.1819
  144TMC2    C3 2239   3.794   0.786   0.190 -0.4259  0.1297 -0.9154
  144TMC2    C4 2240   3.762   0.910   0.435  0.4361 -0.0398  0.2938
  144TMC2    C5 2241   3.883   0.901   0.374 -0.4107  0.3127 -0.2388
  144TMC2    C6 2242   3.899   0.837   0.255  0.0417  0.4745 -0.5415
  144TMC2     C 2243   3.519   0.858   0.404  0.8684  0.6105 -0.5065
  144TMC2     O 2244   3.434   0.791   0.342 -0.3134 -0.1699  0.1090
  144TMC2     H 2245   3.581   0.784   0.174 -0.5438 -1.6869  2.8400
  144TMC2    H1 2246   3.751   0.956   0.532 -0.2493 -1.2936  0.8106
  144TMC2    H2 2247   3.998   0.823   0.213  0.6920  1.7662  0.5626
  144TMC2    C7 2248   4.008   0.931   0.447 -0.2401 -0.2995  0.3728
  144TMC2    C8 2249   3.822   0.718   0.066  0.0677 -0.3433  0.2354
  144TMC2    O1 2250   4.114   0.911   0.384 -0.4460 -0.7806 -0.6541
  144TMC2    O2 2251   3.934   0.703   0.024 -0.0812  0.1720 -0.1110
  144TMC2    O5 2252   3.723   0.635   0.031 -0.1238  0.0903  0.9725
  144TMC2    H5 2253   3.655   0.614   0.098 -0.4368 -0.2553  0.5476
  145MPD2     C 2254   3.150   1.000   0.736  0.0040 -0.3145 -0.1229
  145MPD2    C1 2255   3.149   0.900   0.641  0.2184 -0.2010 -0.6265
  145MPD2    C2 2256   3.268   0.859   0.582  0.3175  0.5295  0.0389
  145MPD2    C3 2257   3.384   0.939   0.604  0.0023  0.3685 -0.4932
  145MPD2    C4 2258   3.384   1.043   0.693 -0.5183  0.7172  0.2028
  145MPD2    C5 2259   3.268   1.067   0.762 -0.0178  0.5630  0.1485
  145MPD2     H 2260   3.271   0.764   0.530 -0.1539 -1.0763  2.9274
  145MPD2    H1 2261   3.472   1.103   0.712 -0.9206  1.4403 -0.1928
  145MPD2    H2 2262   3.067   1.033   0.797 -0.0489 -0.2536 -0.2302
  145MPD2    H3 2263   3.263   1.154   0.827  0.1976  1.4401 -1.0134
  145MPD2     N 2264   3.502   0.921   0.526  0.0512  0.3176 -0.2279
  145MPD2    H5 2265   3.575   0.978   0.567  0.0719  2.6184 -3.4766
  145MPD2    N1 2266   3.033   0.831   0.602 -0.2437  0.1058 -0.2255
  145MPD2    H7 2267   3.042   0.760   0.531 -0.7916  2.1064 -2.3095
  146TMC2    C1 2268   4.543   3.899  11.890 -0.6929  0.5663 -0.2544
  146TMC2    C2 2269   4.447   3.836  11.812 -1.0784 -0.0258  0.2554
  146TMC2    C3 2270   4.492   3.792  11.690  0.4066 -0.8786  0.4529
  146TMC2    C4 2271   4.673   3.902  11.850  0.1681  0.4272  0.3067
  146TMC2    C5 2272   4.710   3.849  11.730 -0.0541  0.0528 -0.8215
  146TMC2    C6 2273   4.620   3.800  11.652 -0.4055  0.1475  0.1886
  146TMC2     C 2274   4.492   3.990  11.990 -0.1346  0.3904  0.4424
  146TMC2     O 2275   4.376   4.031  11.990 -0.0825  0.1310 -0.4773
  146TMC2     H 2276   4.341   3.834  11.834 -0.9912  1.6927  0.8108
  146TMC2    H1 2277   0.011   3.964  11.897 -1.5380  2.0661  0.8298
  146TMC2    H2 2278   4.651   3.767  11.553  0.4268  0.3953  0.3613
  146TMC2    C7 2279   0.106   3.876  11.673 -0.4753  0.7577  0.5586
  146TMC2    C8 2280   4.397   3.735  11.594  0.2796  0.4452  0.5611
  146TMC2    O1 2281   0.120   3.886  11.551 -0.0718 -0.1785  0.3268
  146TMC2    O2 2282   4.433   3.715  11.481  0.1055  0.0463  0.4738
  146TMC2    O5 2283   4.318   3.664  11.664  0.0787  0.2647  0.1092
  146TMC2    H5 2284   4.307   3.685  11.759 -1.7090  1.4831 -0.3782
  147MPD2     C 2285   0.609   3.999  11.734 -0.9209 -0.4668  0.2654
  147MPD2    C1 2286   0.557   3.966  11.857 -0.2197  0.0275 -0.2774
  147MPD2    C2 2287   0.425   3.928  11.856  0.1540 -0.5231 -0.1103
  147MPD2    C3 2288   0.338   3.930  11.748  1.0228  0.6211 -0.9087
  147MPD2    C4 2289   0.387   3.984  11.634  0.4361  0.7330 -0.8804
  147MPD2    C5 2290   0.520   4.021  11.631  0.3458  0.6883  0.1553
  147MPD2     H 2291   0.395   3.876  11.946 -0.5668 -0.2540 -0.1915
  147MPD2    H1 2292   0.320   3.994  11.550 -0.1336 -0.7625 -0.5956
  147MPD2    H2 2293   0.710   4.038  11.724 -0.4155 -2.2018 -1.2826
  147MPD2    H3 2294   0.562   4.056  11.537  3.3655  1.8571  1.9280
  147MPD2     N 2295   0.209   3.886  11.768 -0.1928 -0.1194  0.1629
  147MPD2    H5 2296   0.190   3.863  11.865 -2.2641 -1.7109 -0.6219
  147MPD2    N1 2297   0.636   3.953  11.974 -0.3309  0.9086  0.1875
  147MPD2    H7 2298   0.734   3.936  11.951 -1.0500  0.7803 -2.8151
  148TMC2    C1 2299   4.687   2.957  10.099 -0.0311 -0.2174  0.8028
  148TMC2    C2 2300   4.705   3.087  10.108  0.5724 -0.0032 -0.2165
  148TMC2    C3 2301   0.085   3.142  10.065  0.2730 -0.2330  0.4367
  148TMC2    C4 2302   0.055   2.871  10.065 -0.0496 -0.4695 -0.1271
  148TMC2    C5 2303   0.169   2.932  10.023 -0.5837 -0.0778  0.1950
  148TMC2    C6 2304   0.193   3.066  10.033 -0.6531 -0.3925 -0.4532
  148TMC2     C 2305   4.555   2.913  10.121  0.5543  0.4546 -0.4042
  148TMC2     O 2306   4.464   2.992  10.103 -0.2562 -0.0048 -0.4663
  148TMC2     H 2307   4.623   3.147  10.146  1.3978  0.4243  0.8766
  148TMC2    H1 2308   0.052   2.763  10.061 -0.0476 -0.5405  1.8891
  148TMC2    H2 2309   0.289   3.105  10.001 -0.9241  0.0284 -0.7506
  148TMC2    C7 2310   0.290   2.863  10.016 -0.0486 -0.1756  0.1759
  148TMC2    C8 2311   0.082   3.284  10.037  0.0939  0.1057  0.1552
  148TMC2    O1 2312   0.390   2.915  10.053 -0.1849  0.7653 -0.0879
  148TMC2    O2 2313   4.717   3.345  10.016  0.4076 -0.5063 -0.1488
  148TMC2    O5 2314   0.193   3.343  10.090  0.4620  0.8120 -0.8008
  148TMC2    H5 2315   0.263   3.278  10.112  0.2185  0.2361 -1.7202
  149MPD2     C 2316   4.300   2.752  10.120  0.2334 -0.3753 -0.3306
  149MPD2    C1 2317   4.430   2.698  10.115  0.1318 -0.4886  0.1840
  149MPD2    C2 2318   4.443   2.558  10.103 -0.2624 -0.3274  0.0376
  149MPD2    C3 2319   4.340   2.473  10.093 -0.1539 -0.1819  0.6788
  149MPD2    C4 2320   4.215   2.532  10.085  0.2517 -0.4104 -1.3830
  149MPD2    C5 2321   4.195   2.665  10.104  0.4873  0.5849 -0.5740
  149MPD2     H 2322   4.545   2.523  10.096 -0.9585 -2.7527  2.3625
  149MPD2    H1 2323   4.130   2.464  10.085 -0.3313  0.3302  0.3394
  149MPD2    H2 2324   4.277   2.858  10.121 -1.9361 -0.8756  2.3095
  149MPD2    H3 2325   4.101   2.716  10.117 -0.4798 -1.5683  0.8520
  149MPD2     N 2326   4.338   2.332  10.099  0.5909  0.5238 -0.5603
  149MPD2    H5 2327   4.247   2.294  10.077  0.4993  0.2947  0.2199
  149MPD2    N1 2328   4.549   2.779  10.129  0.1155 -0.6402 -0.2884
  149MPD2    H7 2329   4.636   2.727  10.131 -0.3960 -1.5714 -2.2640
  150TMC2    C1 2330   2.071   2.786  12.398  0.0827  0.8071  0.1490
  150TMC2    C2 2331   2.084   2.923  12.384  1.0487 -0.0545  0.1949
  150TMC2    C3 2332   2.212   2.968  12.388 -0.0231 -0.2690 -0.7496
  150TMC2    C4 2333   2.182   2.705  12.410 -0.3502  0.4034  0.1570
  150TMC2    C5 2334   2.309   2.760  12.402 -0.7369  0.0693  0.0249
  150TMC2    C6 2335   2.329   2.892  12.402 -0.5625  0.4179 -0.1988
  150TMC2     C 2336   1.957   2.718  12.336  0.7827  0.2187  0.0388
  150TMC2     O 2337   1.892   2.786  12.262  0.5594  0.1979  0.2931
  150TMC2     H 2338   2.000   2.977  12.341  1.2385  0.6740  0.7505
  150TMC2    H1 2339   2.166   2.599  12.420  1.6295  0.1375  0.4868
  150TMC2    H2 2340   2.427   2.937  12.413 -0.6409  0.0986  1.9422
  150TMC2    C7 2341   2.416   2.666  12.371 -0.4800  0.8408  0.4357
  150TMC2    C8 2342   2.234   3.109  12.370  0.0687 -0.0807 -0.5416
  150TMC2    O1 2343   2.400   2.552  12.409  0.0932  0.8480  0.3143
  150TMC2    O2 2344   2.345   3.157  12.352 -0.0311 -0.3102 -0.3962
  150TMC2    O5 2345   2.137   3.164  12.439  0.0463  0.0177 -0.2792
  150TMC2    H5 2346   2.056   3.112  12.456 -0.0597  0.6076  1.0749
  151MPD2     C 2347   1.645   2.322  12.290  0.1002  0.2833 -0.6164
  151MPD2    C1 2348   1.699   2.400  12.189  0.0757  0.9671 -0.1857
  151MPD2    C2 2349   1.793   2.499  12.222 -0.8085  0.4166  0.1583
  151MPD2    C3 2350   1.839   2.507  12.352 -1.2279 -0.1368  0.6298
  151MPD2    C4 2351   1.792   2.419  12.445 -0.6951 -0.1950 -0.1331
  151MPD2    C5 2352   1.696   2.334  12.416 -0.4138 -0.4612 -0.8648
  151MPD2     H 2353   1.834   2.566  12.147 -0.6985 -0.4737 -0.5662
  151MPD2    H1 2354   1.820   2.424  12.549 -1.4820  1.9793 -0.0438
  151MPD2    H2 2355   1.568   2.248  12.274 -2.2247  2.5420  0.1355
  151MPD2    H3 2356   1.658   2.275  12.499 -1.4399  1.3635 -0.0336
  151MPD2     N 2357   1.927   2.600  12.397  0.8046 -0.1444 -0.5293
  151MPD2    H5 2358   1.971   2.580  12.486 -0.7838 -1.7271 -0.1038
  151MPD2    N1 2359   1.658   2.374  12.060 -0.4182 -0.7232 -0.3627
  151MPD2    H7 2360   1.587   2.302  12.044 -0.9005 -0.1486 -0.7941
  152TMC2    C1 2361   1.867   2.050  12.385  0.5186  0.3174  0.1537
  152TMC2    C2 2362   1.926   2.085  12.263  0.0949  0.3595  0.4605
  152TMC2    C3 2363   2.039   2.155  12.264  0.5169 -1.0402 -0.0196
  152TMC2    C4 2364   1.918   2.083  12.503  0.0542 -0.0804 -0.4895
  152TMC2    C5 2365   2.028   2.163  12.495 -0.5106  0.3993 -0.0843
  152TMC2    C6 2366   2.096   2.192  12.383 -0.4677  1.2415 -0.2209
  152TMC2     C 2367   1.734   1.989  12.378 -0.3342  1.1981 -0.0894
  152TMC2     O 2368   1.669   2.004  12.276  0.0933  0.1565  0.2687
  152TMC2     H 2369   1.873   2.064  12.170  0.5908 -1.4241  0.5863
  152TMC2    H1 2370   1.858   2.072  12.593 -0.0547  0.6066 -0.4745
  152TMC2    H2 2371   2.177   2.263  12.378  1.6925 -1.0941  1.3162
  152TMC2    C7 2372   2.058   2.235  12.613 -0.3302  0.4562  0.0647
  152TMC2    C8 2373   2.072   2.240  12.149 -0.3761  0.4966 -0.1916
  152TMC2    O1 2374   1.968   2.256  12.692 -0.1777  0.3579  0.3137
  152TMC2    O2 2375   2.091   2.364  12.155  0.8769 -0.4937  0.5589
  152TMC2    O5 2376   2.024   2.175  12.042  0.7310  0.3780  0.1023
  152TMC2    H5 2377   2.037   2.079  12.058 -1.8185  0.7432  4.3590
  153MPD2     C 2378   1.592   1.744  12.629  0.3951  0.2088  0.2952
  153MPD2    C1 2379   1.589   1.839  12.526  0.9811 -0.9053  0.1599
  153MPD2    C2 2380   1.471   1.867  12.456  0.4239 -0.2139  0.7982
  153MPD2    C3 2381   1.355   1.803  12.494  0.8301 -0.2270  0.7188
  153MPD2    C4 2382   1.354   1.728  12.610 -0.7316 -0.3303 -0.1022
  153MPD2    C5 2383   1.473   1.697  12.667  0.7064  0.3400  0.9440
  153MPD2     H 2384   1.466   1.947  12.384  1.1120 -0.9130 -0.0315
  153MPD2    H1 2385   1.266   1.694  12.664  0.3860 -1.3182  1.0846
  153MPD2    H2 2386   1.684   1.727  12.684 -1.1537 -0.7820  2.5764
  153MPD2    H3 2387   1.459   1.629  12.750  1.6078  0.6242  1.3262
  153MPD2     N 2388   1.239   1.839  12.432 -0.1669 -0.1348  0.3621
  153MPD2    H5 2389   1.248   1.897  12.349  5.0026 -0.1490  0.9449
  153MPD2    N1 2390   1.712   1.907  12.493  0.5246  0.3004  0.1651
  153MPD2    H7 2391   1.783   1.888  12.563  0.3478  0.0984  0.2896
  154TMC2    C1 2392   3.217   1.918  17.723 -0.9808 -0.2373  0.3858
  154TMC2    C2 2393   3.286   1.830   0.054 -0.4435 -0.3373  0.9473
  154TMC2    C3 2394   3.280   1.703   0.016  0.3353  0.0081  0.0571
  154TMC2    C4 2395   3.152   1.884  17.608  0.0904  0.0193  0.0730
  154TMC2    C5 2396   3.142   1.747  17.581 -0.4087 -0.1513  0.2268
  154TMC2    C6 2397   3.207   1.656  17.658  0.2011 -0.6538 -0.1190
  154TMC2     C 2398   3.198   2.047   0.033  0.2476 -0.0057 -0.1886
  154TMC2     O 2399   3.237   2.065   0.148 -0.4711  0.2228 -0.6099
  154TMC2     H 2400   3.338   1.852   0.147 -0.5599  0.3678  0.8440
  154TMC2    H1 2401   3.089   1.958  17.559  0.1311 -0.9481 -1.4269
  154TMC2    H2 2402   3.191   1.549  17.651 -1.3549 -0.5730  2.1538
  154TMC2    C7 2403   3.074   1.699  17.469 -0.6089  0.2909  0.0005
  154TMC2    C8 2404   3.345   1.600   0.097  0.2000  0.8877 -0.8737
  154TMC2    O1 2405   3.107   1.584  17.439 -0.5067  0.2085 -0.1480
  154TMC2    O2 2406   3.310   1.483   0.094  0.6349 -0.3619 -0.1524
  154TMC2    O5 2407   3.473   1.644   0.110  0.1599 -0.2334  0.0718
  154TMC2    H5 2408   3.495   1.730   0.067 -0.0651  1.2214  2.8910
  155MPD2     C 2409   3.062   2.345  17.624  0.1811 -0.2249 -0.0623
  155MPD2    C1 2410   3.116   2.276  17.727 -0.5590  0.0932  0.1924
  155MPD2    C2 2411   3.126   2.334   0.109  0.0161  0.6814 -0.2624
  155MPD2    C3 2412   3.093   2.470   0.125 -1.0044 -0.0264 -0.0747
  155MPD2    C4 2413   3.042   2.533   0.020 -0.3444 -0.2797 -0.0688
  155MPD2    C5 2414   3.023   2.472  17.640 -0.0414  0.7282 -0.7412
  155MPD2     H 2415   3.161   2.277   0.194  1.0378  0.7245 -0.6495
  155MPD2    H1 2416   3.007   2.635   0.022 -0.7923 -0.4418  0.3006
  155MPD2    H2 2417   3.027   2.284  17.541  2.0295 -0.9139 -0.3331
  155MPD2    H3 2418   2.963   2.527  17.568 -2.3168 -1.7837 -0.7844
  155MPD2     N 2419   3.108   2.526   0.256 -0.3173 -0.3466 -0.5686
  155MPD2    H5 2420   3.123   2.469   0.339 -0.3239  1.4936  0.7200
  155MPD2    N1 2421   3.142   2.138  17.696  0.0027  0.0909  0.5276
  155MPD2    H7 2422   3.125   2.108  17.600  1.8314 -0.5114  0.3873
  156TMC2    C1 2423   1.477   4.457  11.694 -0.7839  0.7443 -0.3415
  156TMC2    C2 2424   1.353   4.398  11.726 -0.1723  0.0668 -0.0755
  156TMC2    C3 2425   1.254   4.412  11.635  0.5279 -0.4354  0.6727
  156TMC2    C4 2426   1.499   4.504  11.568 -0.7168  0.2586 -0.4180
  156TMC2    C5 2427   1.390   4.502  11.478 -0.1853 -0.9455 -0.2287
  156TMC2    C6 2428   1.265   4.464  11.510 -0.0991 -0.1395  0.1151
  156TMC2     C 2429   1.587   4.471  11.786  0.1399 -0.3598 -0.0937
  156TMC2     O 2430   1.686   4.532  11.750  0.3674 -0.0373  0.2152
  156TMC2     H 2431   1.339   4.382  11.833 -0.1800 -0.4216 -0.1517
  156TMC2    H1 2432   1.600   4.534  11.540 -0.6299  0.4548  0.1058
  156TMC2    H2 2433   1.181   4.468  11.443 -1.2016 -0.5275  1.4796
  156TMC2    C7 2434   1.424   4.552  11.348  0.1267 -0.4048  0.3361
  156TMC2    C8 2435   1.124   4.353  11.668 -0.4298  0.4934  0.7395
  156TMC2    O1 2436   1.544   4.591  11.338  0.6064  0.4216 -0.4807
  156TMC2    O2 2437   1.023   4.368  11.606  0.0407 -0.2971 -0.3250
  156TMC2    O5 2438   1.146   4.244  11.747 -0.1212 -0.0750 -0.0732
  156TMC2    H5 2439   1.221   4.255  11.809 -0.5652 -1.5737  0.7098
  157MPD2     C 2440   1.657   4.286  12.093  0.3998 -0.7019 -0.0226
  157MPD2    C1 2441   1.672   4.374  11.990 -0.0255  0.9439 -0.1801
  157MPD2    C2 2442   1.766   4.477  12.007  0.0292  0.5587  0.2633
  157MPD2    C3 2443   1.854   4.480  12.111 -0.1052 -0.0243 -0.3156
  157MPD2    C4 2444   1.842   4.380  12.210 -0.7653  0.2140  0.9328
  157MPD2    C5 2445   1.746   4.291  12.193 -0.0160  0.4241  0.3595
  157MPD2     H 2446   1.774   4.565  11.944  1.4430  0.7538  0.7313
  157MPD2    H1 2447   1.912   4.382  12.292  0.4851  1.0336 -0.1495
  157MPD2    H2 2448   1.591   4.201  12.091  1.5155 -1.5410 -1.1283
  157MPD2    H3 2449   1.732   4.219  12.272 -1.5287 -0.4204 -0.6844
  157MPD2     N 2450   1.957   4.577  12.106  0.1462  0.2963 -0.5019
  157MPD2    H5 2451   1.945   4.637  12.025  1.5443  0.4964 -0.5641
  157MPD2    N1 2452   1.575   4.382  11.888  0.0920  0.5842 -0.3920
  157MPD2    H7 2453   1.491   4.325  11.888  0.1902  0.4409  1.3400
  158TMC2    C1 2454   1.854   3.452  13.146  0.1948 -0.5526  0.4891
  158TMC2    C2 2455   1.852   3.500  13.016 -0.2076 -0.9280 -0.1870
  158TMC2    C3 2456   1.730   3.525  12.961  0.0089 -0.7518  0.1064
  158TMC2    C4 2457   1.739   3.411  13.211  0.6454  0.1862  0.4754
  158TMC2    C5 2458   1.621   3.437  13.147  0.3929  0.8148 -0.0600
  158TMC2    C6 2459   1.615   3.498  13.021  0.0966 -0.4195  0.1120
  158TMC2     C 2460   1.976   3.476  13.218  0.2907  0.2937  0.6175
  158TMC2     O 2461   2.054   3.565  13.192 -0.4002 -0.5470  0.1928
  158TMC2     H 2462   1.945   3.526  12.967 -0.7972  1.1453 -0.2063
  158TMC2    H1 2463   1.735   3.382  13.315 -0.6779  0.8415  0.6040
  158TMC2    H2 2464   1.521   3.523  12.974  1.5046 -0.5554 -2.7380
  158TMC2    C7 2465   1.496   3.386  13.195 -0.0406  0.4280 -0.5853
  158TMC2    C8 2466   1.722   3.565  12.829  0.2027 -0.4110  0.7481
  158TMC2    O1 2467   1.397   3.434  13.142  0.4872  0.0054 -0.3473
  158TMC2    O2 2468   1.635   3.645  12.798 -0.0485  0.0624 -0.8245
  158TMC2    O5 2469   1.782   3.470  12.763  0.2345  0.6049  0.0037
  158TMC2    H5 2470   1.839   3.407  12.811  1.2303 -0.2811 -2.3109
  159MPD2     C 2471   2.220   3.456  13.659  0.9326  0.2297  0.0417
  159MPD2    C1 2472   2.202   3.326  13.624  0.2349  0.6140 -0.1329
  159MPD2    C2 2473   2.130   3.300  13.511 -0.5975  0.2156  0.2978
  159MPD2    C3 2474   2.075   3.412  13.440  0.2209 -0.3357  0.6330
  159MPD2    C4 2475   2.097   3.543  13.481 -1.8610 -0.8594  0.0689
  159MPD2    C5 2476   2.168   3.559  13.598 -0.2376  0.8415  0.2011
  159MPD2     H 2477   2.117   3.202  13.467  2.3623 -0.3986  0.8202
  159MPD2    H1 2478   2.056   3.633  13.437  2.3530  0.2678 -1.5019
  159MPD2    H2 2479   2.278   3.474  13.749  2.5905  0.6189 -1.0884
  159MPD2    H3 2480   2.176   3.658  13.641 -0.4212  1.7407 -1.8691
  159MPD2     N 2481   1.978   3.398  13.332  0.1204 -0.1395 -0.2215
  159MPD2    H5 2482   1.935   3.307  13.325  0.0612 -0.0933 -0.4762
  159MPD2    N1 2483   2.262   3.226  13.701  0.0264 -0.2369 -0.0419
  159MPD2    H7 2484   2.306   3.258  13.787 -0.8458 -2.7553  1.3212
  160TMC2    C1 2485   2.382   1.640   0.840  0.0975 -0.3357  0.1963
  160TMC2    C2 2486   2.268   1.579   0.880  0.4995  0.6798 -0.7931
  160TMC2    C3 2487   2.275   1.513   1.000 -0.8857  0.6751 -0.1660
  160TMC2    C4 2488   2.497   1.637   0.910  0.0363 -0.9255 -0.4323
  160TMC2    C5 2489   2.507   1.554   1.017 -0.2518  0.0269  0.0071
  160TMC2    C6 2490   2.395   1.492   1.070 -1.4720 -0.0365  0.3275
  160TMC2     C 2491   2.381   1.739   0.731  0.1395 -0.6382 -0.4028
  160TMC2     O 2492   2.493   1.756   0.683  0.1110  0.0641 -0.5340
  160TMC2     H 2493   2.174   1.601   0.832  0.0673  0.3130 -0.1165
  160TMC2    H1 2494   2.591   1.671   0.868 -0.6970  0.8364 -0.6483
  160TMC2    H2 2495   2.389   1.443   1.167 -0.7335 -1.3138 -0.2775
  160TMC2    C7 2496   2.629   1.547   1.088 -0.4670 -0.0189  0.0723
  160TMC2    C8 2497   2.149   1.466   1.055  0.0658  0.2732 -0.1798
  160TMC2    O1 2498   2.640   1.460   1.174 -1.1420 -0.4224 -0.3330
  160TMC2    O2 2499   2.049   1.538   1.050  0.4633 -0.1549 -0.4491
  160TMC2    O5 2500   2.171   1.345   1.113  0.7494  0.1817 -0.6901
  160TMC2    H5 2501   2.252   1.293   1.092 -0.4061 -0.9102 -2.3530
  161MPD2     C 2502   2.354   1.981   0.552  0.2401  0.2899 -0.3539
  161MPD2    C1 2503   2.248   1.917   0.610  0.4416  0.6882  0.0480
  161MPD2    C2 2504   2.115   1.956   0.577  0.4380 -0.5100  0.2701
  161MPD2    C3 2505   2.098   2.066   0.486 -0.2102 -0.3289  0.2363
  161MPD2    C4 2506   2.210   2.127   0.429 -0.9597 -0.0007 -0.0591
  161MPD2    C5 2507   2.337   2.087   0.462 -0.1994  0.1041 -0.1044
  161MPD2     H 2508   2.029   1.900   0.610  1.0420 -3.5369 -3.3013
  161MPD2    H1 2509   2.191   2.200   0.352 -1.0723  0.8550  0.7830
  161MPD2    H2 2510   2.457   1.964   0.581  0.0157  1.3456  1.0335
  161MPD2    H3 2511   2.424   2.132   0.414 -0.8410  0.8301 -0.5810
  161MPD2     N 2512   1.971   2.113   0.440 -0.1470  0.0809  0.3854
  161MPD2    H5 2513   1.960   2.200   0.389 -1.3481 -0.6572 -0.6225
  161MPD2    N1 2514   2.260   1.809   0.703 -0.0706  0.1587  0.8238
  161MPD2    H7 2515   2.178   1.793   0.760 -0.4182 -1.4593 -0.1534
  162TMC2    C1 2516   0.278   3.601   0.922  0.8019  0.0468 -0.6389
  162TMC2    C2 2517   0.236   3.645   1.044  0.4092  0.2455 -0.3450
  162TMC2    C3 2518   0.327   3.656   1.142 -0.4902  0.8661 -0.3631
  162TMC2    C4 2519   0.407   3.577   0.893 -0.1961 -0.2710  0.2278
  162TMC2    C5 2520   0.500   3.587   0.996  0.2204 -0.1981  0.4701
  162TMC2    C6 2521   0.461   3.626   1.126  0.0470  0.3405  1.1428
  162TMC2     C 2522   0.175   3.570   0.816 -0.0270  0.3503  0.1002
  162TMC2     O 2523   0.220   3.540   0.710  0.4592 -0.1288  0.1516
  162TMC2     H 2524   0.140   3.692   1.058 -0.0278 -0.7479  0.0066
  162TMC2    H1 2525   0.433   3.545   0.793  1.8438 -0.6674  0.9036
  162TMC2    H2 2526   0.544   3.647   1.193  0.3033 -0.0868  0.9585
  162TMC2    C7 2527   0.646   3.588   0.967  0.2245 -0.1599 -0.3228
  162TMC2    C8 2528   0.280   3.683   1.274 -0.5295  0.5236 -0.2974
  162TMC2    O1 2529   0.712   3.654   1.044 -0.3569  0.0819 -0.8649
  162TMC2    O2 2530   0.184   3.753   1.303  0.3671  0.4902 -0.6280
  162TMC2    O5 2531   0.330   3.592   1.354 -0.4304 -0.3140  0.0110
  162TMC2    H5 2532   0.388   3.523   1.315 -0.2992  0.6017 -1.4054
  163MPD2     C 2533   4.470   3.331   0.694  0.0856  0.4111  0.0401
  163MPD2    C1 2534   4.565   3.374   0.607  0.6498 -0.0440  0.1047
  163MPD2    C2 2535   4.664   3.459   0.669  0.4286 -0.4028 -0.0601
  163MPD2    C3 2536   4.672   3.495   0.800 -0.1077 -0.3034  0.5907
  163MPD2    C4 2537   4.566   3.457   0.881 -0.5311  0.4403  0.1630
  163MPD2    C5 2538   4.466   3.387   0.821  0.6106  0.8645  0.2827
  163MPD2     H 2539   0.010   3.495   0.608  1.9338  0.6885  2.6627
  163MPD2    H1 2540   4.569   3.477   0.987 -0.0996 -1.2691  0.4689
  163MPD2    H2 2541   4.387   3.277   0.649  0.4721  0.2289 -0.4516
  163MPD2    H3 2542   4.385   3.353   0.884  1.8166  0.7212  1.7324
  163MPD2     N 2543   0.046   3.559   0.864  0.4582  0.2973  0.2920
  163MPD2    H5 2544   0.032   3.576   0.964 -0.1578 -1.2332  0.4631
  163MPD2    N1 2545   4.556   3.338   0.472 -0.4200 -0.4049  0.0148
  163MPD2    H7 2546   4.493   3.263   0.446 -1.1640  0.2800 -0.1406
  164TMC2    C1 2547   0.323   2.404  10.326 -0.1443  0.0476  0.2602
  164TMC2    C2 2548   0.450   2.434  10.376 -0.3424 -0.3952 -0.3410
  164TMC2    C3 2549   0.470   2.559  10.418 -0.6316 -0.1117  0.4047
  164TMC2    C4 2550   0.222   2.498  10.305 -0.7403  0.7771  0.0104
  164TMC2    C5 2551   0.253   2.626  10.348  0.0559 -0.4528 -0.1536
  164TMC2    C6 2552   0.370   2.651  10.408 -0.3254 -0.4636  0.4048
  164TMC2     C 2553   0.276   2.260  10.322  0.1123 -0.2045 -0.6851
  164TMC2     O 2554   0.165   2.235  10.262 -0.1005  0.3289  0.0158
  164TMC2     H 2555   0.534   2.366  10.374  0.8811  1.1431 -2.2395
  164TMC2    H1 2556   0.127   2.464  10.264 -0.4083  0.1766 -0.2663
  164TMC2    H2 2557   0.382   2.744  10.463  4.0218  0.1692 -1.6301
  164TMC2    C7 2558   0.142   2.718  10.348  0.3854  0.3993  1.0595
  164TMC2    C8 2559   0.590   2.600  10.489  0.5773  0.1800 -0.1923
  164TMC2    O1 2560   0.038   2.662  10.327 -0.2895  0.5502  0.1077
  164TMC2    O2 2561   0.670   2.522  10.534 -0.0715  0.3662 -0.9773
  164TMC2    O5 2562   0.626   2.719  10.436  0.0483  0.0930  0.1946
  164TMC2    H5 2563   0.571   2.783  10.387  0.3417  0.0044 -0.2523
  165TMC2    C1 2564   2.099   0.640   0.987  0.3316  0.0683  0.0666
  165TMC2    C2 2565   2.062   0.512   0.986  0.5926  0.0045  0.4703
  165TMC2    C3 2566   2.160   0.420   0.966 -0.1475  0.5969  0.0983
  165TMC2    C4 2567   2.230   0.680   0.958  0.1243 -0.0947  0.1151
  165TMC2    C5 2568   2.316   0.578   0.922  0.5625 -0.0779 -0.8367
  165TMC2    C6 2569   2.286   0.450   0.925  0.2138 -0.0472 -0.2639
  165TMC2     C 2570   2.007   0.737   1.026 -0.6746 -0.2885 -0.2695
  165TMC2     O 2571   1.915   0.691   1.088 -0.0368  0.0119 -0.1995
  165TMC2     H 2572   1.959   0.484   1.002 -0.2101  1.3772 -2.2846
  165TMC2    H1 2573   2.261   0.783   0.957  2.5830 -0.8458 -0.3795
  165TMC2    H2 2574   2.366   0.377   0.919 -0.3693 -0.6683 -0.5852
  165TMC2    C7 2575   2.453   0.612   0.922 -0.3958  0.2721  0.3124
  165TMC2    C8 2576   2.118   0.281   0.952  0.3374  0.3082 -0.2792
  165TMC2    O1 2577   2.484   0.715   0.984  0.0199  0.0860  0.0029
  165TMC2    O2 2578   2.001   0.253   0.966  0.0100 -0.4130  0.5221
  165TMC2    O5 2579   2.221   0.207   1.005  0.1245  0.3372  0.0428
  165TMC2    H5 2580   2.311   0.214   0.967  0.6799  1.1287  1.5122
  166MPD2     C 2581   1.817   1.217   1.017 -0.9211 -0.0799 -0.2695
  166MPD2    C1 2582   1.747   1.097   1.056 -0.0723 -0.1712 -0.1958
  166MPD2    C2 2583   1.821   0.974   1.052 -1.1640 -0.4992  0.1123
  166MPD2    C3 2584   1.948   0.977   0.992  0.0315 -0.1966  0.1446
  166MPD2    C4 2585   2.000   1.095   0.939  0.5015 -0.5859  0.4598
  166MPD2    C5 2586   1.932   1.212   0.952 -0.1199 -0.1569  0.1919
  166MPD2     H 2587   1.773   0.881   1.079 -0.4961 -0.9124 -0.1131
  166MPD2    H1 2588   2.098   1.092   0.893  1.2020  1.0155  1.8326
  166MPD2    H2 2589   1.762   1.311   1.014  1.5001  1.3882  1.1565
  166MPD2    H3 2590   1.958   1.293   0.885  1.8601 -0.6581  0.3487
  166MPD2     N 2591   2.029   0.861   0.981 -0.1338 -0.3830  0.5705
  166MPD2    H5 2592   2.110   0.877   0.922 -1.4461  0.7334 -0.9319
  166MPD2    N1 2593   1.625   1.114   1.117  0.4940  0.4508  0.3532
  166MPD2    H7 2594   1.594   1.209   1.132 -1.8016  0.0291 -1.7328
  167TMC2    C1 2595   4.685   2.683  12.887 -0.5850 -0.0092  0.3436
  167TMC2    C2 2596   4.660   2.674  13.024 -0.0182 -0.5062  0.0330
  167TMC2    C3 2597   4.545   2.624  13.065  0.7798  0.2688 -0.2951
  167TMC2    C4 2598   4.580   2.639  12.803 -0.0328 -0.3540 -0.4307
  167TMC2    C5 2599   4.462   2.601  12.851  0.2487  0.1277 -0.4459
  167TMC2    C6 2600   4.437   2.604  12.988  0.5407  0.1419  0.6036
  167TMC2     C 2601   0.042   2.772  12.839  0.1736  0.2812  0.6699
  167TMC2     O 2602   0.089   2.856  12.917  0.1917  0.3393  0.3967
  167TMC2     H 2603   0.009   2.689  13.089  0.8044 -0.4436 -1.0541
  167TMC2    H1 2604   4.586   2.662  12.697 -1.3728 -0.6243 -0.5632
  167TMC2    H2 2605   4.338   2.580  13.027  0.3893  2.6673  1.7739
  167TMC2    C7 2606   4.363   2.538  12.767 -0.1623 -0.8053  0.4266
  167TMC2    C8 2607   4.527   2.590  13.213  0.0827  0.2271 -0.3495
  167TMC2    O1 2608   4.247   2.544  12.798 -0.5217  0.1389 -0.1052
  167TMC2    O2 2609   4.440   2.512  13.257 -0.2139 -0.1688 -0.0007
  167TMC2    O5 2610   4.619   2.657  13.289  0.0490 -0.2143 -0.0536
  167TMC2    H5 2611   4.678   2.718  13.240 -0.9240  0.5974 -0.2334
  168MPD2     C 2612   0.170   2.978  12.662 -0.1188 -0.4089 -0.0911
  168MPD2    C1 2613   0.113   2.862  12.616  0.8092  0.2743 -0.5416
  168MPD2    C2 2614   0.116   2.836  12.481  0.2237 -0.6162  0.2458
  168MPD2    C3 2615   0.154   2.931  12.392 -0.0460  0.1403 -0.9383
  168MPD2    C4 2616   0.209   3.052  12.434  0.1181 -0.4789 -0.7218
  168MPD2    C5 2617   0.222   3.068  12.571 -0.0228 -0.1637 -0.1836
  168MPD2     H 2618   0.057   2.752  12.446  1.3937 -0.7542 -1.3595
  168MPD2    H1 2619   0.247   3.126  12.364 -3.3010  0.6435 -1.4036
  168MPD2    H2 2620   0.167   3.010  12.766 -0.8989 -1.3203  0.1637
  168MPD2    H3 2621   0.265   3.161  12.604  0.8847 -0.2136 -1.2660
  168MPD2     N 2622   0.145   2.897  12.258 -0.5768 -0.2978 -0.2843
  168MPD2    H5 2623   0.114   2.805  12.231 -1.9758  0.3768 -0.9492
  168MPD2    N1 2624   0.058   2.763  12.709  0.4250 -0.0048 -0.3328
  168MPD2    H7 2625   0.018   2.678  12.669  1.5480 -0.8320  0.3082
  169MPD1     C 2626   2.893   2.262   7.943  0.3720  0.4421 -0.0229
  169MPD1    C1 2627   2.877   2.126   7.964 -0.6636 -0.0943  0.4689
  169MPD1    C2 2628   2.842   2.086   8.094  0.1355 -0.5429 -0.8444
  169MPD1    C3 2629   2.815   2.177   8.195  0.1836 -0.6854 -0.7796
  169MPD1    C4 2630   2.838   2.305   8.169 -0.5852 -0.2304  0.8125
  169MPD1    C5 2631   2.888   2.349   8.049  1.1117  0.1607  1.5787
  169MPD1     H 2632   2.823   1.981   8.115  0.1312 -0.1817  0.8959
  169MPD1    H1 2633   2.824   2.377   8.249  2.2794 -0.2332  1.3512
  169MPD1    H2 2634   2.914   2.297   7.842  1.3887 -0.8139 -0.2485
  169MPD1    H3 2635   2.901   2.455   8.031  0.5599 -0.0730 -0.2032
  169MPD1     N 2636   2.765   2.128   8.318 -0.4470  0.1413  0.0735
  169MPD1    H5 2637   2.749   2.028   8.325  1.8694 -0.1262  1.3448
  169MPD1    N1 2638   2.890   2.038   7.860  0.0654  0.0725  0.4166
  169MPD1    H6 2639   2.956   2.069   7.789 -0.5870  0.4102 -0.0394
  169MPD1    H7 2640   2.915   1.940   7.873 -0.4001 -0.2173 -0.9374
  170MPD1     C 2641   1.186   0.080  12.794 -0.1557  0.0405 -0.5791
  170MPD1    C1 2642   1.089   0.159  12.726 -0.5480 -0.4986 -0.0348
  170MPD1    C2 2643   0.992   0.215  12.805 -0.4073 -0.4845 -0.4749
  170MPD1    C3 2644   0.984   0.186  12.939  0.3671  0.4891 -0.4272
  170MPD1    C4 2645   1.080   0.111  13.002 -0.1454 -0.0999 -0.1970
  170MPD1    C5 2646   1.187   0.064  12.929 -0.2545 -1.2572 -0.2940
  170MPD1     H 2647   0.918   0.274  12.753 -0.3769 -0.8741 -0.9615
  170MPD1    H1 2648   1.079   0.079  13.106 -1.4287  0.2722 -0.0903
  170MPD1    H2 2649   1.267   0.025  12.746 -1.3369 -1.3721 -0.9640
  170MPD1    H3 2650   1.252   4.729  12.977 -1.7355 -1.9337  0.7206
  170MPD1     N 2651   0.882   0.249  13.014  0.0187  0.5984 -0.2797
  170MPD1    H5 2652   0.816   0.317  12.976  1.5954  1.6493 -1.1424
  170MPD1    N1 2653   1.090   0.165  12.586 -0.2345  0.7803  0.2684
  170MPD1    H6 2654   1.036   0.245  12.555 -2.3286 -0.5649  0.4855
  170MPD1    H7 2655   1.178   0.145  12.539  0.2425 -1.3338  2.0445
  171MPD1     C 2656   3.962   1.743  15.160 -0.2655 -0.2361  0.0100
  171MPD1    C1 2657   3.915   1.622  15.098  0.0403  0.3400  0.6794
  171MPD1    C2 2658   3.938   1.501  15.171 -0.7713 -0.4225 -0.1481
  171MPD1    C3 2659   4.029   1.496  15.272 -0.4821  0.3359  0.0905
  171MPD1    C4 2660   4.085   1.610  15.319  0.7447  0.0048 -0.5920
  171MPD1    C5 2661   4.044   1.732  15.269  0.1206  0.1653  0.7613
  171MPD1     H 2662   3.890   1.407  15.144  2.3323 -2.5398  1.7502
  171MPD1    H1 2663   4.161   1.608  15.396  0.2550 -0.3024 -0.1154
  171MPD1    H2 2664   3.944   1.840  15.115  0.8160  0.5211  1.2225
  171MPD1    H3 2665   4.074   1.824  15.318  0.7123  0.2409  0.2604
  171MPD1     N 2666   4.063   1.377  15.335 -0.5043 -1.0365  0.5522
  171MPD1    H5 2667   4.124   1.399  15.413 -0.8551  2.4816 -0.1842
  171MPD1    N1 2668   3.820   1.623  14.991 -0.1702 -0.2933 -0.3219
  171MPD1    H6 2669   3.800   1.535  14.944 -1.8730  1.0537 -2.1089
  171MPD1    H7 2670   3.839   1.701  14.928 -2.9141 -0.8019 -1.7867
  172MPD1     C 2671   2.702   0.974   0.028  0.2276 -0.0319 -0.6970
  172MPD1    C1 2672   2.715   1.109   0.051 -0.6260  0.6863 -0.2159
  172MPD1    C2 2673   2.770   1.147   0.169 -0.1116 -0.3332  0.2618
  172MPD1    C3 2674   2.857   1.060   0.245  0.0783 -0.4108  0.8702
  172MPD1    C4 2675   2.860   0.931   0.204 -0.1080 -0.1401  0.2731
  172MPD1    C5 2676   2.781   0.891   0.102 -0.3780 -0.1766 -1.0437
  172MPD1     H 2677   2.769   1.255   0.180 -4.1708 -0.0994 -2.2501
  172MPD1    H1 2678   2.931   0.864   0.251 -0.7885 -1.6321 -0.8564
  172MPD1    H2 2679   2.644   0.931  17.692 -1.0797  1.0355 -0.3194
  172MPD1    H3 2680   2.774   0.786   0.075 -0.8378 -0.5892  0.6748
  172MPD1     N 2681   2.942   1.106   0.346 -0.2597  0.0013  0.0741
  172MPD1    H5 2682   2.999   1.032   0.386  0.1729 -0.5592 -1.5932
  172MPD1    N1 2683   2.650   1.203  17.714  0.2020  0.3512  0.4475
  172MPD1    H6 2684   2.659   1.174  17.617 -3.2519  0.5950  0.0539
  172MPD1    H7 2685   2.686   1.299  17.710 -0.0359  0.4244  0.0106
  173MPD1     C 2686   0.119   0.998  13.755  0.5620  0.0314 -0.6337
  173MPD1    C1 2687   0.076   1.026  13.885  0.6300  0.5116 -0.3242
  173MPD1    C2 2688   0.055   0.917  13.971 -0.6017 -0.3700  0.0569
  173MPD1    C3 2689   0.092   0.787  13.924  0.1245 -0.1710 -0.4039
  173MPD1    C4 2690   0.138   0.768  13.793  0.1491 -0.1084 -0.3272
  173MPD1    C5 2691   0.140   0.876  13.708 -0.4551 -0.4725  0.6161
  173MPD1     H 2692   0.032   0.935  14.076 -0.1420 -2.7777  0.5662
  173MPD1    H1 2693   0.159   0.666  13.762 -0.1570 -0.4721  0.6687
  173MPD1    H2 2694   0.132   1.084  13.691  0.3655  0.0844 -0.6022
  173MPD1    H3 2695   0.166   0.855  13.605 -0.4065 -0.8381  0.7029
  173MPD1     N 2696   0.097   0.680  14.014 -0.0440 -0.3525 -0.0403
  173MPD1    H5 2697   0.051   0.692  14.104  0.6893 -0.3276  0.3320
  173MPD1    N1 2698   0.064   1.153  13.932 -0.2670 -0.8244 -0.9938
  173MPD1    H6 2699   4.729   1.159  14.004  0.7910  0.8091 -0.0866
  173MPD1    H7 2700   0.040   1.220  13.858  2.6056 -0.7776 -1.8923
  174MPD1     C 2701   0.683   0.087  14.657 -0.4535 -0.4236 -0.1608
  174MPD1    C1 2702   0.708   0.112  14.527  0.0109 -0.0122  0.6810
  174MPD1    C2 2703   0.604   0.164  14.450 -0.2480 -0.0734  1.0264
  174MPD1    C3 2704   0.488   0.204  14.510  0.8486  0.1649 -0.5349
  174MPD1    C4 2705   0.468   0.182  14.647 -0.6190 -0.0097  0.1415
  174MPD1    C5 2706   0.563   0.111  14.720  0.2922  0.0422  0.1766
  174MPD1     H 2707   0.622   0.194  14.347  2.5529 -1.8638  0.9820
  174MPD1    H1 2708   0.376   0.210  14.696 -0.6594 -0.2673  0.2141
  174MPD1    H2 2709   0.768   0.056  14.717 -0.6839 -2.5152 -0.9010
  174MPD1    H3 2710   0.543   0.089  14.824  0.0764  1.4189  0.4331
  174MPD1     N 2711   0.379   0.254  14.434  0.0588 -0.1617  0.3033
  174MPD1    H5 2712   0.312   0.300  14.495  0.6990 -0.8915  1.5644
  174MPD1    N1 2713   0.835   0.086  14.469 -0.5607  0.5878 -0.2853
  174MPD1    H6 2714   0.906   0.106  14.539  0.4919 -0.2791 -1.1075
  174MPD1    H7 2715   0.849   0.140  14.384  1.1936  2.6389  1.3198
  175MPD1     C 2716   2.971   1.597  15.111  0.5930  0.2335  0.8905
  175MPD1    C1 2717   2.838   1.611  15.153 -0.6534 -0.3402  0.3449
  175MPD1    C2 2718   2.809   1.576  15.285 -0.1048 -0.2588  0.9895
  175MPD1    C3 2719   2.906   1.510  15.359 -0.6064 -0.1516  0.1160
  175MPD1    C4 2720   3.030   1.482  15.299  0.1972  0.3604 -1.2034
  175MPD1    C5 2721   3.065   1.527  15.181 -0.4774  0.1434  0.3299
  175MPD1     H 2722   2.711   1.598  15.325 -0.9172 -0.5025 -0.8327
  175MPD1    H1 2723   3.102   1.420  15.350 -0.9091 -0.1702 -0.2828
  175MPD1    H2 2724   2.992   1.612  15.006  0.4074 -0.8240  0.6998
  175MPD1    H3 2725   3.162   1.495  15.147 -0.7533  1.5464 -1.7874
  175MPD1     N 2726   2.889   1.452  15.488  0.3238 -0.0642  0.0027
  175MPD1    H5 2727   2.973   1.406  15.523  0.1601  0.9519  1.7141
  175MPD1    N1 2728   2.746   1.684  15.072 -0.1061  0.6134 -0.2759
  175MPD1    H6 2729   2.647   1.686  15.098  0.5015 -0.8346  2.1145
  175MPD1    H7 2730   2.753   1.659  14.973 -2.0808 -0.7154 -0.0914
  176MPD1     C 2731   0.052   3.263  16.728  0.1697 -0.2483  0.6896
  176MPD1    C1 2732   0.013   3.252  16.858  0.5264 -0.0550  0.1428
  176MPD1    C2 2733   4.732   3.369  16.932 -0.2928 -0.7918  1.6578
  176MPD1    C3 2734   0.055   3.481  16.886 -0.4707 -0.5392  0.2104
  176MPD1    C4 2735   0.095   3.499  16.754  0.9516 -0.5633 -0.2429
  176MPD1    C5 2736   0.091   3.385  16.675  0.3841  0.8576  0.4655
  176MPD1     H 2737   4.686   3.375  17.030 -1.1767 -2.8000  1.3483
  176MPD1    H1 2738   0.127   3.592  16.709 -1.0341 -1.0398 -2.6627
  176MPD1    H2 2739   0.043   3.180  16.658 -1.1038  0.5806 -0.1098
  176MPD1    H3 2740   0.098   3.394  16.567  0.4570  1.6012  0.5282
  176MPD1     N 2741   0.044   3.595  16.974  0.3464  0.3123  0.3112
  176MPD1    H5 2742   4.726   3.586  17.060 -0.9543 -0.5782 -0.5987
  176MPD1    N1 2743   4.685   3.135  16.911  0.0474  0.1955 -0.3372
  176MPD1    H6 2744   4.726   3.048  16.878 -1.9716 -0.2462 -1.6737
  176MPD1    H7 2745   4.679   3.127  17.012 -0.1289 -1.9178 -0.5114
  177MPD1     C 2746   2.721   3.147  10.729 -0.1754 -0.1373  0.3044
  177MPD1    C1 2747   2.680   3.066  10.627 -0.5753  0.1909  0.3899
  177MPD1    C2 2748   2.716   3.114  10.499 -0.1058 -0.0600 -0.1686
  177MPD1    C3 2749   2.823   3.196  10.485 -0.2396  0.3354  0.2465
  177MPD1    C4 2750   2.865   3.264  10.592  0.7731  0.2348  0.0059
  177MPD1    C5 2751   2.813   3.248  10.715 -0.1135 -0.6560 -0.4430
  177MPD1     H 2752   2.665   3.076  10.411 -0.2435 -0.4727  0.0888
  177MPD1    H1 2753   2.951   3.330  10.595 -0.1494  1.4305 -0.3021
  177MPD1    H2 2754   2.692   3.135  10.833 -0.5418 -2.7581 -0.1060
  177MPD1    H3 2755   2.845   3.294  10.808  1.9199 -1.6052 -0.6645
  177MPD1     N 2756   2.863   3.219  10.353  0.3753  0.8560  0.4755
  177MPD1    H5 2757   2.806   3.186  10.276 -0.0510  2.4017  0.1235
  177MPD1    N1 2758   2.573   2.983  10.638 -0.3400  0.0914  0.1579
  177MPD1    H6 2759   2.572   2.933  10.726 -0.2170  1.4777  0.9583
  177MPD1    H7 2760   2.562   2.919  10.559  0.7594  2.0546 -1.6090
  178MPD1     C 2761   0.594   4.080  17.722 -0.0807 -0.8339 -0.2480
  178MPD1    C1 2762   0.688   4.183  17.714  0.6976 -0.0932 -0.3284
  178MPD1    C2 2763   0.792   4.155  17.625 -0.5257  0.3095  0.1187
  178MPD1    C3 2764   0.796   4.041  17.546  0.8541 -0.1794 -0.7596
  178MPD1    C4 2765   0.694   3.950  17.540 -0.7725  0.4288 -0.0024
  178MPD1    C5 2766   0.594   3.970  17.632 -0.2188 -0.5917  0.1880
  178MPD1     H 2767   0.876   4.223  17.625  0.8970 -1.4382  1.7443
  178MPD1    H1 2768   0.696   3.866  17.471  1.4684 -0.1930  0.8357
  178MPD1    H2 2769   0.524   4.084   0.059  2.1127  0.8602  1.5345
  178MPD1    H3 2770   0.520   3.891  17.631  2.0450 -2.7086 -0.5269
  178MPD1     N 2771   0.903   4.017  17.459 -0.3009 -0.4372 -0.0621
  178MPD1    H5 2772   0.889   3.937  17.397 -1.0954 -1.3727  1.3253
  178MPD1    N1 2773   0.696   4.278   0.071  0.0145  0.1973  0.3894
  178MPD1    H6 2774   0.605   4.303   0.108 -0.1441  1.1773 -0.6372
  178MPD1    H7 2775   0.739   4.367   0.048  0.1351  0.1525  0.4410
  179MPD1     C 2776   0.820   1.981  15.541 -0.3819  0.1286  0.0749
  179MPD1    C1 2777   0.769   2.099  15.491  0.2168 -0.9495  0.2264
  179MPD1    C2 2778   0.645   2.134  15.535  0.2296 -1.0781  0.8211
  179MPD1    C3 2779   0.575   2.065  15.636  0.9325 -0.5770  0.3792
  179MPD1    C4 2780   0.641   1.952  15.688  0.3326  0.1435  0.0598
  179MPD1    C5 2781   0.759   1.910  15.635 -0.7200 -0.1530  0.5329
  179MPD1     H 2782   0.605   2.227  15.496  1.9652  0.3602  2.4363
  179MPD1    H1 2783   0.599   1.889  15.766  1.9932  1.1791  1.7964
  179MPD1    H2 2784   0.907   1.933  15.497 -1.1924 -2.0189  0.8026
  179MPD1    H3 2785   0.805   1.820  15.674  1.2532  0.0843 -1.2765
  179MPD1     N 2786   0.453   2.102  15.692 -0.1667 -0.5377  0.1639
  179MPD1    H5 2787   0.415   2.047  15.769 -0.3443 -1.2827 -0.4587
  179MPD1    N1 2788   0.826   2.166  15.383 -0.1005  0.1771 -0.1408
  179MPD1    H6 2789   0.802   2.265  15.384  2.0783  0.7060 -0.5069
  179MPD1    H7 2790   0.923   2.155  15.355 -0.0199 -0.2372  0.2888
  180MPD1     C 2791   0.412   3.695  14.951  0.1862  0.5278 -0.1453
  180MPD1    C1 2792   0.515   3.732  14.875 -0.1239  0.0750  0.2551
  180MPD1    C2 2793   0.479   3.750  14.740 -0.3955 -0.0409 -0.1811
  180MPD1    C3 2794   0.352   3.731  14.686  0.3972  0.1276 -0.1662
  180MPD1    C4 2795   0.254   3.703  14.778  0.3934  0.2849  0.0781
  180MPD1    C5 2796   0.287   3.677  14.908  0.3749  0.8496 -0.0870
  180MPD1     H 2797   0.554   3.774  14.665 -1.5947  1.8770 -0.7575
  180MPD1    H1 2798   0.149   3.699  14.751  0.1901  2.7405  0.4644
  180MPD1    H2 2799   0.429   3.685  15.057  1.3682 -1.7985 -0.5551
  180MPD1    H3 2800   0.205   3.669  14.978 -1.4379 -1.6630 -2.5116
  180MPD1     N 2801   0.329   3.739  14.548  0.1074  0.2016 -0.1185
  180MPD1    H5 2802   0.407   3.752  14.484  1.4480  1.5083  1.7615
  180MPD1    N1 2803   0.649   3.746  14.912  0.3194 -0.1488 -0.8817
  180MPD1    H6 2804   0.660   3.764  15.011  1.3138  1.4455 -1.2871
  180MPD1    H7 2805   0.698   3.811  14.851  0.6665  1.3186  0.9863
  181MPD1     C 2806   1.266   0.656   9.422  0.6092  0.1921  0.4426
  181MPD1    C1 2807   1.340   0.763   9.378  0.1733 -0.2116  0.1557
  181MPD1    C2 2808   1.461   0.785   9.436 -0.0469  0.4812  0.1538
  181MPD1    C3 2809   1.517   0.690   9.529 -0.3379  0.1442  0.7143
  181MPD1    C4 2810   1.447   0.578   9.563  0.4108 -0.0573 -0.4760
  181MPD1    C5 2811   1.316   0.568   9.518 -0.0915 -0.1737 -0.2255
  181MPD1     H 2812   1.517   0.874   9.409 -0.0275 -0.1869 -2.0059
  181MPD1    H1 2813   1.480   0.499   9.629  4.5292  1.0626 -1.2122
  181MPD1    H2 2814   1.166   0.631   9.390  0.2644 -0.2394  1.8904
  181MPD1    H3 2815   1.258   0.487   9.558  0.1078  0.0810  0.5694
  181MPD1     N 2816   1.644   0.709   9.595 -0.6573  0.1157 -0.1852
  181MPD1    H5 2817   1.682   0.624   9.634 -0.3502 -0.5491 -1.9226
  181MPD1    N1 2818   1.287   0.856   9.291  0.2734  0.4766  0.1224
  181MPD1    H6 2819   1.358   0.905   9.238  1.1699 -1.9112 -0.8241
  181MPD1    H7 2820   1.220   0.811   9.229  1.1928 -1.0471  0.2589
  182MPD1     C 2821   4.378   4.618   0.810 -0.2113  0.8504  0.0342
  182MPD1    C1 2822   4.309   4.553   0.703  0.3002 -0.3842 -0.7037
  182MPD1    C2 2823   4.169   4.574   0.710 -0.1071 -0.1640 -0.2413
  182MPD1    C3 2824   4.103   4.637   0.820  0.0236  0.5573 -0.0467
  182MPD1    C4 2825   4.180   4.674   0.925  0.0137  0.2078 -0.4829
  182MPD1    C5 2826   4.313   4.680   0.914 -0.8765  0.1246  0.0193
  182MPD1     H 2827   4.121   4.526   0.626  2.8558 -0.1640 -1.9256
  182MPD1    H1 2828   4.142   4.718   1.016 -1.6568 -2.8641  0.3217
  182MPD1    H2 2829   4.484   4.635   0.818 -0.1343 -0.2354  1.2694
  182MPD1    H3 2830   4.365   4.728   0.996  0.8339 -0.6810 -0.5909
  182MPD1     N 2831   3.964   4.650   0.830  0.0977 -0.0429  0.0479
  182MPD1    H5 2832   3.924   4.695   0.912  0.2537  1.0617 -0.4803
  182MPD1    N1 2833   4.375   4.516   0.586  0.1567  0.6295 -0.3211
  182MPD1    H6 2834   4.325   4.435   0.549 -0.5713  1.7707 -1.8361
  182MPD1    H7 2835   4.461   4.470   0.615  0.4723  1.0654 -0.5675
  183MPD1     C 2836   2.646   0.213   8.378  0.6166  0.7263 -0.6783
  183MPD1    C1 2837   2.541   0.287   8.430  0.0855 -1.0906  0.6221
  183MPD1    C2 2838   2.525   0.294   8.567 -0.0172 -0.4322  0.1710
  183MPD1    C3 2839   2.631   0.254   8.648  0.3456 -0.3192 -0.4243
  183MPD1    C4 2840   2.739   0.179   8.594 -0.1817  0.8568 -0.1579
  183MPD1    C5 2841   2.740   0.157   8.460 -0.0155  0.0044 -0.4421
  183MPD1     H 2842   2.437   0.343   8.606  0.5950  0.8269 -0.0162
  183MPD1    H1 2843   2.818   0.138   8.656 -0.5858 -1.8543 -1.3985
  183MPD1    H2 2844   2.649   0.210   8.269 -1.0009 -1.9122 -0.6489
  183MPD1    H3 2845   2.822   0.102   8.415  0.6721 -0.0522  0.8691
  183MPD1     N 2846   2.621   0.279   8.787  0.6399  0.0679 -0.0043
  183MPD1    H5 2847   2.535   0.323   8.816  0.1498 -0.7030 -0.2808
  183MPD1    N1 2848   2.427   0.318   8.353  0.0850 -0.3365 -0.2956
  183MPD1    H6 2849   2.376   0.393   8.400 -1.3658 -1.0298 -0.7633
  183MPD1    H7 2850   2.440   0.347   8.257  2.5409  0.0299  0.1551
  184MPD1     C 2851   1.762   3.131  10.330  0.0851 -0.0780 -0.3919
  184MPD1    C1 2852   1.684   3.112  10.217  0.3273  0.3558 -0.4997
  184MPD1    C2 2853   1.754   3.107  10.102  1.0009  0.4414 -1.0740
  184MPD1    C3 2854   1.899   3.108  10.088  0.7085 -0.0086 -0.1754
  184MPD1    C4 2855   1.967   3.100  10.205 -0.0614 -0.3838  1.2227
  184MPD1    C5 2856   1.897   3.111  10.323  0.4222 -0.1808  0.3990
  184MPD1     H 2857   1.701   3.113  10.007 -2.7960 -2.3075  0.8658
  184MPD1    H1 2858   2.074   3.115  10.206 -0.3657  1.6156  2.8091
  184MPD1    H2 2859   1.714   3.157  10.423 -0.7602 -0.2079 -0.7848
  184MPD1    H3 2860   1.948   3.113  10.419  0.7053 -2.1058  0.2824
  184MPD1     N 2861   1.971   3.101   9.962 -0.4193  0.4199  0.2175
  184MPD1    H5 2862   2.071   3.098   9.977 -0.3318 -3.7277 -1.2148
  184MPD1    N1 2863   1.545   3.126  10.229  0.0247 -0.2833  0.1024
  184MPD1    H6 2864   1.496   3.096  10.313  2.5043  1.4926  2.1822
  184MPD1    H7 2865   1.492   3.098  10.147  2.7038 -2.3530 -0.9064
  185MPD1     C 2866   1.884   2.525   9.172 -0.2490  0.2628 -0.4896
  185MPD1    C1 2867   1.992   2.611   9.135  0.4177  0.2892 -0.2670
  185MPD1    C2 2868   2.025   2.707   9.227  0.3823 -0.4521 -0.9528
  185MPD1    C3 2869   1.972   2.717   9.359 -0.2874 -0.6975 -0.3302
  185MPD1    C4 2870   1.878   2.624   9.396  0.4545 -0.3323  0.0365
  185MPD1    C5 2871   1.836   2.540   9.302 -0.3353 -0.0733 -0.0889
  185MPD1     H 2872   2.084   2.793   9.198  2.0170 -1.7520 -1.4460
  185MPD1    H1 2873   1.829   2.626   9.493 -0.1576 -2.8965 -0.2233
  185MPD1    H2 2874   1.838   2.452   9.106 -2.1589  0.7003  0.3512
  185MPD1    H3 2875   1.753   2.475   9.328 -0.7646  0.7175  0.4928
  185MPD1     N 2876   2.006   2.813   9.456  0.3643  0.7217 -0.7953
  185MPD1    H5 2877   1.941   2.823   9.534 -0.4463  1.0307 -1.5120
  185MPD1    N1 2878   2.009   2.636   8.999  0.2878 -0.0890  0.1766
  185MPD1    H6 2879   2.015   2.554   8.938 -1.3815  0.0113 -0.1360
  185MPD1    H7 2880   2.099   2.680   8.987  0.7436 -1.0840 -0.0957
  186MPD1     C 2881   1.143   2.438  15.516  0.4772 -0.1051  0.0680
  186MPD1    C1 2882   1.061   2.407  15.620  0.0514  0.1948 -0.0165
  186MPD1    C2 2883   1.058   2.492  15.733 -0.1790  0.4440 -0.1226
  186MPD1    C3 2884   1.109   2.618  15.731 -0.0007 -0.2420 -0.2776
  186MPD1    C4 2885   1.173   2.657  15.609 -0.6168 -0.1865 -0.4355
  186MPD1    C5 2886   1.202   2.559  15.511  0.2333 -0.5758  0.4696
  186MPD1     H 2887   0.999   2.462  15.820  2.4976  0.2727  1.6162
  186MPD1    H1 2888   1.204   2.759  15.590 -0.7497  0.0060  0.3584
  186MPD1    H2 2889   1.179   2.366  15.443 -0.7611  1.3533 -1.9611
  186MPD1    H3 2890   1.257   2.581  15.421  1.1046  0.1109  1.1677
  186MPD1     N 2891   1.090   2.713  15.831  0.4541 -0.4646  0.2176
  186MPD1    H5 2892   1.124   2.809  15.821 -0.4210 -0.2129 -0.2944
  186MPD1    N1 2893   1.027   2.269  15.638  0.2605 -0.2771  0.2343
  186MPD1    H6 2894   0.983   2.230  15.556  1.1255 -0.7038 -0.0266
  186MPD1    H7 2895   0.959   2.265  15.714  1.2471 -0.2698  1.1146
  187MPD1     C 2896   0.606   4.318  17.337  0.1699 -0.4828  0.1678
  187MPD1    C1 2897   0.477   4.263  17.326  0.2562 -0.9746  0.3615
  187MPD1    C2 2898   0.401   4.301  17.218 -0.2868 -0.3123  0.0016
  187MPD1    C3 2899   0.432   4.412  17.143  0.1453 -0.9441  0.1339
  187MPD1    C4 2900   0.553   4.468  17.155 -0.3803  0.1196  0.2109
  187MPD1    C5 2901   0.639   4.422  17.250  0.5687  0.5234  0.0897
  187MPD1     H 2902   0.316   4.240  17.191  0.8210 -2.3674  1.0954
  187MPD1    H1 2903   0.583   4.558  17.103  0.8510 -0.3937  0.0318
  187MPD1    H2 2904   0.687   4.287  17.403  0.4184 -0.8417 -0.3056
  187MPD1    H3 2905   0.734   4.473  17.263 -0.2157  2.0967 -0.3575
  187MPD1     N 2906   0.333   4.466  17.061 -0.2477 -1.0094 -0.5118
  187MPD1    H5 2907   0.368   4.531  16.991  1.5837 -1.9949 -0.4971
  187MPD1    N1 2908   0.447   4.147  17.408  0.0279  0.4364  0.4349
  187MPD1    H6 2909   0.348   4.135  17.429 -0.3093  1.9865 -0.2212
  187MPD1    H7 2910   0.502   4.143  17.494  2.1127 -0.3723 -0.9587
  188MPD1     C 2911   4.701   4.567   9.758  0.2971  0.2042 -0.3792
  188MPD1    C1 2912   0.017   4.481   9.664 -0.2466 -0.2935 -0.1823
  188MPD1    C2 2913   0.020   4.349   9.699 -0.6622  0.6104  0.0335
  188MPD1    C3 2914   4.717   4.298   9.823 -0.4030 -0.0499  0.4304
  188MPD1    C4 2915   4.680   4.391   9.914 -0.7311 -0.3444  1.0275
  188MPD1    C5 2916   4.686   4.525   9.888  0.1513  0.0999  0.2970
  188MPD1     H 2917   0.055   4.287   9.617 -3.0551  0.5480 -0.9214
  188MPD1    H1 2918   4.684   4.362  10.019 -2.8815 -0.1764  1.1508
  188MPD1    H2 2919   4.702   4.675   9.747  0.1890  0.4150  1.8608
  188MPD1    H3 2920   4.664   4.589   9.973  2.1538 -0.6523  1.3928
  188MPD1     N 2921   4.734   4.161   9.864  0.2306 -0.9285  0.0962
  188MPD1    H5 2922   4.710   4.142   9.961  1.3887  0.1400  0.5875
  188MPD1    N1 2923   0.049   4.527   9.538  0.2681 -0.4428  0.0869
  188MPD1    H6 2924   0.079   4.624   9.547 -0.0694 -0.1966 -1.3671
  188MPD1    H7 2925   0.131   4.482   9.497  0.4199 -0.4554  0.4041
  189MPD1     C 2926   1.576   0.518   0.436  0.6280  0.1986  0.1452
  189MPD1    C1 2927   1.447   0.472   0.430  0.5487 -0.2418  0.3207
  189MPD1    C2 2928   1.347   0.562   0.392  0.7958  0.0988  0.1027
  189MPD1    C3 2929   1.375   0.696   0.372  0.2623 -0.1741 -0.2764
  189MPD1    C4 2930   1.502   0.739   0.390  0.6676  0.3009 -0.2340
  189MPD1    C5 2931   1.604   0.650   0.423 -0.3472  0.0596  0.2201
  189MPD1     H 2932   1.251   0.513   0.389  0.7477  0.0899  1.7612
  189MPD1    H1 2933   1.531   0.838   0.357 -0.1142  0.1466 -1.3523
  189MPD1    H2 2934   1.660   0.454   0.459 -0.2475 -0.0905  2.6090
  189MPD1    H3 2935   1.710   0.674   0.421 -0.3918  0.4115  1.5522
  189MPD1     N 2936   1.277   0.779   0.316 -0.4600 -0.0139  1.0472
  189MPD1    H5 2937   1.194   0.730   0.286 -0.1144 -1.6752  2.8101
  189MPD1    N1 2938   1.424   0.330   0.424  0.1249  0.1310  0.2844
  189MPD1    H6 2939   1.328   0.296   0.428  0.3940 -0.4160  2.0903
  189MPD1    H7 2940   1.476   0.288   0.501  0.2460 -0.0993  0.0766
  190MPD1     C 2941   0.949   4.605  15.254  0.1044  0.4465  1.3149
  190MPD1    C1 2942   1.082   4.595  15.292 -0.2670  0.9666  0.0105
  190MPD1    C2 2943   1.124   4.470  15.322  0.5057  0.1707 -0.3044
  190MPD1    C3 2944   1.040   4.360  15.337 -0.1251 -0.5008  0.0231
  190MPD1    C4 2945   0.914   4.373  15.302 -0.0760 -0.4298 -0.6179
  190MPD1    C5 2946   0.872   4.499  15.262 -0.2860  0.0853  0.2161
  190MPD1     H 2947   1.230   4.451  15.327  0.8871  2.8933  1.9033
  190MPD1    H1 2948   0.833   4.301  15.310  1.7613 -2.3962  0.0644
  190MPD1    H2 2949   0.906   4.692  15.205  2.3225  0.5862 -0.3943
  190MPD1    H3 2950   0.769   4.512  15.229 -1.4375 -0.7482  3.4795
  190MPD1     N 2951   1.101   4.241  15.386 -0.3511 -0.1590 -0.1168
  190MPD1    H5 2952   1.199   4.246  15.411 -0.5952  0.3927  0.7531
  190MPD1    N1 2953   1.170   4.694  15.247 -0.6393 -0.4201 -0.1025
  190MPD1    H6 2954   1.138   0.054  15.241  0.2685 -0.0992  0.3956
  190MPD1    H7 2955   1.264   4.694  15.284 -1.4845 -1.5631  2.0549
  191MPD1     C 2956   4.628   0.373  12.460 -1.0730 -0.1767  1.1188
  191MPD1    C1 2957   4.655   0.510  12.444  0.5863  0.1251  0.2915
  191MPD1    C2 2958   4.614   0.572  12.330  0.1798  0.1431 -0.2269
  191MPD1    C3 2959   4.584   0.504  12.217 -0.5010 -0.4925  0.5536
  191MPD1    C4 2960   4.552   0.368  12.228  0.6083  0.0851 -0.3872
  191MPD1    C5 2961   4.563   0.304  12.354 -0.5892  0.0690  0.5825
  191MPD1     H 2962   4.628   0.679  12.321  2.3333 -0.2663 -1.7747
  191MPD1    H1 2963   4.516   0.302  12.149 -1.4691 -1.3404  1.7240
  191MPD1    H2 2964   4.656   0.316  12.549 -0.7935 -0.7316  0.6787
  191MPD1    H3 2965   4.549   0.197  12.362 -0.6754 -0.0709 -1.5019
  191MPD1     N 2966   4.569   0.578  12.095 -0.2322 -0.1452 -0.1043
  191MPD1    H5 2967   4.591   0.677  12.099  0.5012 -0.2934 -0.5097
  191MPD1    N1 2968   4.697   0.581  12.555  0.0335 -0.1306  0.4982
  191MPD1    H6 2969   0.002   0.668  12.525 -2.1361  0.4299 -0.8336
  191MPD1    H7 2970   0.027   0.521  12.605  0.5860  0.2211  0.1869
  192MPD1     C 2971   4.134   0.414  11.173 -0.1379 -0.4242 -0.0475
  192MPD1    C1 2972   4.184   0.539  11.165 -0.2808  0.1775  0.7562
  192MPD1    C2 2973   4.261   0.586  11.270 -0.1658  0.9143 -0.1019
  192MPD1    C3 2974   4.297   0.508  11.383 -0.1618  0.3833  0.6061
  192MPD1    C4 2975   4.244   0.382  11.385 -0.9038  0.4202  0.5297
  192MPD1    C5 2976   4.163   0.339  11.280  0.4810  0.2965 -0.1245
  192MPD1     H 2977   4.302   0.687  11.275  2.0540  0.0723 -1.2269
  192MPD1    H1 2978   4.248   0.317  11.472  0.1503  2.3824  1.9197
  192MPD1    H2 2979   4.077   0.367  11.092  1.2918  0.5654 -1.6266
  192MPD1    H3 2980   4.109   0.245  11.289 -1.2893  1.1336 -1.8643
  192MPD1     N 2981   4.371   0.553  11.492  0.1361 -0.0377  0.0588
  192MPD1    H5 2982   4.395   0.480  11.558 -0.7825 -1.5335 -1.2523
  192MPD1    N1 2983   4.184   0.614  11.046  0.0735 -0.2292  0.1841
  192MPD1    H6 2984   4.190   0.710  11.078  0.7860  0.0479 -0.7993
  192MPD1    H7 2985   4.107   0.591  10.982 -1.3172  0.5665  1.5667
  193MPD1     C 2986   3.887   0.912  15.883 -0.2532 -0.1069  0.3548
  193MPD1    C1 2987   3.826   1.026  15.935 -0.1960  0.9149 -0.4330
  193MPD1    C2 2988   3.904   1.111  16.013  0.3616  0.2620 -0.1861
  193MPD1    C3 2989   4.025   1.068  16.059 -0.4895  0.1048 -0.4071
  193MPD1    C4 2990   4.073   0.944  16.025  0.3288  0.6288 -0.3620
  193MPD1    C5 2991   4.010   0.871  15.932 -0.3479 -0.1376 -0.2380
  193MPD1     H 2992   3.875   1.214  16.033  0.0181 -0.0252  0.8064
  193MPD1    H1 2993   4.171   0.911  16.058 -1.5055 -1.5218  2.9337
  193MPD1    H2 2994   3.833   0.847  15.815  3.0711 -1.9515 -0.5401
  193MPD1    H3 2995   4.057   0.775  15.912 -0.4690 -0.2967  0.2299
  193MPD1     N 2996   4.108   1.145  16.148  0.2009  0.1632  0.0446
  193MPD1    H5 2997   4.194   1.096  16.171  0.7205 -0.0347 -2.3484
  193MPD1    N1 2998   3.703   1.074  15.881  0.2699  0.8600  0.3481
  193MPD1    H6 2999   3.632   1.006  15.855  0.1956  1.0847 -0.0293
  193MPD1    H7 3000   3.658   1.130  15.954  1.1363  0.7659  0.9539
  194MPD1     C 3001   3.000   2.886  16.162 -0.0205  0.7004 -0.7509
  194MPD1    C1 3002   2.877   2.826  16.157 -0.8197 -0.3798  0.6360
  194MPD1    C2 3003   2.798   2.826  16.272  0.0924  0.2934 -0.2121
  194MPD1    C3 3004   2.839   2.879  16.396 -0.7687  0.1718 -0.3375
  194MPD1    C4 3005   2.968   2.936  16.404 -0.1397  0.5284  0.3982
  194MPD1    C5 3006   3.043   2.934  16.284  0.2529 -0.0002  0.8477
  194MPD1     H 3007   2.724   2.747  16.272 -0.1265  0.4997 -0.2606
  194MPD1    H1 3008   3.020   2.973  16.492  0.8023  1.1228 -0.4115
  194MPD1    H2 3009   3.064   2.887  16.074 -0.6190  0.9428 -1.1837
  194MPD1    H3 3010   3.139   2.983  16.274  1.1156 -1.4041  2.2702
  194MPD1     N 3011   2.767   2.867  16.511 -0.0068  0.7306  0.1305
  194MPD1    H5 3012   2.824   2.861  16.594 -0.3981  0.8400  0.4083
  194MPD1    N1 3013   2.832   2.776  16.036  0.2078 -1.1223 -0.7987
  194MPD1    H6 3014   2.761   2.707  16.058 -0.9103  0.3972  0.3684
  194MPD1    H7 3015   2.904   2.724  15.986  1.2461  0.0172 -0.5159
  195MPD1     C 3016   3.961   0.786  17.306  0.5551  0.3699 -0.6114
  195MPD1    C1 3017   4.089   0.771  17.360  0.6798 -0.3798  0.3158
  195MPD1    C2 3018   4.146   0.640  17.371 -0.0229  0.0941  0.5069
  195MPD1    C3 3019   4.077   0.531  17.337 -0.3675  0.2344 -0.3432
  195MPD1    C4 3020   3.942   0.548  17.300  0.1244 -0.3926  0.1887
  195MPD1    C5 3021   3.883   0.671  17.277  0.1776 -0.3782  0.6053
  195MPD1     H 3022   4.246   0.634  17.411  0.3321 -0.3444 -0.4354
  195MPD1    H1 3023   3.878   0.464  17.274 -1.3385  0.3224  1.4417
  195MPD1    H2 3024   3.907   0.879  17.300 -1.0737 -0.4432  1.6424
  195MPD1    H3 3025   3.778   0.679  17.251 -0.0922  0.7376  2.0065
  195MPD1     N 3026   4.117   0.391  17.353  0.3779 -0.4896 -0.2519
  195MPD1    H5 3027   4.051   0.316  17.336 -1.4297  1.4507 -1.6757
  195MPD1    N1 3028   4.176   0.885  17.378 -0.0026 -0.2629  0.1331
  195MPD1    H6 3029   4.213   0.873  17.472  0.1272 -2.1279 -0.1528
  195MPD1    H7 3030   4.124   0.973  17.384  0.1172 -0.2691  1.2778
  196MPD1     C 3031   3.806   4.197   0.100 -0.0776 -0.1284 -0.6749
  196MPD1    C1 3032   3.756   4.306   0.036 -0.2068  0.1327  0.5401
  196MPD1    C2 3033   3.799   4.430   0.062  0.5472 -0.3083  0.1280
  196MPD1    C3 3034   3.910   4.444   0.143  0.0117 -0.5698 -0.0729
  196MPD1    C4 3035   3.963   4.336   0.211  0.4369 -0.9006  0.1275
  196MPD1    C5 3036   3.902   4.214   0.191  0.6188  0.3818  0.0661
  196MPD1     H 3037   3.753   4.512   0.007 -0.8334 -0.8752  0.4295
  196MPD1    H1 3038   4.048   4.341   0.278  1.1228 -1.2639 -0.7137
  196MPD1    H2 3039   3.760   4.099   0.098 -1.3942  0.4516  0.9389
  196MPD1    H3 3040   3.924   4.127   0.253  0.1813  0.0244 -0.2780
  196MPD1     N 3041   3.970   4.565   0.183 -1.1875  0.3777  0.3558
  196MPD1    H5 3042   4.053   4.555   0.240 -1.9035 -0.1927  1.2845
  196MPD1    N1 3043   3.651   4.282  17.693  0.0496  0.4949  0.0934
  196MPD1    H6 3044   3.680   4.217  17.620 -0.1626 -0.5583  0.9552
  196MPD1    H7 3045   3.625   4.368  17.645 -1.7729 -1.0624 -1.7152
  197MPD1     C 3046   2.766   0.837  17.246  0.4380 -0.4333  0.0686
  197MPD1    C1 3047   2.824   0.937  17.330  0.0558 -0.0204 -0.7022
  197MPD1    C2 3048   2.880   1.045  17.264 -0.0093  0.3792  0.0285
  197MPD1    C3 3049   2.882   1.054  17.124 -0.4682  0.3129  0.7203
  197MPD1    C4 3050   2.832   0.951  17.050 -0.1293 -0.5076  0.2573
  197MPD1    C5 3051   2.762   0.849  17.112 -0.5045  0.2326  0.3529
  197MPD1     H 3052   2.925   1.127  17.319  0.7575  2.2771 -3.4028
  197MPD1    H1 3053   2.819   0.956  16.943 -1.2048  0.6607  0.4427
  197MPD1    H2 3054   2.713   0.752  17.289  0.4081  0.5680  2.0329
  197MPD1    H3 3055   2.703   0.779  17.053 -2.2101  2.3951 -0.5015
  197MPD1     N 3056   2.949   1.150  17.044 -0.4572  0.3277 -0.3163
  197MPD1    H5 3057   2.950   1.133  16.944 -0.2816  1.7302 -0.5480
  197MPD1    N1 3058   2.801   0.939  17.468 -0.3698 -0.5638 -0.2501
  197MPD1    H6 3059   2.880   0.977  17.520  0.9388 -2.3512 -0.9246
  197MPD1    H7 3060   2.779   0.849  17.512  3.3944 -0.7596  1.2993
  198MPD1     C 3061   0.417   4.523  14.832 -0.3419 -0.2423  0.3246
  198MPD1    C1 3062   0.508   4.482  14.926  0.8821  0.2624  0.0957
  198MPD1    C2 3063   0.493   4.515  15.061  0.5266 -0.3473  0.0110
  198MPD1    C3 3064   0.378   4.587  15.093 -0.4840  0.4854  0.0442
  198MPD1    C4 3065   0.288   4.623  14.995  1.4575  0.0005 -0.4108
  198MPD1    C5 3066   0.303   4.576  14.868 -0.3967 -0.1437  0.7219
  198MPD1     H 3067   0.566   4.493  15.137  0.1753 -0.6004  0.2754
  198MPD1    H1 3068   0.202   4.684  15.019  1.0275 -0.0917 -1.7307
  198MPD1    H2 3069   0.436   4.491  14.730 -0.1111  0.5254  0.1243
  198MPD1    H3 3070   0.230   4.606  14.793 -0.6995  0.7784  1.3741
  198MPD1     N 3071   0.356   4.627  15.228 -0.7624  0.1706  0.3808
  198MPD1    H5 3072   0.430   4.606  15.294 -0.1130 -2.0743 -1.0445
  198MPD1    N1 3073   0.635   4.437  14.885  0.2882 -0.2067  0.8259
  198MPD1    H6 3074   0.626   4.388  14.796  0.3527 -1.5021  1.5358
  198MPD1    H7 3075   0.676   4.370  14.950  2.3655  1.0358  0.8022
  199MPD1     C 3076   1.954   0.645   8.920  0.2849 -0.2840 -1.0866
  199MPD1    C1 3077   2.076   0.631   8.979 -0.1150 -0.1112  0.4874
  199MPD1    C2 3078   2.134   0.747   9.029 -0.2210  0.7544  0.3798
  199MPD1    C3 3079   2.076   0.873   9.011  0.5931  0.0063 -0.4097
  199MPD1    C4 3080   1.963   0.886   8.936  0.3811 -0.5405 -0.3587
  199MPD1    C5 3081   1.895   0.767   8.900  0.3488 -0.0808  0.0370
  199MPD1     H 3082   2.223   0.744   9.090  1.4690  0.6515 -2.0715
  199MPD1    H1 3083   1.919   0.982   8.913 -1.7044 -1.3074  0.4252
  199MPD1    H2 3084   1.899   0.554   8.896 -1.6290  0.5845  0.0601
  199MPD1    H3 3085   1.798   0.781   8.854 -0.7075 -1.5508  1.8210
  199MPD1     N 3086   2.132   0.993   9.068  0.3025 -0.3069  0.2041
  199MPD1    H5 3087   2.073   1.076   9.065  2.4754  1.1465 -2.3005
  199MPD1    N1 3088   2.121   0.504   9.010 -0.1363  0.4359 -0.3001
  199MPD1    H6 3089   2.223   0.509   9.013 -0.1241  0.0610  0.0757
  199MPD1    H7 3090   2.103   0.438   8.934 -2.0726  2.4503 -1.5465
  200MPD1     C 3091   1.616   1.245  15.058  0.2792 -0.7185  0.3900
  200MPD1    C1 3092   1.527   1.214  14.958 -0.0605 -0.8336  0.6330
  200MPD1    C2 3093   1.516   1.297  14.846  0.2076 -0.0925 -0.3215
  200MPD1    C3 3094   1.589   1.415  14.839 -0.7651  0.1270  0.3454
  200MPD1    C4 3095   1.664   1.454  14.944 -0.3632 -0.3749 -0.4381
  200MPD1    C5 3096   1.678   1.369  15.046  0.6929 -0.0276  0.6001
  200MPD1     H 3097   1.451   1.275  14.763 -1.1432  1.1586  0.3852
  200MPD1    H1 3098   1.718   1.547  14.956 -0.7378 -0.2499  0.3430
  200MPD1    H2 3099   1.636   1.185  15.146  2.8093 -0.8885 -0.2954
  200MPD1    H3 3100   1.733   1.406  15.133 -1.1664  2.0142  0.9020
  200MPD1     N 3101   1.572   1.488  14.719  0.1598 -0.4317  0.7179
  200MPD1    H5 3102   1.525   1.438  14.644 -0.7232 -0.9766  1.6520
  200MPD1    N1 3103   1.464   1.086  14.953  0.1933  0.0634  0.5574
  200MPD1    H6 3104   1.414   1.079  15.041  0.3152 -3.0837  0.3650
  200MPD1    H7 3105   1.390   1.072  14.885  0.7410 -1.2254  0.2258
  201MPD1     C 3106   4.400   4.670  13.053  0.3426  0.1902 -0.2338
  201MPD1    C1 3107   4.377   0.011  13.166 -0.2976  0.2319 -0.7528
  201MPD1    C2 3108   4.374   4.680  13.289  0.5025 -0.0947 -0.8599
  201MPD1    C3 3109   4.421   4.557  13.311  0.4342  0.2524  0.4700
  201MPD1    C4 3110   4.464   4.488  13.203 -0.6602 -0.4296  0.1516
  201MPD1    C5 3111   4.456   4.547  13.078  0.1086  0.6520  0.2433
  201MPD1     H 3112   4.335   0.003  13.371 -1.1870 -0.3541 -1.4724
  201MPD1    H1 3113   4.491   4.383  13.201 -2.0960 -0.8410  2.2941
  201MPD1    H2 3114   4.394   4.698  12.949  0.6838 -1.7660 -0.7663
  201MPD1    H3 3115   4.479   4.480  12.996  1.3959  1.4663 -0.0648
  201MPD1     N 3116   4.417   4.508  13.446 -0.2055  0.5177 -0.3095
  201MPD1    H5 3117   4.392   4.580  13.513  2.9388 -2.2646  3.7531
  201MPD1    N1 3118   4.339   0.147  13.148  0.3169  0.1025  0.4223
  201MPD1    H6 3119   4.369   0.201  13.228  1.0599 -0.4858  0.5366
  201MPD1    H7 3120   4.370   0.187  13.060  0.5506  1.6653  1.2149
  202MPD1     C 3121   3.082   4.378   8.617  0.3460 -0.4139 -0.5584
  202MPD1    C1 3122   3.160   4.268   8.641  0.0651  0.1150  0.8474
  202MPD1    C2 3123   3.234   4.277   8.759 -0.3769 -0.7405 -0.4170
  202MPD1    C3 3124   3.194   4.357   8.870  0.1342 -0.1398  0.1178
  202MPD1    C4 3125   3.102   4.454   8.842  0.0905 -0.2386 -0.5635
  202MPD1    C5 3126   3.055   4.467   8.713 -0.3373  0.1243  0.1026
  202MPD1     H 3127   3.308   4.199   8.773  1.4197  1.6087  3.0308
  202MPD1    H1 3128   3.068   4.516   8.923 -0.9857 -2.7854  0.9317
  202MPD1    H2 3129   3.034   4.391   8.520 -1.8595 -1.2752  0.4132
  202MPD1    H3 3130   2.987   4.547   8.686 -0.7591 -0.8162 -1.5535
  202MPD1     N 3131   3.265   4.367   8.987 -0.3157  0.1260  0.6664
  202MPD1    H5 3132   3.230   4.440   9.049 -0.3475  0.5026  0.2056
  202MPD1    N1 3133   3.222   4.212   8.531  0.1212 -0.0082 -0.0718
  202MPD1    H6 3134   3.254   4.125   8.573  1.1775  1.0171  1.2484
  202MPD1    H7 3135   3.156   4.179   8.460  0.9147  1.3231 -1.4291
  203MPD1     C 3136   2.166   1.486  12.123  0.5038  0.3390 -0.3326
  203MPD1    C1 3137   2.243   1.416  12.214 -0.1318 -0.6254  0.0727
  203MPD1    C2 3138   2.272   1.284  12.193  0.0910  0.3338 -0.0321
  203MPD1    C3 3139   2.220   1.217  12.082  0.5880  0.1181 -0.5453
  203MPD1    C4 3140   2.119   1.280  12.013 -0.3370  0.2338  0.2072
  203MPD1    C5 3141   2.093   1.414  12.029 -0.2060 -0.4257 -0.6816
  203MPD1     H 3142   2.343   1.242  12.263 -0.9260  1.7279  1.8469
  203MPD1    H1 3143   2.076   1.233  11.926  1.1848  1.6652 -1.3134
  203MPD1    H2 3144   2.156   1.593  12.140  1.4252  0.7762 -2.5075
  203MPD1    H3 3145   2.018   1.466  11.970  0.1412 -0.5586 -1.2375
  203MPD1     N 3146   2.261   1.083  12.050  0.0648 -0.1960  0.2466
  203MPD1    H5 3147   2.232   1.050  11.958 -1.5905 -0.4155  0.8397
  203MPD1    N1 3148   2.314   1.484  12.308 -0.3711  0.3048  0.3733
  203MPD1    H6 3149   2.327   1.430  12.393  0.1310 -2.1755 -1.2903
  203MPD1    H7 3150   2.273   1.575  12.328  0.7517  0.6434  1.1028
  204MPD1     C 3151   1.511   1.619  17.479 -0.3784  0.0401 -0.0694
  204MPD1    C1 3152   1.625   1.626  17.401 -0.0737  0.2040  0.0991
  204MPD1    C2 3153   1.720   1.530  17.408  0.3891  0.4683  0.8355
  204MPD1    C3 3154   1.696   1.409  17.459 -0.1452 -0.2761 -0.1740
  204MPD1    C4 3155   1.585   1.397  17.536 -0.7082  0.1615  0.4908
  204MPD1    C5 3156   1.491   1.502  17.549  0.5356 -0.0058  0.2391
  204MPD1     H 3157   1.810   1.546  17.350  0.7102  1.4482  1.6152
  204MPD1    H1 3158   1.557   1.309  17.593 -0.8847  0.5901  1.0693
  204MPD1    H2 3159   1.445   1.705  17.482 -2.5486 -1.6675  1.0556
  204MPD1    H3 3160   1.403   1.478  17.608  0.6386 -2.0346 -0.4326
  204MPD1     N 3161   1.795   1.311  17.447  0.8432  0.0327  0.2360
  204MPD1    H5 3162   1.883   1.342  17.406  0.7731  0.3952  0.3581
  204MPD1    N1 3163   1.657   1.746  17.335  0.9023  0.2148 -0.3699
  204MPD1    H6 3164   1.733   1.731  17.270 -0.3887  0.9374 -2.0515
  204MPD1    H7 3165   1.577   1.798  17.298 -0.8102 -1.9073  0.3722
  205MPD1     C 3166   2.291   4.702  16.764 -0.4043 -0.0695  0.3293
  205MPD1    C1 3167   2.326   4.587  16.837  0.3728 -0.1313  0.1646
  205MPD1    C2 3168   2.349   4.602  16.974 -0.0811 -0.4527 -0.0579
  205MPD1    C3 3169   2.311   4.714  17.041 -0.7038  0.7404 -0.0835
  205MPD1    C4 3170   2.260   0.086  16.967 -0.5608 -0.2953  0.8211
  205MPD1    C5 3171   2.246   0.078  16.830  0.5247 -0.4390  0.2031
  205MPD1     H 3172   2.387   4.516  17.027 -0.1043 -0.2703  0.2519
  205MPD1    H1 3173   2.233   0.179  17.016  0.3908 -0.2293  1.2220
  205MPD1    H2 3174   2.284   4.707  16.656 -0.8087 -0.8479  0.3155
  205MPD1    H3 3175   2.208   0.173  16.793 -0.4959 -0.6482  0.6999
  205MPD1     N 3176   2.317   0.001  17.179  0.4034  0.3306  0.2351
  205MPD1    H5 3177   2.274   0.086  17.214  1.2256  0.3086  1.2795
  205MPD1    N1 3178   2.354   4.467  16.768  0.3586  0.5905  0.2657
  205MPD1    H6 3179   2.339   4.385  16.826  0.4335  1.6927  1.8373
  205MPD1    H7 3180   2.295   4.452  16.686  0.1419 -2.1729  0.9496
  206MPD1     C 3181   2.329   3.066  15.135 -0.2210  0.6464 -0.0630
  206MPD1    C1 3182   2.275   2.972  15.220 -0.3050 -0.6875  0.0209
  206MPD1    C2 3183   2.292   2.983  15.358  0.3864  0.7915  0.3956
  206MPD1    C3 3184   2.362   3.089  15.403 -0.3463  0.1712 -0.5101
  206MPD1    C4 3185   2.414   3.187  15.321 -0.0133 -0.6583 -0.5021
  206MPD1    C5 3186   2.405   3.172  15.185 -0.0216 -0.2806  0.1795
  206MPD1     H 3187   2.244   2.916  15.428  0.7301  0.7141  0.5576
  206MPD1    H1 3188   2.456   3.283  15.347 -2.4619 -0.0175  1.1069
  206MPD1    H2 3189   2.314   3.049  15.029  0.1483  1.7468 -0.2922
  206MPD1    H3 3190   2.457   3.248  15.127 -0.5606  1.4006  1.8743
  206MPD1     N 3191   2.361   3.109  15.542 -0.0558 -0.2915  0.2953
  206MPD1    H5 3192   2.388   3.202  15.574 -0.9746  0.1975 -0.3415
  206MPD1    N1 3193   2.214   2.861  15.157  0.2443 -0.0715 -0.9728
  206MPD1    H6 3194   2.186   2.867  15.059  1.5370  2.9304 -1.1457
  206MPD1    H7 3195   2.143   2.816  15.214 -0.5876 -1.5244 -3.1376
  207MPD1     C 3196   0.007   1.195   9.058 -0.1407 -0.3633  0.0925
  207MPD1    C1 3197   0.075   1.273   9.144  0.3703  0.9810  0.1224
  207MPD1    C2 3198   0.096   1.231   9.275  0.1025  0.2935  0.1591
  207MPD1    C3 3199   0.068   1.100   9.313 -0.3124  0.1311  0.4618
  207MPD1    C4 3200   4.736   1.020   9.224 -0.2967 -0.8851 -0.2001
  207MPD1    C5 3201   4.709   1.070   9.097 -1.0671  0.0718  0.4591
  207MPD1     H 3202   0.147   1.302   9.340 -1.0447  0.7678  0.5387
  207MPD1    H1 3203   4.712   0.915   9.239 -0.0590 -0.4630  3.0404
  207MPD1    H2 3204   4.720   1.231   8.958  0.4893  0.9043  0.4076
  207MPD1    H3 3205   4.661   1.002   9.028  0.2584 -0.1521 -0.2447
  207MPD1     N 3206   0.085   1.042   9.442  0.0360 -0.1675  0.1026
  207MPD1    H5 3207   0.031   0.960   9.466 -3.0396  1.7995 -0.1267
  207MPD1    N1 3208   0.087   1.412   9.107 -0.1395 -0.2322 -0.4012
  207MPD1    H6 3209   0.133   1.412   9.016  0.0058 -1.4405 -0.3341
  207MPD1    H7 3210   0.158   1.450   9.169 -0.9993  1.4906 -0.4906
  208MPD1     C 3211   3.158   4.426  17.271  0.3378  0.2066  0.0074
  208MPD1    C1 3212   3.187   4.496  17.388  0.3871  0.0869 -0.0173
  208MPD1    C2 3213   3.184   4.433  17.515 -0.2814  0.9536  0.5309
  208MPD1    C3 3214   3.148   4.298  17.521  0.2204 -0.3761 -0.6995
  208MPD1    C4 3215   3.137   4.232  17.398 -0.1191 -0.1086 -1.1767
  208MPD1    C5 3216   3.144   4.291  17.278 -0.5158  0.5065 -0.5854
  208MPD1     H 3217   3.198   4.491  17.606  2.8652  1.5771 -0.3812
  208MPD1    H1 3218   3.135   4.124  17.394 -1.0002 -0.0119 -3.2714
  208MPD1    H2 3219   3.158   4.475  17.174  1.7083  3.3046  1.5814
  208MPD1    H3 3220   3.139   4.227  17.191 -2.0627  0.3070 -0.3459
  208MPD1     N 3221   3.125   4.238  17.639 -0.0239  0.1847  0.4225
  208MPD1    H5 3222   3.130   4.304  17.715  0.8718  0.6632 -0.0490
  208MPD1    N1 3223   3.208   4.633  17.385 -0.5378  0.6492 -0.2604
  208MPD1    H6 3224   3.271   4.679  17.450 -2.0527  3.0774 -0.5286
  208MPD1    H7 3225   3.240   4.670  17.296 -1.8956 -1.0445 -1.4503
  209MPD1     C 3226   4.374   4.092  10.072  0.5422  0.2830  0.1236
  209MPD1    C1 3227   4.492   4.113  10.145 -0.6141 -0.3944 -0.3763
  209MPD1    C2 3228   4.515   4.244  10.180  0.0022 -0.1431 -0.1918
  209MPD1    C3 3229   4.429   4.347  10.136 -0.8000  0.3507 -0.1022
  209MPD1    C4 3230   4.324   4.321  10.058 -0.3239  0.6513  0.0999
  209MPD1    C5 3231   4.295   4.193  10.023  1.0810  0.0924 -0.7072
  209MPD1     H 3232   4.602   4.266  10.241 -1.3753 -1.3053  2.1823
  209MPD1    H1 3233   4.248   4.394  10.032  0.0413  1.0966  0.2910
  209MPD1    H2 3234   4.344   3.993  10.043 -0.8180  0.0487  2.2957
  209MPD1    H3 3235   4.213   4.174   9.954 -0.4379 -0.3071  1.2194
  209MPD1     N 3236   4.458   4.476  10.187  0.2876  0.1254 -0.0044
  209MPD1    H5 3237   4.520   4.498  10.264  2.4635  0.7770 -1.9497
  209MPD1    N1 3238   4.581   4.010  10.164 -0.9038  0.0786 -0.1575
  209MPD1    H6 3239   4.535   3.924  10.195  1.0405 -0.9011  0.0460
  209MPD1    H7 3240   4.666   4.027  10.218 -2.3523  0.3709  2.0244
  210MPD1     C 3241   0.049   0.318  10.927  0.8780 -0.2857  0.0321
  210MPD1    C1 3242   0.007   0.191  10.914 -0.0068 -0.3457 -0.3352
  210MPD1    C2 3243   4.687   0.144  10.792 -0.2348  0.3038 -0.8543
  210MPD1    C3 3244   4.692   0.235  10.686 -0.4201 -0.4027  0.0725
  210MPD1    C4 3245   0.006   0.363  10.696  0.1090 -0.0978  1.1054
  210MPD1    C5 3246   0.048   0.404  10.817  0.1374 -0.7918 -0.2356
  210MPD1     H 3247   4.645   0.045  10.783 -0.3523  0.0975  1.7913
  210MPD1    H1 3248   0.013   0.433  10.614 -2.1198  0.8019  1.6849
  210MPD1    H2 3249   0.076   0.352  11.026  0.6766  3.8583 -1.3402
  210MPD1    H3 3250   0.079   0.508  10.824 -1.3601 -0.3101 -0.5840
  210MPD1     N 3251   4.654   0.203  10.555  0.3118 -0.1632 -0.5991
  210MPD1    H5 3252   4.675   0.273  10.485 -0.2355  1.9964  1.4135
  210MPD1    N1 3253   0.010   0.110  11.033  0.1657  0.3760 -0.5972
  210MPD1    H6 3254   4.654   0.092  11.071  0.6586 -0.0658  0.3868
  210MPD1    H7 3255   0.061   0.155  11.108 -0.8934 -0.5500  0.6773
  211MPD1     C 3256   2.392   4.585  15.660  0.3432 -0.5524  0.0728
  211MPD1    C1 3257   2.273   4.639  15.605 -0.1501 -0.1085 -0.6029
  211MPD1    C2 3258   2.257   0.041  15.626 -0.0688 -0.0661 -0.6346
  211MPD1    C3 3259   2.349   0.111  15.701 -0.5778  0.7408 -0.1384
  211MPD1    C4 3260   2.464   0.057  15.745  0.5776 -0.3807 -0.5858
  211MPD1    C5 3261   2.483   4.658  15.725  0.1596 -0.4025  0.5890
  211MPD1     H 3262   2.169   0.088  15.586 -0.1601  1.2149  1.0741
  211MPD1    H1 3263   2.544   0.103  15.802 -0.0051 -0.2703  0.1493
  211MPD1    H2 3264   2.421   4.481  15.650  1.1324 -0.3361  0.0861
  211MPD1    H3 3265   2.571   4.602  15.758  1.8564  1.8097 -0.2204
  211MPD1     N 3266   2.333   0.255  15.715  0.1165 -0.1993 -0.0205
  211MPD1    H5 3267   2.246   0.286  15.674  0.6871  1.4578  0.0355
  211MPD1    N1 3268   2.181   4.576  15.516  0.3388  0.6673 -0.1952
  211MPD1    H6 3269   2.088   4.616  15.527 -0.6388 -1.6106 -0.1455
  211MPD1    H7 3270   2.180   4.478  15.542 -0.7929  0.2478 -1.8460
  212MPD1     C 3271   1.973   3.391  16.386  0.7763  0.4153  0.6040
  212MPD1    C1 3272   1.932   3.437  16.506  0.8819  0.7388 -0.1411
  212MPD1    C2 3273   1.833   3.371  16.575  0.4447  0.0913  0.4222
  212MPD1    C3 3274   1.769   3.264  16.520 -0.4682 -0.0846 -0.2702
  212MPD1    C4 3275   1.810   3.221  16.389  0.4827 -0.2489 -0.2462
  212MPD1    C5 3276   1.910   3.286  16.328  0.9176  0.0737 -0.2250
  212MPD1     H 3277   1.816   3.397  16.679  0.5398  0.4112  0.3568
  212MPD1    H1 3278   1.777   3.134  16.334 -0.7156 -0.4351  0.7712
  212MPD1    H2 3279   2.043   3.444  16.322  0.3728  0.9906  0.6403
  212MPD1    H3 3280   1.946   3.240  16.237 -0.3940  0.2130 -0.8188
  212MPD1     N 3281   1.685   3.182  16.597  0.4900  0.1925 -0.5125
  212MPD1    H5 3282   1.668   3.085  16.570 -0.8096  0.1603  0.4291
  212MPD1    N1 3283   2.008   3.533  16.568  0.1712 -0.2436  0.0999
  212MPD1    H6 3284   1.945   3.577  16.635  0.1407 -0.4618  0.2154
  212MPD1    H7 3285   2.063   3.590  16.505 -1.5966 -0.7716 -1.8901
  213MPD1     C 3286   0.222   3.826  15.770 -0.9631  0.1986 -0.1923
  213MPD1    C1 3287   0.147   3.727  15.721  0.2018  0.0161  0.4419
  213MPD1    C2 3288   0.046   3.761  15.632 -0.0992  0.4965  0.2552
  213MPD1    C3 3289   0.012   3.900  15.620 -0.1865  0.9351 -0.4149
  213MPD1    C4 3290   0.074   3.992  15.700  0.2837 -0.5226  0.0302
  213MPD1    C5 3291   0.178   3.957  15.782  0.4309  0.0534  0.4006
  213MPD1     H 3292   4.733   3.683  15.576 -1.6507  1.5745  0.1306
  213MPD1    H1 3293   0.043   4.096  15.708  1.3408 -0.2998  1.3496
  213MPD1    H2 3294   0.314   3.801  15.820 -0.7701 -0.6827 -0.9828
  213MPD1    H3 3295   0.226   4.023  15.853  2.0600 -0.8384  0.1223
  213MPD1     N 3296   4.636   3.935  15.543  0.0647 -0.3079 -0.4933
  213MPD1    H5 3297   4.601   3.860  15.484 -1.1667  0.2706 -0.4870
  213MPD1    N1 3298   0.211   3.598  15.704  0.3209  0.0785 -0.2141
  213MPD1    H6 3299   0.278   3.585  15.780  1.8337 -0.2002 -1.5817
  213MPD1    H7 3300   0.141   3.525  15.693  3.1513 -2.7510  0.4448
  214MPD1     C 3301   3.868   3.588  15.032 -0.3735 -0.5426 -0.8689
  214MPD1    C1 3302   3.867   3.612  15.168 -0.0917  0.2860  0.0842
  214MPD1    C2 3303   3.980   3.672  15.216  0.1772  0.6405  0.0529
  214MPD1    C3 3304   4.075   3.734  15.134  0.5748 -0.4223  0.0161
  214MPD1    C4 3305   4.057   3.713  14.996 -0.6529  0.8763 -0.0959
  214MPD1    C5 3306   3.963   3.632  14.952 -0.1399  0.1180 -0.0278
  214MPD1     H 3307   3.987   3.671  15.324 -2.4276  1.4474  0.2180
  214MPD1    H1 3308   4.135   3.745  14.927  1.0215  1.3735  2.0443
  214MPD1    H2 3309   3.791   3.522  14.993  0.1332 -1.0088 -1.0904
  214MPD1    H3 3310   3.953   3.605  14.848 -0.0375  0.9308 -0.2539
  214MPD1     N 3311   4.192   3.797  15.167  0.1972 -0.2546 -0.3329
  214MPD1    H5 3312   4.256   3.835  15.099  1.2791 -1.8214 -0.2019
  214MPD1    N1 3313   3.778   3.550  15.256  0.7540 -0.4523 -0.0757
  214MPD1    H6 3314   3.780   3.608  15.340  0.7398 -1.1550  0.4078
  214MPD1    H7 3315   3.680   3.555  15.228 -0.4354 -1.5550  3.8576
  215MPD1     C 3316   3.902   0.135  10.671  0.0739  0.0724  0.1773
  215MPD1    C1 3317   3.939   0.110  10.803 -0.2635  0.2976 -0.6624
  215MPD1    C2 3318   4.046   0.183  10.849 -0.3694 -0.3257 -0.7092
  215MPD1    C3 3319   4.115   0.273  10.769 -0.6109 -0.3776  0.5333
  215MPD1    C4 3320   4.074   0.294  10.641 -0.0582  0.3591 -0.2367
  215MPD1    C5 3321   3.964   0.224  10.586 -0.0413  0.6695 -0.8908
  215MPD1     H 3322   4.079   0.186  10.952 -0.5020 -0.9589 -0.6481
  215MPD1    H1 3323   4.126   0.355  10.568  2.4705 -0.8631  0.5385
  215MPD1    H2 3324   3.817   0.075  10.639  0.3599 -0.7474  0.9438
  215MPD1    H3 3325   3.928   0.232  10.485  0.6423  1.8166 -1.0443
  215MPD1     N 3326   4.234   0.341  10.822  0.0062 -0.0879  0.0969
  215MPD1    H5 3327   4.249   0.344  10.923  1.2291 -0.8428 -0.0546
  215MPD1    N1 3328   3.849   0.039  10.885 -0.3454  0.3844  0.2227
  215MPD1    H6 3329   3.893   4.724  10.961 -2.6457 -1.1192  0.5380
  215MPD1    H7 3330   3.807   4.703  10.828  2.7866  0.5588 -2.2801
  216MPD1     C 3331   1.578   3.096  17.221 -0.1186 -0.4423  0.2213
  216MPD1    C1 3332   1.680   3.015  17.185  0.1491  0.0720 -0.0969
  216MPD1    C2 3333   1.689   2.896  17.251 -0.4594  0.0072  0.3418
  216MPD1    C3 3334   1.578   2.843  17.321  0.1215 -0.7873  0.1863
  216MPD1    C4 3335   1.464   2.917  17.330 -0.0661  0.3373 -0.1705
  216MPD1    C5 3336   1.469   3.050  17.295  0.2678  0.6702  0.0748
  216MPD1     H 3337   1.774   2.830  17.240 -0.4755  0.6901 -4.0837
  216MPD1    H1 3338   1.376   2.892  17.388  1.1565 -0.8629  1.1757
  216MPD1    H2 3339   1.574   3.196  17.180  1.1870 -0.2076  0.6666
  216MPD1    H3 3340   1.393   3.124  17.315  1.1514  1.3131  1.0607
  216MPD1     N 3341   1.595   2.718  17.374 -0.1674  0.1392  0.3436
  216MPD1    H5 3342   1.678   2.663  17.354 -0.1346  0.3307 -0.0325
  216MPD1    N1 3343   1.785   3.071  17.114 -0.1529  0.8365 -0.4052
  216MPD1    H6 3344   1.865   3.015  17.087 -1.2433 -0.4702 -0.9097
  216MPD1    H7 3345   1.759   3.140  17.044 -4.2507 -1.2193 -0.8893
  217MPD1     C 3346   2.537   4.255   8.039  0.2254 -0.1796  0.7198
  217MPD1    C1 3347   2.632   4.160   8.085 -0.2434 -0.3999 -0.1330
  217MPD1    C2 3348   2.670   4.161   8.218  1.1150 -0.4081 -0.3614
  217MPD1    C3 3349   2.596   4.242   8.311 -0.4477 -0.0796  0.4158
  217MPD1    C4 3350   2.492   4.318   8.261  0.1383 -0.5133 -0.3304
  217MPD1    C5 3351   2.468   4.328   8.126  0.0430 -0.0241 -0.0546
  217MPD1     H 3352   2.751   4.096   8.249  1.7938  1.1183  1.1437
  217MPD1    H1 3353   2.430   4.383   8.321  0.9222 -0.2788  0.2242
  217MPD1    H2 3354   2.505   4.250   7.935  2.4506  1.1406 -0.0129
  217MPD1    H3 3355   2.379   4.378   8.088 -0.9625 -0.3681  1.8129
  217MPD1     N 3356   2.620   4.244   8.448  0.3874 -0.0324  0.3153
  217MPD1    H5 3357   2.541   4.279   8.503 -1.7720 -0.1309 -2.7143
  217MPD1    N1 3358   2.697   4.081   7.993  0.2023  0.2374 -0.0500
  217MPD1    H6 3359   2.692   3.987   8.031  0.9681  1.0585  2.0409
  217MPD1    H7 3360   2.649   4.086   7.903 -2.1087 -0.3647  1.1448
  218MPD1     C 3361   4.063   0.950  12.918 -0.3906  0.3542 -0.3797
  218MPD1    C1 3362   4.058   0.823  12.953 -0.2339 -0.5533 -0.4935
  218MPD1    C2 3363   4.107   0.730  12.856 -0.1785  0.5061  0.3648
  218MPD1    C3 3364   4.140   0.761  12.728 -0.2687 -0.2760 -0.1794
  218MPD1    C4 3365   4.138   0.894  12.694  0.0641  0.1060  0.3589
  218MPD1    C5 3366   4.097   0.984  12.790  0.6975 -0.9017  0.1399
  218MPD1     H 3367   4.106   0.624  12.880 -0.6395  0.1563 -1.2072
  218MPD1    H1 3368   4.172   0.935  12.599 -0.1571  0.8854  0.6179
  218MPD1    H2 3369   4.032   1.029  12.985 -0.6065 -0.4048  0.4047
  218MPD1    H3 3370   4.091   1.087  12.757  0.8347 -0.6463  0.9256
  218MPD1     N 3371   4.170   0.670  12.625  0.1527 -0.0674 -0.2043
  218MPD1    H5 3372   4.146   0.574  12.648 -0.9483  0.2238 -0.1428
  218MPD1    N1 3373   4.019   0.783  13.082 -0.8135  0.0772  0.3945
  218MPD1    H6 3374   3.948   0.851  13.111 -1.2737 -1.2964  2.4771
  218MPD1    H7 3375   3.965   0.697  13.082  2.0313 -1.6794  0.8460
  219MPD1     C 3376   3.982   0.406  11.618  0.5474  0.2677  0.2485
  219MPD1    C1 3377   4.032   0.520  11.669  0.6578 -0.0835 -0.2733
  219MPD1    C2 3378   4.077   0.529  11.798  0.2625  0.1097 -0.7368
  219MPD1    C3 3379   4.072   0.406  11.873 -0.3632  0.1079 -0.1716
  219MPD1    C4 3380   4.045   0.292  11.810  0.2450  0.4092 -0.0168
  219MPD1    C5 3381   3.994   0.289  11.688  0.2420 -0.8405 -0.0044
  219MPD1     H 3382   4.112   0.623  11.839 -1.9329  0.0875  1.2105
  219MPD1    H1 3383   4.063   0.200  11.864 -0.5348  0.5410  0.4701
  219MPD1    H2 3384   3.938   0.396  11.520 -1.5426  0.8525  1.1449
  219MPD1    H3 3385   3.975   0.192  11.644 -1.5251 -0.7149  0.4600
  219MPD1     N 3386   4.113   0.404  12.011  0.8658 -0.3173  0.0140
  219MPD1    H5 3387   4.109   0.321  12.069  2.0992 -1.8158 -2.0319
  219MPD1    N1 3388   4.020   0.635  11.595 -0.2782  0.2382  0.2689
  219MPD1    H6 3389   4.059   0.615  11.503 -0.7978  0.2506  0.0487
  219MPD1    H7 3390   4.074   0.712  11.636 -1.0988  1.2629 -0.5668
  220MPD1     C 3391   0.022   1.630   9.449 -0.6754  0.2897  0.2095
  220MPD1    C1 3392   0.071   1.629   9.578 -0.2915 -0.3971 -1.0782
  220MPD1    C2 3393   0.040   1.522   9.660 -0.0824  0.2954  0.1272
  220MPD1    C3 3394   4.701   1.420   9.615  0.5174 -0.5657 -0.6728
  220MPD1    C4 3395   4.657   1.412   9.485 -0.0993  0.5731 -0.6572
  220MPD1    C5 3396   4.683   1.522   9.406  0.3795  0.4039  0.0603
  220MPD1     H 3397   0.066   1.531   9.765 -1.1620  1.3290  0.2995
  220MPD1    H1 3398   4.608   1.325   9.443  1.3876  0.7023 -2.6565
  220MPD1    H2 3399   0.038   1.716   9.386  1.5415  1.0743  1.8327
  220MPD1    H3 3400   4.656   1.528   9.302 -1.3610 -2.1663  0.3775
  220MPD1     N 3401   4.671   1.319   9.711 -0.5241 -0.3999 -0.1595
  220MPD1    H5 3402   4.715   1.328   9.802 -0.4647 -0.9190 -0.1377
  220MPD1    N1 3403   0.138   1.736   9.633 -0.0459 -0.2300 -0.3294
  220MPD1    H6 3404   0.143   1.813   9.566  0.9866  0.7887  0.9447
  220MPD1    H7 3405   0.226   1.712   9.678 -0.4121  0.1269  0.5722
  221MPD1     C 3406   2.808   3.584  16.328  0.1554  0.7128  0.1342
  221MPD1    C1 3407   2.694   3.631  16.388  0.5426  0.0836  0.2956
  221MPD1    C2 3408   2.618   3.722  16.318 -0.6203  0.8268  0.6148
  221MPD1    C3 3409   2.651   3.749  16.182  0.5418  0.1751  0.2576
  221MPD1    C4 3410   2.760   3.691  16.122 -0.9170 -0.3519 -0.0321
  221MPD1    C5 3411   2.840   3.615  16.201 -0.3545 -0.4928  0.0389
  221MPD1     H 3412   2.542   3.779  16.369 -0.0428 -0.4172  2.8869
  221MPD1    H1 3413   2.789   3.712  16.020  0.7723  0.6498  0.6449
  221MPD1    H2 3414   2.879   3.528  16.388  3.3060  2.2765 -2.1182
  221MPD1    H3 3415   2.933   3.576  16.161  1.1774  2.7072  0.4740
  221MPD1     N 3416   2.577   3.842  16.108 -0.5576 -0.3325 -0.4220
  221MPD1    H5 3417   2.616   3.851  16.014 -0.0764  2.1746  0.0061
  221MPD1    N1 3418   2.681   3.613  16.526  0.2655 -0.1389 -0.3565
  221MPD1    H6 3419   2.689   3.514  16.546 -1.3878  0.2883  2.3953
  221MPD1    H7 3420   2.585   3.638  16.551  0.4216  1.5965 -1.5067
  222MPD1     C 3421   1.335   3.411  17.363 -0.2943 -0.3618  0.0547
  222MPD1    C1 3422   1.199   3.420  17.367  0.5857 -1.2566 -0.1768
  222MPD1    C2 3423   1.130   3.510  17.452 -0.3847 -0.1188 -0.6746
  222MPD1    C3 3424   1.203   3.583  17.547  0.4069 -0.4582  0.0496
  222MPD1    C4 3425   1.339   3.563  17.543  0.1663  0.3334 -0.0823
  222MPD1    C5 3426   1.401   3.488  17.456 -0.4907 -0.1590  0.2654
  222MPD1     H 3427   1.022   3.514  17.442 -0.4262  0.3284 -0.0084
  222MPD1    H1 3428   1.400   3.604  17.623 -1.1270  1.8733  0.1202
  222MPD1    H2 3429   1.389   3.349  17.292 -2.3172 -0.8959 -1.0150
  222MPD1    H3 3430   1.505   3.466  17.480  0.6356  1.8035 -2.7423
  222MPD1     N 3431   1.142   3.669  17.639  0.4431  0.2746 -0.0906
  222MPD1    H5 3432   1.207   3.724  17.695  2.7671 -1.3047 -1.2660
  222MPD1    N1 3433   1.125   3.359  17.271  0.2304  0.7845 -0.4950
  222MPD1    H6 3434   1.026   3.379  17.258  0.1471  0.2832 -0.6150
  222MPD1    H7 3435   1.157   3.269  17.237 -1.2990  0.1245 -0.1836
  223MPD1     C 3436   0.263   3.678   0.396  0.0797 -0.0412 -0.1938
  223MPD1    C1 3437   0.316   3.585   0.304  0.5782 -0.4071 -0.2734
  223MPD1    C2 3438   0.436   3.629   0.239  0.5393 -0.3380 -0.9425
  223MPD1    C3 3439   0.503   3.746   0.273  0.7292  0.6490  0.8040
  223MPD1    C4 3440   0.443   3.832   0.365 -0.1256  0.6089  0.0284
  223MPD1    C5 3441   0.319   3.800   0.420 -0.3155 -0.0340 -0.0225
  223MPD1     H 3442   0.478   3.595   0.145 -1.3956 -0.8640 -1.6168
  223MPD1    H1 3443   0.495   3.917   0.407  1.7593 -0.1138 -0.8369
  223MPD1    H2 3444   0.167   3.654   0.440  0.6077 -0.6480  0.5947
  223MPD1    H3 3445   0.268   3.864   0.490  0.6372 -0.9084  1.4836
  223MPD1     N 3446   0.627   3.765   0.214 -0.1500 -0.7462 -0.3184
  223MPD1    H5 3447   0.662   3.687   0.161 -2.1392 -1.1301 -1.0468
  223MPD1    N1 3448   0.229   3.486   0.245  0.9165 -0.4485  0.2289
  223MPD1    H6 3449   0.281   3.406   0.209  1.7699  0.0175  0.4016
  223MPD1    H7 3450   0.169   3.453   0.320 -0.0811 -1.6177 -1.1050
  224MPD1     C 3451   2.582   4.622   8.624  0.0110  0.5070 -0.4543
  224MPD1    C1 3452   2.468   4.669   8.682 -0.2484 -0.0578 -0.3306
  224MPD1    C2 3453   2.459   4.662   8.818  0.2000 -1.1438 -0.4045
  224MPD1    C3 3454   2.581   4.649   8.886 -0.1809 -0.5763  0.2167
  224MPD1    C4 3455   2.694   4.609   8.826  0.4634  0.2210 -0.5104
  224MPD1    C5 3456   2.696   4.584   8.691 -0.0988  0.3303  0.1503
  224MPD1     H 3457   2.366   4.676   8.873  0.6229  0.5522 -0.1108
  224MPD1    H1 3458   2.785   4.601   8.885 -0.6294  1.0293  1.2729
  224MPD1    H2 3459   2.577   4.608   8.516 -0.1961 -3.3595  0.0423
  224MPD1    H3 3460   2.789   4.565   8.639 -1.5517  1.2465 -2.8242
  224MPD1     N 3461   2.595   4.681   9.023  0.5598  0.2316  0.2633
  224MPD1    H5 3462   2.686   4.673   9.067  0.8180  0.3292 -0.2610
  224MPD1    N1 3463   2.358   4.681   8.600  0.1628 -0.0662  0.5713
  224MPD1    H6 3464   2.377   4.724   8.509 -0.1327  0.9168  0.9658
  224MPD1    H7 3465   2.280   4.726   8.648  0.0494 -1.3035  1.5325
  225MPD1     C 3466   3.736   0.832  12.621  0.3783  0.1144  0.4893
  225MPD1    C1 3467   3.724   0.952  12.678 -0.7648  0.0026  0.2141
  225MPD1    C2 3468   3.700   1.065  12.601 -0.1358 -1.1820  0.1718
  225MPD1    C3 3469   3.692   1.061  12.458  0.1985  0.1606 -0.4291
  225MPD1    C4 3470   3.708   0.937  12.401 -0.4480  0.4026  0.3522
  225MPD1    C5 3471   3.724   0.828  12.483 -0.3422  0.4812  0.3108
  225MPD1     H 3472   3.673   1.160  12.645  0.9146 -0.8310  0.0579
  225MPD1    H1 3473   3.709   0.921  12.294  1.0484 -0.9724  0.5809
  225MPD1    H2 3474   3.754   0.746  12.685  0.3675 -0.5243 -0.3502
  225MPD1    H3 3475   3.746   0.729  12.445  1.0957  1.3215 -1.0668
  225MPD1     N 3476   3.671   1.172  12.378  0.9614  0.2311  0.4810
  225MPD1    H5 3477   3.681   1.146  12.280 -1.1064 -1.0724  0.6069
  225MPD1    N1 3478   3.724   0.959  12.817 -0.1621  0.0293 -0.0990
  225MPD1    H6 3479   3.714   1.053  12.855  4.2192 -0.1711  1.5773
  225MPD1    H7 3480   3.806   0.912  12.856  0.8090  1.9440  0.1452
  226MPD1     C 3481   1.533   0.109   9.349  0.1244  0.5242 -0.9478
  226MPD1    C1 3482   1.666   0.141   9.345  0.1901 -0.0088 -0.3378
  226MPD1    C2 3483   1.707   0.259   9.293 -0.0985 -0.9768 -0.1414
  226MPD1    C3 3484   1.609   0.352   9.257 -0.0381  0.2082 -0.9511
  226MPD1    C4 3485   1.477   0.326   9.268 -0.1954  0.2786 -0.2395
  226MPD1    C5 3486   1.437   0.200   9.302  0.3779  0.8037  0.3577
  226MPD1     H 3487   1.811   0.280   9.272 -1.0766  1.7066 -2.2389
  226MPD1    H1 3488   1.402   0.400   9.244  0.8418  1.5800  0.5313
  226MPD1    H2 3489   1.493   0.015   9.386  0.0675  0.6468 -0.6993
  226MPD1    H3 3490   1.330   0.185   9.297  0.1761  1.9443  1.1133
  226MPD1     N 3491   1.652   0.478   9.216 -0.0401  0.3631  0.2277
  226MPD1    H5 3492   1.753   0.476   9.216 -0.0533 -0.6655 -1.6626
  226MPD1    N1 3493   1.768   0.040   9.363  0.8333  1.1312 -0.1585
  226MPD1    H6 3494   1.724   4.692   9.397  2.5928 -0.5241 -1.9508
  226MPD1    H7 3495   1.859   0.060   9.405  1.7651  0.7493 -2.0095
  227MPD1     C 3496   1.429   1.553   9.121 -0.1262 -0.1431  0.2227
  227MPD1    C1 3497   1.560   1.533   9.086  0.2927 -1.2404 -0.3868
  227MPD1    C2 3498   1.617   1.404   9.095  0.3515  0.4529  0.6336
  227MPD1    C3 3499   1.538   1.294   9.111 -0.2878  0.2276 -0.1855
  227MPD1    C4 3500   1.405   1.313   9.127 -0.0972  0.6830 -0.7646
  227MPD1    C5 3501   1.350   1.439   9.133 -0.1114  0.0081  0.8371
  227MPD1     H 3502   1.724   1.387   9.082  0.5334  2.6821 -0.8221
  227MPD1    H1 3503   1.332   1.237   9.151  0.3283 -0.3047 -2.5934
  227MPD1    H2 3504   1.389   1.654   9.128 -2.1908 -0.8664 -0.9666
  227MPD1    H3 3505   1.244   1.454   9.150 -0.8026 -2.1157 -1.5592
  227MPD1     N 3506   1.598   1.169   9.126 -0.2498 -0.0719  0.0511
  227MPD1    H5 3507   1.699   1.170   9.118 -0.1715 -2.3849  0.6565
  227MPD1    N1 3508   1.661   1.634   9.091  0.0697 -0.1930 -0.1222
  227MPD1    H6 3509   1.628   1.719   9.045 -1.0220 -0.4464  0.1878
  227MPD1    H7 3510   1.755   1.611   9.060  0.9784  1.6565  1.2745
  228MPD1     C 3511   1.282   4.467  12.104  0.5477 -0.1709 -0.7807
  228MPD1    C1 3512   1.161   4.468  12.035 -0.0747  0.3421  0.3373
  228MPD1    C2 3513   1.071   4.364  12.049 -0.5276  0.0974 -0.7056
  228MPD1    C3 3514   1.099   4.266  12.146 -0.0540  0.1070  0.6228
  228MPD1    C4 3515   1.213   4.275  12.225 -0.2915  0.2524  0.0663
  228MPD1    C5 3516   1.305   4.377  12.201  0.0707  0.0095 -0.0912
  228MPD1     H 3517   0.990   4.355  11.978  0.4263 -0.3107 -1.7498
  228MPD1    H1 3518   1.235   4.220  12.316 -0.5200  0.2645  0.1308
  228MPD1    H2 3519   1.360   4.538  12.082  0.4019  0.2885  0.1986
  228MPD1    H3 3520   1.397   4.385  12.258 -0.6690 -1.7146  1.3497
  228MPD1     N 3521   1.011   4.159  12.169 -0.0417  0.3464 -0.0124
  228MPD1    H5 3522   0.919   4.171  12.127 -0.1909  0.4376  0.3293
  228MPD1    N1 3523   1.139   4.558  11.930  0.0110 -0.0315 -1.3140
  228MPD1    H6 3524   1.185   4.648  11.939 -2.4222  0.8092  2.6172
  228MPD1    H7 3525   1.042   4.576  11.905  0.4452  0.0489 -2.9309
  229MPD1     C 3526   0.226   2.975  14.166 -0.3274  0.5768 -0.4951
  229MPD1    C1 3527   0.234   3.027  14.296 -0.4231 -0.6702  0.4074
  229MPD1    C2 3528   0.309   2.949  14.382 -0.4336  0.3159  0.3744
  229MPD1    C3 3529   0.354   2.825  14.342  0.1283  0.1535 -0.5519
  229MPD1    C4 3530   0.338   2.777  14.213 -0.2258  0.1451  0.3274
  229MPD1    C5 3531   0.268   2.850  14.120  0.6250 -0.4103 -0.2181
  229MPD1     H 3532   0.307   2.981  14.485 -0.8692  0.2356  0.3879
  229MPD1    H1 3533   0.373   2.677  14.192  1.0565  0.7721 -0.4956
  229MPD1    H2 3534   0.180   3.040  14.093  0.2267  1.1574 -0.3337
  229MPD1    H3 3535   0.265   2.821  14.016 -1.3939 -1.0016 -0.0011
  229MPD1     N 3536   0.402   2.736  14.434  0.1436 -0.0512  0.1980
  229MPD1    H5 3537   0.403   2.639  14.405 -0.1250  0.5907 -1.9600
  229MPD1    N1 3538   0.213   3.160  14.327 -0.4046  0.0104  0.2852
  229MPD1    H6 3539   0.141   3.204  14.269 -0.4934 -0.4917  0.0165
  229MPD1    H7 3540   0.180   3.164  14.423  1.7993  0.7275  1.0129
  230MPD1     C 3541   0.656   2.920  15.396  0.2657 -0.0052 -0.3143
  230MPD1    C1 3542   0.562   2.965  15.311  0.7383  0.7322 -0.9605
  230MPD1    C2 3543   0.536   2.901  15.198 -0.0352  0.6281 -0.6211
  230MPD1    C3 3544   0.609   2.795  15.155  0.0579 -0.0900  0.0272
  230MPD1    C4 3545   0.696   2.743  15.244  0.4792  0.3308 -0.5740
  230MPD1    C5 3546   0.721   2.805  15.368 -0.7894  0.7926 -0.5924
  230MPD1     H 3547   0.458   2.934  15.131  0.5786 -0.3007 -1.7893
  230MPD1    H1 3548   0.748   2.652  15.216  0.9475  0.5506 -0.4232
  230MPD1    H2 3549   0.686   2.972  15.486 -0.8981  2.2878 -1.2276
  230MPD1    H3 3550   0.806   2.778  15.430 -1.0749 -0.0053 -0.5475
  230MPD1     N 3551   0.593   2.751  15.020  0.3369 -0.7721 -0.1955
  230MPD1    H5 3552   0.529   2.804  14.961 -0.8079 -2.4022 -0.4189
  230MPD1    N1 3553   0.476   3.058  15.366 -0.1003  0.1826 -0.1507
  230MPD1    H6 3554   0.523   3.121  15.431  0.3719 -1.5558  1.1774
  230MPD1    H7 3555   0.433   3.112  15.291  0.2323 -0.9634 -1.1622
  231MPD1     C 3556   3.548   4.279  15.336  0.1173 -0.4771  0.0781
  231MPD1    C1 3557   3.539   4.249  15.201 -0.1009  0.2578 -0.4108
  231MPD1    C2 3558   3.642   4.302  15.121 -0.2310  0.2111 -0.7231
  231MPD1    C3 3559   3.724   4.399  15.163  0.4157 -0.0083  0.5618
  231MPD1    C4 3560   3.727   4.438  15.297 -0.3150 -0.0098 -0.3608
  231MPD1    C5 3561   3.641   4.375  15.381 -0.3797 -0.8128  0.0444
  231MPD1     H 3562   3.655   4.269  15.018  0.9191  1.1112 -0.8612
  231MPD1    H1 3563   3.801   4.505  15.338  0.6354 -0.1084 -1.9133
  231MPD1    H2 3564   3.488   4.230  15.411 -0.0472  1.3317  1.1478
  231MPD1    H3 3565   3.650   4.401  15.485 -1.5958  2.0238 -0.5642
  231MPD1     N 3566   3.827   4.438  15.073  0.0341 -0.4197 -0.0044
  231MPD1    H5 3567   3.825   4.393  14.982  1.8494 -0.5707  0.0409
  231MPD1    N1 3568   3.461   4.142  15.156 -0.4922 -0.2001  0.4396
  231MPD1    H6 3569   3.363   4.124  15.175 -1.0135  3.2848  0.8596
  231MPD1    H7 3570   3.475   4.127  15.056  0.6722 -1.3627  0.7716
  232MPD1     C 3571   0.939   3.118  17.465 -0.1282 -0.6283 -0.2103
  232MPD1    C1 3572   0.840   3.177  17.539 -0.8055 -0.6434 -0.0678
  232MPD1    C2 3573   0.742   3.091  17.589  0.0679 -0.4992 -0.4769
  232MPD1    C3 3574   0.749   2.951  17.574  0.1363  1.0751 -0.3477
  232MPD1    C4 3575   0.858   2.901  17.513 -0.0263  0.2008 -0.3644
  232MPD1    C5 3576   0.953   2.982  17.473  0.0681 -0.6282 -0.2158
  232MPD1     H 3577   0.667   3.140  17.650  1.6010  0.5460  0.5663
  232MPD1    H1 3578   0.889   2.797  17.519  0.3002  0.2572 -1.2012
  232MPD1    H2 3579   1.009   3.170  17.401  2.2732 -0.3388  2.6789
  232MPD1    H3 3580   1.032   2.939  17.414  0.3668 -0.6366  0.1890
  232MPD1     N 3581   0.633   2.879  17.625 -0.4396 -0.2791  0.2232
  232MPD1    H5 3582   0.552   2.934  17.654  1.6100  3.3954 -0.9406
  232MPD1    N1 3583   0.813   3.307  17.538 -0.1847 -0.6378 -0.3907
  232MPD1    H6 3584   0.903   3.353  17.552 -0.1562 -0.2128 -1.9727
  232MPD1    H7 3585   0.757   3.322  17.621  0.8491 -1.8157  0.5193
  233MPD1     C 3586   3.526   1.485   1.537  0.1818  0.2209 -0.6432
  233MPD1    C1 3587   3.627   1.428   1.615 -0.4117 -0.6455 -0.1943
  233MPD1    C2 3588   3.638   1.291   1.615 -0.1852  1.2391 -0.6194
  233MPD1    C3 3589   3.559   1.209   1.538 -0.2760  0.2849 -1.3818
  233MPD1    C4 3590   3.471   1.271   1.461 -0.7027  0.7591 -0.5252
  233MPD1    C5 3591   3.451   1.399   1.463 -0.2527  1.1898 -0.6043
  233MPD1     H 3592   3.720   1.253   1.675 -1.7190 -1.5089 -0.2853
  233MPD1    H1 3593   3.407   1.218   1.391  0.4980  1.6611 -2.2853
  233MPD1    H2 3594   3.511   1.592   1.530  2.6593  0.7002  1.3736
  233MPD1    H3 3595   3.379   1.447   1.398 -0.2137 -0.3726 -1.8028
  233MPD1     N 3596   3.580   1.065   1.531  0.5060  0.3441 -0.5096
  233MPD1    H5 3597   3.534   1.015   1.456 -0.6359  0.6706 -0.0219
  233MPD1    N1 3598   3.720   1.513   1.678  0.3790 -0.6230  0.0361
  233MPD1    H6 3599   3.768   1.455   1.747 -0.1166 -0.6169  0.3881
  233MPD1    H7 3600   3.673   1.582   1.737 -1.1340 -2.2098  0.6983
  234MPD1     C 3601   3.385   3.437  10.147  0.0659 -0.4715 -0.2168
  234MPD1    C1 3602   3.359   3.558  10.202 -0.1104  0.1473 -0.3124
  234MPD1    C2 3603   3.363   3.665  10.110  0.9888 -0.1704  0.0426
  234MPD1    C3 3604   3.367   3.651   9.972  0.9438 -0.4005  0.2077
  234MPD1    C4 3605   3.378   3.521   9.923  1.3155  0.1295  0.0755
  234MPD1    C5 3606   3.395   3.420  10.012  0.7653 -0.7860 -0.5797
  234MPD1     H 3607   3.366   3.764  10.152  1.5905 -0.2090  0.0959
  234MPD1    H1 3608   3.371   3.497   9.818 -0.6548 -2.5630  0.8193
  234MPD1    H2 3609   3.412   3.357  10.215 -1.1285 -0.6365  0.0632
  234MPD1    H3 3610   3.422   3.323   9.971 -0.1698 -0.4041 -2.1097
  234MPD1     N 3611   3.366   3.765   9.885 -0.7088 -0.3356 -0.4566
  234MPD1    H5 3612   3.363   3.858   9.926 -0.0233 -0.0915 -0.9473
  234MPD1    N1 3613   3.339   3.577  10.336  0.1732 -0.1463 -0.5391
  234MPD1    H6 3614   3.286   3.657  10.368  0.2746 -1.2760  2.4583
  234MPD1    H7 3615   3.333   3.493  10.393 -1.2300 -0.9055 -1.8106
  235MPD1     C 3616   0.688   1.196  10.684  0.0166  0.2447 -0.1489
  235MPD1    C1 3617   0.570   1.245  10.636  0.0620 -0.4072  0.0773
  235MPD1    C2 3618   0.578   1.360  10.562  0.1121 -0.1105  0.1524
  235MPD1    C3 3619   0.697   1.423  10.533 -0.0348  0.1138  0.4877
  235MPD1    C4 3620   0.812   1.378  10.605 -0.2432  0.3461 -0.7072
  235MPD1    C5 3621   0.802   1.268  10.681 -0.8740  0.4528  0.6921
  235MPD1     H 3622   0.487   1.418  10.547  0.0000 -0.8922 -2.2301
  235MPD1    H1 3623   0.909   1.418  10.579 -0.3018  0.7450 -0.3109
  235MPD1    H2 3624   0.685   1.110  10.750  0.6392  1.1104  1.0049
  235MPD1    H3 3625   0.894   1.221  10.712 -0.6568 -1.2104 -2.5719
  235MPD1     N 3626   0.698   1.534  10.446 -0.2875 -0.2264 -0.0640
  235MPD1    H5 3627   0.612   1.549  10.394 -1.2593 -0.1231  1.5728
  235MPD1    N1 3628   0.447   1.199  10.690  0.7714  0.5257 -0.6066
  235MPD1    H6 3629   0.459   1.100  10.711  0.6728  0.3004 -1.6385
  235MPD1    H7 3630   0.363   1.222  10.638 -0.0884 -3.3767 -0.9699
  236MPD1     C 3631   4.190   1.542   9.536 -0.1345  0.1983 -0.8536
  236MPD1    C1 3632   4.111   1.647   9.580 -0.0684 -0.1295 -0.4368
  236MPD1    C2 3633   4.144   1.713   9.696 -0.1663  0.2581  0.1528
  236MPD1    C3 3634   4.263   1.687   9.762 -0.9754  0.4467  0.7811
  236MPD1    C4 3635   4.335   1.578   9.723  0.9743 -0.3564  0.3024
  236MPD1    C5 3636   4.303   1.513   9.608  0.1682  0.1569  0.7568
  236MPD1     H 3637   4.087   1.801   9.719 -0.0421  0.8193 -1.6634
  236MPD1    H1 3638   4.424   1.549   9.778  1.2619  1.2334  0.6521
  236MPD1    H2 3639   4.185   1.497   9.438  0.1493 -1.0552 -0.2836
  236MPD1    H3 3640   4.366   1.436   9.564  1.6231  2.3059 -0.9342
  236MPD1     N 3641   4.303   1.751   9.880  0.4984 -0.7800  1.0173
  236MPD1    H5 3642   4.395   1.719   9.911 -0.0234 -2.6706  0.5889
  236MPD1    N1 3643   4.015   1.701   9.499  0.1178 -0.7889 -0.4755
  236MPD1    H6 3644   3.976   1.634   9.433  0.4131 -1.8423  0.4197
  236MPD1    H7 3645   3.940   1.715   9.567  0.3047 -0.0078 -0.4290
  237MPD1     C 3646   4.025   0.302  14.859  0.0773  0.3217 -0.3891
  237MPD1    C1 3647   3.952   0.353  14.762  0.1701 -0.7879  0.2399
  237MPD1    C2 3648   3.876   0.464  14.786 -0.0115  0.7986  0.3716
  237MPD1    C3 3649   3.874   0.521  14.912 -0.8821 -0.0454  0.1163
  237MPD1    C4 3650   3.962   0.474  15.005  0.4774 -0.1472  0.3597
  237MPD1    C5 3651   4.032   0.367  14.981  0.8036 -0.0960 -0.3853
  237MPD1     H 3652   3.813   0.506  14.708 -0.3182  0.0433  0.2112
  237MPD1    H1 3653   3.977   0.522  15.101 -1.7645 -0.8591  1.0570
  237MPD1    H2 3654   4.077   0.208  14.845 -2.6506 -0.9602 -1.9265
  237MPD1    H3 3655   4.105   0.331  15.053 -0.2753  1.7408  1.6586
  237MPD1     N 3656   3.789   0.626  14.944 -0.0175  0.5365  0.2665
  237MPD1    H5 3657   3.793   0.664  15.038 -2.7921  1.6160 -0.0597
  237MPD1    N1 3658   3.940   0.271  14.647 -0.8922 -0.5157  0.1424
  237MPD1    H6 3659   3.907   0.317  14.562  1.6132  0.2679 -0.4223
  237MPD1    H7 3660   4.028   0.225  14.622  0.8641  2.0682  1.5603
  238MPD1     C 3661   1.066   4.022  14.906 -0.3788 -0.2216 -0.0779
  238MPD1    C1 3662   0.987   4.118  14.973  0.1974 -0.1861  0.0513
  238MPD1    C2 3663   0.853   4.135  14.925  0.2632  0.2584 -0.2025
  238MPD1    C3 3664   0.790   4.047  14.843 -0.0889 -0.0826 -0.2168
  238MPD1    C4 3665   0.874   3.960  14.777  0.6080 -0.7860  0.5031
  238MPD1    C5 3666   1.003   3.954  14.805 -0.4872 -0.3875 -0.2502
  238MPD1     H 3667   0.796   4.215  14.970 -0.5186 -0.3693 -0.0739
  238MPD1    H1 3668   0.826   3.900  14.700  0.6224  1.9441 -1.6149
  238MPD1    H2 3669   1.172   4.007  14.918 -0.2989 -0.2289 -0.8189
  238MPD1    H3 3670   1.056   3.876  14.752  0.6779 -0.1048  0.5014
  238MPD1     N 3671   0.658   4.072  14.804 -0.7132 -0.4514 -0.1626
  238MPD1    H5 3672   0.637   4.034  14.713  0.3159 -2.1503  0.3134
  238MPD1    N1 3673   1.048   4.216  15.050  0.8505  0.1599  0.1532
  238MPD1    H6 3674   0.985   4.266  15.113  0.2763 -0.6533  0.2160
  238MPD1    H7 3675   1.118   4.176  15.112  0.3535  1.4092  1.5426
  239MPD1     C 3676   0.803   0.292  14.965  0.1275 -0.3420 -0.6311
  239MPD1    C1 3677   0.894   0.252  14.866  0.6301 -0.4821 -0.7918
  239MPD1    C2 3678   0.920   0.333  14.759 -0.0748 -0.4149 -0.6452
  239MPD1    C3 3679   0.843   0.447  14.742  0.3547  0.0156  0.1273
  239MPD1    C4 3680   0.746   0.487  14.835 -0.5420 -0.3563 -0.3654
  239MPD1    C5 3681   0.730   0.402  14.939  0.2291 -0.6263 -0.4199
  239MPD1     H 3682   0.988   0.297  14.682 -0.3131 -1.1477 -0.5125
  239MPD1    H1 3683   0.690   0.579  14.826  1.4676  0.9504  0.3419
  239MPD1    H2 3684   0.785   0.248  15.062 -0.2425  0.5522 -0.2868
  239MPD1    H3 3685   0.656   0.428  15.015 -0.9998 -1.6837 -1.2494
  239MPD1     N 3686   0.848   0.522  14.615 -0.4619 -0.6715 -0.5875
  239MPD1    H5 3687   0.771   0.588  14.606 -0.6183 -0.7623  0.0863
  239MPD1    N1 3688   0.959   0.127  14.887  0.6110 -0.0942 -0.5940
  239MPD1    H6 3689   0.895   0.049  14.903 -1.0680  0.6016 -3.8387
  239MPD1    H7 3690   1.020   0.104  14.809 -1.5486  0.7682 -2.5543
  240MPD1     C 3691   0.126   0.691  13.331  0.2020  0.9235 -0.1007
  240MPD1    C1 3692   0.238   0.683  13.411 -0.9633  0.2083  0.7416
  240MPD1    C2 3693   0.253   0.579  13.492  0.3538  0.0529 -0.4610
  240MPD1    C3 3694   0.151   0.491  13.515 -0.9288  0.0500  0.0789
  240MPD1    C4 3695   0.032   0.499  13.437 -0.2722  1.1849  0.2412
  240MPD1    C5 3696   0.028   0.597  13.340  0.8838  0.1819 -0.2799
  240MPD1     H 3697   0.337   0.573  13.560  0.6974 -1.8717 -1.0583
  240MPD1    H1 3698   4.688   0.428  13.432  0.5473  0.0472  2.7830
  240MPD1    H2 3699   0.125   0.761  13.249  1.5808 -0.4994 -1.3341
  240MPD1    H3 3700   4.683   0.615  13.270 -1.7711 -1.5886  2.3344
  240MPD1     N 3701   0.169   0.404  13.625  0.1207  0.1291 -0.1975
  240MPD1    H5 3702   0.264   0.400  13.662  0.6805  1.4355 -1.4897
  240MPD1    N1 3703   0.348   0.766  13.375  0.6265  0.0434 -0.7037
  240MPD1    H6 3704   0.330   0.858  13.336  1.3288  0.5164  0.0800
  240MPD1    H7 3705   0.421   0.774  13.446 -0.1231 -0.9660  0.1892
  241MPD1     C 3706   0.877   4.624  14.058  0.3292  0.1575 -0.0098
  241MPD1    C1 3707   0.833   4.631  13.927  0.3190  0.0193 -0.1197
  241MPD1    C2 3708   0.705   4.663  13.895 -0.2220  0.1403  0.1574
  241MPD1    C3 3709   0.618   4.706  13.992 -0.1407  0.3893 -0.9979
  241MPD1    C4 3710   0.662   4.712  14.123 -0.3173  0.0822 -0.3506
  241MPD1    C5 3711   0.790   4.674  14.155  0.2172 -0.4808 -0.0071
  241MPD1     H 3712   0.680   4.660  13.790 -1.9306 -2.2438  0.6187
  241MPD1    H1 3713   0.591   4.727  14.204 -0.4872  1.1072 -0.6934
  241MPD1    H2 3714   0.981   4.599  14.076  0.0012  0.0692  1.6831
  241MPD1    H3 3715   0.824   4.682  14.258  0.5596  1.0540 -0.2339
  241MPD1     N 3716   0.484   0.023  13.972 -0.2287 -0.3751 -0.1363
  241MPD1    H5 3717   0.443   0.077  14.048  2.8955 -1.2494  2.1969
  241MPD1    N1 3718   0.911   4.580  13.823  0.0126 -0.4778  0.0304
  241MPD1    H6 3719   1.011   4.584  13.842  0.5358  0.9139 -3.0351
  241MPD1    H7 3720   0.885   4.630  13.738 -2.1546 -2.6634 -0.5800
  242MPD1     C 3721   4.468   3.524  15.903 -0.1889  0.5030  0.5607
  242MPD1    C1 3722   4.589   3.461  15.901 -0.2544  0.4943  0.9531
  242MPD1    C2 3723   4.639   3.426  15.778 -0.2404  0.6438 -0.6648
  242MPD1    C3 3724   4.567   3.451  15.657 -0.1742 -0.7016  0.8288
  242MPD1    C4 3725   4.443   3.515  15.665  0.4012 -0.3892  0.0917
  242MPD1    C5 3726   4.394   3.551  15.790  0.0365 -0.5482 -0.2466
  242MPD1     H 3727   4.725   3.359  15.776  0.0923  1.0001  1.6079
  242MPD1    H1 3728   4.375   3.534  15.582 -1.9058 -2.4552  1.5325
  242MPD1    H2 3729   4.424   3.541  16.001  1.7513 -0.8709  1.6791
  242MPD1    H3 3730   4.295   3.594  15.804  1.9588  4.2084 -1.4842
  242MPD1     N 3731   4.621   3.423  15.530 -0.6135 -0.4509 -0.5239
  242MPD1    H5 3732   4.569   3.452  15.448  1.7287  0.8983 -1.5364
  242MPD1    N1 3733   4.645   3.412  16.016 -0.0649 -0.7164  0.1206
  242MPD1    H6 3734   4.622   3.462  16.102 -0.0666 -0.3860 -0.0740
  242MPD1    H7 3735   0.007   3.387  16.008 -0.2419 -0.9562 -1.2817
  243MPD1     C 3736   0.954   1.674  17.465  0.2391 -0.0677 -0.0775
  243MPD1    C1 3737   1.020   1.699  17.344  0.7501 -0.3831  0.2441
  243MPD1    C2 3738   1.120   1.615  17.311  0.0758 -0.7857  0.3324
  243MPD1    C3 3739   1.141   1.494  17.385  0.0837  0.1315  0.1732
  243MPD1    C4 3740   1.073   1.470  17.501 -0.5107  0.6007  0.4732
  243MPD1    C5 3741   0.980   1.564  17.542  0.7199  0.0417  0.2022
  243MPD1     H 3742   1.182   1.632  17.224  0.4827 -0.5512  0.6705
  243MPD1    H1 3743   1.089   1.379  17.559  2.4112 -0.1263 -1.4638
  243MPD1    H2 3744   0.876   1.744  17.495  1.6368  2.0027 -1.2907
  243MPD1    H3 3745   0.923   1.550  17.633 -1.3148 -1.2380 -1.2760
  243MPD1     N 3746   1.228   1.397  17.331 -0.0421  0.0600 -0.0976
  243MPD1    H5 3747   1.265   1.416  17.238 -1.9775 -1.1127 -1.0872
  243MPD1    N1 3748   0.998   1.816  17.269  0.5018  0.5460  0.8821
  243MPD1    H6 3749   0.923   1.878  17.300  0.2763  0.1798  1.0695
  243MPD1    H7 3750   1.000   1.806  17.168  1.1874 -2.6579  1.2331
  244MPD1     C 3751   1.553   0.535  17.734 -0.3214 -0.0789 -0.4674
  244MPD1    C1 3752   1.620   0.544  17.613  0.0639  0.3533 -0.2715
  244MPD1    C2 3753   1.609   0.655  17.532  0.8033 -0.4990 -0.0544
  244MPD1    C3 3754   1.548   0.769  17.572  1.0535  0.3554  0.0805
  244MPD1    C4 3755   1.490   0.770  17.695 -0.8578  0.0960  0.1710
  244MPD1    C5 3756   1.493   0.654   0.028  0.1128 -0.4929 -0.6371
  244MPD1     H 3757   1.639   0.654  17.427  0.9118 -1.7524 -0.0149
  244MPD1    H1 3758   1.447   0.859  17.741  2.5994  1.4423  0.8407
  244MPD1    H2 3759   1.552   0.439   0.040  0.0332  0.1116 -0.0924
  244MPD1    H3 3760   1.446   0.658   0.125  1.7801 -1.0399  0.1818
  244MPD1     N 3761   1.539   0.882  17.488  0.6066  0.0903 -0.2369
  244MPD1    H5 3762   1.481   0.955  17.530  0.3814 -0.4898  0.4604
  244MPD1    N1 3763   1.667   0.426  17.565 -0.0098  0.3221  0.0091
  244MPD1    H6 3764   1.725   0.382  17.637  1.6486  2.0146 -0.3095
  244MPD1    H7 3765   1.723   0.441  17.482 -1.0191  0.0908 -0.7100
  245MPD1     C 3766   3.487   2.202  13.003  0.1007 -0.7258  0.2938
  245MPD1    C1 3767   3.562   2.188  13.119 -0.0176 -0.1102 -0.1763
  245MPD1    C2 3768   3.569   2.295  13.209  0.8344  0.3924  0.3715
  245MPD1    C3 3769   3.530   2.421  13.171 -0.0582 -0.2027 -0.1205
  245MPD1    C4 3770   3.472   2.431  13.046  0.2527 -0.0971 -0.2424
  245MPD1    C5 3771   3.444   2.329  12.960  0.4254  0.1423  0.2880
  245MPD1     H 3772   3.623   2.277  13.301 -0.8692 -0.5872  1.1741
  245MPD1    H1 3773   3.445   2.525  13.000 -1.3216 -0.3260  0.1836
  245MPD1    H2 3774   3.479   2.120  12.933  1.9806 -0.0419 -0.7223
  245MPD1    H3 3775   3.397   2.351  12.865  0.3368  0.6464  0.4472
  245MPD1     N 3776   3.533   2.534  13.256 -0.4269 -0.2770 -0.1830
  245MPD1    H5 3777   3.593   2.510  13.334  1.2532 -0.0659 -1.4069
  245MPD1    N1 3778   3.577   2.053  13.168  0.0973  0.2971  0.1198
  245MPD1    H6 3779   3.567   1.993  13.086 -1.4105  1.4341 -0.5302
  245MPD1    H7 3780   3.662   2.046  13.222  1.0162 -1.1657 -1.5018
  246MPD1     C 3781   0.978   4.119   8.819 -0.7736  0.1923 -0.8076
  246MPD1    C1 3782   0.877   4.211   8.800  0.2818  0.3974 -0.1303
  246MPD1    C2 3783   0.774   4.205   8.884 -0.0713  0.0869  0.0074
  246MPD1    C3 3784   0.775   4.109   8.988 -0.2276 -0.4928 -0.4617
  246MPD1    C4 3785   0.886   4.025   9.014 -0.2861  0.5796 -0.0284
  246MPD1    C5 3786   0.989   4.041   8.930 -0.6863 -0.3169  0.1547
  246MPD1     H 3787   0.690   4.273   8.871  0.1674  0.8767  2.6288
  246MPD1    H1 3788   0.895   3.970   9.107  0.5407  0.4504 -0.1822
  246MPD1    H2 3789   1.049   4.100   8.740 -2.4462 -1.6634 -1.8546
  246MPD1    H3 3790   1.076   3.977   8.944  0.7450  1.8537  1.1337
  246MPD1     N 3791   0.660   4.101   9.069  0.4964 -0.2464  0.0639
  246MPD1    H5 3792   0.589   4.172   9.059  2.6239  1.8469 -0.1725
  246MPD1    N1 3793   0.869   4.280   8.682  0.4080 -1.0754 -0.0752
  246MPD1    H6 3794   0.817   4.367   8.674  1.4450 -0.4724 -0.3833
  246MPD1    H7 3795   0.961   4.301   8.644 -0.3810  1.1232 -0.7810
  247MPD1     C 3796   3.114   2.745  16.629  0.2200 -0.3216  0.1121
  247MPD1    C1 3797   3.026   2.669  16.710 -0.0099  0.4590  0.7631
  247MPD1    C2 3798   3.018   2.529  16.702  0.0725 -0.4499  0.6628
  247MPD1    C3 3799   3.104   2.460  16.625 -0.8175  0.2207  0.0092
  247MPD1    C4 3800   3.194   2.538  16.548  0.3872 -0.1835 -0.5981
  247MPD1    C5 3801   3.201   2.673  16.558 -0.0687 -0.3152 -0.1559
  247MPD1     H 3802   2.945   2.470  16.756 -1.0231  1.4031  1.1890
  247MPD1    H1 3803   3.267   2.492  16.482  0.4674  1.0827 -1.3793
  247MPD1    H2 3804   3.127   2.852  16.640 -0.8607 -0.1110 -0.6525
  247MPD1    H3 3805   3.271   2.734  16.502 -1.5910 -0.2308 -1.9454
  247MPD1     N 3806   3.103   2.322  16.616 -0.2249  0.3800  0.1186
  247MPD1    H5 3807   3.168   2.283  16.549  1.5902  0.6839  1.7172
  247MPD1    N1 3808   2.925   2.732  16.781 -0.3746 -0.0824  0.3057
  247MPD1    H6 3809   2.894   2.673  16.858  2.0319 -0.2823  1.1021
  247MPD1    H7 3810   2.961   2.820  16.818 -0.3463 -0.8872  2.1795
  248MPD1     C 3811   2.715   1.727  17.111 -0.1925  0.0880  0.3614
  248MPD1    C1 3812   2.706   1.838  17.190  0.6745  0.2135 -0.2099
  248MPD1    C2 3813   2.808   1.862  17.288 -0.6732  0.5751  0.7080
  248MPD1    C3 3814   2.904   1.765  17.317 -0.2891 -0.0298  0.0702
  248MPD1    C4 3815   2.902   1.644  17.238 -0.2742 -0.2989  0.3142
  248MPD1    C5 3816   2.813   1.633  17.139 -0.5906  0.1162  0.1083
  248MPD1     H 3817   2.808   1.954  17.346  2.3103  1.1731 -0.2369
  248MPD1    H1 3818   2.974   1.564  17.251 -1.2672 -0.8589  2.3349
  248MPD1    H2 3819   2.655   1.714  17.021  0.5210  2.3129 -0.4517
  248MPD1    H3 3820   2.821   1.546  17.075 -1.8701 -0.7803  1.1525
  248MPD1     N 3821   2.993   1.794  17.417  0.3223  0.6623  0.1175
  248MPD1    H5 3822   2.978   1.883  17.464  0.1482  0.8559 -0.3065
  248MPD1    N1 3823   2.608   1.929  17.152 -0.2104 -0.0157 -0.0535
  248MPD1    H6 3824   2.512   1.896  17.162  0.6812 -1.9496  2.4878
  248MPD1    H7 3825   2.611   2.013  17.209  0.7220  0.3474 -0.6348
  249MPD1     C 3826   0.306   0.460  10.208  0.0769  0.0257 -0.2555
  249MPD1    C1 3827   0.436   0.508  10.228 -0.2847 -0.4354  0.5482
  249MPD1    C2 3828   0.496   0.576  10.128 -0.6179  0.3702 -0.1589
  249MPD1    C3 3829   0.424   0.614  10.018 -0.1705 -0.2180  0.3792
  249MPD1    C4 3830   0.295   0.570   9.996 -0.1881  0.4348 -0.0913
  249MPD1    C5 3831   0.240   0.495  10.093 -0.0515 -0.0760  0.1110
  249MPD1     H 3832   0.599   0.609  10.138 -0.5912  0.1383  0.3143
  249MPD1    H1 3833   0.258   0.601   9.899  1.3464  2.3402 -0.0769
  249MPD1    H2 3834   0.261   0.394  10.282  0.7156  0.3658  0.4259
  249MPD1    H3 3835   0.141   0.458  10.071  0.4541  0.5002 -3.1683
  249MPD1     N 3836   0.494   0.700   9.932 -0.2426  0.4054 -0.6268
  249MPD1    H5 3837   0.587   0.730   9.961  0.4190  0.2760 -2.6326
  249MPD1    N1 3838   0.504   0.459  10.342  0.4635 -0.3076 -0.6211
  249MPD1    H6 3839   0.447   0.459  10.426 -0.0393  1.7187 -0.9540
  249MPD1    H7 3840   0.587   0.506  10.378 -0.7572  2.4867 -1.3979
  250MPD2     C 3841   1.331   0.856  12.979 -0.6070  0.0498 -0.0787
  250MPD2    C1 3842   1.433   0.900  12.893 -0.8321 -0.1146  0.4532
  250MPD2    C2 3843   1.427   0.850  12.761 -0.5125 -0.6018 -0.3654
  250MPD2    C3 3844   1.316   0.776  12.714  0.1561  0.0831 -0.3248
  250MPD2    C4 3845   1.220   0.741  12.801 -0.2968 -0.2206  0.3064
  250MPD2    C5 3846   1.226   0.777  12.932  0.6260 -0.3018  0.1464
  250MPD2     H 3847   1.507   0.880  12.695  0.3865  0.4972  1.2526
  250MPD2    H1 3848   1.133   0.689  12.764 -2.1989  0.7671  3.4403
  250MPD2    H2 3849   1.336   0.875  13.085  2.1409 -0.3330 -0.1350
  250MPD2    H3 3850   1.151   0.734  12.999  0.1611 -0.7381 -0.6576
  250MPD2     N 3851   1.309   0.719  12.585  0.3930  0.4117  0.0517
  250MPD2    H5 3852   1.228   0.664  12.560 -0.1002 -0.3564  3.2375
  250MPD2    N1 3853   1.548   0.979  12.935 -0.2151  0.8562  0.0149
  250MPD2    H7 3854   1.617   0.991  12.862 -3.4295 -2.2413 -3.5514
  251TMC3    C1 3855   1.658   1.167  13.027 -0.5554 -0.1407  1.1427
  251TMC3    C2 3856   1.650   1.293  13.076  0.4400 -0.1048  0.5416
  251TMC3    C3 3857   1.759   1.375  13.063 -0.0652  1.0460  0.1267
  251TMC3    C4 3858   1.774   1.126  12.969 -0.5104  0.3097 -0.6479
  251TMC3    C5 3859   1.886   1.209  12.954 -0.4838 -1.0132 -0.2676
  251TMC3    C6 3860   1.876   1.333  13.005 -0.1845 -0.3310  0.8058
  251TMC3     C 3861   1.546   1.072  13.037 -0.8684 -0.3029 -0.2283
  251TMC3     O 3862   1.466   1.103  13.120  0.2344  0.0998  0.0560
  251TMC3     H 3863   1.562   1.330  13.128  0.2072  0.0018  0.0624
  251TMC3    H1 3864   1.789   1.021  12.947  0.2077  0.7304 -2.2162
  251TMC3    H2 3865   1.958   1.400  12.982  0.8597 -2.0444 -0.5207
  251TMC3    C7 3866   2.010   1.145  12.908 -0.1608  0.1411  0.2642
  251TMC3    C8 3867   1.732   1.517  13.072 -0.1854  0.2184  0.3288
  251TMC3    O1 3868   2.021   1.024  12.917 -0.3058 -0.0585 -0.0351
  251TMC3    O2 3869   1.613   1.549  13.095 -0.1611 -0.2222  0.0754
  252TMC3    C1 3870   2.679   2.132   8.536  0.1154  0.2749  0.0866
  252TMC3    C2 3871   2.601   2.198   8.623  0.7393 -0.2092  0.5218
  252TMC3    C3 3872   2.572   2.132   8.739 -0.3314  0.2004  0.4935
  252TMC3    C4 3873   2.720   2.005   8.550 -0.0396  0.1272  0.0235
  252TMC3    C5 3874   2.685   1.939   8.669  0.0486  0.3339  1.0269
  252TMC3    C6 3875   2.610   2.003   8.765  0.1036  0.0314 -0.1379
  252TMC3     C 3876   2.721   2.209   8.419 -0.1318  0.3687  0.2800
  252TMC3     O 3877   2.694   2.326   8.431  0.3684 -0.4047  0.4503
  252TMC3     H 3878   2.569   2.301   8.608  0.5463 -0.6779 -2.2305
  252TMC3    H1 3879   2.788   1.951   8.486  1.8450  0.8230  1.4412
  252TMC3    H2 3880   2.580   1.955   8.858  1.3655 -2.0926 -0.8056
  252TMC3    C7 3881   2.743   1.803   8.697  0.1416  0.1163  0.4094
  252TMC3    C8 3882   2.504   2.210   8.843  0.8068  0.4552  0.1686
  252TMC3    O1 3883   2.829   1.754   8.627  0.2580  0.5355 -0.9099
  252TMC3    O2 3884   2.518   2.334   8.842 -0.2873  0.3884  0.2431
  253MPD2     C 3885   3.300   1.131  15.354 -0.1599  1.1504 -0.1557
  253MPD2    C1 3886   3.185   1.071  15.317  0.4655 -0.0693  0.3725
  253MPD2    C2 3887   3.107   1.011  15.410 -0.2928 -0.1076 -0.5141
  253MPD2    C3 3888   3.130   1.020  15.547  0.0408  0.5324 -0.1572
  253MPD2    C4 3889   3.252   1.080  15.583 -0.4980  1.0793  0.2567
  253MPD2    C5 3890   3.339   1.126  15.488  0.5031  0.1336 -0.3214
  253MPD2     H 3891   3.026   0.952  15.367 -1.5554  0.4094  1.1649
  253MPD2    H1 3892   3.287   1.099  15.684 -2.8665 -2.2995  1.7074
  253MPD2    H2 3893   3.372   1.167  15.281  0.6987 -0.2879 -0.0196
  253MPD2    H3 3894   3.437   1.166  15.513  0.2822  0.5879 -0.1947
  253MPD2     N 3895   3.035   0.968  15.638  0.0609 -0.4439  0.2339
  253MPD2    H5 3896   3.060   0.973  15.736  0.5090 -1.7361  0.1885
  253MPD2    N1 3897   3.131   1.062  15.190  0.6408  0.5932 -0.0297
  253MPD2    H7 3898   3.041   1.017  15.183  1.6335 -1.3110 -0.6176
  254TMC3    C1 3899   2.831   0.889  15.728  0.0741 -0.5343 -0.2927
  254TMC3    C2 3900   2.707   0.872  15.699  0.4836 -0.3323  0.2995
  254TMC3    C3 3901   2.634   0.784  15.772 -0.0483  0.0043 -0.0202
  254TMC3    C4 3902   2.893   0.830  15.835  0.1757 -0.6229  0.5602
  254TMC3    C5 3903   2.813   0.752  15.913  0.5065  0.5547  0.0001
  254TMC3    C6 3904   2.692   0.709  15.877 -0.7167 -0.5273 -0.4719
  254TMC3     C 3905   2.908   0.920  15.608  0.0195  0.2919 -0.3494
  254TMC3     O 3906   2.850   0.905  15.502 -0.0761 -0.0540  0.3750
  254TMC3     H 3907   2.657   0.909  15.610  1.0020  2.1566  1.0398
  254TMC3    H1 3908   2.996   0.848  15.863 -0.2533 -0.6050  2.1642
  254TMC3    H2 3909   2.637   0.647  15.947  0.6996 -0.3508  0.7973
  254TMC3    C7 3910   2.841   0.739  16.053  0.1218 -0.2233 -0.4016
  254TMC3    C8 3911   2.513   0.728  15.714 -0.4348 -0.0129 -0.1009
  254TMC3    O1 3912   2.797   0.645  16.115 -0.2006  0.0456 -0.1244
  254TMC3    O2 3913   2.538   0.640  15.638 -0.4506  0.8477  0.5310
  255MPD2     C 3914   2.095   4.041  10.458 -0.6542  0.2505  0.3845
  255MPD2    C1 3915   1.985   3.972  10.494 -0.4334 -0.4775  0.5860
  255MPD2    C2 3916   1.976   3.834  10.473 -0.3735  0.4946 -0.3167
  255MPD2    C3 3917   2.078   3.766  10.409  0.3178 -0.6730 -0.0001
  255MPD2    C4 3918   2.193   3.838  10.378  0.2349  0.4684  0.6421
  255MPD2    C5 3919   2.191   3.977  10.389  0.2388  0.0931 -0.5302
  255MPD2     H 3920   1.888   3.783  10.511  2.6674 -3.5229  1.4061
  255MPD2    H1 3921   2.285   3.798  10.338 -0.5547 -2.5369  1.8488
  255MPD2    H2 3922   2.108   4.148  10.476 -1.7284  0.3700  0.4293
  255MPD2    H3 3923   2.277   4.036  10.360 -0.4153  0.2231 -2.1797
  255MPD2     N 3924   2.056   3.631  10.383 -0.2687  0.2693  0.7853
  255MPD2    H5 3925   1.968   3.583  10.398 -0.7807  0.8531 -0.3569
  255MPD2    N1 3926   1.879   4.049  10.546 -0.3413 -0.0405  0.2498
  255MPD2    H7 3927   1.886   4.150  10.546  0.4150 -0.0987 -0.2802
  256TMC3    C1 3928   1.652   4.084  10.619  0.2907  0.5365  0.5616
  256TMC3    C2 3929   1.613   4.140  10.494  0.2454 -0.4737  1.0168
  256TMC3    C3 3930   1.483   4.136  10.458 -0.7657  0.2584  0.3786
  256TMC3    C4 3931   1.565   4.023  10.705  0.2908  0.0582 -0.1295
  256TMC3    C5 3932   1.435   4.015  10.660  0.1243  0.7205 -0.6916
  256TMC3    C6 3933   1.397   4.077  10.546 -0.2985  0.6401 -0.1849
  256TMC3     C 3934   1.768   3.993  10.602  0.9406  0.4940 -0.6355
  256TMC3     O 3935   1.775   3.888  10.665  0.2989  0.6643 -0.5028
  256TMC3     H 3936   1.689   4.178  10.427  0.0835  0.0380  1.1284
  256TMC3    H1 3937   1.606   3.994  10.802 -0.8675 -0.0073  0.3337
  256TMC3    H2 3938   1.293   4.064  10.520 -1.2726  0.7115  3.7720
  256TMC3    C7 3939   1.356   3.898  10.691 -0.2686 -0.0094  0.4827
  256TMC3    C8 3940   1.424   4.191  10.335 -0.8633  0.3430 -0.5382
  256TMC3    O1 3941   1.238   3.912  10.662  0.4992 -0.8051  0.4624
  256TMC3    O2 3942   1.310   4.235  10.344  0.1844  0.0599  0.2203
  257MPD2     C 3943   0.132   0.772  12.863  0.4169 -0.7348 -0.4100
  257MPD2    C1 3944   0.261   0.816  12.865  0.5346  0.2943  0.3137
  257MPD2    C2 3945   0.352   0.740  12.940  0.5110 -0.2193 -0.4230
  257MPD2    C3 3946   0.313   0.643  13.031 -0.6163  0.7333  0.7122
  257MPD2    C4 3947   0.183   0.608  13.028  0.3041 -0.0437  0.3756
  257MPD2    C5 3948   0.097   0.669  12.949  0.6969  0.6083  0.0493
  257MPD2     H 3949   0.453   0.779  12.943 -0.8875  3.1275  4.0784
  257MPD2    H1 3950   0.141   0.526  13.085 -1.2871 -0.1700 -0.9649
  257MPD2    H2 3951   0.058   0.823  12.802  0.8428  0.2856 -0.0787
  257MPD2    H3 3952   4.728   0.660  12.974  1.3904  0.5323  3.0021
  257MPD2     N 3953   0.399   0.582  13.119 -0.3913 -0.2791 -0.4465
  257MPD2    H5 3954   0.356   0.525  13.191  0.8400  0.8623  1.1582
  257MPD2    N1 3955   0.301   0.920  12.777  0.3203 -0.0148 -0.5930
  257MPD2    H7 3956   0.230   0.956  12.714 -0.3925  0.0065  0.2185
  258TMC3    C1 3957   0.608   0.488  13.185  0.0040  0.7007  0.4798
  258TMC3    C2 3958   0.714   0.421  13.136 -0.1732 -0.1498  0.4595
  258TMC3    C3 3959   0.775   0.325  13.217 -0.7411 -0.1244  0.1908
  258TMC3    C4 3960   0.565   0.466  13.310  0.1124  0.5344  0.2706
  258TMC3    C5 3961   0.639   0.380  13.387  0.9475 -0.1974  0.2964
  258TMC3    C6 3962   0.747   0.305  13.343  0.1760 -0.2720  0.1996
  258TMC3     C 3963   0.535   0.574  13.094 -0.5160  0.6779  0.8172
  258TMC3     O 3964   0.587   0.590  12.987  0.8104 -0.3601  0.0173
  258TMC3     H 3965   0.741   0.438  13.033  0.0841  1.1076  0.7274
  258TMC3    H1 3966   0.493   0.527  13.363 -0.3583  0.0864  0.1507
  258TMC3    H2 3967   0.801   0.242  13.413 -1.9473 -0.4557  1.6639
  258TMC3    C7 3968   0.592   0.357  13.522 -0.0987 -0.3441  0.6630
  258TMC3    C8 3969   0.861   0.226  13.151 -0.0046  0.1387 -0.2906
  258TMC3    O1 3970   0.475   0.378  13.543 -0.4555 -0.0507  0.2154
  258TMC3    O2 3971   0.893   0.131  13.225  0.7072 -0.1842 -0.4018
  259MPD2     C 3972   4.597   2.597   0.641 -0.3699  0.3375  0.0507
  259MPD2    C1 3973   4.627   2.500   0.544  0.0930 -0.2772 -0.4851
  259MPD2    C2 3974   4.540   2.490   0.434 -0.6415  0.5963  0.3405
  259MPD2    C3 3975   4.424   2.561   0.420 -0.5529  0.0494  0.4584
  259MPD2    C4 3976   4.395   2.655   0.522  0.4305  0.4759 -0.3892
  259MPD2    C5 3977   4.487   2.673   0.625  0.3793  0.1302  0.5299
  259MPD2     H 3978   4.572   2.437   0.346  0.7172  2.6258 -0.4002
  259MPD2    H1 3979   4.302   2.711   0.533  1.8376  2.1988  2.7669
  259MPD2    H2 3980   4.658   2.604   0.731 -0.9830  1.0765  0.4040
  259MPD2    H3 3981   4.458   2.744   0.702 -2.5343 -1.7543  1.1867
  259MPD2     N 3982   4.333   2.541   0.301  0.1721  0.2702 -0.6605
  259MPD2    H5 3983   4.366   2.472   0.235 -2.0453 -1.0475 -0.4020
  259MPD2    N1 3984   0.012   2.433   0.556  0.0789 -0.0231 -0.5023
  259MPD2    H7 3985   0.079   2.456   0.628  1.0370 -2.6566 -0.5527
  260TMC3    C1 3986   4.166   2.553   0.148 -0.1546  0.1515 -0.1096
  260TMC3    C2 3987   4.139   2.651   0.054  0.1377 -0.1509  0.0263
  260TMC3    C3 3988   4.134   2.615  17.668  0.0558 -0.1888  0.0904
  260TMC3    C4 3989   4.182   2.422   0.107  0.0848  0.3344  0.3335
  260TMC3    C5 3990   4.168   2.388  17.722 -0.3529  0.4280 -0.3631
  260TMC3    C6 3991   4.146   2.482  17.626 -0.3603 -0.3527 -0.1362
  260TMC3     C 3992   4.212   2.601   0.276  0.3483 -0.6233 -0.0687
  260TMC3     O 3993   4.164   2.700   0.326  0.2870  0.1814  0.6899
  260TMC3     H 3994   4.136   2.754   0.089 -0.4547 -0.3268  0.5077
  260TMC3    H1 3995   4.192   2.354   0.192  2.2529  1.1548  0.7513
  260TMC3    H2 3996   4.161   2.466  17.520  0.7681  0.4908 -0.1048
  260TMC3    C7 3997   4.204   2.258  17.669  0.8662 -0.0751  0.0981
  260TMC3    C8 3998   4.191   2.716  17.577  0.4255 -0.6886  0.0682
  260TMC3    O1 3999   4.212   2.248  17.546  0.5612 -0.1608 -0.2936
  260TMC3    O2 4000   4.163   2.829  17.603  0.0566 -0.9571  0.2807
  261MPD2     C 4001   0.972   0.767  11.876 -0.5622  0.0189 -0.2236
  261MPD2    C1 4002   1.107   0.772  11.878 -0.8169 -0.2990 -0.3608
  261MPD2    C2 4003   1.175   0.841  11.775 -0.1974  0.4755  0.0740
  261MPD2    C3 4004   1.103   0.905  11.679  0.3959  0.0740 -0.0361
  261MPD2    C4 4005   0.968   0.897  11.680 -0.0676 -0.7978 -0.6696
  261MPD2    C5 4006   0.901   0.829  11.774 -0.0173 -0.0314  0.0869
  261MPD2     H 4007   1.284   0.846  11.777 -0.2062  0.3105  1.5841
  261MPD2    H1 4008   0.916   0.952  11.602 -1.4183 -2.2554 -0.7832
  261MPD2    H2 4009   0.923   0.711  11.954 -0.3490 -0.1666 -0.2248
  261MPD2    H3 4010   0.793   0.816  11.776  0.2476 -1.9659  1.1433
  261MPD2     N 4011   1.154   0.979  11.571  0.4614 -0.0538 -0.0576
  261MPD2    H5 4012   1.096   1.042  11.518  1.6738 -0.7441 -2.2345
  261MPD2    N1 4013   1.183   0.706  11.979 -0.1491 -0.0063 -0.4158
  261MPD2    H7 4014   1.281   0.719  11.958 -0.0260 -1.5071 -0.8362
  262TMC3    C1 4015   1.331   1.101  11.479 -0.7798  0.0844 -0.4209
  262TMC3    C2 4016   1.257   1.216  11.496  0.4969  1.0987 -0.0335
  262TMC3    C3 4017   1.316   1.339  11.485  0.2517 -0.9023  0.3674
  262TMC3    C4 4018   1.464   1.113  11.443 -0.6393 -0.3532  0.2552
  262TMC3    C5 4019   1.518   1.235  11.433  0.6429  0.4222  0.0183
  262TMC3    C6 4020   1.448   1.352  11.443  0.3382  0.3587  0.4409
  262TMC3     C 4021   1.290   0.983  11.543 -0.1725 -0.2254 -0.1246
  262TMC3     O 4022   1.379   0.912  11.590  0.5878  0.2133  0.1636
  262TMC3     H 4023   1.154   1.218  11.531 -0.3005  0.2763 -2.3175
  262TMC3    H1 4024   1.524   1.025  11.423  0.4213  0.5275 -0.4562
  262TMC3    H2 4025   1.486   1.452  11.429  2.0584 -0.1634  1.2970
  262TMC3    C7 4026   1.650   1.250  11.375  0.4507 -0.3312  0.1838
  262TMC3    C8 4027   1.255   1.445  11.563 -0.1062 -0.2603 -0.2041
  262TMC3    O1 4028   1.698   1.142  11.329  0.1685  0.1175  0.2919
  262TMC3    O2 4029   1.138   1.436  11.585 -0.3984 -0.0839 -0.4300
  263MPD2     C 4030   2.197   1.015  10.809  0.7694  0.2269 -0.3666
  263MPD2    C1 4031   2.327   0.987  10.782  0.3048 -0.2293 -0.5178
  263MPD2    C2 4032   2.391   1.021  10.668 -0.2840 -0.1814  0.9843
  263MPD2    C3 4033   2.327   1.104  10.572 -0.6112  1.0024 -0.0642
  263MPD2    C4 4034   2.192   1.131  10.597  0.3673  0.0131  0.7582
  263MPD2    C5 4035   2.131   1.077  10.704 -0.8324  0.5653 -0.2382
  263MPD2     H 4036   2.497   1.002  10.656 -0.1484  0.8900  0.5160
  263MPD2    H1 4037   2.126   1.168  10.519  0.6787 -1.0897 -0.0301
  263MPD2    H2 4038   2.144   0.986  10.899  0.7188 -1.0782 -0.8154
  263MPD2    H3 4039   2.023   1.080  10.714 -0.7802  0.5425  0.3613
  263MPD2     N 4040   2.395   1.133  10.449 -1.0522  0.3601 -0.1599
  263MPD2    H5 4041   2.494   1.114  10.449 -1.4164 -1.4301  1.1833
  263MPD2    N1 4042   2.391   0.906  10.878  0.3494 -0.6622 -0.0212
  263MPD2    H7 4043   2.354   0.898  10.972 -0.4555  1.1207 -0.1811
  264TMC3    C1 4044   2.451   1.242  10.244 -0.1758 -1.1538  0.4978
  264TMC3    C2 4045   2.410   1.321  10.144  0.5161 -0.2408 -0.6725
  264TMC3    C3 4046   2.514   1.357  10.062 -0.3585  0.2032 -0.0439
  264TMC3    C4 4047   2.574   1.172  10.244 -0.1016  0.0853  0.0099
  264TMC3    C5 4048   2.671   1.212  10.147  0.5368  0.0439 -0.1002
  264TMC3    C6 4049   2.630   1.292  10.047  0.4039  0.1820 -0.2167
  264TMC3     C 4050   2.344   1.210  10.341 -0.2735  0.0283  0.0691
  264TMC3     O 4051   2.232   1.257  10.327 -0.0437  0.0702 -0.5360
  264TMC3     H 4052   2.323   1.383  10.161 -1.4204 -2.5273 -2.0972
  264TMC3    H1 4053   2.602   1.110  10.329  1.0037 -0.0928 -0.4876
  264TMC3    H2 4054   2.706   1.339   9.985  1.5838  0.2129  1.2737
  264TMC3    C7 4055   2.804   1.147  10.133  0.2345  0.1245 -0.5333
  264TMC3    C8 4056   2.517   1.492  10.005 -0.5968  0.0548  0.1123
  264TMC3    O1 4057   2.865   1.162  10.028  0.5159 -0.2129  0.9151
  264TMC3    O2 4058   2.584   1.514   9.903  0.5980  0.5358  0.1855
  265MPD2     C 4059   4.173   0.512  15.425 -0.4707 -0.3134 -0.1067
  265MPD2    C1 4060   4.206   0.616  15.338 -0.8084 -0.6074  0.3327
  265MPD2    C2 4061   4.304   0.588  15.241 -0.0794 -0.0814 -0.0707
  265MPD2    C3 4062   4.357   0.458  15.220  0.1745  0.4798 -0.4590
  265MPD2    C4 4063   4.316   0.357  15.305  0.1681 -0.3303  0.4040
  265MPD2    C5 4064   4.241   0.392  15.416  0.4581 -0.2305  0.9668
  265MPD2     H 4065   4.344   0.665  15.176  2.6297 -0.8391  0.7098
  265MPD2    H1 4066   4.353   0.256  15.288 -2.9246 -0.9893 -2.3473
  265MPD2    H2 4067   4.107   0.525  15.510 -1.8980 -1.6882 -0.9999
  265MPD2    H3 4068   4.219   0.315  15.489 -0.9074 -0.7652  0.0002
  265MPD2     N 4069   4.459   0.416  15.120 -0.5180 -0.1628  0.7730
  265MPD2    H5 4070   4.479   0.317  15.113 -1.4863 -0.3112  0.1195
  265MPD2    N1 4071   4.137   0.744  15.350  0.7952 -0.7010  0.2696
  265MPD2    H7 4072   4.159   0.809  15.275  2.6369 -2.4639 -0.7003
  266TMC3    C1 4073   4.079   0.939  15.481  1.0099  0.0769 -0.0559
  266TMC3    C2 4074   4.093   0.989  15.609 -0.3551 -0.1257  0.0122
  266TMC3    C3 4075   4.083   1.118  15.639  0.2887  0.2292 -0.0762
  266TMC3    C4 4076   4.063   1.022  15.371 -0.0957 -0.5071  0.6668
  266TMC3    C5 4077   4.054   1.155  15.405  0.1077 -0.4655 -0.0096
  266TMC3    C6 4078   4.063   1.211  15.535 -0.5064  0.2314  0.4461
  266TMC3     C 4079   4.092   0.795  15.476  1.0514  0.4644  0.2699
  266TMC3     O 4080   4.069   0.742  15.581 -0.5818 -0.2452 -0.7547
  266TMC3     H 4081   4.113   0.921  15.691  3.3509  0.9008 -0.0572
  266TMC3    H1 4082   4.043   0.982  15.272 -0.4741 -0.4664  0.7275
  266TMC3    H2 4083   4.040   1.315  15.554 -0.8039 -0.1104  1.9857
  266TMC3    C7 4084   4.027   1.249  15.296 -0.0291  0.5634 -0.8940
  266TMC3    C8 4085   4.186   1.159  15.742 -0.1463 -0.7224  0.6298
  266TMC3    O1 4086   3.988   1.209  15.190  0.5382 -0.0415 -0.3081
  266TMC3    O2 4087   4.241   1.057  15.788  0.0243  0.3703  0.1463
  267MPD2     C 4088   2.202   2.059   0.087 -0.4495 -0.1396 -0.5005
  267MPD2    C1 4089   2.201   2.197   0.056  0.0664  0.8544 -0.2664
  267MPD2    C2 4090   2.081   2.250   0.003  0.1562 -0.6159  0.1941
  267MPD2    C3 4091   1.972   2.172  17.714  0.8955 -0.4266 -0.7488
  267MPD2    C4 4092   1.985   2.037  17.740 -0.0758 -0.7397  0.0715
  267MPD2    C5 4093   2.094   1.985   0.069 -0.5628  0.7297 -0.2960
  267MPD2     H 4094   2.080   2.356  17.725 -0.7383 -1.0415 -1.6939
  267MPD2    H1 4095   1.908   1.970  17.705 -0.2474 -0.1086 -0.7725
  267MPD2    H2 4096   2.288   2.015   0.136  0.9374  0.2537 -2.5814
  267MPD2    H3 4097   2.097   1.879   0.091 -1.4473  0.6560 -0.5646
  267MPD2     N 4098   1.855   2.208  17.648  0.0718 -0.3696 -0.4833
  267MPD2    H5 4099   1.771   2.152  17.640 -0.2362 -0.1910  1.5644
  267MPD2    N1 4100   2.316   2.269   0.093  0.0494  0.0129  0.2493
  267MPD2    H7 4101   2.392   2.216   0.133  0.4546  0.1439 -0.3304
  268TMC3    C1 4102   2.478   2.436   0.092 -0.4774  0.3381  0.5161
  268TMC3    C2 4103   2.524   2.526   0.001  0.4783 -0.0819  0.3079
  268TMC3    C3 4104   2.610   2.623   0.051  0.0462  0.6635 -0.7362
  268TMC3    C4 4105   2.530   2.437   0.220 -0.0900  0.1363 -0.2070
  268TMC3    C5 4106   2.626   2.525   0.260  0.1721  0.1295 -0.2734
  268TMC3    C6 4107   2.678   2.616   0.175  0.6204  0.4434  0.8526
  268TMC3     C 4108   2.340   2.401   0.073 -0.0400 -0.3758  0.3736
  268TMC3     O 4109   2.272   2.479   0.006  0.1584 -0.0822  0.1737
  268TMC3     H 4110   2.477   2.529  17.648  0.5731 -1.9089  0.1994
  268TMC3    H1 4111   2.486   2.364   0.287 -2.1040 -0.8522 -2.5886
  268TMC3    H2 4112   2.762   2.680   0.202  2.4227 -0.8827 -1.5783
  268TMC3    C7 4113   2.659   2.514   0.401 -0.1697  0.2323 -0.4541
  268TMC3    C8 4114   2.662   2.729  17.710 -0.3899 -0.4796 -0.0607
  268TMC3    O1 4115   2.656   2.404   0.454 -0.0414  0.0275  0.4347
  268TMC3    O2 4116   2.751   2.799   0.005 -0.6372  0.0317  0.0305
  269MPD2     C 4117   2.413   1.309  15.158  0.6120 -0.4965 -0.7469
  269MPD2    C1 4118   2.291   1.333  15.211  1.1725  0.1093 -0.5681
  269MPD2    C2 4119   2.246   1.465  15.228  0.2547 -0.3048 -0.3621
  269MPD2    C3 4120   2.317   1.571  15.174 -0.2087 -0.1367 -0.2279
  269MPD2    C4 4121   2.438   1.547  15.128 -0.4193  0.2917  0.6190
  269MPD2    C5 4122   2.488   1.420  15.114  0.0068  0.0438  0.0491
  269MPD2     H 4123   2.147   1.485  15.266  1.3423  2.1787  1.1790
  269MPD2    H1 4124   2.500   1.616  15.072  0.3552 -1.5535 -0.7957
  269MPD2    H2 4125   2.453   1.209  15.166 -0.6602 -0.9200  0.3983
  269MPD2    H3 4126   2.584   1.398  15.069  0.8286  1.7587  0.9871
  269MPD2     N 4127   2.256   1.700  15.158 -0.4607  0.2060  0.0492
  269MPD2    H5 4128   2.161   1.716  15.191 -0.6670 -1.7538  0.4184
  269MPD2    N1 4129   2.225   1.221  15.254 -0.5398  0.6471  0.1740
  269MPD2    H7 4130   2.268   1.130  15.249 -0.2282  0.9262 -2.5184
  270TMC3    C1 4131   2.029   1.116  15.347 -0.3734 -0.1008  0.0653
  270TMC3    C2 4132   1.891   1.098  15.338 -0.5019 -0.4227 -0.1024
  270TMC3    C3 4133   1.851   0.974  15.381  0.5075 -0.4781 -0.3896
  270TMC3    C4 4134   2.123   1.023  15.373  0.2359 -0.2171  0.4807
  270TMC3    C5 4135   2.075   0.901  15.388  0.3279  0.6171  0.2289
  270TMC3    C6 4136   1.940   0.870  15.409 -0.0762 -0.2027 -0.7626
  270TMC3     C 4137   2.085   1.229  15.275 -0.0021 -0.0325  0.3495
  270TMC3     O 4138   2.000   1.295  15.221 -0.3325  0.3988 -0.4081
  270TMC3     H 4139   1.815   1.156  15.287 -0.6427 -0.3890  0.1450
  270TMC3    H1 4140   2.229   1.035  15.394 -0.6461  5.4402  1.7183
  270TMC3    H2 4141   1.901   0.774  15.440  2.7478 -0.6148  1.4978
  270TMC3    C7 4142   2.165   0.794  15.412  0.1114 -0.1352 -0.3689
  270TMC3    C8 4143   1.731   0.926  15.307  0.4774 -0.4771 -0.4657
  270TMC3    O1 4144   2.283   0.814  15.445  0.0818 -0.1791  1.3676
  270TMC3    O2 4145   1.626   0.990  15.308 -0.1202 -0.2447 -0.4432
  271MPD2     C 4146   1.402   0.691  13.540 -0.1808 -0.5930  0.8137
  271MPD2    C1 4147   1.336   0.705  13.658  0.5916 -0.1744 -0.4943
  271MPD2    C2 4148   1.229   0.789  13.671  0.6347 -0.4436  0.1108
  271MPD2    C3 4149   1.189   0.876  13.569  0.2923 -0.5118 -0.0483
  271MPD2    C4 4150   1.252   0.857  13.445  0.8986 -0.3627 -0.1315
  271MPD2    C5 4151   1.357   0.768  13.433 -0.1444 -0.3416 -0.4456
  271MPD2     H 4152   1.186   0.795  13.771  2.5771 -0.2550  0.9383
  271MPD2    H1 4153   1.226   0.915  13.357  1.9954  0.6018  0.1772
  271MPD2    H2 4154   1.492   0.633  13.528 -1.0327 -1.6966 -0.3066
  271MPD2    H3 4155   1.406   0.764  13.337 -2.1843  0.5067 -1.5217
  271MPD2     N 4156   1.076   0.974  13.571  0.6324 -0.2463 -0.4387
  271MPD2    H5 4157   1.060   1.022  13.483  1.3834  0.2257 -0.3235
  271MPD2    N1 4158   1.367   0.622  13.773  0.5225 -0.1745  0.0212
  271MPD2    H7 4159   1.321   0.647  13.860  0.1643  1.0698 -0.5196
  272TMC3    C1 4160   1.511   0.488  13.910 -0.1699 -0.5529 -0.3533
  272TMC3    C2 4161   1.642   0.454  13.916 -0.4930 -0.4502 -0.2382
  272TMC3    C3 4162   1.698   0.439  14.041  0.0011 -0.6533 -0.0875
  272TMC3    C4 4163   1.433   0.495  14.018  0.2921  0.0851 -0.0925
  272TMC3    C5 4164   1.491   0.490  14.140 -0.3187  0.0212  0.1843
  272TMC3    C6 4165   1.628   0.462  14.158 -0.2088 -1.0337 -0.4960
  272TMC3     C 4166   1.471   0.535  13.773  0.1477 -0.2098 -0.8951
  272TMC3     O 4167   1.542   0.501  13.680 -0.6200 -0.9216 -0.2101
  272TMC3     H 4168   1.705   0.451  13.828 -1.2523  2.6587 -0.8885
  272TMC3    H1 4169   1.329   0.523  14.014  0.3380  0.3202  0.5097
  272TMC3    H2 4170   1.674   0.459  14.256 -0.6255  0.0760 -0.2628
  272TMC3    C7 4171   1.413   0.535  14.249 -0.7049 -0.0664  0.2505
  272TMC3    C8 4172   1.841   0.407  14.048 -0.5686  0.6836  0.6988
  272TMC3    O1 4173   1.292   0.515  14.250  0.1682 -0.0699  0.4359
  272TMC3    O2 4174   1.901   0.411  13.940  0.0531 -0.7200  0.1349
  273MPD2     C 4175   2.925   3.984  11.392 -0.7339 -0.9464  0.2359
  273MPD2    C1 4176   3.034   4.062  11.341  0.3509 -0.2080  0.4321
  273MPD2    C2 4177   3.014   4.133  11.221 -0.6634 -0.4983 -0.5291
  273MPD2    C3 4178   2.891   4.139  11.163  0.2791 -0.5546  0.6047
  273MPD2    C4 4179   2.787   4.058  11.219  0.3615 -0.2006 -0.3389
  273MPD2    C5 4180   2.807   3.983  11.325  1.0615 -0.4189 -0.3063
  273MPD2     H 4181   3.100   4.175  11.169  0.4830 -1.2548  0.7461
  273MPD2    H1 4182   2.689   4.043  11.175  0.0680 -0.9570  0.5863
  273MPD2    H2 4183   2.930   3.914  11.475  0.2067 -1.8138 -0.5507
  273MPD2    H3 4184   2.720   3.926  11.357  0.8054  0.5582  0.7480
  273MPD2     N 4185   2.862   4.208  11.039  0.5046  0.8179  0.1485
  273MPD2    H5 4186   2.765   4.195  11.010  0.3953 -0.2851  1.0400
  273MPD2    N1 4187   3.160   4.065  11.411  0.0801  0.1561 -0.6065
  273MPD2    H7 4188   3.155   4.002  11.490 -0.2481 -0.4737 -1.1358
  274TMC3    C1 4189   2.904   4.379  10.876  0.0263 -0.2076 -0.3875
  274TMC3    C2 4190   2.802   4.341  10.797 -0.2158  0.1460  0.2880
  274TMC3    C3 4191   2.796   4.419  10.685 -0.3455  0.9042 -0.4991
  274TMC3    C4 4192   2.982   4.485  10.853 -0.2628  0.1613 -0.2848
  274TMC3    C5 4193   2.964   4.564  10.742 -0.3759  0.1269  0.3471
  274TMC3    C6 4194   2.874   4.522  10.649  0.1614 -0.0789 -1.3731
  274TMC3     C 4195   2.943   4.307  10.993  0.5591 -0.6378  0.4745
  274TMC3     O 4196   3.039   4.357  11.050  0.4165 -0.5616  0.9497
  274TMC3     H 4197   2.729   4.270  10.834  1.8991 -2.0734  0.1483
  274TMC3    H1 4198   3.053   4.525  10.925 -0.1219 -1.8760  0.7206
  274TMC3    H2 4199   2.834   4.590  10.574 -0.4442 -0.1498 -1.1152
  274TMC3    C7 4200   2.956   4.702  10.783 -0.5497  0.1279  0.9178
  274TMC3    C8 4201   2.679   4.398  10.605  0.2486 -0.1094 -1.0564
  274TMC3    O1 4202   2.840   0.000  10.781  0.5783  1.1031 -0.1549
  274TMC3    O2 4203   2.586   4.345  10.666 -0.8386 -0.2457  0.0103
  275MPD2     C 4204   2.901   1.546  14.427  0.3643  0.0033  0.4303
  275MPD2    C1 4205   2.851   1.636  14.338 -0.5751  0.0201 -0.3714
  275MPD2    C2 4206   2.745   1.601  14.252  0.4814 -0.3896  0.2708
  275MPD2    C3 4207   2.686   1.476  14.267 -0.5477  0.1663 -0.1783
  275MPD2    C4 4208   2.748   1.379  14.351 -0.7273  0.8525 -0.2949
  275MPD2    C5 4209   2.848   1.424  14.431  0.3023  0.4676 -0.3926
  275MPD2     H 4210   2.719   1.678  14.180 -1.2217  0.1858  1.4982
  275MPD2    H1 4211   2.725   1.274  14.369 -0.9721  1.1905  1.3798
  275MPD2    H2 4212   2.978   1.568  14.500  1.1152 -0.3878 -0.2482
  275MPD2    H3 4213   2.896   1.346  14.488 -0.4405  0.2527 -0.0570
  275MPD2     N 4214   2.573   1.436  14.197 -0.0113  0.5243 -0.6623
  275MPD2    H5 4215   2.545   1.340  14.213  0.0801  0.6100  0.0008
  275MPD2    N1 4216   2.904   1.766  14.336  0.0924  0.3261 -0.8264
  275MPD2    H7 4217   2.856   1.837  14.283 -0.5069  0.2624 -0.3716
  276TMC3    C1 4218   3.019   1.953  14.400 -0.2423 -0.4503  0.4682
  276TMC3    C2 4219   2.895   2.013  14.418 -0.2216 -0.0903  0.3608
  276TMC3    C3 4220   2.873   2.094  14.529  0.0394  0.3076 -0.0143
  276TMC3    C4 4221   3.122   1.992  14.480  0.2571 -0.2956  0.4318
  276TMC3    C5 4222   3.103   2.085  14.581 -0.2100 -0.5279 -0.4959
  276TMC3    C6 4223   2.979   2.135  14.603 -0.1936  0.0728 -0.2283
  276TMC3     C 4224   3.009   1.807  14.407 -0.3473 -1.0061 -0.8161
  276TMC3     O 4225   3.094   1.745  14.468  0.1159  0.1924 -0.6602
  276TMC3     H 4226   2.804   1.967  14.381 -0.7685  1.0095  0.3430
  276TMC3    H1 4227   3.219   1.946  14.471 -0.1116 -1.6265  3.3961
  276TMC3    H2 4228   2.949   2.173  14.700 -0.9056  1.5974 -1.0489
  276TMC3    C7 4229   3.190   2.073  14.696 -0.0407 -0.3939  0.1132
  276TMC3    C8 4230   2.766   2.034  14.609 -0.3766  0.0555  0.6568
  276TMC3    O1 4231   3.173   2.165  14.771  0.4490 -0.0871 -0.4317
  276TMC3    O2 4232   2.650   2.074  14.602 -0.0201 -0.2482 -0.1220
  277MPD2     C 4233   4.522   0.818  13.442  0.3051 -0.1530  0.2772
  277MPD2    C1 4234   4.387   0.857  13.441 -0.4102  0.6803 -0.3099
  277MPD2    C2 4235   4.317   0.847  13.565  0.0854  0.2264 -0.3536
  277MPD2    C3 4236   4.364   0.790  13.677  0.9661  0.6833  0.0984
  277MPD2    C4 4237   4.497   0.742  13.666  0.2191 -0.3385  0.1768
  277MPD2    C5 4238   4.572   0.769  13.558  0.2767 -0.2721  0.0260
  277MPD2     H 4239   4.213   0.879  13.569  0.3262  0.9165  0.4049
  277MPD2    H1 4240   4.554   0.713  13.754  1.2033  0.1393 -0.3116
  277MPD2    H2 4241   4.584   0.831  13.354 -2.4983  0.8370 -1.5577
  277MPD2    H3 4242   4.678   0.745  13.564  0.5867  1.1172  0.0597
  277MPD2     N 4243   4.296   0.786  13.801 -0.3884 -0.1879 -0.0695
  277MPD2    H5 4244   4.201   0.819  13.811 -0.4490  0.1979 -1.8445
  277MPD2    N1 4245   4.335   0.917  13.319 -0.3277 -0.1202  0.0482
  277MPD2    H7 4246   4.407   0.932  13.249 -1.9043 -1.5918 -1.8950
  278TMC3    C1 4247   4.225   0.685  14.001 -0.3221  0.6245  0.7383
  278TMC3    C2 4248   4.180   0.557  14.023 -0.3911  0.7171 -0.0018
  278TMC3    C3 4249   4.050   0.543  14.072  0.3091 -0.8601 -1.3895
  278TMC3    C4 4250   4.148   0.793  14.025  1.0064 -0.6266  0.1719
  278TMC3    C5 4251   4.025   0.767  14.081  0.4154 -0.2711  0.3082
  278TMC3    C6 4252   3.968   0.649  14.104 -0.7653  0.0650 -0.2302
  278TMC3     C 4253   4.332   0.704  13.906 -0.3289  0.3126  0.1385
  278TMC3     O 4254   4.413   0.613  13.902  0.0343 -0.0367 -0.2649
  278TMC3     H 4255   4.245   0.477  13.990 -0.7527  0.1023  0.7892
  278TMC3    H1 4256   4.189   0.893  14.024  0.3629 -0.4022 -4.6637
  278TMC3    H2 4257   3.878   0.637  14.164  1.8119 -2.0054  3.2023
  278TMC3    C7 4258   3.949   0.877  14.140  0.3047 -0.4216 -0.3113
  278TMC3    C8 4259   3.977   0.429  14.024  0.1692 -0.9994 -0.0227
  278TMC3    O1 4260   4.010   0.978  14.185  0.1308  0.0230 -0.0835
  278TMC3    O2 4261   3.855   0.438  14.018  0.3929  0.1180  0.1268
  279MPD2     C 4262   3.752   1.300   0.358  0.3063  0.0496  0.8428
  279MPD2    C1 4263   3.634   1.263   0.303  0.4814  0.6445 -0.1921
  279MPD2    C2 4264   3.637   1.191   0.183 -0.0440  0.1542  0.1886
  279MPD2    C3 4265   3.754   1.144   0.123  0.5205 -0.3208  0.1582
  279MPD2    C4 4266   3.871   1.192   0.176 -0.0145 -0.3836 -0.0989
  279MPD2    C5 4267   3.867   1.262   0.294  0.5637  0.2133 -1.0811
  279MPD2     H 4268   3.544   1.155   0.140 -0.3221  1.3892 -0.2378
  279MPD2    H1 4269   3.969   1.161   0.143  0.5372  0.9500  0.2710
  279MPD2    H2 4270   3.776   1.342   0.455 -1.7328 -0.0496  1.3982
  279MPD2    H3 4271   3.964   1.279   0.340  0.5338 -0.9381 -0.5822
  279MPD2     N 4272   3.752   1.068   0.008  0.1351 -0.0190 -0.8307
  279MPD2    H5 4273   3.834   1.068  17.693  0.6053  0.8519 -0.1737
  279MPD2    N1 4274   3.515   1.288   0.369  1.0730 -0.3827  0.1943
  279MPD2    H7 4275   3.523   1.342   0.454 -1.2632 -0.5195  0.4813
  280TMC3    C1 4276   3.298   1.278   0.438  0.1743  0.2802  0.0433
  280TMC3    C2 4277   3.188   1.201   0.446 -0.1004  0.0604 -0.1921
  280TMC3    C3 4278   3.065   1.252   0.486  0.4578  0.2665  0.2213
  280TMC3    C4 4279   3.295   1.414   0.463  0.2008  0.2114  0.3769
  280TMC3    C5 4280   3.169   1.463   0.493  0.0736 -0.0757 -0.0822
  280TMC3    C6 4281   3.055   1.386   0.518 -0.0098 -0.0276  0.6138
  280TMC3     C 4282   3.392   1.230   0.349 -0.9120 -0.1700 -0.1808
  280TMC3     O 4283   3.367   1.128   0.289 -0.4521 -0.2255 -0.2013
  280TMC3     H 4284   3.212   1.095   0.455  1.6192  0.3968 -0.9179
  280TMC3    H1 4285   3.373   1.488   0.445 -0.1611  0.7486  1.0150
  280TMC3    H2 4286   2.963   1.428   0.557  0.7675  1.6686  0.6185
  280TMC3    C7 4287   3.139   1.588   0.432 -0.1792 -0.5233 -0.2930
  280TMC3    C8 4288   2.947   1.230   0.399  0.5751 -0.2564 -0.3981
  280TMC3    O1 4289   3.217   1.683   0.450 -0.0065  0.2007 -0.2220
  280TMC3    O2 4290   2.874   1.322   0.381  0.1860 -0.7066  0.2666
  281TMC3    C1 4291   2.291   0.834  12.895  0.3821  0.7106  0.6498
  281TMC3    C2 4292   2.324   0.819  12.760 -0.5803 -0.4623 -0.6624
  281TMC3    C3 4293   2.234   0.773  12.673  0.1938 -0.6500  0.2903
  281TMC3    C4 4294   2.173   0.787  12.949 -0.5241  0.2088 -0.1321
  281TMC3    C5 4295   2.079   0.746  12.853 -0.3410  0.9950  0.1830
  281TMC3    C6 4296   2.114   0.729  12.718  0.0414  0.4687  0.3217
  281TMC3     C 4297   2.381   0.919  12.967  0.2650  1.0025  0.9958
  281TMC3     O 4298   2.499   0.906  12.940 -0.1394 -0.0321  0.9759
  281TMC3     H 4299   2.412   0.866  12.718 -0.3862  1.6593  2.1626
  281TMC3    H1 4300   2.138   0.819  13.047 -0.0978 -1.9348  0.7260
  281TMC3    H2 4301   2.032   0.708  12.650 -1.0303 -0.9851  2.0848
  281TMC3    C7 4302   1.944   0.720  12.898  0.3926 -0.6346 -0.0479
  281TMC3    C8 4303   2.239   0.827  12.533  0.6215  0.2499  0.1076
  281TMC3    O1 4304   1.864   0.678  12.815 -0.3154 -0.3859 -0.1107
  281TMC3    O2 4305   2.193   0.759  12.443 -0.0760  0.0965  0.2374
  282MPD2     C 4306   4.133   2.246  14.742 -0.4106 -0.8863 -1.0322
  282MPD2    C1 4307   4.055   2.352  14.703  0.0823 -0.4596 -0.6302
  282MPD2    C2 4308   4.085   2.419  14.581 -0.1625 -0.1595  0.7102
  282MPD2    C3 4309   4.177   2.364  14.490 -0.9030  0.1673  0.4177
  282MPD2    C4 4310   4.252   2.252  14.528 -0.1879 -0.3029  0.4623
  282MPD2    C5 4311   4.231   2.203  14.654  0.5855 -0.1019  0.1504
  282MPD2     H 4312   4.038   2.516  14.568 -1.9490 -1.1243  0.0686
  282MPD2    H1 4313   4.319   2.195  14.465 -0.3295  1.3549 -1.1955
  282MPD2    H2 4314   4.125   2.189  14.834  0.3878  0.0300 -0.3921
  282MPD2    H3 4315   4.280   2.110  14.680 -0.7265 -0.2590  2.0273
  282MPD2     N 4316   4.188   2.421  14.361  0.1849 -0.6850 -0.5986
  282MPD2    H5 4317   4.143   2.510  14.343  0.6662 -0.0634  1.3670
  282MPD2    N1 4318   3.952   2.400  14.791  0.0855  0.9196  0.2519
  282MPD2    H7 4319   3.909   2.487  14.762 -0.0191  1.1977  1.2384
  283TMC3    C1 4320   3.782   2.392  14.964  0.2742  0.6998  0.0924
  283TMC3    C2 4321   3.803   2.520  15.015  0.1669 -0.1414 -0.5149
  283TMC3    C3 4322   3.757   2.553  15.143 -0.0399  0.1303 -0.7907
  283TMC3    C4 4323   3.717   2.301  15.042  0.3084  0.3147  0.5061
  283TMC3    C5 4324   3.673   2.335  15.164  0.6177  0.0661  0.1581
  283TMC3    C6 4325   3.690   2.465  15.218 -0.3933 -0.0992  0.0592
  283TMC3     C 4326   3.891   2.326  14.896 -0.1192 -0.6217  0.1530
  283TMC3     O 4327   3.908   2.207  14.924 -0.2277  0.1355 -0.0180
  283TMC3     H 4328   3.844   2.590  14.943 -1.3392  1.0459 -0.2380
  283TMC3    H1 4329   3.683   2.210  14.995  0.4193  1.1599 -1.1874
  283TMC3    H2 4330   3.643   2.478  15.315  0.5625  1.9992  0.2487
  283TMC3    C7 4331   3.612   2.226  15.253 -0.4343 -0.7676 -0.0551
  283TMC3    C8 4332   3.726   2.691  15.187  0.3801  0.7584  0.6158
  283TMC3    O1 4333   3.572   2.256  15.363 -0.8922  0.5681  0.2429
  283TMC3    O2 4334   3.640   2.697  15.271 -0.2891  0.4075  0.2687
  284MPD2     C 4335   2.392   1.656  11.479  0.0118  0.6598 -0.4175
  284MPD2    C1 4336   2.464   1.760  11.531  0.5930  0.7701  0.2319
  284MPD2    C2 4337   2.469   1.774  11.667  0.5760  0.1571 -0.4279
  284MPD2    C3 4338   2.412   1.686  11.747  0.3692  0.6569  0.5536
  284MPD2    C4 4339   2.350   1.575  11.695  0.3390 -0.7627  0.2355
  284MPD2    C5 4340   2.340   1.556  11.558 -0.4988 -0.4137 -0.0113
  284MPD2     H 4341   2.529   1.858  11.701 -1.0671  0.2390  2.2774
  284MPD2    H1 4342   2.314   1.494  11.756  1.2554 -1.1369  0.2804
  284MPD2    H2 4343   2.380   1.641  11.372 -1.1436  1.0198 -0.3387
  284MPD2    H3 4344   2.293   1.470  11.513 -0.0858 -1.4930  1.6032
  284MPD2     N 4345   2.423   1.694  11.890 -0.2760 -0.5785  0.5959
  284MPD2    H5 4346   2.421   1.604  11.938 -1.5240 -0.3786  0.9108
  284MPD2    N1 4347   2.556   1.833  11.456  0.2456  0.1471  0.2393
  284MPD2    H7 4348   2.614   1.898  11.509  2.4839 -2.1665  0.6608
  285TMC3    C1 4349   2.677   1.914  11.273  0.0695 -1.1224  0.4246
  285TMC3    C2 4350   2.751   1.852  11.173 -0.7125  0.4639 -0.4401
  285TMC3    C3 4351   2.885   1.888  11.161 -0.2011  0.2059 -0.3357
  285TMC3    C4 4352   2.725   2.009  11.347  0.7188 -1.1387  0.5553
  285TMC3    C5 4353   2.857   2.050  11.329  0.3553 -0.3554 -0.5018
  285TMC3    C6 4354   2.939   1.991  11.238 -0.6023  0.3129 -0.0370
  285TMC3     C 4355   2.574   1.821  11.320  0.4736 -0.4992 -0.0643
  285TMC3     O 4356   2.511   1.770  11.230 -0.2530  0.3821 -0.1628
  285TMC3     H 4357   2.705   1.778  11.108  3.0780 -3.6959  1.5674
  285TMC3    H1 4358   2.666   2.053  11.426  1.4175  0.8763 -0.0486
  285TMC3    H2 4359   3.041   2.018  11.212 -1.3889  1.0815 -2.3536
  285TMC3    C7 4360   2.905   2.173  11.385 -0.4454 -0.1468  0.6021
  285TMC3    C8 4361   2.966   1.804  11.078  0.3691 -0.3883 -0.9256
  285TMC3    O1 4362   2.816   2.258  11.410 -0.1861  0.1238  0.8828
  285TMC3    O2 4363   2.922   1.786  10.969  0.3361 -0.5555  0.0332
  286MPD2     C 4364   3.764   0.866   1.276  0.2662 -0.4523  0.5965
  286MPD2    C1 4365   3.702   0.810   1.166 -1.0575 -0.0480  0.6674
  286MPD2    C2 4366   3.771   0.705   1.105  0.1572 -0.0753 -0.2817
  286MPD2    C3 4367   3.890   0.653   1.147  0.2753 -1.0503  0.1979
  286MPD2    C4 4368   3.945   0.709   1.260  0.0295  0.2857 -0.1743
  286MPD2    C5 4369   3.885   0.815   1.318  0.0466 -0.6207 -0.2330
  286MPD2     H 4370   3.731   0.662   1.014  2.7306 -3.6911  0.2804
  286MPD2    H1 4371   4.040   0.680   1.303 -0.8730 -1.5395  0.5660
  286MPD2    H2 4372   3.721   0.952   1.327 -1.7714 -0.3275 -1.3494
  286MPD2    H3 4373   3.924   0.870   1.403 -2.9262  1.6217 -0.3209
  286MPD2     N 4374   3.959   0.550   1.084 -0.3636 -0.0697 -0.1774
  286MPD2    H5 4375   4.030   0.503   1.138 -0.2569  1.4460  1.0112
  286MPD2    N1 4376   3.572   0.853   1.123  0.1710 -0.1243  0.1096
  286MPD2    H7 4377   3.536   0.814   1.037 -2.2944  0.6793  0.7672
  287TMC3    C1 4378   4.009   0.392   0.911 -0.6292 -0.2953 -0.5040
  287TMC3    C2 4379   3.950   0.330   0.808 -0.3589 -0.0534  0.1444
  287TMC3    C3 4380   4.040   0.258   0.733 -0.1497  0.2005 -0.1209
  287TMC3    C4 4381   4.139   0.393   0.940 -0.4943 -0.0607  0.5436
  287TMC3    C5 4382   4.221   0.317   0.863 -0.8936  0.0760  0.4535
  287TMC3    C6 4383   4.174   0.237   0.761  0.9151  0.2438  0.0855
  287TMC3     C 4384   3.924   0.500   0.961 -0.1331 -0.2227 -0.1260
  287TMC3     O 4385   3.833   0.531   0.884  0.1777 -0.0370  0.0913
  287TMC3     H 4386   3.842   0.321   0.806 -0.0292 -3.4910 -2.7263
  287TMC3    H1 4387   4.184   0.462   1.011  1.3445 -0.8234  0.1018
  287TMC3    H2 4388   4.227   0.174   0.691 -0.4917 -1.2861  0.4066
  287TMC3    C7 4389   4.354   0.299   0.917 -0.0727 -0.1595  0.4412
  287TMC3    C8 4390   3.992   0.184   0.619 -0.6774 -0.0586 -0.1795
  287TMC3    O1 4391   4.367   0.317   1.034  0.4055 -0.7056 -0.1146
  287TMC3    O2 4392   4.062   0.104   0.556 -0.2900  0.4193 -0.0922
  288TMC3    C1 4393   0.236   0.313  14.254 -0.1461  0.8774  0.1910
  288TMC3    C2 4394   0.124   0.317  14.342  0.0681  0.3896 -0.4144
  288TMC3    C3 4395   0.014   0.386  14.297  0.0234 -0.5156  1.0452
  288TMC3    C4 4396   0.237   0.383  14.136 -0.5469  0.3625  0.2621
  288TMC3    C5 4397   0.138   0.482  14.120 -0.9090  0.3555 -0.1543
  288TMC3    C6 4398   0.020   0.471  14.185 -0.0471 -0.2631  0.0652
  288TMC3     C 4399   0.361   0.255  14.303 -0.5694 -0.3995  0.3819
  288TMC3     O 4400   0.426   0.202  14.217  0.2767 -0.4366 -0.5867
  288TMC3     H 4401   0.126   0.261  14.434 -0.3611 -0.4852 -0.9330
  288TMC3    H1 4402   0.323   0.377  14.070 -1.4505  0.8014 -0.9625
  288TMC3    H2 4403   4.671   0.533  14.157 -1.3421 -2.6446 -1.2471
  288TMC3    C7 4404   0.154   0.559  13.999 -0.7214 -0.4366  0.5097
  288TMC3    C8 4405   4.633   0.394  14.383 -0.3750  0.5120 -0.3029
  288TMC3    O1 4406   0.239   0.527  13.919  0.1233 -0.3377  0.4687
  288TMC3    O2 4407   4.556   0.490  14.372  0.3494  0.7737  0.2577
  289MPD2     C 4408   4.697   4.442  14.144 -0.2693 -0.3297 -0.5089
  289MPD2    C1 4409   4.654   4.574  14.143 -0.7137 -0.2137 -0.2721
  289MPD2    C2 4410   4.517   4.599  14.157 -0.0546 -0.8575 -0.2237
  289MPD2    C3 4411   4.428   4.492  14.180  0.2174 -0.9069 -0.3053
  289MPD2    C4 4412   4.478   4.358  14.176  0.2178 -0.0846 -0.9605
  289MPD2    C5 4413   4.610   4.337  14.170  0.3056  0.0738  0.7202
  289MPD2     H 4414   4.477   4.700  14.151  1.4152 -0.2623  0.0002
  289MPD2    H1 4415   4.416   4.269  14.188 -0.2765  0.4733  0.5705
  289MPD2    H2 4416   0.068   4.431  14.136  0.1761  2.3840  1.5941
  289MPD2    H3 4417   4.657   4.240  14.158 -2.0193 -0.6760 -2.2552
  289MPD2     N 4418   4.288   4.504  14.183 -0.0330  0.8042  0.2361
  289MPD2    H5 4419   4.227   4.423  14.182 -0.0462  0.8110  0.3878
  289MPD2    N1 4420   0.014   4.673  14.092 -0.0642 -0.1230 -0.4671
  289MPD2    H7 4421   0.114   4.656  14.096  0.4180  2.1953 -2.2459
  290TMC3    C1 4422   4.082   4.632  14.220 -0.0476  0.2831 -0.0202
  290TMC3    C2 4423   4.024   0.007  14.257 -0.3596  0.8047 -0.0596
  290TMC3    C3 4424   3.884   0.019  14.248 -0.3370 -0.5685 -0.5153
  290TMC3    C4 4425   4.012   4.516  14.184 -0.5925  0.2004  0.0925
  290TMC3    C5 4426   3.876   4.531  14.180  0.0816 -0.4966  0.2064
  290TMC3    C6 4427   3.816   4.649  14.215 -0.4218  0.1946 -0.2509
  290TMC3     C 4428   4.226   4.626  14.218  0.0218  0.1645 -0.6430
  290TMC3     O 4429   4.282   4.728  14.260  0.2102 -0.6506 -0.3947
  290TMC3     H 4430   4.085   0.096  14.270  0.8093  0.1862 -1.2569
  290TMC3    H1 4431   4.053   4.420  14.154  1.2934  0.7516  0.9684
  290TMC3    H2 4432   3.709   4.660  14.231 -0.2116  0.9539  0.6591
  290TMC3    C7 4433   3.800   4.440  14.095  0.2838 -0.4224  0.1363
  290TMC3    C8 4434   3.820   0.150  14.256 -0.0512 -0.0607 -0.3023
  290TMC3    O1 4435   3.683   4.472  14.073 -0.4743 -0.1608 -0.2002
  290TMC3    O2 4436   3.710   0.165  14.197 -0.0091 -0.0322  0.0006
  291MPD2     C 4437   3.747   4.371  17.336  0.0556 -0.7701  0.5217
  291MPD2    C1 4438   3.840   4.341  17.438  0.1835 -0.5874 -1.2293
  291MPD2    C2 4439   3.914   4.447  17.489  0.0505 -0.1794  0.5388
  291MPD2    C3 4440   3.898   4.578  17.447  0.3503 -0.1619 -0.3439
  291MPD2    C4 4441   3.790   4.606  17.361 -0.0648  0.2206  0.4942
  291MPD2    C5 4442   3.714   4.502  17.311  0.0464  0.3879  0.7608
  291MPD2     H 4443   3.999   4.421  17.551  1.6965  0.2372 -1.5401
  291MPD2    H1 4444   3.766   4.709  17.337 -0.1377  0.4444  1.5340
  291MPD2    H2 4445   3.690   4.292  17.289 -2.2411  1.7893 -0.9483
  291MPD2    H3 4446   3.629   4.529  17.249 -0.2608  2.2632  1.9826
  291MPD2     N 4447   3.988   4.682  17.483  0.1233 -0.7567  0.6521
  291MPD2    H5 4448   3.968   0.033  17.436  2.3996 -1.9621 -2.5621
  291MPD2    N1 4449   3.866   4.207  17.484  0.5671  0.3723  0.3881
  291MPD2    H7 4450   3.936   4.197  17.558  2.0931 -1.9062 -1.3546
  292TMC3    C1 4451   3.837   3.980  17.523  0.3992  0.3849  0.4006
  292TMC3    C2 4452   3.942   3.986  17.616 -0.0891  0.6806  0.7199
  292TMC3    C3 4453   3.932   3.892  17.716  0.2570 -0.1027 -0.1951
  292TMC3    C4 4454   3.727   3.898  17.540 -0.1372  0.2193 -0.1434
  292TMC3    C5 4455   3.733   3.814  17.644 -0.3016  0.2432  0.2828
  292TMC3    C6 4456   3.839   3.803  17.725 -0.2928 -0.4381 -0.1852
  292TMC3     C 4457   3.812   4.094  17.430 -0.9854 -0.4211  0.1771
  292TMC3     O 4458   3.734   4.080  17.338 -0.2888 -0.2760 -0.2558
  292TMC3     H 4459   4.038   4.032  17.600 -0.5438  2.1212  2.2271
  292TMC3    H1 4460   3.635   3.907  17.485 -0.5702  0.5628  0.6454
  292TMC3    H2 4461   3.850   3.722   0.051 -0.4862  0.5297  0.9641
  292TMC3    C7 4462   3.670   3.689  17.627 -0.2195 -0.7012  0.5380
  292TMC3    C8 4463   4.036   3.900   0.078  0.2621 -0.2985 -0.0008
  292TMC3    O1 4464   3.636   3.660  17.517  0.4380 -0.3008 -0.3237
  292TMC3    O2 4465   4.146   3.949   0.050 -0.4816 -0.0446  0.6008
  293MPD2     C 4466   0.768   0.949  12.403  0.1515  0.3250 -0.1290
  293MPD2    C1 4467   0.710   0.848  12.474  0.1656 -0.3019 -0.2377
  293MPD2    C2 4468   0.745   0.828  12.603 -0.2163  0.2950 -0.8773
  293MPD2    C3 4469   0.833   0.911  12.667  0.9997 -0.7311  0.5387
  293MPD2    C4 4470   0.891   1.009  12.598  0.6020 -0.1828  0.4571
  293MPD2    C5 4471   0.856   1.033  12.464 -0.0099  0.6071 -0.4078
  293MPD2     H 4472   0.707   0.745  12.661 -0.1858  0.4435 -0.6430
  293MPD2    H1 4473   0.963   1.081  12.634 -1.0455  1.6244  0.1212
  293MPD2    H2 4474   0.748   0.960  12.297 -3.0251  0.4579  0.4831
  293MPD2    H3 4475   0.911   1.118  12.426  1.6786  1.3329  3.6504
  293MPD2     N 4476   0.865   0.892  12.806  0.5274  0.0688  0.1247
  293MPD2    H5 4477   0.913   0.966  12.856 -0.1932  1.1243 -0.7520
  293MPD2    N1 4478   0.610   0.780  12.399  0.0885 -0.2848  0.1732
  293MPD2    H7 4479   0.602   0.788  12.298 -0.1202  0.0585  0.2195
  294TMC3    C1 4480   0.407   0.668  12.359 -0.3034 -0.1705 -0.3617
  294TMC3    C2 4481   0.345   0.553  12.397 -0.1944  0.2422  0.1682
  294TMC3    C3 4482   0.253   0.501  12.312 -0.1898 -0.9024 -0.6400
  294TMC3    C4 4483   0.389   0.725  12.237  0.4772  0.9158 -0.0273
  294TMC3    C5 4484   0.302   0.667  12.156  0.1842  0.8131 -0.2165
  294TMC3    C6 4485   0.235   0.548  12.182 -0.6341  0.8038 -0.0663
  294TMC3     C 4486   0.530   0.683  12.442  0.4230  0.1467 -0.6658
  294TMC3     O 4487   0.522   0.636  12.556 -0.2822 -0.0304 -0.2427
  294TMC3     H 4488   0.355   0.508  12.495  2.2743 -0.7532 -0.5604
  294TMC3    H1 4489   0.448   0.813  12.215  1.9400  0.0959  0.5922
  294TMC3    H2 4490   0.156   0.510  12.120 -1.0245  0.4988  0.6214
  294TMC3    C7 4491   0.303   0.710  12.019 -0.4361 -0.2565  0.1557
  294TMC3    C8 4492   0.230   0.361  12.324  0.1185  0.1087 -0.3364
  294TMC3    O1 4493   0.195   0.697  11.963 -0.0460 -0.0878  0.2235
  294TMC3    O2 4494   0.236   0.314  12.434  0.1225 -0.3663  0.3698
  295MPD2     C 4495   1.751   0.201   0.613  0.2490  0.2998 -0.3760
  295MPD2    C1 4496   1.675   0.090   0.577  0.2879  0.9566  0.1334
  295MPD2    C2 4497   1.540   0.087   0.615 -0.8348  0.5077  0.8132
  295MPD2    C3 4498   1.483   0.190   0.694 -0.0397  0.5680  0.1103
  295MPD2    C4 4499   1.571   0.299   0.724 -0.1271 -0.6172 -0.1674
  295MPD2    C5 4500   1.699   0.307   0.678  0.0640  0.1179 -0.0909
  295MPD2     H 4501   1.477   0.009   0.574 -1.4997  1.9613 -0.9225
  295MPD2    H1 4502   1.531   0.382   0.782 -0.2605  0.8429 -2.3511
  295MPD2    H2 4503   1.851   0.213   0.572  0.8784 -1.1823  0.7239
  295MPD2    H3 4504   1.768   0.389   0.690 -0.4196  0.6574 -1.0671
  295MPD2     N 4505   1.349   0.196   0.742  0.0788  0.3134  0.1250
  295MPD2    H5 4506   1.319   0.279   0.792 -0.1625  0.3287 -0.0460
  295MPD2    N1 4507   1.724   4.726   0.491  0.4842 -0.5508 -0.7325
  295MPD2    H7 4508   1.669   4.641   0.483 -2.6953  1.6340 -2.0840
  296TMC3    C1 4509   1.137   0.118   0.784  0.9028  0.0033  0.2812
  296TMC3    C2 4510   1.075   0.222   0.718 -0.0704 -0.2607  0.1884
  296TMC3    C3 4511   0.942   0.220   0.718  0.2532  0.7573 -0.3779
  296TMC3    C4 4512   1.075   0.006   0.827 -0.1915 -0.4105  0.2140
  296TMC3    C5 4513   0.948   0.000   0.791  0.4439  0.1166  0.3904
  296TMC3    C6 4514   0.875   0.103   0.745 -0.5400 -0.4341  0.7835
  296TMC3     C 4515   1.270   0.086   0.752 -0.1700  0.0737 -0.0351
  296TMC3     O 4516   1.297   4.704   0.730 -0.1480 -0.2968  0.3671
  296TMC3     H 4517   1.122   0.316   0.692 -0.2493 -0.3645 -0.4998
  296TMC3    H1 4518   1.123   4.660   0.880 -0.1710 -0.8240 -0.4459
  296TMC3    H2 4519   0.768   0.095   0.729 -1.1136  1.7251  3.5563
  296TMC3    C7 4520   0.887   4.608   0.754  0.2922 -0.1603  1.0439
  296TMC3    C8 4521   0.869   0.340   0.721 -0.0732 -0.3672 -0.4340
  296TMC3    O1 4522   0.777   4.598   0.709  0.0872  0.3117  0.8010
  296TMC3    O2 4523   0.757   0.341   0.664  0.1689  0.3739  0.0933
  297MPD2     C 4524   3.243   1.131  16.042  0.2946  0.3284  0.2564
  297MPD2    C1 4525   3.252   1.213  15.932  0.2134 -0.5212  1.3749
  297MPD2    C2 4526   3.365   1.283  15.900  0.2941  0.2135  0.1188
  297MPD2    C3 4527   3.468   1.278  15.996  0.2030  0.4453  0.0306
  297MPD2    C4 4528   3.456   1.196  16.106 -0.3684  0.4380  0.3126
  297MPD2    C5 4529   3.347   1.123  16.134  0.0086 -0.2417  0.4258
  297MPD2     H 4530   3.370   1.345  15.810 -2.0382 -1.4508 -1.1506
  297MPD2    H1 4531   3.532   1.178  16.181  0.3597  0.7237 -0.3625
  297MPD2    H2 4532   3.155   1.077  16.075  1.1991 -1.9781 -1.1267
  297MPD2    H3 4533   3.338   1.059  16.221 -1.3419 -3.5459 -2.1182
  297MPD2     N 4534   3.584   1.351  15.963  0.1197 -0.0218 -1.0948
  297MPD2    H5 4535   3.575   1.407  15.879 -2.0607 -1.4961 -1.8360
  297MPD2    N1 4536   3.132   1.245  15.866 -0.6491 -0.5993 -0.0888
  297MPD2    H7 4537   3.136   1.322  15.799  3.8449 -0.1173  0.7491
  298TMC3    C1 4538   2.897   1.263  15.845 -0.6531 -0.1416 -1.0570
  298TMC3    C2 4539   2.897   1.333  15.727  0.0654  0.5404 -0.3104
  298TMC3    C3 4540   2.780   1.387  15.691  0.4117 -0.3660  0.0958
  298TMC3    C4 4541   2.791   1.276  15.931  0.2116  0.2980  0.6923
  298TMC3    C5 4542   2.684   1.349  15.898  0.3816 -0.2494 -0.0805
  298TMC3    C6 4543   2.673   1.403  15.774  0.2854  0.1770 -0.3711
  298TMC3     C 4544   3.010   1.192  15.900 -0.1730  0.0161 -0.4665
  298TMC3     O 4545   2.973   1.089  15.954 -0.4606  0.5116  0.3894
  298TMC3     H 4546   2.981   1.303  15.665 -1.3439  1.5323 -2.7097
  298TMC3    H1 4547   2.785   1.205  16.013 -2.0237  0.7483  0.9339
  298TMC3    H2 4548   2.584   1.458  15.746  1.8676  2.7559 -0.3448
  298TMC3    C7 4549   2.591   1.366  16.000  0.9945  0.6401  0.1250
  298TMC3    C8 4550   2.769   1.447  15.558  0.5403  0.0458 -0.2554
  298TMC3    O1 4551   2.620   1.347  16.114 -0.4285 -0.0237  0.3784
  298TMC3    O2 4552   2.660   1.488  15.515  0.1028  0.0784  0.0962
  299MPD2     C 4553   4.105   0.910  10.351 -0.2760  0.3075  0.3640
  299MPD2    C1 4554   4.195   0.994  10.296  0.5653  0.0255 -0.4257
  299MPD2    C2 4555   4.178   1.045  10.172 -0.2358  0.2073  0.9128
  299MPD2    C3 4556   4.060   1.022  10.099  0.2049  0.8767  0.4884
  299MPD2    C4 4557   3.966   0.943  10.165 -0.3041  0.2455 -0.6642
  299MPD2    C5 4558   3.995   0.883  10.280  0.0454 -0.2578  0.3504
  299MPD2     H 4559   4.252   1.107  10.123 -1.1168 -0.6616 -1.5294
  299MPD2    H1 4560   3.869   0.922  10.124 -0.4288 -0.3203 -0.0751
  299MPD2    H2 4561   4.107   0.879  10.455 -1.0653  0.6019  0.4674
  299MPD2    H3 4562   3.919   0.826  10.332 -1.0793  1.6716  0.8135
  299MPD2     N 4563   4.018   1.081   9.976 -0.0765 -0.5225 -0.1620
  299MPD2    H5 4564   3.922   1.060   9.953 -0.8894  2.6412  0.2872
  299MPD2    N1 4565   4.296   1.045  10.387 -0.2841 -0.5106 -0.3702
  299MPD2    H7 4566   4.292   0.984  10.468 -2.4951 -0.3838 -0.3801
  300TMC3    C1 4567   4.005   1.252   9.812 -0.0219  0.1188  0.3472
  300TMC3    C2 4568   4.016   1.389   9.826  0.7516 -0.3461 -0.2372
  300TMC3    C3 4569   3.906   1.467   9.817 -0.1758  0.0178  0.3853
  300TMC3    C4 4570   3.893   1.195   9.761  0.4664 -0.5596 -0.4033
  300TMC3    C5 4571   3.787   1.274   9.734  0.4435 -0.3439  0.3801
  300TMC3    C6 4572   3.793   1.404   9.765  0.0154  0.3490  0.5874
  300TMC3     C 4573   4.086   1.184   9.911  0.3891 -0.1014 -0.0620
  300TMC3     O 4574   4.194   1.231   9.939  0.6795 -0.1645 -0.0620
  300TMC3     H 4575   4.110   1.432   9.858  0.5050  0.2033 -0.2554
  300TMC3    H1 4576   3.884   1.090   9.737  0.2652 -0.7975  0.7136
  300TMC3    H2 4577   3.708   1.461   9.729  0.7818  1.6324  0.7881
  300TMC3    C7 4578   3.650   1.220   9.739 -0.4143  0.8139 -0.7426
  300TMC3    C8 4579   3.896   1.572   9.916 -0.1970 -0.1637 -0.8921
  300TMC3    O1 4580   3.600   1.176   9.634  0.3814  0.2425  0.7024
  300TMC3    O2 4581   3.985   1.578   9.998  0.3520 -0.2457  0.1023
  301MPD2     C 4582   1.882   2.815  17.706 -0.9618  0.0270 -0.1046
  301MPD2    C1 4583   1.746   2.783  17.720 -0.2322 -0.1607  0.3338
  301MPD2    C2 4584   1.716   2.664   0.047 -0.0192 -0.4977 -0.2002
  301MPD2    C3 4585   1.807   2.578   0.105  0.3178  0.1311  0.2771
  301MPD2    C4 4586   1.936   2.620   0.090  0.0027 -0.1391 -0.3023
  301MPD2    C5 4587   1.973   2.741   0.029  0.1927  0.4443  0.3859
  301MPD2     H 4588   1.609   2.652   0.059 -0.3618 -0.0391 -2.6452
  301MPD2    H1 4589   2.017   2.560   0.130  1.2815  0.6684 -1.6362
  301MPD2    H2 4590   1.901   2.908  17.654  0.1937 -0.4986 -0.6291
  301MPD2    H3 4591   2.079   2.764   0.031  0.2896 -0.1073  1.6817
  301MPD2     N 4592   1.780   2.458   0.172 -0.4517 -0.1175 -0.2567
  301MPD2    H5 4593   1.854   2.409   0.221 -1.1297  0.4969  1.3701
  301MPD2    N1 4594   1.635   2.862  17.670 -0.2314 -0.3706  0.1973
  301MPD2    H7 4595   1.549   2.813  17.691  0.8904 -0.6687  3.9396
  302TMC3    C1 4596   1.664   2.265   0.232  0.3583 -0.2201  0.2146
  302TMC3    C2 4597   1.770   2.215   0.294  0.0296  0.1023 -0.3337
  302TMC3    C3 4598   1.739   2.122   0.389 -0.0426  0.3280  0.8028
  302TMC3    C4 4599   1.543   2.211   0.241 -0.4658  0.3339  0.0991
  302TMC3    C5 4600   1.523   2.110   0.335 -0.2235 -0.1564 -0.2027
  302TMC3    C6 4601   1.620   2.059   0.409  0.2987 -0.4361  0.0530
  302TMC3     C 4602   1.657   2.396   0.170  0.5335 -0.3547  0.0561
  302TMC3     O 4603   1.561   2.428   0.104 -0.7013 -0.1167  0.2030
  302TMC3     H 4604   1.871   2.251   0.274  0.1490  0.7972  1.5477
  302TMC3    H1 4605   1.467   2.243   0.171  1.7479  0.7438 -2.1007
  302TMC3    H2 4606   1.604   1.978   0.480 -1.3077  1.7436  2.1624
  302TMC3    C7 4607   1.393   2.035   0.353 -0.1340  0.1425 -0.1954
  302TMC3    C8 4608   1.850   2.044   0.441 -0.3491 -0.7367 -0.2412
  302TMC3    O1 4609   1.400   1.946   0.436  0.2457  0.2151 -0.0505
  302TMC3    O2 4610   1.823   1.940   0.499 -0.4005 -0.6709 -0.2225
  303MPD2     C 4611   1.765   0.606  10.131  0.6569 -0.3760 -0.4591
  303MPD2    C1 4612   1.646   0.543  10.103 -1.0651 -0.3962  0.2409
  303MPD2    C2 4613   1.559   0.604  10.014 -0.5416 -0.4437  0.4217
  303MPD2    C3 4614   1.589   0.733   9.968 -0.1497 -0.3759  0.4852
  303MPD2    C4 4615   1.712   0.791   9.995  1.4469 -0.0832  0.4296
  303MPD2    C5 4616   1.799   0.727  10.070  0.4137 -0.0870  0.1944
  303MPD2     H 4617   1.461   0.560  10.006 -0.0238 -0.9104 -3.1341
  303MPD2    H1 4618   1.738   0.886   9.949  0.6263  0.4294  1.0173
  303MPD2    H2 4619   1.841   0.560  10.194 -1.4395 -0.0747  2.2795
  303MPD2    H3 4620   1.901   0.763  10.080  0.6564 -0.5745 -0.4995
  303MPD2     N 4621   1.498   0.810   9.903  0.2424  0.1283  0.0936
  303MPD2    H5 4622   1.531   0.901   9.873 -0.6428  0.6043  0.5834
  303MPD2    N1 4623   1.622   0.415  10.168  0.2425  0.2197 -0.4100
  303MPD2    H7 4624   1.684   0.393  10.245 -0.1325 -1.8503 -0.7152
  304TMC3    C1 4625   1.504   0.223  10.231  0.3537  1.0542 -0.0354
  304TMC3    C2 4626   1.492   0.254  10.365  0.5341  0.5519 -0.0084
  304TMC3    C3 4627   1.399   0.185  10.432 -0.4339 -0.3171  0.0395
  304TMC3    C4 4628   1.464   0.111  10.176  0.4016  0.4979  0.3062
  304TMC3    C5 4629   1.383   0.037  10.253 -0.1443 -0.8805  0.1296
  304TMC3    C6 4630   1.354   0.068  10.382  0.6043 -0.5021  0.2858
  304TMC3     C 4631   1.518   0.331  10.140  0.4892 -0.5108 -0.4560
  304TMC3     O 4632   1.452   0.328  10.037 -0.5581  0.6397  0.1267
  304TMC3     H 4633   1.512   0.359  10.384  0.2295  0.5072  0.5843
  304TMC3    H1 4634   1.467   0.087  10.071  0.8293 -0.0014  0.4311
  304TMC3    H2 4635   1.263   0.037  10.432  1.2766 -0.5306  1.4858
  304TMC3    C7 4636   1.269   4.714  10.183  0.1089  0.3986 -1.2383
  304TMC3    C8 4637   1.284   0.270  10.471 -0.1238 -0.1352 -0.2238
  304TMC3    O1 4638   1.233   0.030  10.074 -0.1578 -0.3026  0.3545
  304TMC3    O2 4639   1.236   0.317  10.369  0.1491 -0.6048  0.0053
  305MPD2     C 4640   4.715   2.961  13.804 -0.6573 -0.4401  0.7267
  305MPD2    C1 4641   4.678   2.848  13.877  0.4176 -0.7358 -0.1158
  305MPD2    C2 4642   4.638   2.734  13.805 -0.3408 -0.8111  0.4800
  305MPD2    C3 4643   4.638   2.740  13.666  0.3368  0.5893  0.6826
  305MPD2    C4 4644   4.666   2.857  13.599 -0.1844 -0.2604 -0.0309
  305MPD2    C5 4645   4.703   2.969  13.668 -0.0182 -0.0893  0.3397
  305MPD2     H 4646   4.619   2.641  13.857  1.9584 -0.9632  1.0425
  305MPD2    H1 4647   4.651   2.868  13.492 -0.3599 -2.0228 -0.1874
  305MPD2    H2 4648   4.735   3.057  13.851 -2.8841 -0.7369  2.2874
  305MPD2    H3 4649   4.715   3.067  13.625  2.0832 -1.4106 -2.1166
  305MPD2     N 4650   4.609   2.628  13.585 -0.6728  0.2797  0.4150
  305MPD2    H5 4651   4.624   2.636  13.485 -1.2842  1.2434  0.3927
  305MPD2    N1 4652   4.679   2.859  14.019 -0.1914  0.1549  0.3720
  305MPD2    H7 4653   4.711   2.947  14.058 -1.2323  0.4494  0.5612
  306TMC3    C1 4654   4.682   2.790  14.243  0.3247  0.1228  0.1493
  306TMC3    C2 4655   0.017   2.710  14.326  0.6053  0.2746  0.0876
  306TMC3    C3 4656   0.026   2.743  14.459  0.1001 -0.4056 -0.8111
  306TMC3    C4 4657   4.626   2.907  14.283  0.2324  0.3185 -0.6384
  306TMC3    C5 4658   4.628   2.935  14.423  0.0138 -0.2899 -0.2487
  306TMC3    C6 4659   4.704   2.855  14.506 -0.5119  0.8270 -0.3730
  306TMC3     C 4660   4.670   2.749  14.101 -0.4448 -0.5091  0.6661
  306TMC3     O 4661   4.641   2.631  14.074 -0.3120  0.2303 -1.0434
  306TMC3     H 4662   0.057   2.616  14.290  1.9456  0.4094  1.2009
  306TMC3    H1 4663   4.561   2.972  14.225  0.3737 -0.9173 -2.1669
  306TMC3    H2 4664   4.697   2.872  14.613 -0.3103  1.4474 -0.4588
  306TMC3    C7 4665   4.514   2.996  14.483  0.9353 -0.1273 -0.2666
  306TMC3    C8 4666   0.100   2.649  14.539 -0.3612  0.0079  0.0272
  306TMC3    O1 4667   4.403   2.951  14.459  0.3763 -0.1465 -0.0688
  306TMC3    O2 4668   0.107   2.535  14.492 -0.6935 -0.3613 -0.8882
  307MPD2     C 4669   2.147   0.550   0.450  0.2596 -0.3014  0.5993
  307MPD2    C1 4670   2.117   0.674   0.395  0.3728 -0.6181  0.8478
  307MPD2    C2 4671   2.029   0.760   0.464 -0.2597 -0.1184  0.1245
  307MPD2    C3 4672   1.962   0.716   0.570 -0.1343 -0.0047  0.1529
  307MPD2    C4 4673   1.997   0.595   0.627  0.7595 -0.2922  0.2230
  307MPD2    C5 4674   2.087   0.513   0.568  0.1206 -0.4573 -0.2144
  307MPD2     H 4675   2.020   0.862   0.429  2.0900 -0.0716 -0.3656
  307MPD2    H1 4676   1.959   0.556   0.721  1.8115  0.8882  1.1413
  307MPD2    H2 4677   2.223   0.489   0.405 -1.0355 -0.2290 -1.6803
  307MPD2    H3 4678   2.104   0.413   0.606  0.7897  0.3639  1.6270
  307MPD2     N 4679   1.854   0.801   0.623 -0.0645 -0.7192  0.2141
  307MPD2    H5 4680   1.840   0.890   0.577 -1.5592 -0.3818  1.3195
  307MPD2    N1 4681   2.170   0.720   0.271 -0.1764 -0.3365  0.3700
  307MPD2    H7 4682   2.136   0.808   0.232 -1.8663 -0.9049  0.5473
  308TMC3    C1 4683   1.427   0.868   0.751  0.0425  0.7472  0.2581
  308TMC3    C2 4684   1.441   1.004   0.733  0.1891  0.0526 -0.0862
  308TMC3    C3 4685   1.568   1.055   0.712 -0.2836 -1.0436  0.5006
  308TMC3    C4 4686   1.536   0.785   0.750  0.8252  0.3583  0.1435
  308TMC3    C5 4687   1.658   0.840   0.720 -0.1437 -0.0320 -0.4816
  308TMC3    C6 4688   1.679   0.978   0.707  0.0669 -0.4122 -0.1938
  308TMC3     C 4689   1.300   0.803   0.736 -0.5198  0.0937 -0.3895
  308TMC3     O 4690   1.310   0.684   0.768  0.3450 -0.4167 -0.4974
  308TMC3     H 4691   1.349   1.062   0.735  1.2634  1.7521 -0.1284
  308TMC3    H1 4692   1.536   0.678   0.767  0.9225  0.1412 -1.2492
  308TMC3    H2 4693   1.783   1.008   0.698  0.1976 -0.3447  1.5596
  308TMC3    C7 4694   1.768   0.754   0.717 -0.0973 -0.0323 -0.9122
  308TMC3    C8 4695   1.584   1.185   0.748  0.1089 -0.0709 -0.4794
  308TMC3    O1 4696   1.749   0.649   0.776 -0.0631 -0.0136  0.0630
  308TMC3    O2 4697   1.499   1.234   0.819  0.0267 -0.0569  0.7831
  309MPD2     C 4698   1.470   1.021  16.951  0.1392 -0.0467  0.2394
  309MPD2    C1 4699   1.461   1.142  16.878  0.6110  0.0866 -0.4628
  309MPD2    C2 4700   1.335   1.203  16.866 -0.4337 -0.1236  0.3589
  309MPD2    C3 4701   1.233   1.161  16.949 -0.0034 -0.1479 -0.6652
  309MPD2    C4 4702   1.242   1.048  17.031  0.3427 -0.1530 -0.1234
  309MPD2    C5 4703   1.357   0.978  17.026 -0.2375  0.0940  0.3978
  309MPD2     H 4704   1.323   1.297  16.813  2.0375  0.4171  0.7752
  309MPD2    H1 4705   1.171   1.014  17.105  1.2500 -1.6999  0.0404
  309MPD2    H2 4706   1.562   0.964  16.948  0.4141  0.3506  0.9726
  309MPD2    H3 4707   1.376   0.889  17.086 -0.0537 -1.0125 -1.3124
  309MPD2     N 4708   1.123   1.246  16.957  0.7669  0.5264  0.0115
  309MPD2    H5 4709   1.120   1.327  16.896  0.8154 -0.1369 -0.8791
  309MPD2    N1 4710   1.562   1.187  16.798  0.3366  0.4495  0.5832
  309MPD2    H7 4711   1.543   1.268  16.741  0.4353 -0.0646 -0.1867
  310TMC3    C1 4712   1.782   1.222  16.716 -0.1175 -0.3335 -0.1915
  310TMC3    C2 4713   1.740   1.348  16.671 -0.1332  0.1060 -1.3080
  310TMC3    C3 4714   1.805   1.397  16.557  0.3779  0.3418 -0.4814
  310TMC3    C4 4715   1.887   1.155  16.653 -0.2447 -0.2201  0.1637
  310TMC3    C5 4716   1.949   1.205  16.547 -0.2746  0.2943  0.0483
  310TMC3    C6 4717   1.906   1.328  16.495 -0.1633  0.1821  0.3866
  310TMC3     C 4718   1.690   1.141  16.799 -0.6258  0.8973 -0.4995
  310TMC3     O 4719   1.746   1.048  16.857  0.0425 -0.2516 -0.5569
  310TMC3     H 4720   1.646   1.391  16.705  0.6240  0.6016  0.1401
  310TMC3    H1 4721   1.900   1.052  16.682 -0.1100  0.2841  1.9058
  310TMC3    H2 4722   1.963   1.365  16.411 -1.0478  0.0525 -0.2660
  310TMC3    C7 4723   2.043   1.122  16.470  0.7642  0.4782 -0.1197
  310TMC3    C8 4724   1.716   1.472  16.466  0.3007  0.6342 -0.0900
  310TMC3    O1 4725   2.060   1.145  16.353  0.0678 -0.4613  0.4871
  310TMC3    O2 4726   1.598   1.458  16.489 -0.0211 -0.3947  0.3595
  311MPD2     C 4727   3.612   2.403  12.544 -0.1051 -0.0267 -0.0418
  311MPD2    C1 4728   3.613   2.526  12.613  0.4207 -0.1628 -0.1960
  311MPD2    C2 4729   3.493   2.572  12.661  0.0111 -0.0759  0.3794
  311MPD2    C3 4730   3.371   2.496  12.654  0.2156 -0.3051  0.7909
  311MPD2    C4 4731   3.376   2.373  12.587 -0.0275  0.4623 -0.3391
  311MPD2    C5 4732   3.491   2.336  12.526 -0.8195  0.7582 -0.9163
  311MPD2     H 4733   3.490   2.671  12.706 -0.3295 -0.9214  2.2223
  311MPD2    H1 4734   3.292   2.304  12.580  2.2064 -2.2824  0.0399
  311MPD2    H2 4735   3.698   2.369  12.487 -0.5851 -0.1097 -0.7277
  311MPD2    H3 4736   3.485   2.240  12.475 -1.3877  1.2655 -1.7893
  311MPD2     N 4737   3.249   2.547  12.706 -0.3019  0.3732 -0.0532
  311MPD2    H5 4738   3.259   2.631  12.762  0.5560  0.3253 -0.1334
  311MPD2    N1 4739   3.725   2.615  12.600  0.3681  0.1427 -0.2235
  311MPD2    H7 4740   3.716   2.703  12.649  1.8350 -0.4053  1.0292
  312TMC3    C1 4741   3.011   2.567  12.723 -0.5934  0.1690 -0.1957
  312TMC3    C2 4742   2.887   2.507  12.701  0.0351  0.1778 -0.1675
  312TMC3    C3 4743   2.773   2.566  12.753 -0.4236 -0.0483  0.2016
  312TMC3    C4 4744   3.028   2.660  12.825  0.5566  0.0830 -0.0168
  312TMC3    C5 4745   2.915   2.714  12.882 -0.0527 -0.2224 -0.1045
  312TMC3    C6 4746   2.786   2.676  12.843  0.2000 -0.0010 -0.3549
  312TMC3     C 4747   3.126   2.498  12.662 -0.6072 -0.4607  0.7078
  312TMC3     O 4748   3.096   2.410  12.578 -0.0937 -0.3936  0.3028
  312TMC3     H 4749   2.882   2.424  12.633 -1.5477  0.8607 -0.8883
  312TMC3    H1 4750   3.119   2.704  12.864  1.3126 -0.6599 -0.9479
  312TMC3    H2 4751   2.703   2.725  12.894 -0.3314 -2.0771  0.7868
  312TMC3    C7 4752   2.921   2.802  12.991  0.6321  0.5825 -0.1740
  312TMC3    C8 4753   2.650   2.496  12.729 -0.0637  0.1989  0.4418
  312TMC3    O1 4754   2.861   2.910  12.982  0.2708 -0.5330 -0.2192
  312TMC3    O2 4755   2.649   2.421  12.635 -0.0461 -0.2380 -0.4123
  313MPD2     C 4756   3.111   1.659  10.109 -0.1759  0.3866  0.5426
  313MPD2    C1 4757   2.985   1.706  10.099  0.1671  0.6625  1.3398
  313MPD2    C2 4758   2.904   1.642  10.008  0.2851  0.4653  0.2658
  313MPD2    C3 4759   2.948   1.544   9.917  0.3035  0.0700 -0.0042
  313MPD2    C4 4760   3.079   1.519   9.919 -0.0132 -0.3241  0.8064
  313MPD2    C5 4761   3.163   1.573  10.018  0.2863  0.0268  0.0979
  313MPD2     H 4762   2.799   1.667  10.007  0.2590  0.2859 -1.4539
  313MPD2    H1 4763   3.124   1.448   9.849 -0.2411  2.3539 -2.0882
  313MPD2    H2 4764   3.182   1.699  10.181  0.1745 -0.1930  0.5240
  313MPD2    H3 4765   3.262   1.530  10.022 -0.2454 -1.4796 -2.5734
  313MPD2     N 4766   2.856   1.482   9.837  0.7079 -0.0345  0.6761
  313MPD2    H5 4767   2.759   1.508   9.852  0.6848 -0.1636  0.7506
  313MPD2    N1 4768   2.928   1.802  10.186 -0.0716 -0.4429  0.1672
  313MPD2    H7 4769   2.828   1.820  10.185 -0.0396 -0.2564  0.4452
  314TMC3    C1 4770   2.917   1.926  10.394  0.0561 -0.5553  0.7093
  314TMC3    C2 4771   2.988   1.965  10.507 -0.1648  0.0991  0.0880
  314TMC3    C3 4772   2.914   2.035  10.600  0.0241  0.3198  0.2430
  314TMC3    C4 4773   2.788   1.949  10.380  0.1868 -0.0058 -0.4178
  314TMC3    C5 4774   2.715   2.000  10.489 -1.0021  0.3354  0.5461
  314TMC3    C6 4775   2.782   2.051  10.594  0.6122 -0.6351  0.2289
  314TMC3     C 4776   3.001   1.873  10.284  0.7799 -0.4854  0.1386
  314TMC3     O 4777   3.121   1.886  10.293 -0.9508  0.3099 -0.1900
  314TMC3     H 4778   3.096   1.963  10.514 -0.2612  0.3827  1.6467
  314TMC3    H1 4779   2.732   1.900  10.300 -2.4345  3.0663 -0.4664
  314TMC3    H2 4780   2.728   2.083  10.683  1.3817  1.1507  0.0388
  314TMC3    C7 4781   2.570   2.035  10.474 -0.3417  0.4422  0.0112
  314TMC3    C8 4782   2.966   2.089  10.724  1.8462 -0.5892  0.0135
  314TMC3    O1 4783   2.507   2.059  10.578  0.0297 -0.6017  0.0789
  314TMC3    O2 4784   2.891   2.167  10.781  0.0706  0.4345  0.5721
  315MPD2     C 4785   2.291   1.025   0.454  0.1724 -0.1132  0.0606
  315MPD2    C1 4786   2.403   0.990   0.377 -0.2614 -0.6540 -0.4137
  315MPD2    C2 4787   2.444   1.071   0.269 -0.6060  0.5114 -0.3757
  315MPD2    C3 4788   2.383   1.186   0.238 -0.1073 -0.0662 -0.0062
  315MPD2    C4 4789   2.267   1.219   0.311  0.0149  0.0705 -0.1964
  315MPD2    C5 4790   2.222   1.135   0.416 -0.1689  0.3336 -0.7308
  315MPD2     H 4791   2.540   1.049   0.223 -0.1096  0.4465  0.6835
  315MPD2    H1 4792   2.202   1.302   0.287 -0.5731 -0.8043 -1.6692
  315MPD2    H2 4793   2.245   0.967   0.533  2.3019  1.6673  2.5796
  315MPD2    H3 4794   2.126   1.153   0.462 -0.1801  1.1524 -1.0719
  315MPD2     N 4795   2.428   1.268   0.133 -0.2106  0.2959  0.3647
  315MPD2    H5 4796   2.508   1.233   0.080  0.2440  0.8104  0.7049
  315MPD2    N1 4797   2.494   0.885   0.416 -0.1150 -0.7172 -0.3289
  315MPD2    H7 4798   2.582   0.880   0.366  2.1198  3.0911  3.2962
  316TMC3    C1 4799   2.456   1.466   0.002 -0.0610 -0.1789  0.3362
  316TMC3    C2 4800   2.487   1.598   0.021  0.3008 -0.1542  0.3156
  316TMC3    C3 4801   2.518   1.676  17.656  0.3802 -0.0916 -0.7157
  316TMC3    C4 4802   2.467   1.405  17.630 -0.3188  0.2908  0.1067
  316TMC3    C5 4803   2.523   1.479  17.523 -0.0773 -0.4044  0.7066
  316TMC3    C6 4804   2.540   1.614  17.530  0.4640  0.4082  0.2171
  316TMC3     C 4805   2.393   1.400   0.119 -0.7280  0.0827 -0.4053
  316TMC3     O 4806   2.328   1.472   0.192  0.4216  0.2680 -0.0094
  316TMC3     H 4807   2.451   1.646   0.112 -0.1024 -0.8762  0.5392
  316TMC3    H1 4808   2.444   1.299  17.634  2.3692 -0.3165 -0.4610
  316TMC3    H2 4809   2.551   1.677  17.443 -1.1342 -1.6880 -1.5012
  316TMC3    C7 4810   2.561   1.401  17.410  0.0623 -0.2845  0.5146
  316TMC3    C8 4811   2.623   1.770  17.701 -0.0457  0.1232 -0.2669
  316TMC3    O1 4812   2.597   1.288  17.436 -0.2206 -0.5301  0.1136
  316TMC3    O2 4813   2.642   1.880  17.649 -0.2939 -0.4026  0.2686
  317MPD2     C 4814   4.456   4.110  12.257 -0.2594 -0.3099  0.3955
  317MPD2    C1 4815   4.573   4.039  12.216  0.5996  0.4740  0.5159
  317MPD2    C2 4816   4.669   4.014  12.314  0.4959 -0.5657  0.8486
  317MPD2    C3 4817   4.655   4.063  12.441 -0.5575  0.5165  0.8698
  317MPD2    C4 4818   4.548   4.142  12.470 -0.0858  0.0346 -0.0300
  317MPD2    C5 4819   4.453   4.166  12.382  0.1587  0.3614 -0.4012
  317MPD2     H 4820   0.018   3.950  12.295 -0.8411 -2.0062 -0.3135
  317MPD2    H1 4821   4.537   4.211  12.553  2.8172  1.4629 -0.8673
  317MPD2    H2 4822   4.371   4.142  12.199  0.8086 -0.7907 -1.4288
  317MPD2    H3 4823   4.367   4.221  12.418  0.0073  1.3595 -2.2883
  317MPD2     N 4824   0.019   4.024  12.535  0.3675 -0.2266 -0.0588
  317MPD2    H5 4825   0.095   3.965  12.503 -0.5542 -1.2378 -0.3831
  317MPD2    N1 4826   4.583   3.981  12.089 -0.3548  0.6330  0.3122
  317MPD2    H7 4827   4.658   3.917  12.067 -1.7031 -0.6117 -0.6456
  318TMC3    C1 4828   0.153   4.009  12.714 -0.6491 -1.0136  0.1812
  318TMC3    C2 4829   0.179   3.885  12.683  0.8623 -0.1940 -0.9383
  318TMC3    C3 4830   0.285   3.825  12.736  0.6721  0.3647  0.1480
  318TMC3    C4 4831   0.229   4.083  12.804  0.3765 -0.0204 -0.8555
  318TMC3    C5 4832   0.327   4.009  12.868 -0.4560  0.5996 -0.1311
  318TMC3    C6 4833   0.370   3.882  12.830  0.1265 -1.6217  0.6553
  318TMC3     C 4834   0.041   4.076  12.655  0.5814  0.2861  0.6137
  318TMC3     O 4835   4.734   4.178  12.706  0.2698  0.4746  0.1428
  318TMC3     H 4836   0.105   3.828  12.629  2.2742 -3.6481  0.7912
  318TMC3    H1 4837   0.207   4.181  12.845 -0.4202 -0.5854  0.0477
  318TMC3    H2 4838   0.449   3.829  12.881 -0.0494 -0.9062  1.6732
  318TMC3    C7 4839   0.350   4.042  13.005  0.3246 -0.0057 -0.4566
  318TMC3    C8 4840   0.299   3.681  12.741 -0.2509  0.5570 -0.1817
  318TMC3    O1 4841   0.281   4.122  13.062 -0.5580  0.7113  0.0316
  318TMC3    O2 4842   0.408   3.629  12.762  0.3233 -0.3062 -0.1988
  319MPD2     C 4843   1.040   0.823  15.975 -0.0784  0.5354 -0.4384
  319MPD2    C1 4844   0.999   0.758  16.093  0.2039  0.0355  0.0915
  319MPD2    C2 4845   0.886   0.687  16.083  0.3050  0.0105 -0.3459
  319MPD2    C3 4846   0.803   0.688  15.966  0.8141  0.9922 -0.0860
  319MPD2    C4 4847   0.836   0.774  15.863  0.1108 -0.1845  1.1194
  319MPD2    C5 4848   0.954   0.851  15.870 -0.2830  0.7483  0.4373
  319MPD2     H 4849   0.854   0.621  16.162 -0.3939  0.0297 -0.6055
  319MPD2    H1 4850   0.782   0.774  15.769  0.6840  3.7232  0.7928
  319MPD2    H2 4851   1.134   0.876  15.967 -0.2681  0.8246 -0.7606
  319MPD2    H3 4852   0.988   0.909  15.785  0.6715  0.6332  0.7434
  319MPD2     N 4853   0.685   0.612  15.944  0.5551  0.0037  1.0211
  319MPD2    H5 4854   0.634   0.640  15.861 -0.2261 -0.6133  1.2928
  319MPD2    N1 4855   1.092   0.741  16.200 -0.0344 -0.6765  0.3944
  319MPD2    H7 4856   1.183   0.785  16.185  0.1167 -1.2346 -0.3205
  320TMC3    C1 4857   0.528   0.433  15.962  0.3181  0.0024  0.1024
  320TMC3    C2 4858   0.436   0.504  15.882  0.3440  0.1998  0.1384
  320TMC3    C3 4859   0.314   0.445  15.861 -0.2805  0.1179  0.2627
  320TMC3    C4 4860   0.508   0.308  16.011 -0.1837  0.0646 -0.6495
  320TMC3    C5 4861   0.377   0.260  15.994  0.3630 -0.1628  0.2675
  320TMC3    C6 4862   0.279   0.324  15.923  0.0985 -0.6241  0.1050
  320TMC3     C 4863   0.642   0.504  16.018 -0.8430  1.1025  0.3006
  320TMC3     O 4864   0.704   0.443  16.107 -0.2023  0.2538 -0.2711
  320TMC3     H 4865   0.465   0.602  15.845  1.2287 -0.4360 -0.8448
  320TMC3    H1 4866   0.584   0.254  16.066  1.1325  0.9548 -1.5976
  320TMC3    H2 4867   0.178   0.285  15.926 -0.0895 -0.0726  0.8115
  320TMC3    C7 4868   0.351   0.119  16.016 -0.1874 -0.2694 -0.1767
  320TMC3    C8 4869   0.204   0.535  15.821 -0.0717  0.3743 -0.1530
  320TMC3    O1 4870   0.261   0.062  15.954 -0.4151  0.3219  0.2385
  320TMC3    O2 4871   0.239   0.649  15.794  0.0317  0.1408  0.0996
  321TMC3    C1 4872   1.152   0.729  16.439  0.1465 -0.1035  0.8603
  321TMC3    C2 4873   1.282   0.732  16.396 -0.4749 -0.6562 -0.5707
  321TMC3    C3 4874   1.369   0.788  16.483 -0.2588 -0.8248  0.3721
  321TMC3    C4 4875   1.106   0.778  16.556  0.0290  0.5274  0.2087
  321TMC3    C5 4876   1.197   0.835  16.645  0.3156  0.2813 -0.6861
  321TMC3    C6 4877   1.326   0.848  16.601 -0.5198  0.4424 -0.4545
  321TMC3     C 4878   1.059   0.699  16.333 -0.3206  0.0798 -0.1787
  321TMC3     O 4879   0.946   0.678  16.381 -0.0354 -0.2878  0.0371
  321TMC3     H 4880   1.315   0.688  16.303 -1.5048 -0.4398 -1.0440
  321TMC3    H1 4881   1.004   0.763  16.592  0.0679 -0.6615 -0.1532
  321TMC3    H2 4882   1.396   0.886  16.674 -2.2083  3.7600 -0.5344
  321TMC3    C7 4883   1.193   0.785  16.779  1.1060 -0.1496 -0.1280
  321TMC3    C8 4884   1.477   0.701  16.514  0.0803 -0.7315  0.1082
  321TMC3    O1 4885   1.095   0.799  16.846 -0.0093 -0.6268  0.3276
  321TMC3    O2 4886   1.501   0.681  16.632  0.0076  0.2755 -0.3299
  322MPD2     C 4887   4.228   1.969  13.572  0.5019  0.7151  0.1933
  322MPD2    C1 4888   4.272   1.907  13.689  0.0822  0.0828 -0.2130
  322MPD2    C2 4889   4.269   1.768  13.691  0.2170  0.5706  0.2682
  322MPD2    C3 4890   4.248   1.697  13.575 -0.0711  0.2574 -0.3263
  322MPD2    C4 4891   4.217   1.764  13.455 -0.1086  0.2471  0.1613
  322MPD2    C5 4892   4.209   1.898  13.459  0.5650  0.6230 -0.3293
  322MPD2     H 4893   4.290   1.719  13.786  1.4551 -1.1058 -0.8700
  322MPD2    H1 4894   4.196   1.714  13.361  0.2086 -0.6295  0.5641
  322MPD2    H2 4895   4.203   2.074  13.564  1.6164  1.0117  0.5936
  322MPD2    H3 4896   4.174   1.945  13.368  0.6845 -1.5804 -1.5269
  322MPD2     N 4897   4.264   1.554  13.573  0.1184 -1.2887  0.3069
  322MPD2    H5 4898   4.289   1.510  13.662  0.6848 -0.8639  0.3579
  322MPD2    N1 4899   4.312   1.985  13.799 -0.1644  0.6052  0.7570
  322MPD2    H7 4900   4.308   2.086  13.787 -0.2599  0.5037 -0.0785
  323TMC3    C1 4901   4.440   2.042  13.984 -0.0316 -0.2466  0.4842
  323TMC3    C2 4902   4.484   2.149  13.914  0.5892  0.0595  0.3125
  323TMC3    C3 4903   4.566   2.237  13.979  0.1990  0.3536 -0.0344
  323TMC3    C4 4904   4.493   1.998  14.109 -0.3046 -0.2891  0.3460
  323TMC3    C5 4905   4.564   2.101  14.177 -0.1892 -0.2902  0.1748
  323TMC3    C6 4906   4.605   2.220  14.113  1.0100 -0.4693 -0.8386
  323TMC3     C 4907   4.378   1.937  13.908  0.1993  0.0921  0.2595
  323TMC3     O 4908   4.397   1.822  13.944 -0.3761  0.2981  0.0925
  323TMC3     H 4909   4.444   2.181  13.818  1.3778  0.5297  0.1453
  323TMC3    H1 4910   4.457   1.910  14.161 -1.4588  0.3110  0.5656
  323TMC3    H2 4911   4.688   2.280  14.150 -0.1902  1.3999 -1.1644
  323TMC3    C7 4912   4.616   2.085  14.316  0.1941  0.3404 -0.1488
  323TMC3    C8 4913   4.683   2.260  13.894  0.5261 -0.2405  0.0473
  323TMC3    O1 4914   4.612   1.965  14.352  0.3324 -0.2572 -0.1426
  323TMC3    O2 4915   4.709   2.175  13.810 -0.1655 -0.3189 -0.1903
  324MPD2     C 4916   1.877   3.369  13.816 -0.7101  0.6242  0.1052
  324MPD2    C1 4917   1.820   3.374  13.941  0.6202  0.1725 -0.1060
  324MPD2    C2 4918   1.688   3.409  13.953 -0.6326  0.6213 -0.7387
  324MPD2    C3 4919   1.610   3.452  13.850  0.5238 -0.6235  0.1432
  324MPD2    C4 4920   1.661   3.444  13.721 -0.0637  0.0571 -0.1293
  324MPD2    C5 4921   1.793   3.413  13.712 -0.1593 -0.4690  0.1584
  324MPD2     H 4922   1.662   3.415  14.058  0.1755  2.3514 -0.6299
  324MPD2    H1 4923   1.616   3.472  13.626 -0.4673  0.5943  0.2182
  324MPD2    H2 4924   1.983   3.352  13.798 -0.4967  1.2562  0.8204
  324MPD2    H3 4925   1.844   3.414  13.616 -0.1947  0.2174  0.1458
  324MPD2     N 4926   1.482   3.499  13.885  0.1515  0.0996 -0.2972
  324MPD2    H5 4927   1.459   3.484  13.982  1.7353 -0.6664 -0.0462
  324MPD2    N1 4928   1.878   3.335  14.060  0.0165 -0.4730  0.5378
  324MPD2    H7 4929   1.820   3.334  14.143  0.9931 -1.6884  1.1874
  325TMC3    C1 4930   1.260   3.552  13.857 -0.2427 -0.7653  0.2221
  325TMC3    C2 4931   1.211   3.436  13.910 -0.1341 -0.4038 -0.1583
  325TMC3    C3 4932   1.078   3.415  13.893  0.3474 -0.3069 -0.5565
  325TMC3    C4 4933   1.175   3.645  13.796 -0.4826  0.0884  0.2316
  325TMC3    C5 4934   1.041   3.624  13.799 -0.8470 -0.1259  0.2081
  325TMC3    C6 4935   0.989   3.507  13.848 -0.2080  0.2160  0.5028
  325TMC3     C 4936   1.389   3.541  13.800  0.6336  0.6501  0.1185
  325TMC3     O 4937   1.388   3.531  13.676 -0.0371  0.6844 -0.0066
  325TMC3     H 4938   1.277   3.353  13.931 -0.4175 -0.9028 -1.2261
  325TMC3    H1 4939   1.209   3.736  13.748  0.2433 -0.1611  0.2754
  325TMC3    H2 4940   0.883   3.488  13.833  0.2184  0.0863 -2.4223
  325TMC3    C7 4941   0.949   3.731  13.747 -0.1787 -0.7423  0.0854
  325TMC3    C8 4942   1.027   3.286  13.935 -0.4160  0.7297  0.0579
  325TMC3    O1 4943   0.992   3.804  13.662 -0.0181  0.5501 -0.2724
  325TMC3    O2 4944   1.111   3.193  13.954 -0.1927  0.2980 -0.6798
  326MPD2     C 4945   2.207   0.202  10.743 -0.2600 -0.0443  0.5861
  326MPD2    C1 4946   2.255   0.152  10.625  0.0780  0.0814 -0.7000
  326MPD2    C2 4947   2.393   0.166  10.596  0.0050 -0.7752 -0.4482
  326MPD2    C3 4948   2.479   0.234  10.678 -0.0012 -0.1436 -0.4204
  326MPD2    C4 4949   2.425   0.290  10.791 -0.2195 -0.1804 -0.2428
  326MPD2    C5 4950   2.289   0.275  10.820 -0.3365 -0.6091  0.5485
  326MPD2     H 4951   2.426   0.114  10.507  1.1478  0.1488 -0.5692
  326MPD2    H1 4952   2.492   0.336  10.863  1.3887  0.6733 -2.3045
  326MPD2    H2 4953   2.102   0.188  10.766  0.2540  0.0916  3.0377
  326MPD2    H3 4954   2.253   0.316  10.913  2.4170  0.9437  0.9112
  326MPD2     N 4955   2.615   0.248  10.661  0.0562 -0.5854  0.0524
  326MPD2    H5 4956   2.667   0.315  10.717  0.0783 -0.1464 -0.4947
  326MPD2    N1 4957   2.169   0.070  10.543  0.8542 -0.6365 -0.1384
  326MPD2    H7 4958   2.205   0.041  10.453 -0.5610 -2.1374 -0.2246
  327TMC3    C1 4959   1.976   4.687  10.466 -0.4848 -0.0838  0.5116
  327TMC3    C2 4960   1.882   0.007  10.380  0.6244 -0.2788  0.3077
  327TMC3    C3 4961   1.861   4.685  10.259 -0.2423  0.0547  0.5551
  327TMC3    C4 4962   2.041   4.570  10.429  0.5934  1.3487  0.0778
  327TMC3    C5 4963   2.029   4.528  10.299 -0.9414 -0.3530  0.2523
  327TMC3    C6 4964   1.939   4.583  10.211  0.8740  0.4637  0.5088
  327TMC3     C 4965   2.036   0.043  10.561  0.9438 -0.0806 -0.3593
  327TMC3     O 4966   1.956   0.101  10.639 -0.2577  0.3106  0.2484
  327TMC3     H 4967   1.846   0.108  10.395  1.1612 -0.1311  0.6059
  327TMC3    H1 4968   2.115   4.532  10.498  0.7468  0.9846 -0.2926
  327TMC3    H2 4969   1.944   4.559  10.106  1.1555 -2.2757  1.1414
  327TMC3    C7 4970   2.155   4.477  10.236  0.1276 -0.0108 -0.3621
  327TMC3    C8 4971   1.796   0.025  10.155  0.5444  0.0748  0.0564
  327TMC3    O1 4972   2.165   4.509  10.119  0.3956  0.3303  0.6190
  327TMC3    O2 4973   1.844   0.139  10.140  0.0203  0.2282  0.0045
  328MPD2     C 4974   0.382   4.336  16.742  0.9132  0.1149 -0.1184
  328MPD2    C1 4975   0.268   4.258  16.760  0.0014  0.1235  0.4175
  328MPD2    C2 4976   0.169   4.249  16.670  0.3320 -0.4591 -0.1781
  328MPD2    C3 4977   0.176   4.338  16.559  0.6040  0.1994  0.0008
  328MPD2    C4 4978   0.296   4.412  16.535  0.3815 -0.9092 -0.7580
  328MPD2    C5 4979   0.395   4.410  16.627  0.5560 -0.0338 -0.0880
  328MPD2     H 4980   0.083   4.188  16.696  1.3411 -2.1392 -0.7937
  328MPD2    H1 4981   0.297   4.479  16.450  0.8935 -0.3594 -0.3243
  328MPD2    H2 4982   0.460   4.342  16.818  0.5944 -0.0864  0.2237
  328MPD2    H3 4983   0.490   4.461  16.620 -0.1607  1.3402  0.1676
  328MPD2     N 4984   0.078   4.339  16.458  0.8980 -0.4005 -0.5791
  328MPD2    H5 4985   0.088   4.406  16.382 -0.3422 -0.5511 -0.8697
  328MPD2    N1 4986   0.247   4.199  16.885 -0.4080 -0.0027 -0.4325
  328MPD2    H7 4987   0.333   4.188  16.938 -0.9752  0.8808  0.6680
  329TMC3    C1 4988   0.161   4.054  17.053  0.0351  0.0422  0.3514
  329TMC3    C2 4989   0.042   4.074  17.120 -0.2105  0.0149  0.2050
  329TMC3    C3 4990   4.687   3.974  17.142  0.2278 -0.4559 -0.1639
  329TMC3    C4 4991   0.196   3.923  17.028 -0.0929 -0.5836  0.3220
  329TMC3    C5 4992   0.097   3.827  17.049 -0.0218 -0.4086 -0.1197
  329TMC3    C6 4993   4.709   3.840  17.106 -0.2671  0.1295 -0.4251
  329TMC3     C 4994   0.135   4.138  16.939  0.4597 -0.2868 -0.2670
  329TMC3     O 4995   0.015   4.143  16.912  0.1859 -0.7932 -0.0953
  329TMC3     H 4996   0.022   4.179  17.137  2.0289  0.2753  1.3381
  329TMC3    H1 4997   0.290   3.905  16.978 -0.1302 -3.9938  1.4509
  329TMC3    H2 4998   4.631   3.766  17.119 -1.9716  2.1414  0.8145
  329TMC3    C7 4999   0.121   3.715  16.956  0.5120 -0.3561  0.6080
  329TMC3    C8 5000   4.549   4.018  17.147  0.4556 -0.5509  0.8128
  329TMC3    O1 5001   0.222   3.724  16.890 -0.0518  0.0027  0.2507
  329TMC3    O2 5002   4.463   3.955  17.083  0.1785 -0.4916  0.4652
  330TMC3    C1 5003   2.971   3.471   9.995 -0.3848 -0.1887 -0.5890
  330TMC3    C2 5004   2.910   3.387   9.904 -0.1649  0.0396  0.4519
  330TMC3    C3 5005   2.860   3.271   9.960 -0.0485 -0.1200  0.2200
  330TMC3    C4 5006   2.994   3.443  10.131  0.2014 -0.1085 -0.1826
  330TMC3    C5 5007   2.955   3.323  10.172 -0.0164  0.2807  0.5328
  330TMC3    C6 5008   2.886   3.236  10.091  0.1353  0.2799  0.1435
  330TMC3     C 5009   2.974   3.608   9.955 -0.4505  0.2457  0.4759
  330TMC3     O 5010   2.943   3.691  10.039 -0.0592 -0.2094 -0.0382
  330TMC3     H 5011   2.891   3.403   9.798 -1.4519  1.0783  0.8379
  330TMC3    H1 5012   3.034   3.515  10.201 -0.3438 -1.0591  1.0916
  330TMC3    H2 5013   2.858   3.133  10.114  1.2925 -0.6200 -2.5266
  330TMC3    C7 5014   2.958   3.306  10.315  0.0102  0.0164 -0.4915
  330TMC3    C8 5015   2.809   3.174   9.859  0.1715 -0.7019 -0.0753
  330TMC3    O1 5016   3.044   3.371  10.380 -0.3249  0.1934  0.3700
  330TMC3    O2 5017   2.856   3.193   9.742  0.6301  0.6399  0.2551
  331MPD2     C 5018   0.793   2.632  12.691 -0.0537 -0.1586 -0.1061
  331MPD2    C1 5019   0.829   2.648  12.564  0.4823 -0.6336  0.4825
  331MPD2    C2 5020   0.826   2.538  12.485  0.0975  0.3513 -0.1006
  331MPD2    C3 5021   0.788   2.413  12.536 -0.2486  0.0785 -0.1960
  331MPD2    C4 5022   0.743   2.407  12.669 -0.9525 -0.0980 -0.0305
  331MPD2    C5 5023   0.750   2.514  12.745  0.4281  0.3740  0.1980
  331MPD2     H 5024   0.857   2.531  12.382 -1.3974  0.6224 -0.5699
  331MPD2    H1 5025   0.700   2.316  12.710  2.1031 -0.4944  2.3335
  331MPD2    H2 5026   0.785   2.717  12.758 -0.5312 -1.9505  2.1025
  331MPD2    H3 5027   0.712   2.516  12.846 -1.6809  0.5897 -0.6111
  331MPD2     N 5028   0.805   2.292  12.461  0.4598  0.0191 -0.0888
  331MPD2    H5 5029   0.837   2.303  12.366 -0.5426 -0.9661 -0.5310
  331MPD2    N1 5030   0.861   2.773  12.510  0.0801  0.0651 -0.1910
  331MPD2    H7 5031   0.840   2.850  12.573  1.9406  1.1971 -0.9572
  332TMC3    C1 5032   0.834   2.062  12.403  0.0306 -0.3989 -0.1778
  332TMC3    C2 5033   0.848   2.101  12.272 -0.4251 -0.9453 -0.1981
  332TMC3    C3 5034   0.950   2.039  12.207 -0.1628  0.8273 -0.2974
  332TMC3    C4 5035   0.901   1.957  12.461  0.6489 -0.0808  0.2333
  332TMC3    C5 5036   1.014   1.907  12.393  0.1309  0.0794  0.2167
  332TMC3    C6 5037   1.044   1.950  12.269  0.4140 -0.0029 -0.2285
  332TMC3     C 5038   0.794   2.165  12.503 -0.0959  0.6063  0.3580
  332TMC3     O 5039   0.764   2.119  12.612  0.1342 -0.3358 -0.3746
  332TMC3     H 5040   0.785   2.182  12.238 -0.9480  0.0137  3.1186
  332TMC3    H1 5041   0.894   1.939  12.568  2.5661 -1.2783  0.1694
  332TMC3    H2 5042   1.120   1.894  12.215  1.0814  1.9564 -1.3034
  332TMC3    C7 5043   1.106   1.821  12.470  0.6379 -0.1475 -0.2468
  332TMC3    C8 5044   0.976   2.089  12.074 -0.5687  0.1785  0.0432
  332TMC3    O1 5045   1.065   1.771  12.574 -0.5588  0.0721  0.2571
  332TMC3    O2 5046   1.092   2.082  12.036 -0.1857 -0.3053  0.2435
  333MPD2     C 5047   0.590   2.377  10.813  0.1064 -0.1341  1.0781
  333MPD2    C1 5048   0.722   2.337  10.829  0.0707  0.0651 -0.1417
  333MPD2    C2 5049   0.773   2.287  10.951 -0.3592  0.1547  0.0524
  333MPD2    C3 5050   0.686   2.256  11.056 -0.6362 -0.8246 -0.0442
  333MPD2    C4 5051   0.554   2.281  11.034 -0.2208  0.2800 -0.2971
  333MPD2    C5 5052   0.513   2.350  10.922 -0.2558  0.5130 -0.5396
  333MPD2     H 5053   0.879   2.275  10.968 -0.2037 -1.8845 -2.3092
  333MPD2    H1 5054   0.473   2.259  11.103 -0.7372 -1.0562 -1.3198
  333MPD2    H2 5055   0.544   2.421  10.725  0.2053 -0.6540  0.7688
  333MPD2    H3 5056   0.411   2.386  10.925  0.5358  2.6367  0.3614
  333MPD2     N 5057   0.739   2.193  11.170  0.5349 -0.3269  0.3486
  333MPD2    H5 5058   0.840   2.183  11.174  0.6401  0.5572 -0.1763
  333MPD2    N1 5059   0.810   2.385  10.725 -0.1367 -0.1727  0.8791
  333MPD2    H7 5060   0.775   2.443  10.649  1.4057 -0.5985 -0.1567
  334TMC3    C1 5061   1.012   2.406  10.603  0.3325 -0.1794  0.2922
  334TMC3    C2 5062   1.130   2.349  10.577  0.4261  1.3676  0.5715
  334TMC3    C3 5063   1.223   2.422  10.516 -0.5675 -0.0543  0.7323
  334TMC3    C4 5064   0.981   2.541  10.578  0.1581  0.4582  0.1163
  334TMC3    C5 5065   1.082   2.617  10.506  0.3835  0.0863 -0.7705
  334TMC3    C6 5066   1.197   2.554  10.478  0.2313  0.3380 -0.1761
  334TMC3     C 5067   0.937   2.328  10.704  0.0824  1.0069 -0.5109
  334TMC3     O 5068   0.992   2.232  10.760  0.0812 -0.0357  0.2409
  334TMC3     H 5069   1.146   2.243  10.595 -0.5938  1.2565  0.8654
  334TMC3    H1 5070   0.894   2.593  10.617  1.0691  0.7526  1.7416
  334TMC3    H2 5071   1.275   2.599  10.419  2.8403 -1.2524  2.0369
  334TMC3    C7 5072   1.102   2.759  10.516  0.6497  0.3199  0.5639
  334TMC3    C8 5073   1.341   2.354  10.469  0.3612 -0.2232  0.3551
  334TMC3    O1 5074   1.215   2.805  10.508  0.1176 -0.0576 -0.6321
  334TMC3    O2 5075   1.346   2.234  10.468 -0.5712 -0.1186 -0.1138
  335TMC3    C1 5076   1.097   4.037  17.339 -0.6225 -0.3812 -0.1756
  335TMC3    C2 5077   1.030   4.017  17.219 -0.3179  0.1202  0.5499
  335TMC3    C3 5078   1.100   4.037  17.102 -0.2714  0.3652  0.0541
  335TMC3    C4 5079   1.234   4.062  17.343  0.0879  0.1167 -0.2440
  335TMC3    C5 5080   1.298   4.077  17.219 -0.1019  0.9354  0.0146
  335TMC3    C6 5081   1.230   4.063  17.099  0.5124 -0.1711  0.2502
  335TMC3     C 5082   1.022   4.084  17.446 -0.2548 -0.3461  0.2417
  335TMC3     O 5083   1.066   4.180  17.511  0.0311  0.0038  0.4700
  335TMC3     H 5084   0.924   3.998  17.220 -0.6015  1.6312  0.0554
  335TMC3    H1 5085   1.290   4.112  17.421 -0.6088 -1.5632  1.3301
  335TMC3    H2 5086   1.277   4.082  17.003  0.8527  0.7921  0.6069
  335TMC3    C7 5087   1.438   4.068  17.205  0.2178 -0.1475  0.7179
  335TMC3    C8 5088   1.044   3.992  16.975 -0.4987  0.1208 -0.2843
  335TMC3    O1 5089   1.481   4.067  17.092  0.2294  0.3751 -0.2102
  335TMC3    O2 5090   1.097   4.039  16.875  0.4645  0.7232  0.0998
  336MPD2     C 5091   0.209   2.004  16.354 -0.5128  0.3155  0.2946
  336MPD2    C1 5092   0.272   1.982  16.234 -0.0856  0.2402  0.1847
  336MPD2    C2 5093   0.355   1.865  16.224 -0.2982  0.0818 -0.2445
  336MPD2    C3 5094   0.364   1.782  16.329  0.2349  0.2961 -0.4064
  336MPD2    C4 5095   0.295   1.809  16.448 -0.1289  1.1498  0.5062
  336MPD2    C5 5096   0.211   1.915  16.461 -1.0728 -0.3285 -0.9766
  336MPD2     H 5097   0.406   1.846  16.129 -0.7619  0.9764 -0.6707
  336MPD2    H1 5098   0.307   1.746  16.535  1.6325 -1.4813 -1.6371
  336MPD2    H2 5099   0.150   2.095  16.364 -0.1482  0.2520  2.9878
  336MPD2    H3 5100   0.155   1.939  16.550  2.0115  0.1794  0.8564
  336MPD2     N 5101   0.451   1.676  16.329 -0.2469  1.0340  0.4810
  336MPD2    H5 5102   0.444   1.616  16.411 -2.1602 -1.5998 -1.6056
  336MPD2    N1 5103   0.254   2.055  16.113  0.3108 -0.2933 -0.0741
  336MPD2    H7 5104   0.306   2.025  16.031  1.2801  0.7351  0.1767
  337TMC3    C1 5105   0.153   2.204  15.955  0.0005  0.0036 -0.8708
  337TMC3    C2 5106   0.025   2.230  15.908  0.5095 -0.1795  0.6628
  337TMC3    C3 5107   0.021   2.235  15.772  0.1845 -0.8915 -0.0143
  337TMC3    C4 5108   0.267   2.198  15.879  1.1121 -0.0453 -0.2907
  337TMC3    C5 5109   0.256   2.214  15.745 -0.1157  0.6377 -0.0101
  337TMC3    C6 5110   0.128   2.228  15.685 -0.5490  0.3131  0.4334
  337TMC3     C 5111   0.167   2.166  16.101 -0.5334  0.0003  0.1392
  337TMC3     O 5112   0.078   2.206  16.175 -0.1110  0.2345 -0.2248
  337TMC3     H 5113   4.676   2.236  15.974  0.0449 -1.3030  0.1615
  337TMC3    H1 5114   0.361   2.199  15.933 -0.5537  0.2049  2.6047
  337TMC3    H2 5115   0.122   2.251  15.579  0.5500 -0.0671  0.2908
  337TMC3    C7 5116   0.365   2.194  15.649 -0.2340  0.6942  0.8677
  337TMC3    C8 5117   4.623   2.248  15.716 -0.4279 -0.4309  0.7108
  337TMC3    O1 5118   0.359   2.257  15.543 -0.2409  0.0214  0.0149
  337TMC3    O2 5119   4.526   2.293  15.779  0.7058  0.7181  0.0786
  338MPD2     C 5120   0.303   1.525   0.691  0.5241 -0.9588 -0.0310
  338MPD2    C1 5121   0.312   1.521   0.552 -0.4925 -0.1257 -0.5177
  338MPD2    C2 5122   0.222   1.589   0.473 -0.1023 -0.3805 -0.5493
  338MPD2    C3 5123   0.128   1.675   0.536  0.0159 -0.3317 -0.3458
  338MPD2    C4 5124   0.116   1.680   0.671 -0.7456  0.0627  0.8390
  338MPD2    C5 5125   0.206   1.609   0.747  0.0461  0.1011  0.4762
  338MPD2     H 5126   0.222   1.585   0.365 -1.6220  2.0681 -0.6410
  338MPD2    H1 5127   0.040   1.733   0.727 -0.4633  0.1995  1.0920
  338MPD2    H2 5128   0.381   1.474   0.745  1.0915 -1.0576 -0.9591
  338MPD2    H3 5129   0.206   1.616   0.855 -1.7896 -0.8564  0.5413
  338MPD2     N 5130   0.034   1.741   0.451  0.3032 -0.1580  0.5139
  338MPD2    H5 5131   0.058   1.742   0.353 -2.6027  2.0006 -0.1704
  338MPD2    N1 5132   0.399   1.448   0.470  0.6019 -1.1021 -0.0847
  338MPD2    H7 5133   0.388   1.447   0.369  1.6203 -0.5995 -0.2049
  339TMC3    C1 5134   4.550   1.769   0.376  0.3129 -0.1503 -0.1544
  339TMC3    C2 5135   4.560   1.640   0.331  0.3207 -0.1784 -0.8784
  339TMC3    C3 5136   4.568   1.609   0.201  0.1377  0.1105  0.5377
  339TMC3    C4 5137   4.575   1.868   0.287  0.1622  0.0061  0.3829
  339TMC3    C5 5138   4.595   1.839   0.159  0.0112  0.2544 -0.4778
  339TMC3    C6 5139   4.566   1.715   0.110 -0.3722  0.3576 -0.3470
  339TMC3     C 5140   4.643   1.774   0.490 -0.2019 -0.7135  0.5427
  339TMC3     O 5141   4.580   1.762   0.596  0.0076  0.4696  0.2678
  339TMC3     H 5142   4.550   1.566   0.409 -0.8729 -0.5464 -1.3721
  339TMC3    H1 5143   4.596   1.968   0.325  1.1754  0.0167 -0.2292
  339TMC3    H2 5144   4.589   1.690   0.007 -0.1723  2.7541 -0.9038
  339TMC3    C7 5145   4.657   1.943   0.078 -0.7621 -0.2074  0.2476
  339TMC3    C8 5146   4.645   1.496   0.161 -0.0415  0.1789  0.3685
  339TMC3    O1 5147   4.649   2.056   0.121  0.2851  0.4490 -0.0223
  339TMC3    O2 5148   4.673   1.478   0.040  0.2053  0.3480 -0.1127
  340MPD2     C 5149   1.338   3.395  10.621 -0.7587 -0.4721 -0.1553
  340MPD2    C1 5150   1.240   3.486  10.612 -0.2979 -0.7133  0.3248
  340MPD2    C2 5151   1.265   3.621  10.640 -0.1120  0.5046  0.8270
  340MPD2    C3 5152   1.395   3.657  10.676  0.0302 -0.0365 -0.3470
  340MPD2    C4 5153   1.490   3.561  10.680  0.1692  0.2913  0.2484
  340MPD2    C5 5154   1.468   3.432  10.648 -1.0103 -0.2671 -0.2292
  340MPD2     H 5155   1.178   3.686  10.638  1.6354  2.8832  1.7689
  340MPD2    H1 5156   1.588   3.590  10.714  0.6247 -3.2274  1.8793
  340MPD2    H2 5157   1.315   3.291  10.601 -1.1239 -0.6243  0.9974
  340MPD2    H3 5158   1.551   3.362  10.660  0.8429  2.2621  1.7481
  340MPD2     N 5159   1.436   3.785  10.710 -0.1738 -0.5469 -0.4979
  340MPD2    H5 5160   1.534   3.797  10.733 -0.3060 -1.1432  0.3567
  340MPD2    N1 5161   1.108   3.437  10.586 -0.7333 -0.2026  0.0390
  340MPD2    H7 5162   1.098   3.339  10.561 -1.6899  0.1729 -1.0567
  341TMC3    C1 5163   0.883   3.433  10.509 -0.5931 -0.1259 -0.4865
  341TMC3    C2 5164   0.899   3.315  10.442 -0.6578  0.2931  0.3869
  341TMC3    C3 5165   0.806   3.287  10.341  0.3516 -0.1793  0.0764
  341TMC3    C4 5166   0.775   3.517  10.486  0.0315 -0.2966  0.8431
  341TMC3    C5 5167   0.693   3.487  10.382  0.3997 -0.0790  0.2341
  341TMC3    C6 5168   0.701   3.366  10.316 -0.0451  0.2621  0.4389
  341TMC3     C 5169   0.995   3.508  10.559  0.0517  0.2480  0.0805
  341TMC3     O 5170   0.981   3.629  10.558 -0.2497 -0.1975 -0.2144
  341TMC3     H 5171   0.984   3.250  10.461 -1.6527 -0.6342  1.6520
  341TMC3    H1 5172   0.772   3.613  10.537  0.5427  0.5552 -0.7404
  341TMC3    H2 5173   0.648   3.348  10.224 -0.8379  1.9354  0.5897
  341TMC3    C7 5174   0.703   3.587  10.285  0.4278 -0.3651  0.8301
  341TMC3    C8 5175   0.808   3.161  10.270 -0.3411 -0.4703 -0.0869
  341TMC3    O1 5176   0.761   3.550  10.178  0.5831 -0.0162 -0.3106
  341TMC3    O2 5177   0.696   3.122  10.228  0.1283  0.6864 -0.1906
  342MPD2     C 5178   3.486   2.220  17.603  0.0676 -0.2853  0.6151
  342MPD2    C1 5179   3.510   2.243  17.468  0.0348 -0.0863  0.1057
  342MPD2    C2 5180   3.501   2.373  17.423 -0.1433  0.0220 -0.0468
  342MPD2    C3 5181   3.487   2.471  17.513  0.0873 -0.3433 -0.8195
  342MPD2    C4 5182   3.463   2.447  17.647  0.1714 -0.0050 -0.3053
  342MPD2    C5 5183   3.465   2.318  17.689  0.2402 -0.3875  0.2105
  342MPD2     H 5184   3.522   2.398  17.320 -1.1630  2.3022  0.2951
  342MPD2    H1 5185   3.426   2.522  17.716  2.4643  1.3494 -0.5489
  342MPD2    H2 5186   3.499   2.123  17.650 -0.2325 -1.2698 -1.3464
  342MPD2    H3 5187   3.444   2.303   0.049  1.5415  2.8042  0.9516
  342MPD2     N 5188   3.488   2.606  17.475 -0.7407 -0.2037  0.5406
  342MPD2    H5 5189   3.475   2.678  17.546  0.9060  0.6796 -0.0453
  342MPD2    N1 5190   3.528   2.135  17.374 -0.0182  0.2550  0.2660
  342MPD2    H7 5191   3.562   2.152  17.279  2.6228 -2.5529  0.7020
  343TMC3    C1 5192   3.520   1.917  17.294  0.3826  0.6534  1.0319
  343TMC3    C2 5193   3.618   1.954  17.201  0.2576 -0.2911  0.7526
  343TMC3    C3 5194   3.666   1.861  17.111  0.5279  0.0935 -0.4924
  343TMC3    C4 5195   3.473   1.790  17.289 -0.1657  0.1611 -0.2734
  343TMC3    C5 5196   3.505   1.714  17.182  0.1880  0.0198 -0.1098
  343TMC3    C6 5197   3.607   1.741  17.092 -0.1878  0.5430 -0.0530
  343TMC3     C 5198   3.493   2.008  17.401  0.0868  0.0811 -0.4427
  343TMC3     O 5199   3.415   1.975  17.492  0.1447  0.0938 -0.1440
  343TMC3     H 5200   3.668   2.049  17.210 -1.7011  0.6461  1.7595
  343TMC3    H1 5201   3.390   1.771  17.356  0.7542 -1.5703  0.3924
  343TMC3    H2 5202   3.637   1.664  17.022  0.7300 -0.7069  1.7295
  343TMC3    C7 5203   3.490   1.572  17.211 -0.0928  0.4589 -0.0116
  343TMC3    C8 5204   3.769   1.908  17.023 -0.0212 -0.0456  0.6278
  343TMC3    O1 5205   3.482   1.496  17.115 -0.3280  0.7418 -0.7474
  343TMC3    O2 5206   3.794   2.031  17.018 -0.4950  0.2010 -0.5613
  344MPD2     C 5207   0.295   1.348  10.348  0.0212 -0.3910  0.0211
  344MPD2    C1 5208   0.180   1.422  10.339  0.4571 -0.1479  1.1292
  344MPD2    C2 5209   0.168   1.531  10.253 -0.0994 -0.2869 -0.6335
  344MPD2    C3 5210   0.276   1.562  10.172 -0.1552 -0.1336  0.2805
  344MPD2    C4 5211   0.392   1.492  10.185  0.0345 -0.2104 -0.0049
  344MPD2    C5 5212   0.399   1.385  10.260  0.1722  0.3722  0.2722
  344MPD2     H 5213   0.071   1.579  10.254  0.7119  1.3493  1.5473
  344MPD2    H1 5214   0.469   1.515  10.112  1.2435  0.9704  1.6403
  344MPD2    H2 5215   0.302   1.247  10.386  1.4802 -0.2800  0.0405
  344MPD2    H3 5216   0.489   1.324  10.265 -0.0923  0.0845  1.4012
  344MPD2     N 5217   0.282   1.681  10.094 -0.2032  0.3340  0.9647
  344MPD2    H5 5218   0.373   1.699  10.054  0.1149 -0.2098  1.4597
  344MPD2    N1 5219   0.062   1.383  10.408 -0.4221  0.4197  1.0087
  344MPD2    H7 5220   4.711   1.419  10.372  0.0301 -1.7762 -2.2631
  345TMC3    C1 5221   0.205   1.883   9.993  0.0313  0.5096  0.0660
  345TMC3    C2 5222   0.328   1.944  10.011  0.5757 -0.2935  0.2990
  345TMC3    C3 5223   0.354   2.053   9.934 -0.2597 -0.2722 -0.4303
  345TMC3    C4 5224   0.108   1.935   9.909 -0.1952  0.3280  0.1593
  345TMC3    C5 5225   0.151   2.036   9.818  0.0142  0.1653  0.6701
  345TMC3    C6 5226   0.271   2.095   9.835  0.0704 -0.1566 -0.4450
  345TMC3     C 5227   0.170   1.759  10.061  0.2027 -0.2973  0.1733
  345TMC3     O 5228   0.055   1.725  10.064 -0.2484 -0.2234 -0.0465
  345TMC3     H 5229   0.378   1.915  10.103  0.6932  0.9338  0.6200
  345TMC3    H1 5230   0.005   1.902   9.903 -0.6510  2.1291 -1.6191
  345TMC3    H2 5231   0.309   2.162   9.759  0.6135 -0.8992 -0.8268
  345TMC3    C7 5232   0.054   2.130   9.777  0.1412  0.4299  0.0227
  345TMC3    C8 5233   0.428   2.158  10.004  0.4141  0.4353 -0.7144
  345TMC3    O1 5234   0.092   2.244   9.753  0.7095  0.4581  0.6679
  345TMC3    O2 5235   0.523   2.138  10.077  0.1679  0.1859  1.2693
  346MPD2     C 5236   0.325   3.191  13.706 -0.4188 -0.4750 -0.2966
  346MPD2    C1 5237   0.270   3.298  13.639  0.0182  0.3967  0.4306
  346MPD2    C2 5238   0.205   3.396  13.713 -0.7579 -0.1170  0.2000
  346MPD2    C3 5239   0.196   3.385  13.852  0.2424  0.3610 -0.6919
  346MPD2    C4 5240   0.237   3.265  13.917  0.2714  0.2318 -0.0536
  346MPD2    C5 5241   0.301   3.168  13.841  0.6796 -0.0721 -0.2485
  346MPD2     H 5242   0.180   3.492  13.669 -1.0210  0.3855  1.4506
  346MPD2    H1 5243   0.233   3.243  14.023  1.1359 -2.7327 -0.6470
  346MPD2    H2 5244   0.385   3.117  13.655  0.0309  0.1440 -0.6639
  346MPD2    H3 5245   0.342   3.079  13.888 -0.3929  0.8407  2.4290
  346MPD2     N 5246   0.155   3.501  13.927  0.4223 -0.0387 -0.1821
  346MPD2    H5 5247   0.160   3.589  13.878  1.6552 -0.5484 -0.9854
  346MPD2    N1 5248   0.303   3.324  13.507  0.5209 -0.1329  0.0145
  346MPD2    H7 5249   0.249   3.395  13.458 -0.7619 -0.5951  0.7615
  347TMC3    C1 5250   0.155   3.639  14.127  0.8074 -0.5249 -0.2015
  347TMC3    C2 5251   0.236   3.726  14.063  0.0378  0.3054 -0.0303
  347TMC3    C3 5252   0.309   3.818  14.137  0.1641  0.7670 -0.2954
  347TMC3    C4 5253   0.162   3.631  14.266 -0.1476 -0.4349 -0.0912
  347TMC3    C5 5254   0.237   3.717  14.333 -0.4093  0.2270 -0.3501
  347TMC3    C6 5255   0.314   3.816  14.271 -0.0541 -0.1749 -0.4145
  347TMC3     C 5256   0.144   3.503  14.068 -0.0133 -0.4636  0.2199
  347TMC3     O 5257   0.127   3.411  14.142 -0.3911  0.3132  1.1695
  347TMC3     H 5258   0.257   3.709  13.958  1.4995 -0.5789  0.4023
  347TMC3    H1 5259   0.095   3.566  14.319  1.6664 -0.0658  2.6572
  347TMC3    H2 5260   0.366   3.896  14.324  1.7326 -0.2041 -2.1592
  347TMC3    C7 5261   0.222   3.708  14.476  0.1565 -0.4230  0.5180
  347TMC3    C8 5262   0.430   3.854  14.075 -0.0653  0.8759  0.0956
  347TMC3    O1 5263   0.121   3.652  14.515  0.6430 -0.2708 -0.0497
  347TMC3    O2 5264   0.530   3.844  14.139 -0.0919  0.1182  0.0397
  348MPD2     C 5265   3.282   3.045  11.965 -0.0315 -0.5348 -0.3945
  348MPD2    C1 5266   3.370   3.143  11.927 -0.1283  0.7471 -0.1501
  348MPD2    C2 5267   3.324   3.237  11.834 -0.1573  0.8557  0.0710
  348MPD2    C3 5268   3.201   3.246  11.780  0.4105 -0.5007 -0.5764
  348MPD2    C4 5269   3.115   3.137  11.810  0.2698 -0.1536 -0.3895
  348MPD2    C5 5270   3.156   3.040  11.904 -0.1725 -0.5016  0.3657
  348MPD2     H 5271   3.389   3.323  11.821  0.2946  0.6190  0.7445
  348MPD2    H1 5272   3.020   3.116  11.763 -0.2215  0.6767  0.2342
  348MPD2    H2 5273   3.323   2.966  12.027  1.2411 -1.2380 -2.1229
  348MPD2    H3 5274   3.096   2.949  11.908  1.5111 -1.6407  0.0300
  348MPD2     N 5275   3.180   3.337  11.676 -0.3730 -0.5297  0.2070
  348MPD2    H5 5276   3.260   3.390  11.644 -0.6581  1.7313  3.3358
  348MPD2    N1 5277   3.502   3.145  11.969  0.1066  0.2807 -0.6170
  348MPD2    H7 5278   3.567   3.202  11.916  0.3284  1.2792  0.7435
  349TMC3    C1 5279   3.706   3.046  12.021  0.5341 -0.0737  0.3514
  349TMC3    C2 5280   3.767   2.933  12.076 -0.7293 -0.1036 -0.0298
  349TMC3    C3 5281   3.831   2.835  12.001 -0.1093 -0.1980  0.0321
  349TMC3    C4 5282   3.743   3.073  11.889  0.3899 -0.1809 -0.5906
  349TMC3    C5 5283   3.813   2.978  11.817 -0.2751 -0.0384 -0.9515
  349TMC3    C6 5284   3.842   2.852  11.869  0.6736  0.3266 -0.5141
  349TMC3     C 5285   3.565   3.048  12.051 -0.0926 -0.8651 -0.7172
  349TMC3     O 5286   3.512   2.974  12.130  0.1190  0.3980  0.0433
  349TMC3     H 5287   3.740   2.908  12.178  0.3953  1.9589  0.7720
  349TMC3    H1 5288   3.700   3.157  11.836  1.5602  0.9958  0.3331
  349TMC3    H2 5289   3.885   2.784  11.796  0.3767 -2.4661  1.9492
  349TMC3    C7 5290   3.768   2.980  11.677  0.2312  0.5653  0.1453
  349TMC3    C8 5291   3.830   2.699  12.053  0.2816  0.1568  0.1931
  349TMC3    O1 5292   3.716   2.878  11.624 -0.5742 -0.5110 -0.3453
  349TMC3    O2 5293   3.783   2.685  12.161  0.8449  0.2867  0.2521
  350MPD2     C 5294   1.984   1.388   9.741 -0.1335  0.7517  0.1924
  350MPD2    C1 5295   2.043   1.281   9.788  0.4091  0.3880  0.2749
  350MPD2    C2 5296   2.180   1.275   9.776  0.1765 -0.4521  0.2243
  350MPD2    C3 5297   2.247   1.375   9.706  0.7463 -0.4543  0.2345
  350MPD2    C4 5298   2.188   1.490   9.663  0.4941 -0.0707  1.0929
  350MPD2    C5 5299   2.051   1.495   9.691 -0.9342 -0.1343  0.0518
  350MPD2     H 5300   2.244   1.198   9.817  0.7105 -1.4739 -2.5957
  350MPD2    H1 5301   2.241   1.564   9.604 -2.7987  1.2671 -0.1745
  350MPD2    H2 5302   1.876   1.391   9.731 -0.0887  0.1288 -0.4430
  350MPD2    H3 5303   1.992   1.583   9.670 -0.5972 -0.5972 -2.8507
  350MPD2     N 5304   2.378   1.338   9.667 -0.0950  0.7482  0.3653
  350MPD2    H5 5305   2.413   1.245   9.688  1.8864  1.2211 -0.7676
  350MPD2    N1 5306   1.967   1.165   9.830  0.3017 -0.1361 -0.0124
  350MPD2    H7 5307   1.867   1.165   9.819  0.2261  0.7146  0.6521
  351TMC3    C1 5308   1.975   0.928   9.820  0.0751 -0.1921 -0.3461
  351TMC3    C2 5309   2.051   0.815   9.831 -1.0764  0.2839  0.5158
  351TMC3    C3 5310   2.013   0.702   9.753  0.1348 -0.7304 -0.3809
  351TMC3    C4 5311   1.870   0.939   9.732 -0.6083 -0.7545 -0.5831
  351TMC3    C5 5312   1.840   0.824   9.659  0.3145  0.4564 -0.8548
  351TMC3    C6 5313   1.912   0.707   9.660 -0.6058 -0.4906 -0.7514
  351TMC3     C 5314   2.032   1.052   9.877 -0.2629  0.2654  0.4824
  351TMC3     O 5315   2.140   1.039   9.928 -0.1962  0.0469  0.6136
  351TMC3     H 5316   2.133   0.803   9.899  1.2623 -0.2723 -2.4044
  351TMC3    H1 5317   1.809   1.028   9.724 -0.0924 -0.2742  0.8861
  351TMC3    H2 5318   1.893   0.616   9.604  0.7385 -0.4968 -1.1973
  351TMC3    C7 5319   1.707   0.828   9.597  1.4963  0.2876  0.1190
  351TMC3    C8 5320   2.108   0.598   9.724 -0.6007  1.1611 -0.1071
  351TMC3    O1 5321   1.669   0.942   9.566 -0.1533  0.5635  0.1359
  351TMC3    O2 5322   2.096   0.526   9.628 -0.3188 -0.7385 -0.2811
  352MPD2     C 5323   1.253   3.748   0.276  0.5199  0.3548 -0.9164
  352MPD2    C1 5324   1.185   3.629   0.290 -0.2167 -0.0725 -1.2899
  352MPD2    C2 5325   1.237   3.521   0.227 -0.0774 -0.0783  0.2147
  352MPD2    C3 5326   1.352   3.524   0.148  0.3987 -0.3432 -0.5290
  352MPD2    C4 5327   1.415   3.648   0.136  0.2569 -0.0927 -0.9364
  352MPD2    C5 5328   1.358   3.765   0.195  0.2822  0.1246  0.2856
  352MPD2     H 5329   1.208   3.419   0.251 -1.2896  0.9005  2.9425
  352MPD2    H1 5330   1.511   3.653   0.085  1.7996 -0.0621  1.9896
  352MPD2    H2 5331   1.218   3.832   0.334  1.6177 -0.7154  1.3033
  352MPD2    H3 5332   1.399   3.864   0.178  0.0209  0.3834  1.1739
  352MPD2     N 5333   1.394   3.411   0.073  0.0113 -0.6460  0.0411
  352MPD2    H5 5334   1.483   3.416   0.025  0.2200  1.0560  0.5961
  352MPD2    N1 5335   1.076   3.621   0.374 -0.8056 -0.3113 -0.3913
  352MPD2    H7 5336   1.056   3.707   0.424 -1.7385 -2.9731  3.7652
  353TMC3    C1 5337   1.350   3.225  17.669  0.4707  0.3073  0.7331
  353TMC3    C2 5338   1.478   3.175  17.669  0.2262 -0.3479  0.4938
  353TMC3    C3 5339   1.496   3.043  17.638 -0.2963  0.3255 -0.0228
  353TMC3    C4 5340   1.250   3.144  17.636 -0.8661 -0.6350  0.0997
  353TMC3    C5 5341   1.264   3.009  17.651  0.2212 -0.1697  0.3362
  353TMC3    C6 5342   1.389   2.956  17.641 -0.2938  0.9703 -0.9681
  353TMC3     C 5343   1.305   3.314   0.029  0.2221 -0.7408 -0.1701
  353TMC3     O 5344   1.189   3.290   0.059  0.0406  0.2117  0.1482
  353TMC3     H 5345   1.566   3.231  17.700  0.9780 -1.3597  0.2232
  353TMC3    H1 5346   1.148   3.179  17.622 -1.8197 -2.2882  2.8490
  353TMC3    H2 5347   1.394   2.849  17.651  0.3340  0.8551 -2.4418
  353TMC3    C7 5348   1.163   2.928  17.721 -0.8351  0.1728  0.0628
  353TMC3    C8 5349   1.631   2.997  17.642 -0.1804  0.1569 -0.0989
  353TMC3    O1 5350   1.185   2.811  17.743  0.2100 -0.5147  0.8033
  353TMC3    O2 5351   1.726   3.073  17.664  0.1492 -0.0955  0.5860
  354TMC3    C1 5352   2.472   4.425  12.359  0.0751 -0.9364 -0.5970
  354TMC3    C2 5353   2.424   4.538  12.296  1.1493 -0.3193  0.6236
  354TMC3    C3 5354   2.507   4.608  12.212  0.1471  0.1432 -0.7216
  354TMC3    C4 5355   2.602   4.377  12.343 -0.2458 -0.0739 -0.3172
  354TMC3    C5 5356   2.687   4.458  12.268  0.0204  0.3291 -0.0648
  354TMC3    C6 5357   2.639   4.573  12.212 -0.8531  0.7765  0.0336
  354TMC3     C 5358   2.402   4.362  12.472  0.4124  0.9882  0.9742
  354TMC3     O 5359   2.470   4.298  12.551 -0.6387  0.4148 -0.0664
  354TMC3     H 5360   2.324   4.575  12.309  0.9825 -1.1204  1.6647
  354TMC3    H1 5361   2.622   4.284  12.396 -1.8837 -0.1831  0.1322
  354TMC3    H2 5362   2.713   4.634  12.161 -0.4460 -0.9807 -1.4739
  354TMC3    C7 5363   2.821   4.472  12.329  0.0388 -0.4498 -0.3280
  354TMC3    C8 5364   2.492   0.018  12.216  0.4536  0.5810 -0.0387
  354TMC3    O1 5365   2.897   4.523  12.250 -0.0308  0.3290 -0.4464
  354TMC3    O2 5366   2.540   0.071  12.123 -0.1634  0.0563 -0.2710
  355MPD2     C 5367   2.387   1.306  10.880 -0.8144  0.1867 -0.6905
  355MPD2    C1 5368   2.514   1.276  10.830 -0.0414 -0.4050 -0.6306
  355MPD2    C2 5369   2.609   1.216  10.915 -0.4537  0.1448  0.7145
  355MPD2    C3 5370   2.579   1.189  11.052 -0.4396 -0.3126 -0.4491
  355MPD2    C4 5371   2.449   1.231  11.102  0.1113 -0.5114  0.1659
  355MPD2    C5 5372   2.352   1.273  11.013  0.1554 -0.4518 -0.4144
  355MPD2     H 5373   2.709   1.199  10.876 -0.9799 -1.7056  0.1644
  355MPD2    H1 5374   2.424   1.215  11.206 -1.8011 -2.7677 -0.6371
  355MPD2    H2 5375   2.316   1.344  10.807 -2.1211 -1.3249 -0.2001
  355MPD2    H3 5376   2.249   1.294  11.040  0.3489  2.5778 -1.9370
  355MPD2     N 5377   2.677   1.149  11.147 -0.2236  0.5774  0.0046
  355MPD2    H5 5378   2.659   1.156  11.247  0.5783  0.7840  0.1310
  355MPD2    N1 5379   2.550   1.303  10.697 -0.3051  0.4282 -0.1703
  355MPD2    H7 5380   2.472   1.301  10.632 -0.6051  0.9993  0.1656
  356TMC3    C1 5381   2.891   1.100  11.224  0.2634 -0.1142  0.5982
  356TMC3    C2 5382   3.006   1.037  11.188  0.3690 -0.3108  0.8672
  356TMC3    C3 5383   3.107   1.035  11.270  0.0911  0.2226 -0.1251
  356TMC3    C4 5384   2.873   1.167  11.341 -0.4587 -0.1644  0.3204
  356TMC3    C5 5385   2.991   1.165  11.421  0.0538 -0.0774 -0.6840
  356TMC3    C6 5386   3.112   1.112  11.382  0.6815  0.2623 -0.3071
  356TMC3     C 5387   2.804   1.117  11.110 -0.3737  0.2897 -0.5331
  356TMC3     O 5388   2.840   1.088  10.998 -0.0388 -0.1705  0.2121
  356TMC3     H 5389   3.026   0.997  11.089  0.9087  2.0256  0.0463
  356TMC3    H1 5390   2.784   1.221  11.371 -1.6690 -1.9597 -0.0395
  356TMC3    H2 5391   3.192   1.102  11.454  1.1750  0.9495 -0.7585
  356TMC3    C7 5392   2.962   1.159  11.569 -0.0805 -0.6577  0.5855
  356TMC3    C8 5393   3.228   0.976  11.230  0.2865  0.5325  0.1399
  356TMC3    O1 5394   2.845   1.154  11.604 -0.2137  0.6393  0.6878
  356TMC3    O2 5395   3.213   0.873  11.165  0.2778  0.1274  0.4545
  357MPD2     C 5396   3.240   0.286   1.049 -0.3469 -0.1364  0.2429
  357MPD2    C1 5397   3.373   0.266   1.068  0.8589  0.5911 -0.1474
  357MPD2    C2 5398   3.444   0.335   1.166 -0.8675  0.9780 -0.4405
  357MPD2    C3 5399   3.378   0.430   1.244 -0.7291  0.3696  0.3309
  357MPD2    C4 5400   3.243   0.448   1.236 -0.1201  0.1775 -0.5608
  357MPD2    C5 5401   3.173   0.378   1.133 -0.7952  0.0892  0.3609
  357MPD2     H 5402   3.549   0.308   1.177 -0.9789 -0.2793 -2.4040
  357MPD2    H1 5403   3.180   0.512   1.296 -0.4349 -1.2856  0.6832
  357MPD2    H2 5404   3.180   0.229   0.980  1.7240 -1.0118 -0.8096
  357MPD2    H3 5405   3.071   0.407   1.111 -0.3032 -0.2623 -2.4061
  357MPD2     N 5406   3.467   0.511   1.319 -0.0112 -0.2624  0.2371
  357MPD2    H5 5407   3.563   0.487   1.299  0.2046 -0.2069  1.2230
  357MPD2    N1 5408   3.422   0.166   0.976 -0.1462  0.7507  0.4589
  357MPD2    H7 5409   3.349   0.112   0.932  1.3399 -1.2294  0.4422
  358TMC3    C1 5410   3.578   0.022   0.877 -0.5522  0.1029  0.4568
  358TMC3    C2 5411   3.476   4.668   0.852 -0.9290 -0.7439  0.2568
  358TMC3    C3 5412   3.516   4.551   0.791 -0.0015 -0.0225 -0.6777
  358TMC3    C4 5413   3.708   4.734   0.846 -0.8318 -0.2903 -0.2597
  358TMC3    C5 5414   3.739   4.616   0.785  0.2222 -0.3472  0.1514
  358TMC3    C6 5415   3.643   4.527   0.745  0.4574  0.3637 -0.3420
  358TMC3     C 5416   3.556   0.150   0.941 -0.4951  0.8718  0.0980
  358TMC3     O 5417   3.648   0.227   0.954  0.6014 -0.2393  0.4687
  358TMC3     H 5418   3.372   4.695   0.862 -0.5679  1.3508 -1.6870
  358TMC3    H1 5419   3.783   0.073   0.867 -1.0583  0.5757 -2.6084
  358TMC3    H2 5420   3.667   4.421   0.739 -0.2327  0.2419 -1.0281
  358TMC3    C7 5421   3.875   4.582   0.753 -0.3547 -1.2036 -0.3444
  358TMC3    C8 5422   3.419   4.468   0.724  0.0488 -0.1427 -0.2994
  358TMC3    O1 5423   3.892   4.480   0.686 -0.3374 -0.0852 -0.0545
  358TMC3    O2 5424   3.443   4.433   0.610  0.5006 -0.3223  0.1449
  359MPD2     C 5425   3.511   3.701  11.932  0.0467  0.4537  0.2903
  359MPD2    C1 5426   3.409   3.737  11.848 -0.2870  0.0842 -0.4079
  359MPD2    C2 5427   3.286   3.675  11.870  0.5054 -0.2537 -0.5130
  359MPD2    C3 5428   3.269   3.580  11.970 -0.4226  0.4390  0.1074
  359MPD2    C4 5429   3.378   3.552  12.047  0.3285  0.0192  0.1273
  359MPD2    C5 5430   3.496   3.614  12.036 -0.0780 -0.4122 -0.1710
  359MPD2     H 5431   3.216   3.697  11.790  1.6615 -1.4042 -1.8519
  359MPD2    H1 5432   3.368   3.488  12.134  0.6874 -1.1796 -0.7221
  359MPD2    H2 5433   3.611   3.744  11.930  0.0810  0.3330 -0.7000
  359MPD2    H3 5434   3.577   3.590  12.103  1.1385  3.4494 -0.2647
  359MPD2     N 5435   3.148   3.509  12.006  0.5950 -0.7613 -0.2410
  359MPD2    H5 5436   3.150   3.459  12.095 -1.3445  2.4712  1.6284
  359MPD2    N1 5437   3.429   3.829  11.743  0.9992  0.5477 -0.3663
  359MPD2    H7 5438   3.342   3.865  11.704  0.6053 -0.5400 -0.4980
  360TMC3    C1 5439   3.524   3.972  11.587  0.5052 -0.2969 -0.0792
  360TMC3    C2 5440   3.639   4.049  11.570 -0.8662  0.1602  0.1646
  360TMC3    C3 5441   3.616   4.162  11.495 -0.4019 -0.0841 -0.4016
  360TMC3    C4 5442   3.394   3.994  11.543 -0.5871 -0.2191 -0.0164
  360TMC3    C5 5443   3.382   4.114  11.470 -1.0292 -0.9930  0.5486
  360TMC3    C6 5444   3.489   4.197  11.451  0.2218 -0.2117  0.4027
  360TMC3     C 5445   3.549   3.866  11.684 -0.9316 -0.2603 -0.3024
  360TMC3     O 5446   3.659   3.813  11.708 -0.7187  0.4295 -0.5172
  360TMC3     H 5447   3.729   4.002  11.607  0.0454  0.1483 -2.0404
  360TMC3    H1 5448   3.318   3.916  11.543 -1.0114  0.2050 -1.2284
  360TMC3    H2 5449   3.482   4.284  11.387  0.5301 -1.4467 -1.2934
  360TMC3    C7 5450   3.272   4.135  11.378 -0.2202 -0.4076 -0.2412
  360TMC3    C8 5451   3.725   4.209  11.419  0.1451 -0.2209  0.1772
  360TMC3    O1 5452   3.275   4.232  11.303 -0.8745 -0.2087 -0.0906
  360TMC3    O2 5453   3.694   4.311  11.360  0.1491  0.4861  0.1858
  361MPD2     C 5454   0.141   2.587  15.764 -0.4115  0.6829 -0.5228
  361MPD2    C1 5455   0.063   2.555  15.874 -0.1741  0.1735 -0.0189
  361MPD2    C2 5456   0.131   2.530  15.990  0.2213  0.1625  0.7102
  361MPD2    C3 5457   0.274   2.525  16.000 -0.3617 -0.1958  0.3457
  361MPD2    C4 5458   0.346   2.561  15.886  0.3855 -0.1860 -0.7210
  361MPD2    C5 5459   0.279   2.585  15.768 -0.2937 -0.6270 -0.2433
  361MPD2     H 5460   0.071   2.493  16.072 -0.4592  0.8901  0.5314
  361MPD2    H1 5461   0.454   2.564  15.885  0.3679  1.3340  0.7658
  361MPD2    H2 5462   0.100   2.629  15.673 -0.2537  0.5650 -0.6500
  361MPD2    H3 5463   0.334   2.620  15.681 -3.1619  0.3856 -1.6429
  361MPD2     N 5464   0.347   2.476  16.115 -0.9979 -0.2732 -0.0256
  361MPD2    H5 5465   0.448   2.467  16.120 -1.1249 -0.5009  2.0366
  361MPD2    N1 5466   4.657   2.562  15.883 -0.0434 -0.0922 -0.2036
  361MPD2    H7 5467   4.611   2.558  15.973  1.2589 -0.4409  0.4390
  362TMC3    C1 5468   4.436   2.594  15.811 -0.3568 -0.4756 -0.2755
  362TMC3    C2 5469   4.402   2.528  15.925  0.0127 -0.4406  0.0628
  362TMC3    C3 5470   4.267   2.521  15.939  0.7509  0.5038 -0.1753
  362TMC3    C4 5471   4.352   2.648  15.719  0.2616 -0.4015  0.0455
  362TMC3    C5 5472   4.218   2.629  15.731  0.9455 -0.2285 -0.1972
  362TMC3    C6 5473   4.178   2.564  15.841  0.3730 -0.6801 -0.6448
  362TMC3     C 5474   4.577   2.598  15.779  0.0767  0.2421  0.0984
  362TMC3     O 5475   4.599   2.609  15.659  0.1769 -0.3858 -0.4732
  362TMC3     H 5476   4.461   2.473  15.997  0.4823 -0.8020 -0.6047
  362TMC3    H1 5477   4.388   2.713  15.640 -0.1027  1.5040  1.4489
  362TMC3    H2 5478   4.071   2.557  15.861  0.5287  0.6216  0.6155
  362TMC3    C7 5479   4.143   2.749  15.704  0.0466 -0.1164  0.2321
  362TMC3    C8 5480   4.215   2.530  16.071 -0.5155 -0.2634 -0.3666
  362TMC3    O1 5481   4.198   2.855  15.690 -0.0810 -0.4188  0.4169
  362TMC3    O2 5482   4.251   2.459  16.161  0.1195  0.6815  0.6858
  363TMC3    C1 5483   2.683   0.294   9.017  0.6068 -0.0918  0.6302
  363TMC3    C2 5484   2.761   0.252   9.120  0.2439 -0.3223  0.1352
  363TMC3    C3 5485   2.742   0.308   9.251 -0.2552  0.0701 -0.3673
  363TMC3    C4 5486   2.576   0.377   9.042 -1.0108 -0.0846  0.1623
  363TMC3    C5 5487   2.559   0.419   9.173  0.0250  0.6524  0.0605
  363TMC3    C6 5488   2.636   0.385   9.278  0.0598  0.0025 -0.2693
  363TMC3     C 5489   2.719   0.250   8.887 -0.2220  0.3155  0.1826
  363TMC3     O 5490   2.829   0.198   8.865  0.0685  0.6651  0.1171
  363TMC3     H 5491   2.840   0.182   9.099 -1.7600 -1.1686 -4.5608
  363TMC3    H1 5492   2.514   0.416   8.962 -0.8304 -0.2150 -0.0412
  363TMC3    H2 5493   2.604   0.405   9.380  0.8282 -2.1490  0.3789
  363TMC3    C7 5494   2.444   0.498   9.211 -0.0086 -0.8845  0.5000
  363TMC3    C8 5495   2.816   0.261   9.371  0.0973  0.4265  0.4847
  363TMC3    O1 5496   2.372   0.529   9.123 -0.1682 -0.1988  0.4934
  363TMC3    O2 5497   2.789   0.315   9.475  0.0307 -0.5861  0.6657
  364MPD2     C 5498   1.514   0.047   9.714  0.0100 -0.0836 -0.7317
  364MPD2    C1 5499   1.608   0.137   9.769  0.9526 -0.0416 -0.5246
  364MPD2    C2 5500   1.665   0.108   9.893  0.1752 -0.7867  0.3134
  364MPD2    C3 5501   1.655   4.717   9.952  0.2589 -0.1535  0.5972
  364MPD2    C4 5502   1.580   4.624   9.892 -0.0288 -0.1687 -0.2205
  364MPD2    C5 5503   1.509   4.655   9.775  0.1907 -0.3766 -0.7539
  364MPD2     H 5504   1.725   0.187   9.938  1.2359  0.3033 -3.0049
  364MPD2    H1 5505   1.588   4.523   9.929  3.9159  1.0475  2.2560
  364MPD2    H2 5506   1.454   0.073   9.627 -2.1287 -3.2849 -0.1899
  364MPD2    H3 5507   1.438   4.583   9.736 -0.6137  0.1601 -0.2617
  364MPD2     N 5508   1.722   4.679  10.071 -0.5265  0.1775 -0.3098
  364MPD2    H5 5509   1.709   4.586  10.109 -1.7192 -0.1123 -1.4344
  364MPD2    N1 5510   1.626   0.258   9.699 -0.8109  0.9037  0.2347
  364MPD2    H7 5511   1.554   0.286   9.634 -0.7633 -0.7196 -0.5121
  365TMC3    C1 5512   1.862   0.265   9.748 -0.4853 -0.9573  0.1640
  365TMC3    C2 5513   1.897   0.167   9.661 -0.0949 -0.2178 -0.0653
  365TMC3    C3 5514   2.024   0.114   9.684 -0.7882 -0.1693 -0.3410
  365TMC3    C4 5515   1.943   0.310   9.848  0.6663 -0.0627 -0.9569
  365TMC3    C5 5516   2.066   0.247   9.866 -0.3809  0.2075 -0.1731
  365TMC3    C6 5517   2.108   0.149   9.789 -0.2972  0.6750 -0.0545
  365TMC3     C 5518   1.737   0.346   9.724  0.4395  0.0728  0.2928
  365TMC3     O 5519   1.742   0.465   9.697 -0.1229  0.3086 -0.0791
  365TMC3     H 5520   1.825   0.145   9.583  1.6189 -2.2641 -1.0609
  365TMC3    H1 5521   1.905   0.394   9.906  3.9164  1.3770 -0.9543
  365TMC3    H2 5522   2.195   0.090   9.816 -0.4509  0.5447  0.1554
  365TMC3    C7 5523   2.140   0.267   9.992 -0.2022  0.0221  0.2925
  365TMC3    C8 5524   2.083   0.051   9.571 -0.1412 -0.1137 -0.2390
  365TMC3    O1 5525   2.262   0.262   9.980 -0.3306  0.6883 -0.3841
  365TMC3    O2 5526   2.018   0.072   9.469 -0.0865  0.1150  0.4645
  366MPD2     C 5527   0.712   0.890  14.847  0.2662  0.1165 -0.3038
  366MPD2    C1 5528   0.725   0.938  14.975 -0.3396  0.2859  0.8184
  366MPD2    C2 5529   0.850   0.968  15.020  0.2610  1.1156  0.1482
  366MPD2    C3 5530   0.960   0.970  14.942  0.2828  0.1105  0.8455
  366MPD2    C4 5531   0.946   0.922  14.814  0.1583  0.1098  0.4515
  366MPD2    C5 5532   0.829   0.877  14.773 -0.0014  0.4416 -0.5748
  366MPD2     H 5533   0.852   1.007  15.121  1.2488  1.3576  0.0409
  366MPD2    H1 5534   1.024   0.911  14.739  0.7617  1.9434  0.7901
  366MPD2    H2 5535   0.616   0.865  14.804  1.2478 -1.1009 -1.7669
  366MPD2    H3 5536   0.822   0.846  14.669  0.1759  0.4323 -0.5843
  366MPD2     N 5537   1.095   0.992  14.985  0.1593  0.4049  1.0338
  366MPD2    H5 5538   1.158   0.969  14.910 -0.9648 -0.8303  0.4699
  366MPD2    N1 5539   0.621   0.964  15.070 -0.2405 -0.5934 -0.4907
  366MPD2    H7 5540   0.656   0.976  15.165  3.2397  0.1433 -1.8880
  367TMC3    C1 5541   0.432   1.075  15.140  0.3522 -0.0275 -0.6195
  367TMC3    C2 5542   0.513   1.153  15.222  1.0195 -0.1047  0.1609
  367TMC3    C3 5543   0.455   1.241  15.309 -0.4206 -1.0032  0.3786
  367TMC3    C4 5544   0.296   1.087  15.143 -0.7686 -0.3560  0.7368
  367TMC3    C5 5545   0.241   1.172  15.230  0.4552  0.3985  0.3621
  367TMC3    C6 5546   0.317   1.251  15.314  0.3202 -0.0078  0.1836
  367TMC3     C 5547   0.493   0.989  15.040  0.2498 -0.5277  0.1849
  367TMC3     O 5548   0.441   0.959  14.932 -0.0419 -0.3460 -0.2633
  367TMC3     H 5549   0.622   1.150  15.214  1.1454  1.1335  1.5809
  367TMC3    H1 5550   0.241   1.036  15.065 -1.9462 -1.8768  2.5740
  367TMC3    H2 5551   0.265   1.308  15.391  0.0678  2.2886 -1.6643
  367TMC3    C7 5552   0.109   1.218  15.198 -0.3011  0.0390  0.1185
  367TMC3    C8 5553   0.540   1.302  15.411 -0.1401 -0.0695  0.3376
  367TMC3    O1 5554   0.096   1.343  15.199  0.8666 -0.4140  0.1239
  367TMC3    O2 5555   0.651   1.256  15.422 -0.1366 -0.2756 -0.7731
  368MPD2     C 5556   1.715   2.902  13.158  0.1729 -0.2647  0.5971
  368MPD2    C1 5557   1.690   2.987  13.053  0.3510 -0.0992 -0.0618
  368MPD2    C2 5558   1.791   3.058  12.992 -0.9627 -0.7330 -1.1089
  368MPD2    C3 5559   1.917   3.046  13.042 -0.2897 -0.3581  0.0861
  368MPD2    C4 5560   1.944   2.956  13.137 -0.2857  0.2244 -0.0492
  368MPD2    C5 5561   1.845   2.894  13.199 -0.4961  0.7066  0.9193
  368MPD2     H 5562   1.773   3.123  12.907 -0.9354  1.4151  0.5326
  368MPD2    H1 5563   2.043   2.941  13.180  0.3408  2.5303 -0.6918
  368MPD2    H2 5564   1.635   2.845  13.205 -0.8466 -0.3932 -1.2866
  368MPD2    H3 5565   1.868   2.825  13.279  1.6840  1.7406  1.1716
  368MPD2     N 5566   2.026   3.107  12.978  0.2694  0.1731  0.1818
  368MPD2    H5 5567   2.118   3.087  13.014  0.0653  1.1433  1.2452
  368MPD2    N1 5568   1.553   3.009  13.016  0.4693 -0.5387 -0.1087
  368MPD2    H7 5569   1.486   2.947  13.060 -0.1051 -0.3623 -0.7328
  369TMC3    C1 5570   1.359   3.114  12.929 -0.6112  0.2495 -0.4311
  369TMC3    C2 5571   1.304   3.232  12.885  0.1147 -0.5858 -0.4545
  369TMC3    C3 5572   1.170   3.249  12.897  0.4461 -0.2048  0.0613
  369TMC3    C4 5573   1.275   3.011  12.962  0.4365  0.3547  0.3246
  369TMC3    C5 5574   1.139   3.030  12.962  0.7389 -0.5543 -0.3868
  369TMC3    C6 5575   1.079   3.151  12.936  0.9410  0.5050 -0.1021
  369TMC3     C 5576   1.502   3.107  12.933 -0.3140 -0.2449  0.3608
  369TMC3     O 5577   1.565   3.190  12.870  0.0270 -0.3572  0.2825
  369TMC3     H 5578   1.366   3.314  12.853  1.8613 -1.1212  1.5818
  369TMC3    H1 5579   1.314   2.915  12.991  1.0194  0.7911  0.9868
  369TMC3    H2 5580   0.973   3.168  12.924  1.1435  1.8234  0.0193
  369TMC3    C7 5581   1.064   2.936  13.044  1.0185  0.1159 -0.1913
  369TMC3    C8 5582   1.120   3.379  12.865  0.1755  0.5694  0.0972
  369TMC3    O1 5583   1.138   2.872  13.113 -0.0787  0.0952  0.8934
  369TMC3    O2 5584   1.047   3.389  12.768  0.6846  0.0194 -0.0787
  370TMC3    C1 5585   1.297   3.763  16.105 -0.3445  0.5503  1.1124
  370TMC3    C2 5586   1.256   3.670  16.202 -0.4157 -0.1001 -0.0956
  370TMC3    C3 5587   1.190   3.561  16.152 -0.1945  0.2063  0.4539
  370TMC3    C4 5588   1.296   3.729  15.969  0.1063 -0.1629 -0.1971
  370TMC3    C5 5589   1.242   3.615  15.928  0.1671  0.1387 -0.2542
  370TMC3    C6 5590   1.185   3.534  16.020 -0.1129 -0.6150 -0.1308
  370TMC3     C 5591   1.417   3.838  16.152 -0.3937 -0.0395 -0.4183
  370TMC3     O 5592   1.485   3.799  16.246 -0.3717  0.2547 -0.1682
  370TMC3     H 5593   1.286   3.690  16.304 -0.6494  1.0402 -0.2536
  370TMC3    H1 5594   1.342   3.797  15.898  0.5115  0.9470  1.1199
  370TMC3    H2 5595   1.140   3.442  15.984 -0.4007  0.5156 -2.6785
  370TMC3    C7 5596   1.314   3.557  15.815  0.5181 -0.2005 -0.3545
  370TMC3    C8 5597   1.140   3.462  16.240 -0.4762  0.0630  0.0791
  370TMC3    O1 5598   1.397   3.632  15.763  0.2801  0.3472  0.3397
  370TMC3    O2 5599   1.115   3.354  16.190 -0.0323  0.1047  0.0145
  371TMC3    C1 5600   2.228   1.932  15.094 -0.0235 -0.6226  0.7280
  371TMC3    C2 5601   2.117   1.940  15.172  0.5076  0.4495  0.2363
  371TMC3    C3 5602   2.054   2.060  15.197  0.1189 -0.1383  0.4027
  371TMC3    C4 5603   2.258   2.047  15.026 -1.2593 -0.3913 -0.2549
  371TMC3    C5 5604   2.185   2.163  15.038 -0.5052  0.1164 -0.2860
  371TMC3    C6 5605   2.072   2.175  15.122  0.3778  0.5147  0.2014
  371TMC3     C 5606   2.311   1.814  15.092 -0.1057  0.0818 -0.1680
  371TMC3     O 5607   2.416   1.830  15.034  0.2915 -0.1582  0.5667
  371TMC3     H 5608   2.085   1.861  15.239 -0.2110  1.1011  0.6502
  371TMC3    H1 5609   2.339   2.040  14.955  0.7979  0.3610  2.0228
  371TMC3    H2 5610   2.031   2.271  15.150 -0.3849  0.3126 -0.2160
  371TMC3    C7 5611   2.256   2.278  14.985  0.0610  0.1650 -0.6048
  371TMC3    C8 5612   1.921   2.038  15.261  0.5141 -0.2869 -0.7225
  371TMC3    O1 5613   2.377   2.263  14.967  0.1642 -0.2239 -0.7151
  371TMC3    O2 5614   1.879   1.923  15.264 -0.2217 -0.0230  0.2923
  372MPD2     C 5615   1.271   3.218  13.306  0.2641 -0.5306  0.4341
  372MPD2    C1 5616   1.409   3.195  13.325  0.4155 -0.2026 -0.3300
  372MPD2    C2 5617   1.444   3.077  13.390  0.4734  0.3440  0.0643
  372MPD2    C3 5618   1.351   2.972  13.412  0.3901 -0.7476  0.0705
  372MPD2    C4 5619   1.218   3.003  13.372 -0.2592 -0.2435 -0.3091
  372MPD2    C5 5620   1.170   3.120  13.331  0.2213  0.2576  0.3092
  372MPD2     H 5621   1.546   3.069  13.426  1.1464 -0.1369 -1.9284
  372MPD2    H1 5622   1.144   2.926  13.386 -0.4827 -0.0576 -0.4663
  372MPD2    H2 5623   1.235   3.313  13.265 -0.7587 -1.3195 -0.5163
  372MPD2    H3 5624   1.066   3.134  13.303  0.4186  2.7649  0.8167
  372MPD2     N 5625   1.397   2.846  13.456 -0.2146  0.2846  0.6938
  372MPD2    H5 5626   1.494   2.846  13.485  0.1008 -1.8125 -0.3674
  372MPD2    N1 5627   1.513   3.274  13.273 -0.7349 -0.3608 -0.1150
  372MPD2    H7 5628   1.607   3.243  13.296  0.1726  1.2389 -1.6154
  373TMC3    C1 5629   1.392   2.623  13.497  0.3695 -0.3357 -1.0373
  373TMC3    C2 5630   1.484   2.639  13.596 -0.2261 -0.4092  0.4900
  373TMC3    C3 5631   1.539   2.521  13.644  1.3038 -0.0187 -0.0838
  373TMC3    C4 5632   1.366   2.504  13.439  0.2422  0.9243  0.3843
  373TMC3    C5 5633   1.438   2.395  13.477 -0.3261  0.1381 -0.4835
  373TMC3    C6 5634   1.530   2.395  13.583  0.5202 -0.0383 -0.1372
  373TMC3     C 5635   1.323   2.735  13.448  0.1535  0.9497  0.7931
  373TMC3     O 5636   1.215   2.711  13.397 -0.0302  0.5510  0.6844
  373TMC3     H 5637   1.496   2.725  13.661  0.3435  0.0754 -0.2580
  373TMC3    H1 5638   1.304   2.499  13.350  0.8053  1.1890 -0.0211
  373TMC3    H2 5639   1.571   2.306  13.628 -0.8042  0.6220  2.3927
  373TMC3    C7 5640   1.388   2.270  13.437 -0.2364 -0.5148 -0.4374
  373TMC3    C8 5641   1.665   2.541  13.718  0.2027  0.2916  0.1874
  373TMC3    O1 5642   1.274   2.257  13.395 -0.3570 -0.1395 -0.1562
  373TMC3    O2 5643   1.706   2.657  13.732  0.1992  0.5838 -0.0380
  374TMC3    C1 5644   2.019   3.114   9.737 -0.5045  0.1505 -0.3275
  374TMC3    C2 5645   2.144   3.168   9.769 -0.3302  0.6976 -0.2154
  374TMC3    C3 5646   2.250   3.131   9.685 -0.5716 -0.1195  0.2672
  374TMC3    C4 5647   2.005   3.030   9.622  0.1155  0.2835  0.4768
  374TMC3    C5 5648   2.110   3.009   9.538 -0.7188 -0.7037 -0.4247
  374TMC3    C6 5649   2.236   3.059   9.567 -0.1421  0.0999 -0.2184
  374TMC3     C 5650   1.919   3.102   9.835 -0.3571 -0.1432 -0.7945
  374TMC3     O 5651   1.808   3.065   9.805 -0.1452 -0.1987 -0.4817
  374TMC3     H 5652   2.157   3.230   9.857  1.1670  1.3144 -0.8828
  374TMC3    H1 5653   1.905   2.993   9.599  0.5086  0.0320 -0.8476
  374TMC3    H2 5654   2.322   3.024   9.511  1.3171  1.2343  1.3328
  374TMC3    C7 5655   2.109   2.903   9.434 -0.0532  0.3259 -0.2035
  374TMC3    C8 5656   2.361   3.220   9.680  0.3146  0.3639 -0.1263
  374TMC3    O1 5657   2.211   2.897   9.357  0.7940 -0.0302  0.3095
  374TMC3    O2 5658   2.422   3.219   9.575  0.1658 -0.2402 -0.3615
  375MPD2     C 5659   2.420   3.332  16.878  0.9892  0.2800  0.9674
  375MPD2    C1 5660   2.391   3.427  16.777 -0.4974  0.1472 -0.2077
  375MPD2    C2 5661   2.434   3.408  16.648  0.6079  0.1200  0.3435
  375MPD2    C3 5662   2.511   3.301  16.617  0.4796 -0.2444 -0.4283
  375MPD2    C4 5663   2.539   3.207  16.714 -0.1086 -0.3765  0.2908
  375MPD2    C5 5664   2.496   3.221  16.843  0.0407 -0.1330  0.4310
  375MPD2     H 5665   2.420   3.490  16.578 -0.3210 -0.6620 -0.3930
  375MPD2    H1 5666   2.598   3.117  16.696 -1.1559 -1.3938  1.9190
  375MPD2    H2 5667   2.386   3.338  16.981  3.4125 -0.1483  1.8005
  375MPD2    H3 5668   2.520   3.151  16.922 -1.0041  0.3018  1.1296
  375MPD2     N 5669   2.585   3.283  16.497 -0.2855  0.3113 -0.3469
  375MPD2    H5 5670   2.661   3.217  16.509  0.4832  1.0466 -1.1690
  375MPD2    N1 5671   2.325   3.544  16.806 -0.1931  0.0449 -0.4154
  375MPD2    H7 5672   2.320   3.604  16.724  3.0050 -0.3129 -0.8928
  376TMC3    C1 5673   2.626   3.286  16.259 -0.1449  0.3217  0.2305
  376TMC3    C2 5674   2.749   3.228  16.278  0.3288 -0.8318  0.3582
  376TMC3    C3 5675   2.836   3.223  16.172 -0.2612  0.3906  0.0301
  376TMC3    C4 5676   2.579   3.333  16.134 -0.4424  0.0051 -0.3987
  376TMC3    C5 5677   2.672   3.315  16.033 -0.0068 -0.3653  0.1286
  376TMC3    C6 5678   2.800   3.260  16.050  0.3770 -0.2559  0.7849
  376TMC3     C 5679   2.548   3.339  16.373 -0.3883 -0.3892 -0.1175
  376TMC3     O 5680   2.450   3.405  16.349 -0.2094 -0.2216  0.3545
  376TMC3     H 5681   2.780   3.203  16.378 -3.4161  3.1944  2.5307
  376TMC3    H1 5682   2.485   3.381  16.110 -1.0782 -2.4954 -3.0058
  376TMC3    H2 5683   2.871   3.282  15.971  1.2308 -0.1570  1.5771
  376TMC3    C7 5684   2.641   3.355  15.894 -0.0715 -0.6528  0.5039
  376TMC3    C8 5685   2.981   3.234  16.201  0.0276 -0.0989 -0.5351
  376TMC3    O1 5686   2.577   3.459  15.887  0.0970  0.0852  0.3691
  376TMC3    O2 5687   3.056   3.227  16.106 -0.7548  0.0959  0.5554
  377MPD2     C 5688   0.743   3.296  12.899 -0.4270 -0.3385  0.3716
  377MPD2    C1 5689   0.713   3.278  12.762 -0.4620  0.0433  0.2818
  377MPD2    C2 5690   0.633   3.164  12.722 -0.5908 -0.0974 -0.3396
  377MPD2    C3 5691   0.597   3.073  12.824 -0.5293  0.5752  0.4777
  377MPD2    C4 5692   0.613   3.099  12.960 -0.6845  0.0002 -0.1569
  377MPD2    C5 5693   0.688   3.211  12.993  0.1452 -0.2412  0.1057
  377MPD2     H 5694   0.610   3.149  12.618 -1.1948 -2.2446  0.1165
  377MPD2    H1 5695   0.588   3.027  13.037 -0.5756 -1.1998 -1.2659
  377MPD2    H2 5696   0.816   3.367  12.936  0.5799 -0.4456 -1.4007
  377MPD2    H3 5697   0.709   3.221  13.099 -0.3016  1.9175 -0.0232
  377MPD2     N 5698   0.540   2.954  12.792  0.0334 -0.3477  0.6358
  377MPD2    H5 5699   0.475   2.912  12.858 -0.5154  0.4183  0.5828
  377MPD2    N1 5700   0.768   3.362  12.661  0.5725 -0.3205 -0.3092
  377MPD2    H7 5701   0.852   3.412  12.685  1.0317 -1.1195 -0.2601
  378TMC3    C1 5702   0.798   3.533  12.220 -0.2587  0.2642  0.4491
  378TMC3    C2 5703   0.723   3.510  12.334  0.1250  0.1024  0.0857
  378TMC3    C3 5704   0.785   3.456  12.441 -0.1906  0.2121 -0.5851
  378TMC3    C4 5705   0.930   3.499  12.207 -0.0120 -0.2930  0.2732
  378TMC3    C5 5706   0.987   3.448  12.323  0.1757  0.0298  0.5575
  378TMC3    C6 5707   0.922   3.437  12.446  0.1076  0.3772  0.0441
  378TMC3     C 5708   0.724   3.585  12.101 -0.2607  0.6044 -0.9189
  378TMC3     O 5709   0.602   3.589  12.127  0.1223  0.5750  0.5286
  378TMC3     H 5710   0.616   3.524  12.341  0.2574  1.6515 -1.2222
  378TMC3    H1 5711   0.986   3.514  12.116 -1.1392 -1.7293 -0.6760
  378TMC3    H2 5712   0.969   3.388  12.530 -1.3297 -1.0435  0.0145
  378TMC3    C7 5713   1.126   3.401  12.326  0.0810  0.1351  0.4558
  378TMC3    C8 5714   0.703   3.392  12.543  0.3931  0.5408  0.4752
  378TMC3    O1 5715   1.165   3.360  12.432 -0.3758  0.4824  0.1054
  378TMC3    O2 5716   0.585   3.379  12.515 -0.4902 -0.1664 -0.1533
  379MPD2     C 5717   1.690   1.756  16.048 -0.1071  0.0955 -0.0527
  379MPD2    C1 5718   1.599   1.679  16.108 -0.1366 -0.0493  0.2362
  379MPD2    C2 5719   1.631   1.615  16.229  0.5327  0.3071  0.0611
  379MPD2    C3 5720   1.760   1.620  16.271  0.2427  0.0755  0.1152
  379MPD2    C4 5721   1.863   1.693  16.208  0.0470  0.1090  0.5276
  379MPD2    C5 5722   1.821   1.759  16.091 -0.2501 -0.0306  0.0186
  379MPD2     H 5723   1.556   1.558  16.284  0.2596 -0.3682 -1.0179
  379MPD2    H1 5724   1.962   1.704  16.250  0.1058  0.0791  0.3972
  379MPD2    H2 5725   1.677   1.817  15.959 -1.7932 -1.2765 -0.7353
  379MPD2    H3 5726   1.888   1.820  16.031 -1.1969  1.2680  0.2952
  379MPD2     N 5727   1.797   1.543  16.382  0.2976 -0.0695  0.3028
  379MPD2    H5 5728   1.895   1.549  16.407  0.9176 -1.7720 -1.7152
  379MPD2    N1 5729   1.479   1.656  16.028 -0.1386  0.4039  0.4470
  379MPD2    H7 5730   1.466   1.700  15.937 -3.4383  0.4356  0.9373
  380TMC3    C1 5731   1.281   1.555  15.962  0.3276  0.4667 -0.2214
  380TMC3    C2 5732   1.348   1.528  15.849 -0.4243  0.1141 -0.0933
  380TMC3    C3 5733   1.270   1.521  15.735  0.0613  0.4615  0.2203
  380TMC3    C4 5734   1.146   1.571  15.974  0.5716  0.2772  0.1091
  380TMC3    C5 5735   1.075   1.563  15.857 -0.1139 -0.1593  0.1032
  380TMC3    C6 5736   1.138   1.541  15.737  0.7939 -0.1913 -0.0982
  380TMC3     C 5737   1.371   1.578  16.071  0.5524  0.2494 -0.5389
  380TMC3     O 5738   1.335   1.537  16.182 -0.3256 -0.1558 -0.2280
  380TMC3     H 5739   1.454   1.506  15.856 -0.6287 -1.2352 -1.3681
  380TMC3    H1 5740   1.097   1.596  16.067 -2.5699 -1.6337 -1.0426
  380TMC3    H2 5741   1.088   1.536  15.640  0.4659  0.5003  0.0281
  380TMC3    C7 5742   0.932   1.599  15.861  0.3799  0.1757  1.0366
  380TMC3    C8 5743   1.329   1.541  15.601 -0.3106  0.1384  0.1960
  380TMC3    O1 5744   0.892   1.680  15.942  0.3001 -0.5003 -0.9837
  380TMC3    O2 5745   1.259   1.583  15.511 -0.1071  0.4229  0.0030
  381TMC3    C1 5746   1.032   2.801  16.029 -0.3940  0.7880 -0.7477
  381TMC3    C2 5747   1.159   2.839  16.053 -0.2827 -0.3768  0.0827
  381TMC3    C3 5748   1.175   2.936  16.151  0.5922 -0.4749 -0.9124
  381TMC3    C4 5749   0.929   2.833  16.111  0.1080  0.4069  0.3667
  381TMC3    C5 5750   0.946   2.922  16.210 -0.0298  0.7138  0.8090
  381TMC3    C6 5751   1.069   2.980  16.224 -0.5129  0.7981  0.3260
  381TMC3     C 5752   1.004   2.696  15.938  0.0994 -0.2310 -0.2797
  381TMC3     O 5753   0.927   2.608  15.983  0.0208  0.1705  0.1424
  381TMC3     H 5754   1.237   2.782  16.003 -0.5310  0.1165 -0.8660
  381TMC3    H1 5755   0.831   2.788  16.096  0.5219 -0.9050  1.5728
  381TMC3    H2 5756   1.080   3.074  16.278 -0.3870  0.9389  0.0533
  381TMC3    C7 5757   0.903   2.870  16.334  0.7161  0.2105 -0.1403
  381TMC3    C8 5758   1.282   3.028  16.120 -0.8576 -0.3087 -0.3402
  381TMC3    O1 5759   0.953   2.760  16.360  0.5639 -0.0404  0.6971
  381TMC3    O2 5760   1.340   2.997  16.016  0.0272  0.2176  0.6668
  382MPD2     C 5761   0.535   0.407  16.629 -0.4410  0.5737  0.2210
  382MPD2    C1 5762   0.394   0.425  16.639  0.0315 -0.4442  0.4409
  382MPD2    C2 5763   0.316   0.318  16.671  0.1342 -1.1034  0.2355
  382MPD2    C3 5764   0.377   0.195  16.704 -0.0386 -1.0040 -0.2043
  382MPD2    C4 5765   0.514   0.191  16.720  0.7336 -1.5333  0.4820
  382MPD2    C5 5766   0.600   0.290  16.679 -0.8052 -0.0270  0.1331
  382MPD2     H 5767   0.210   0.325  16.650 -0.0468 -0.6714  1.3047
  382MPD2    H1 5768   0.559   0.094  16.738  1.6061 -1.3474 -0.7559
  382MPD2    H2 5769   0.614   0.478  16.605 -0.9200  1.2298  0.6003
  382MPD2    H3 5770   0.708   0.294  16.672 -1.0089 -0.0742 -3.2565
  382MPD2     N 5771   0.305   0.081  16.735  0.9266  0.6799 -0.3903
  382MPD2    H5 5772   0.357   4.736  16.764 -1.6115 -1.0302 -0.6428
  382MPD2    N1 5773   0.331   0.550  16.613 -0.0756 -0.3087 -0.3970
  382MPD2    H7 5774   0.229   0.550  16.618 -0.0556  0.6080  0.0299
  383TMC3    C1 5775   0.130   4.671  16.795  0.9877 -0.3314  0.8187
  383TMC3    C2 5776   0.024   4.605  16.737 -0.3267 -0.5198 -0.3864
  383TMC3    C3 5777   4.702   4.506  16.802 -0.3769 -0.4717  1.0823
  383TMC3    C4 5778   0.187   4.620  16.906  0.1748  0.1076  1.0257
  383TMC3    C5 5779   0.122   4.524  16.979 -0.9858 -0.0389 -0.7366
  383TMC3    C6 5780   0.007   4.464  16.925 -0.4572  0.1827  0.3762
  383TMC3     C 5781   0.166   0.059  16.734 -0.4552  0.1294  0.8704
  383TMC3     O 5782   0.077   0.130  16.685 -0.2595 -0.7482  0.6841
  383TMC3     H 5783   4.728   4.632  16.638  0.2159  0.6772 -0.2347
  383TMC3    H1 5784   0.270   4.671  16.953  0.8143 -2.0001  2.1662
  383TMC3    H2 5785   4.695   4.379  16.972 -0.0037  0.7852  1.9472
  383TMC3    C7 5786   0.195   4.455  17.083  0.1482  0.5647 -0.2366
  383TMC3    C8 5787   4.584   4.447  16.737 -0.1516  0.7873  0.6564
  383TMC3    O1 5788   0.126   4.392  17.161 -0.0650  0.5826  0.2589
  383TMC3    O2 5789   4.530   4.526  16.658  0.6293 -0.6167  0.2814
  384MPD2     C 5790   1.751   1.554  11.859  0.1372  0.1225  0.8268
  384MPD2    C1 5791   1.637   1.499  11.901  0.4365  0.7671 -0.1611
  384MPD2    C2 5792   1.595   1.375  11.856 -0.4082 -0.0574 -0.3182
  384MPD2    C3 5793   1.676   1.305  11.769 -0.5414  0.1225  0.1883
  384MPD2    C4 5794   1.792   1.368  11.725 -0.6486  0.0503 -0.4271
  384MPD2    C5 5795   1.821   1.495  11.760 -0.8390  0.0536 -0.0017
  384MPD2     H 5796   1.514   1.327  11.910 -0.6188  1.9915  1.1718
  384MPD2    H1 5797   1.857   1.328  11.648  0.0097 -1.2998  0.8305
  384MPD2    H2 5798   1.788   1.648  11.900  2.3218 -1.0034  1.4739
  384MPD2    H3 5799   1.919   1.531  11.730 -0.7939 -1.1343 -1.3076
  384MPD2     N 5800   1.652   1.166  11.750 -0.1068  0.0961  0.1042
  384MPD2    H5 5801   1.731   1.116  11.710  1.5892  2.3303  0.6666
  384MPD2    N1 5802   1.577   1.564  12.012  0.7316  0.3483  0.5229
  384MPD2    H7 5803   1.637   1.632  12.057 -0.8871  0.0782  3.0923
  385TMC3    C1 5804   1.578   0.948  11.803 -0.7046  0.8021 -0.0347
  385TMC3    C2 5805   1.682   0.916  11.726  0.7688  0.1349 -0.0361
  385TMC3    C3 5806   1.773   0.831  11.787  0.1658  0.4277 -0.4387
  385TMC3    C4 5807   1.574   0.910  11.935  0.6120 -0.7146 -0.1321
  385TMC3    C5 5808   1.667   0.836  11.996 -0.0365  0.5195  0.0149
  385TMC3    C6 5809   1.776   0.802  11.923 -0.9255 -0.5075 -0.5023
  385TMC3     C 5810   1.547   1.088  11.793  0.5104  0.0943 -0.5486
  385TMC3     O 5811   1.445   1.119  11.846 -0.4686 -0.2149  0.8758
  385TMC3     H 5812   1.683   0.934  11.619  0.3396 -0.2129 -0.0965
  385TMC3    H1 5813   1.487   0.937  11.994  1.3681 -0.5288  0.8817
  385TMC3    H2 5814   1.846   0.733  11.969 -0.1327  0.5573 -0.1101
  385TMC3    C7 5815   1.685   0.880  12.129  0.3291 -0.3111  0.7060
  385TMC3    C8 5816   1.863   0.748  11.707 -0.0945  0.0084  0.3001
  385TMC3    O1 5817   1.598   0.880  12.214 -0.1960 -0.1571 -0.4614
  385TMC3    O2 5818   1.972   0.733  11.765 -0.6410 -0.1665 -0.0142
  386TMC3    C1 5819   2.224   3.170  11.867 -0.6224  0.0077 -0.0284
  386TMC3    C2 5820   2.177   3.162  11.740 -0.5494  0.1676 -0.0313
  386TMC3    C3 5821   2.131   3.275  11.690 -0.4389 -0.1233  0.4733
  386TMC3    C4 5822   2.229   3.287  11.939 -0.1977  0.8377 -0.0179
  386TMC3    C5 5823   2.195   3.402  11.879  0.0708  0.2057  0.3803
  386TMC3    C6 5824   2.143   3.396  11.751 -0.4851 -0.9405 -0.1740
  386TMC3     C 5825   2.222   3.048  11.949  0.0733  0.0733 -0.0877
  386TMC3     O 5826   2.157   3.051  12.053  0.1775 -0.3784 -0.3256
  386TMC3     H 5827   2.138   3.069  11.701  0.1227 -0.6018  1.1135
  386TMC3    H1 5828   2.277   3.273  12.035 -0.6370 -0.4265  0.0114
  386TMC3    H2 5829   2.094   3.478  11.699  0.4155 -0.7033 -0.6432
  386TMC3    C7 5830   2.105   3.479  11.957  0.5084  0.5910  0.3183
  386TMC3    C8 5831   2.032   3.269  11.582  0.3289 -0.5208  0.2328
  386TMC3    O1 5832   2.020   3.540  11.897 -0.0157  0.3157 -0.2534
  386TMC3    O2 5833   1.942   3.347  11.590 -0.2680 -0.1413 -0.3098
  387MPD2     C 5834   4.241   3.556   9.845  0.6387  0.1999 -0.0396
  387MPD2    C1 5835   4.356   3.506   9.903  0.6638  0.3394  0.3522
  387MPD2    C2 5836   4.363   3.376   9.946 -0.7318  0.1277  0.0640
  387MPD2    C3 5837   4.255   3.287   9.915 -0.1468  0.0128  0.6107
  387MPD2    C4 5838   4.141   3.338   9.858 -0.4951 -0.4805 -0.3158
  387MPD2    C5 5839   4.141   3.469   9.821  0.5443 -0.3190  0.5352
  387MPD2     H 5840   4.453   3.345   9.998 -1.4372 -0.6915  0.7767
  387MPD2    H1 5841   4.055   3.280   9.825 -0.1154 -1.4408  0.3718
  387MPD2    H2 5842   4.237   3.657   9.805 -0.4369 -0.1861 -0.9027
  387MPD2    H3 5843   4.051   3.500   9.769 -0.7912 -2.6524  1.4865
  387MPD2     N 5844   4.278   3.142   9.932  0.6707 -0.2920 -0.3344
  387MPD2    H5 5845   4.367   3.107   9.967  0.6052 -2.6412 -2.5125
  387MPD2    N1 5846   4.472   3.582   9.929  0.4779 -0.2045  0.2630
  387MPD2    H7 5847   4.551   3.543   9.980 -0.3396 -0.2086  1.5429
  388TMC3    C1 5848   4.632   3.761   9.932 -0.3859 -0.0905  0.0166
  388TMC3    C2 5849   4.658   3.893   9.901 -0.6106  0.2762  0.3177
  388TMC3    C3 5850   0.041   3.929   9.845  0.3475 -0.0044  0.1746
  388TMC3    C4 5851   4.726   3.665   9.907  0.0034 -0.6417  0.3017
  388TMC3    C5 5852   0.111   3.707   9.855 -0.7219  0.0734 -0.1852
  388TMC3    C6 5853   0.142   3.832   9.817  0.1601  0.5438  0.0798
  388TMC3     C 5854   4.492   3.717   9.914  0.1071 -0.0859  0.0206
  388TMC3     O 5855   4.405   3.798   9.878  0.1651  0.1633 -0.0264
  388TMC3     H 5856   4.583   3.971   9.913 -1.3625 -0.3810 -0.1055
  388TMC3    H1 5857   4.734   3.579   9.973 -0.9120 -0.1541  1.0431
  388TMC3    H2 5858   0.235   3.864   9.773 -0.2501  1.4421 -0.1528
  388TMC3    C7 5859   0.198   3.606   9.805  0.3522  0.5462  0.0834
  388TMC3    C8 5860   0.052   4.065   9.783  0.0848  0.3775  0.3952
  388TMC3    O1 5861   0.305   3.637   9.758 -0.3475  0.6385 -0.0176
  388TMC3    O2 5862   0.114   4.076   9.680  0.1789 -0.5658  0.0338
  389MPD2     C 5863   4.083   1.739  11.175 -0.6357  0.1148 -0.4657
  389MPD2    C1 5864   3.978   1.662  11.144 -0.4341 -0.0538  0.5450
  389MPD2    C2 5865   3.886   1.630  11.245 -0.7353  0.1739  0.2088
  389MPD2    C3 5866   3.909   1.660  11.376  0.8865  0.8564  0.1781
  389MPD2    C4 5867   4.023   1.737  11.408 -0.5728  0.0576  0.2301
  389MPD2    C5 5868   4.112   1.771  11.307 -0.5571 -0.8558 -0.1755
  389MPD2     H 5869   3.798   1.573  11.217 -1.2953  1.9504 -1.6236
  389MPD2    H1 5870   4.043   1.779  11.506 -1.2116  2.3133 -0.6209
  389MPD2    H2 5871   4.149   1.780  11.099 -1.3892 -0.8356 -1.6310
  389MPD2    H3 5872   4.194   1.839  11.324 -1.4544  0.4247 -0.9587
  389MPD2     N 5873   3.810   1.640  11.474  0.4003  0.7057  0.0860
  389MPD2    H5 5874   3.835   1.685  11.562 -2.1719  0.5568  0.9109
  389MPD2    N1 5875   3.962   1.624  11.009 -0.2450 -0.2892 -0.4740
  389MPD2    H7 5876   4.033   1.645  10.940  0.5209  2.9017  1.3061
  390TMC3    C1 5877   3.605   1.555  11.574 -0.0557 -0.4917 -0.0335
  390TMC3    C2 5878   3.495   1.474  11.552 -0.4111  0.1332  0.2602
  390TMC3    C3 5879   3.372   1.513  11.590 -0.3638  0.1601 -0.3105
  390TMC3    C4 5880   3.586   1.673  11.647  0.2814  0.0315 -0.1608
  390TMC3    C5 5881   3.454   1.703  11.686  0.6300 -0.1050 -0.3398
  390TMC3    C6 5882   3.342   1.634  11.652 -0.8955  0.2855 -0.0740
  390TMC3     C 5883   3.690   1.568  11.456 -0.2834 -0.3197  0.3967
  390TMC3     O 5884   3.652   1.500  11.362 -0.3751  0.0906  0.2351
  390TMC3     H 5885   3.510   1.377  11.505  1.6116  0.0321  1.1263
  390TMC3    H1 5886   3.671   1.732  11.680 -0.2182  1.6906 -1.8134
  390TMC3    H2 5887   3.242   1.678  11.654 -1.8341 -1.8843  0.8782
  390TMC3    C7 5888   3.439   1.806  11.787 -0.4047 -0.5633 -0.0695
  390TMC3    C8 5889   3.263   1.450  11.518 -0.1424 -0.3599 -0.3247
  390TMC3    O1 5890   3.532   1.886  11.808  0.3215  0.5020 -0.5250
  390TMC3    O2 5891   3.286   1.368  11.434 -0.2500  0.0553 -0.1310
  391MPD2     C 5892   2.517   3.462  11.199  0.1439 -0.0952  0.1417
  391MPD2    C1 5893   2.644   3.502  11.170 -0.0750  0.4208  0.5893
  391MPD2    C2 5894   2.684   3.526  11.039 -0.0327 -0.7143  0.3521
  391MPD2    C3 5895   2.584   3.510  10.939  0.3306  1.1030  0.6655
  391MPD2    C4 5896   2.456   3.463  10.963  0.5005 -0.3067 -0.2542
  391MPD2    C5 5897   2.428   3.437  11.093 -0.2501 -0.6694  0.0345
  391MPD2     H 5898   2.788   3.548  11.018 -0.0329 -1.0398  0.0058
  391MPD2    H1 5899   2.379   3.448  10.888  0.6389 -0.5046 -0.3540
  391MPD2    H2 5900   2.509   3.416  11.296  1.9164 -0.5581  0.0740
  391MPD2    H3 5901   2.325   3.409  11.114 -1.1691  2.2611 -0.5522
  391MPD2     N 5902   2.635   3.552  10.810  0.3667  0.5073 -0.3148
  391MPD2    H5 5903   2.729   3.588  10.800  0.5535  1.4805  4.6442
  391MPD2    N1 5904   2.746   3.505  11.267  0.0554  0.3188  0.4651
  391MPD2    H7 5905   2.730   3.445  11.348 -0.7178 -0.0057  0.0706
  392TMC3    C1 5906   2.657   3.532  10.579 -0.3001  0.3389 -0.1264
  392TMC3    C2 5907   2.590   3.504  10.465  0.5030 -1.0886 -0.1847
  392TMC3    C3 5908   2.647   3.553  10.353  0.4898  0.1324  0.2397
  392TMC3    C4 5909   2.771   3.608  10.588 -0.3248 -0.1269  0.0844
  392TMC3    C5 5910   2.818   3.655  10.468 -0.4516  0.0099 -0.4851
  392TMC3    C6 5911   2.755   3.631  10.346 -0.3325 -0.2830  0.6324
  392TMC3     C 5912   2.575   3.526  10.692  0.1845 -0.6764 -0.8452
  392TMC3     O 5913   2.462   3.481  10.669 -0.3218  0.5283 -0.3039
  392TMC3     H 5914   2.502   3.440  10.466  0.6516 -1.2200  2.7088
  392TMC3    H1 5915   2.816   3.624  10.686 -0.9826 -0.6983  0.4818
  392TMC3    H2 5916   2.803   3.666  10.256 -0.4845 -0.3547  0.5246
  392TMC3    C7 5917   2.940   3.733  10.473 -0.0782  0.1510  0.4114
  392TMC3    C8 5918   2.601   3.483  10.236 -0.6459 -0.0689 -0.3783
  392TMC3    O1 5919   3.014   3.716  10.565  0.0235  0.3647 -0.2463
  392TMC3    O2 5920   2.539   3.376  10.248  0.9060 -0.2262  0.0766
  393TMC3    C1 5921   1.913   1.065  10.213  0.7783  0.8306  0.0926
  393TMC3    C2 5922   1.815   0.985  10.282 -1.0088 -0.2129  0.1845
  393TMC3    C3 5923   1.866   0.885  10.360 -0.0574 -0.0741 -0.0718
  393TMC3    C4 5924   2.042   1.034  10.214 -0.4750 -0.1511 -0.4492
  393TMC3    C5 5925   2.083   0.923  10.286 -0.0264 -0.5502 -0.2350
  393TMC3    C6 5926   2.000   0.852  10.373  0.1257 -0.8674  0.6322
  393TMC3     C 5927   1.865   1.191  10.155  0.2606  0.2783  0.4806
  393TMC3     O 5928   1.759   1.193  10.097  0.0798  0.6224 -0.5281
  393TMC3     H 5929   1.715   1.025  10.293 -1.2421 -0.4906 -0.9795
  393TMC3    H1 5930   2.118   1.089  10.161 -0.9189  1.4155  0.5412
  393TMC3    H2 5931   2.035   0.770  10.434 -0.4067 -1.0520  0.6851
  393TMC3    C7 5932   2.215   0.875  10.281 -0.3648  0.6844 -0.1708
  393TMC3    C8 5933   1.774   0.799  10.440 -0.2057  0.0670  0.1146
  393TMC3    O1 5934   2.256   0.794  10.365  0.3357  0.4937  0.1364
  393TMC3    O2 5935   1.813   0.736  10.538  0.0261  0.1395  0.6791
  394TMC3    C1 5936   3.876   1.502  10.822  0.5070  0.2886 -0.1912
  394TMC3    C2 5937   3.761   1.484  10.746  0.4113  0.1578  0.1372
  394TMC3    C3 5938   3.774   1.446  10.614  0.1971  0.2813  0.4124
  394TMC3    C4 5939   4.004   1.478  10.776 -0.4666  0.2093 -0.3000
  394TMC3    C5 5940   4.010   1.426  10.649 -0.4847  0.1149  0.1439
  394TMC3    C6 5941   3.898   1.418  10.567 -0.6312 -0.5248 -0.1454
  394TMC3     C 5942   3.852   1.557  10.957  0.1299 -0.7185 -0.0882
  394TMC3     O 5943   3.739   1.539  11.002  0.1834 -0.3299  0.7667
  394TMC3     H 5944   3.662   1.517  10.774  1.8774  4.2035  0.5719
  394TMC3    H1 5945   4.092   1.498  10.835 -1.0182  0.5818  0.3933
  394TMC3    H2 5946   3.909   1.375  10.468 -0.4263  1.9006 -1.1642
  394TMC3    C7 5947   4.118   1.477  10.571 -0.2217 -0.2319 -0.2859
  394TMC3    C8 5948   3.687   1.517  10.524 -0.7940 -0.0611 -0.0448
  394TMC3    O1 5949   4.089   1.520  10.465  0.1686 -0.4136  0.2191
  394TMC3    O2 5950   3.576   1.541  10.569 -0.2056 -0.5582  0.0755
  395TMC3    C1 5951   3.497   3.669  14.678  0.0097  0.1487 -0.0062
  395TMC3    C2 5952   3.528   3.557  14.607  0.7494  0.0686 -0.1875
  395TMC3    C3 5953   3.635   3.560  14.527 -0.7537 -0.3679  0.9656
  395TMC3    C4 5954   3.588   3.764  14.692  0.3385 -0.1358 -0.5127
  395TMC3    C5 5955   3.701   3.761  14.612  0.3491  0.8877 -0.8492
  395TMC3    C6 5956   3.725   3.661  14.520 -0.1593 -0.8725 -1.4265
  395TMC3     C 5957   3.370   3.680  14.757  0.0444  0.6889  0.9173
  395TMC3     O 5958   3.366   3.774  14.838  0.0651 -0.0792 -0.1498
  395TMC3     H 5959   3.469   3.466  14.615  1.9874 -0.5807  1.4342
  395TMC3    H1 5960   3.571   3.847  14.759 -0.9899 -0.3845 -0.5326
  395TMC3    H2 5961   3.821   3.655  14.471  0.1775 -0.6860 -0.7843
  395TMC3    C7 5962   3.801   3.865  14.628  0.3612  0.2268 -0.4824
  395TMC3    C8 5963   3.654   3.449  14.434 -0.8078  0.5531  0.3458
  395TMC3    O1 5964   3.759   3.966  14.680  0.4495 -0.4489 -0.2453
  395TMC3    O2 5965   3.767   3.435  14.381 -0.0653 -0.3522 -0.0126
  396MPD2     C 5966   3.114   4.322  16.855  0.6169  0.0217 -0.1805
  396MPD2    C1 5967   3.235   4.392  16.889 -0.5270  0.1684  0.4676
  396MPD2    C2 5968   3.245   4.531  16.864  0.6050  0.4297  0.4685
  396MPD2    C3 5969   3.136   4.595  16.804  0.0248 -0.1430 -0.0377
  396MPD2    C4 5970   3.016   4.524  16.783 -0.1026  0.2851 -0.7083
  396MPD2    C5 5971   3.010   4.390  16.802  0.9519 -0.8425  0.0874
  396MPD2     H 5972   3.338   4.579  16.893 -0.0257  2.1065 -0.2990
  396MPD2    H1 5973   2.919   4.568  16.767 -0.6941 -0.2703  1.4372
  396MPD2    H2 5974   3.096   4.220  16.885  1.5170 -0.5682 -1.6964
  396MPD2    H3 5975   2.913   4.342  16.790  0.5612 -0.0636  0.1497
  396MPD2     N 5976   3.148   4.732  16.793 -0.0437  0.5005  0.0547
  396MPD2    H5 5977   3.234   0.041  16.821 -1.3414  2.1366  1.3260
  396MPD2    N1 5978   3.323   4.308  16.960 -0.4707  0.2911  0.2192
  396MPD2    H7 5979   3.309   4.208  16.946 -0.2775  0.5376 -1.6967
  397TMC3    C1 5980   3.525   4.256  17.071  0.5861 -0.5374  0.0547
  397TMC3    C2 5981   3.591   4.199  16.975  0.7666 -0.0821  0.0277
  397TMC3    C3 5982   3.584   4.065  16.947  0.2184  0.4677 -0.5857
  397TMC3    C4 5983   3.464   4.172  17.159 -0.1324 -0.0945 -0.4172
  397TMC3    C5 5984   3.481   4.038  17.156 -0.0057  0.2992  0.1411
  397TMC3    C6 5985   3.545   3.982  17.041 -0.0641  0.4326  0.5598
  397TMC3     C 5986   3.437   4.361  17.019 -0.8595  0.4173 -0.2131
  397TMC3     O 5987   3.480   4.475  17.028  0.2659  0.2549  0.1106
  397TMC3     H 5988   3.632   4.269  16.903 -2.5464  4.1300  2.2565
  397TMC3    H1 5989   3.383   4.213  17.218  0.2594 -0.8679  0.6610
  397TMC3    H2 5990   3.569   3.878  17.023  0.4367  0.8927 -1.4279
  397TMC3    C7 5991   3.417   3.949  17.255  0.4559 -0.0352 -0.6385
  397TMC3    C8 5992   3.554   4.029  16.811 -0.0322 -0.0213 -0.4615
  397TMC3    O1 5993   3.393   3.834  17.221  0.5804 -0.0755  0.7405
  397TMC3    O2 5994   3.521   3.912  16.788  0.3096 -0.2969  0.0093
  398MPD2     C 5995   1.146   1.592   0.159  0.7284 -0.1209 -0.5305
  398MPD2    C1 5996   1.225   1.477   0.157 -0.1948  0.3883 -0.4081
  398MPD2    C2 5997   1.361   1.504   0.157  0.3880  0.6034  0.3019
  398MPD2    C3 5998   1.415   1.634   0.142 -0.0557 -0.3501  0.7156
  398MPD2    C4 5999   1.327   1.734   0.135 -0.5558 -0.6709  0.3809
  398MPD2    C5 6000   1.189   1.714   0.137 -0.3887  0.2221  0.1814
  398MPD2     H 6001   1.424   1.418   0.175  0.9073  0.9396  0.0625
  398MPD2    H1 6002   1.364   1.834   0.112  0.7488 -1.2436 -0.0179
  398MPD2    H2 6003   1.039   1.575   0.160  0.7617 -0.2708  0.3609
  398MPD2    H3 6004   1.118   1.794   0.121 -0.1333  0.6682  1.2831
  398MPD2     N 6005   1.555   1.650   0.136  0.4606  0.0474 -0.5561
  398MPD2    H5 6006   1.616   1.569   0.148 -1.0198 -1.2228 -1.5338
  398MPD2    N1 6007   1.174   1.346   0.170 -0.1124 -0.4809 -0.1054
  398MPD2    H7 6008   1.245   1.274   0.178 -1.5605 -1.7244  1.5350
  399TMC3    C1 6009   1.040   1.158   0.219  0.2220 -0.0150 -0.4620
  399TMC3    C2 6010   1.144   1.093   0.276  0.1786 -0.3357  0.5171
  399TMC3    C3 6011   1.163   0.965   0.235  0.7456  0.8154 -0.0225
  399TMC3    C4 6012   0.960   1.093   0.126  0.2018 -0.1530 -0.6725
  399TMC3    C5 6013   0.988   0.967   0.091 -0.4231  0.3972 -0.0563
  399TMC3    C6 6014   1.091   0.898   0.142 -0.0538  0.2386 -0.3892
  399TMC3     C 6015   1.046   1.307   0.195  0.4777 -0.2691 -0.6346
  399TMC3     O 6016   0.939   1.370   0.196  0.1530  0.0400  0.4704
  399TMC3     H 6017   1.213   1.142   0.344 -2.2223  3.3517  0.2607
  399TMC3    H1 6018   0.886   1.144   0.065  2.1498  0.9496 -2.0811
  399TMC3    H2 6019   1.136   0.815   0.087  1.4348  1.5586 -1.1808
  399TMC3    C7 6020   0.910   0.899  17.743 -0.1281 -0.0512  0.5297
  399TMC3    C8 6021   1.287   0.910   0.293  0.4500  0.2672 -0.4571
  399TMC3    O1 6022   0.852   0.964  17.655  0.6182 -0.0629  0.2666
  399TMC3    O2 6023   1.373   0.996   0.319  0.6540 -0.6378 -0.2160
  400TMC3    C1 6024   4.621   4.271  16.351  0.0849 -0.0332  0.0201
  400TMC3    C2 6025   4.551   4.159  16.305  0.2457  0.5931  0.1599
  400TMC3    C3 6026   4.426   4.183  16.249  0.8068 -0.0226 -0.8976
  400TMC3    C4 6027   4.580   4.398  16.356 -0.0933  0.2804 -0.7433
  400TMC3    C5 6028   4.457   4.412  16.298  0.1789 -0.1380 -0.0603
  400TMC3    C6 6029   4.379   4.311  16.244 -0.1354  0.0686 -0.5568
  400TMC3     C 6030   4.718   4.234  16.443  0.0694 -0.1220 -0.0561
  400TMC3     O 6031   4.697   4.127  16.500 -0.0255  0.3115  0.0353
  400TMC3     H 6032   4.589   4.058  16.297  1.8759  1.3675 -2.0085
  400TMC3    H1 6033   4.633   4.478  16.408  1.6239 -0.9481 -0.5846
  400TMC3    H2 6034   4.284   4.334  16.197  1.6532  0.2720 -4.1395
  400TMC3    C7 6035   4.415   4.549  16.276 -0.1079 -0.0824  0.3000
  400TMC3    C8 6036   4.347   4.074  16.199  0.2114 -0.0887 -0.8150
  400TMC3    O1 6037   4.357   4.577  16.169  0.4146  0.3571 -0.0958
  400TMC3    O2 6038   4.258   4.095  16.117  0.0142  0.3635 -0.1599
  401MPD2     C 6039   3.117   3.489   0.793 -0.3020 -0.1458 -0.5084
  401MPD2    C1 6040   3.236   3.432   0.822  0.0785 -0.5064  0.1972
  401MPD2    C2 6041   3.234   3.294   0.791  0.1900  0.2103  0.6595
  401MPD2    C3 6042   3.130   3.224   0.733 -0.0733  0.2007  0.5513
  401MPD2    C4 6043   3.010   3.291   0.723 -0.7896  0.1314 -0.4038
  401MPD2    C5 6044   3.007   3.426   0.756  0.1587  0.2192  0.6193
  401MPD2     H 6045   3.323   3.234   0.804  0.4497  0.2349 -0.9491
  401MPD2    H1 6046   2.914   3.254   0.687 -1.0678  0.0402  0.4518
  401MPD2    H2 6047   3.106   3.591   0.827  1.8125  0.5653 -1.9277
  401MPD2    H3 6048   2.910   3.475   0.751 -0.5056 -1.2229 -0.8940
  401MPD2     N 6049   3.149   3.086   0.691 -0.5162 -0.3291 -0.3330
  401MPD2    H5 6050   3.243   3.053   0.705 -0.3560  0.4279  0.3476
  401MPD2    N1 6051   3.357   3.488   0.858  0.1805 -0.0803  0.5918
  401MPD2    H7 6052   3.444   3.436   0.851  0.3437  0.0404  1.6310
  402TMC3    C1 6053   3.107   2.872   0.581  0.7370 -0.5925 -0.4404
  402TMC3    C2 6054   3.187   2.808   0.670  0.3762  0.0638  0.2200
  402TMC3    C3 6055   3.246   2.689   0.635 -0.2476  0.3492  1.5092
  402TMC3    C4 6056   3.073   2.823   0.461  0.0427 -0.4525  0.1373
  402TMC3    C5 6057   3.118   2.697   0.426 -0.0791 -0.0067 -0.1408
  402TMC3    C6 6058   3.210   2.632   0.511  0.0147  0.4904  0.4581
  402TMC3     C 6059   3.059   3.009   0.617  0.2075  0.6120  0.6120
  402TMC3     O 6060   2.952   3.053   0.572 -0.2146  0.3225  0.0563
  402TMC3     H 6061   3.218   2.853   0.764 -0.0222  0.4319  0.1787
  402TMC3    H1 6062   3.016   2.881   0.390 -0.8146  2.7442  3.4237
  402TMC3    H2 6063   3.246   2.532   0.488 -0.0163  0.1014  2.0851
  402TMC3    C7 6064   3.109   2.659   0.287  0.1255  0.4712 -0.5554
  402TMC3    C8 6065   3.368   2.641   0.692  0.3358 -0.0448  0.7477
  402TMC3    O1 6066   3.086   2.751   0.207 -0.3445 -0.1971  0.0768
  402TMC3    O2 6067   3.427   2.556   0.625  0.5473  0.4222 -0.3941
  403MPD2     C 6068   0.795   1.392  13.207  1.0139 -0.3126  0.1675
  403MPD2    C1 6069   0.881   1.300  13.257 -0.4650 -0.5731 -0.3445
  403MPD2    C2 6070   0.987   1.349  13.339 -0.1262  0.2215 -0.1990
  403MPD2    C3 6071   1.006   1.483  13.375 -0.3735 -0.0980 -0.3029
  403MPD2    C4 6072   0.902   1.566  13.337  0.0770 -0.3006 -0.1236
  403MPD2    C5 6073   0.805   1.526  13.245 -0.3798 -0.1714 -0.6181
  403MPD2     H 6074   1.063   1.284  13.380  0.9370  1.8990  0.5157
  403MPD2    H1 6075   0.917   1.671  13.361  0.8237 -0.4658  0.1189
  403MPD2    H2 6076   0.719   1.362  13.136  1.9537  3.0803 -2.2814
  403MPD2    H3 6077   0.734   1.601  13.213 -1.2159 -0.9830 -0.6867
  403MPD2     N 6078   1.122   1.518  13.449 -0.1274 -0.0336  0.1861
  403MPD2    H5 6079   1.188   1.443  13.466  0.5903  0.7620  0.9426
  403MPD2    N1 6080   0.864   1.162  13.220  0.5886  0.2055 -0.1188
  403MPD2    H7 6081   0.785   1.144  13.159  0.7506  1.7635 -0.7817
  404TMC3    C1 6082   0.905   0.930  13.195 -0.3210  0.1693 -0.1056
  404TMC3    C2 6083   0.940   0.826  13.267  0.1017 -0.2331  0.4997
  404TMC3    C3 6084   0.942   0.695  13.215  0.6594 -0.0778 -0.2173
  404TMC3    C4 6085   0.875   0.918  13.065  0.2379 -0.0805 -0.9032
  404TMC3    C5 6086   0.889   0.792  13.012  0.4930  0.0595  0.8248
  404TMC3    C6 6087   0.919   0.680  13.086  1.2376  0.0168 -0.6583
  404TMC3     C 6088   0.949   1.061  13.238 -0.2735  0.9442  0.5394
  404TMC3     O 6089   1.050   1.065  13.304  0.5707  1.0133  0.0129
  404TMC3     H 6090   0.955   0.844  13.373 -2.8633 -0.4895  0.9652
  404TMC3    H1 6091   0.833   0.999  13.006  0.7050  1.0787  0.3735
  404TMC3    H2 6092   0.920   0.579  13.046  0.4161  0.2731 -1.3336
  404TMC3    C7 6093   0.849   0.772  12.871  0.0612  0.0993  0.2519
  404TMC3    C8 6094   0.983   0.585  13.296 -0.7489 -0.2839  0.3656
  404TMC3    O1 6095   0.832   0.656  12.834  0.7276 -0.0348  0.1116
  404TMC3    O2 6096   1.038   0.489  13.248 -0.5371 -0.7546 -0.3341
  405MPD2     C 6097   1.386   2.223  14.505  0.1412 -0.2417 -0.2535
  405MPD2    C1 6098   1.421   2.127  14.410  0.6969 -0.6802 -0.5432
  405MPD2    C2 6099   1.353   2.132  14.290 -0.5410  0.1237 -0.6457
  405MPD2    C3 6100   1.245   2.219  14.277 -0.3976 -0.1293 -0.6890
  405MPD2    C4 6101   1.214   2.309  14.371 -0.1089 -0.1345  0.2888
  405MPD2    C5 6102   1.288   2.312  14.483  0.2696  0.3655 -0.2258
  405MPD2     H 6103   1.388   2.081  14.201 -1.8009  0.0791 -1.1080
  405MPD2    H1 6104   1.135   2.382  14.356 -1.3097 -1.1747  1.4352
  405MPD2    H2 6105   1.440   2.232  14.599 -0.5370  0.1112  0.1076
  405MPD2    H3 6106   1.277   2.393  14.554  1.1992 -1.1219  1.6118
  405MPD2     N 6107   1.188   2.216  14.148  0.4802 -1.0471  0.3780
  405MPD2    H5 6108   1.229   2.168  14.068 -2.1020 -0.4039 -1.3544
  405MPD2    N1 6109   1.526   2.038  14.440 -0.0239  0.6362 -0.5016
  405MPD2    H7 6110   1.568   2.049  14.531  1.8816 -2.6518 -0.9929
  406TMC3    C1 6111   0.840   2.175  13.868  0.0770 -0.0526  0.0724
  406TMC3    C2 6112   0.890   2.054  13.831  0.0088 -0.2134 -0.1013
  406TMC3    C3 6113   1.010   2.016  13.875  0.2910  0.5753 -0.2121
  406TMC3    C4 6114   0.916   2.263  13.942  0.1850 -0.2896 -0.5354
  406TMC3    C5 6115   1.042   2.227  13.978 -0.3040 -0.0575 -0.3886
  406TMC3    C6 6116   1.092   2.101  13.950  0.2779 -0.1540 -0.2895
  406TMC3     C 6117   0.707   2.183  13.910 -0.3319 -0.7799  0.4453
  406TMC3     O 6118   0.649   2.284  13.872  0.7727  0.3593 -0.1077
  406TMC3     H 6119   0.827   1.986  13.774 -0.5877 -0.9256  1.4056
  406TMC3    H1 6120   0.868   2.356  13.971  1.5672 -0.0199  0.8762
  406TMC3    H2 6121   1.196   2.072  13.962  0.3433  0.9647  1.7391
  406TMC3    C7 6122   1.071   2.282  14.111  0.0390 -0.3870  0.5478
  406TMC3    C8 6123   1.057   1.880  13.852 -0.0804  0.3079  0.5974
  406TMC3    O1 6124   0.993   2.344  14.174 -0.1746 -0.0539 -0.4148
  406TMC3    O2 6125   1.028   1.832  13.745 -0.2226 -0.0742 -0.1825
  407MPD2     C 6126   4.210   2.857   9.455 -0.4031  0.2978 -0.7755
  407MPD2    C1 6127   4.241   2.991   9.469  0.8828 -0.4674  0.2941
  407MPD2    C2 6128   4.146   3.085   9.499 -0.0894 -0.7792  0.6247
  407MPD2    C3 6129   4.014   3.044   9.528 -0.7339  0.0896  0.0048
  407MPD2    C4 6130   3.986   2.912   9.535 -0.8830  0.8044 -0.0512
  407MPD2    C5 6131   4.085   2.822   9.489  0.3884  0.3405 -0.0619
  407MPD2     H 6132   4.185   3.186   9.501  1.4061 -1.3425 -0.2962
  407MPD2    H1 6133   3.887   2.883   9.568 -0.5867  0.3665  0.4458
  407MPD2    H2 6134   4.283   2.782   9.423  0.6582  0.4073  1.3814
  407MPD2    H3 6135   4.052   2.719   9.482  1.9267 -0.2127  0.8410
  407MPD2     N 6136   3.904   3.128   9.563 -0.0302  0.0450 -0.4581
  407MPD2    H5 6137   3.820   3.083   9.597  0.2391  1.3689  1.9463
  407MPD2    N1 6138   4.368   3.047   9.441 -0.6712 -0.3423  0.3284
  407MPD2    H7 6139   4.365   3.147   9.425 -0.7742 -0.1924  1.2685
  408TMC3    C1 6140   4.591   3.061   9.352 -0.5688 -0.0429 -0.0607
  408TMC3    C2 6141   4.708   2.985   9.332 -0.3600  0.6685  0.4744
  408TMC3    C3 6142   0.089   3.062   9.323  0.6506 -0.1851  0.6660
  408TMC3    C4 6143   4.584   3.196   9.347 -0.0939  0.4670  0.0913
  408TMC3    C5 6144   4.702   3.263   9.360  0.7928  0.8003  0.1968
  408TMC3    C6 6145   0.088   3.199   9.346  0.8624 -0.5344 -0.3447
  408TMC3     C 6146   4.482   2.979   9.396 -0.0354  0.3204 -0.3716
  408TMC3     O 6147   4.506   2.861   9.404  0.0683  0.1741 -0.3171
  408TMC3     H 6148   4.721   2.879   9.344  0.6636  0.5218 -1.9457
  408TMC3    H1 6149   4.495   3.256   9.364 -0.9991 -0.7779 -0.2924
  408TMC3    H2 6150   0.168   3.262   9.384  0.0702 -0.6793  1.5475
  408TMC3    C7 6151   4.714   3.410   9.375  0.1877 -0.4734  0.5010
  408TMC3    C8 6152   0.217   2.997   9.342 -0.0810  0.3193  0.4011
  408TMC3    O1 6153   0.058   3.456   9.298 -0.3778 -0.3124  0.4844
  408TMC3    O2 6154   0.209   2.876   9.346  0.1385 -0.0640 -0.5090
  409MPD2     C 6155   3.654   3.737  15.915 -0.7278  1.0827 -0.5254
  409MPD2    C1 6156   3.694   3.732  16.046  0.9629  0.1904  0.1788
  409MPD2    C2 6157   3.734   3.850  16.104  0.7435  0.5305 -0.3212
  409MPD2    C3 6158   3.737   3.972  16.030  1.1976 -0.7360  0.6403
  409MPD2    C4 6159   3.700   3.969  15.903  0.0293 -0.9980  0.0267
  409MPD2    C5 6160   3.654   3.854  15.841  0.3433 -0.3994  0.7197
  409MPD2     H 6161   3.765   3.843  16.208 -0.4530 -0.0799 -0.0023
  409MPD2    H1 6162   3.697   4.061  15.845 -0.8004 -0.6217  0.6573
  409MPD2    H2 6163   3.609   3.650  15.867 -1.0952  0.3820  1.0860
  409MPD2    H3 6164   3.608   3.850  15.743  0.0814  0.1524  0.8180
  409MPD2     N 6165   3.779   4.096  16.090 -0.4769  0.8083  1.0029
  409MPD2    H5 6166   3.797   4.169  16.022  0.4249 -0.2654  0.0854
  409MPD2    N1 6167   3.698   3.607  16.119 -0.2809  0.1035  0.3915
  409MPD2    H7 6168   3.733   3.624  16.213 -0.8271 -1.9239  0.9597
  410TMC3    C1 6169   3.846   4.258  16.250 -0.2688 -0.3678 -0.4444
  410TMC3    C2 6170   3.918   4.268  16.364  0.7477 -0.1478 -0.1109
  410TMC3    C3 6171   4.019   4.361  16.355  0.1281  0.1555 -0.3072
  410TMC3    C4 6172   3.855   4.342  16.136 -0.1937 -0.1844 -0.0656
  410TMC3    C5 6173   3.956   4.440  16.140  0.1070 -0.2318 -0.0363
  410TMC3    C6 6174   4.044   4.434  16.241 -0.1335  0.3226  0.0863
  410TMC3     C 6175   3.799   4.118  16.224 -1.1271 -0.2949 -0.9665
  410TMC3     O 6176   3.800   4.040  16.320 -0.1397 -0.2385 -0.2511
  410TMC3     H 6177   3.893   4.215  16.454 -0.3565  0.5801  0.0080
  410TMC3    H1 6178   3.803   4.327  16.042 -0.5169  0.3558  0.0274
  410TMC3    H2 6179   4.133   4.494  16.235  0.1093  0.1890  2.1151
  410TMC3    C7 6180   3.991   4.514  16.018 -0.2839 -0.4624  0.1714
  410TMC3    C8 6181   4.119   4.371  16.464  0.7015 -1.0314 -0.2542
  410TMC3    O1 6182   3.967   4.449  15.917 -0.0815  0.0135 -0.0208
  410TMC3    O2 6183   4.182   4.474  16.477 -0.2707 -0.1298 -0.8083
  411MPD2     C 6184   3.966   4.576  14.625 -0.4073 -0.1357 -0.1667
  411MPD2    C1 6185   3.871   4.605  14.725  0.1069  0.4336 -0.6211
  411MPD2    C2 6186   3.784   4.505  14.759  0.4880 -0.5868  0.1233
  411MPD2    C3 6187   3.787   4.383  14.693  0.1376  0.5503  0.1180
  411MPD2    C4 6188   3.889   4.346  14.606  0.2476  0.4829  0.7008
  411MPD2    C5 6189   3.973   4.450  14.571  0.9016 -0.0519  0.9873
  411MPD2     H 6190   3.709   4.523  14.836  2.8384  1.8889  1.8411
  411MPD2    H1 6191   3.901   4.258  14.542  2.3661  0.5563  0.9812
  411MPD2    H2 6192   4.028   4.652  14.578  0.1105  0.5783  1.6721
  411MPD2    H3 6193   4.057   4.432  14.505 -0.6139 -1.3474 -0.5636
  411MPD2     N 6194   3.687   4.287  14.710 -0.3240  0.2671  0.2825
  411MPD2    H5 6195   3.700   4.193  14.675 -1.0811 -0.3502  1.6341
  411MPD2    N1 6196   3.851   4.736  14.758 -0.0580  0.6922  0.2439
  411MPD2    H7 6197   3.885   0.076  14.701 -1.4636  1.6862  0.7205
  412TMC3    C1 6198   3.464   4.209  14.719  0.0643 -0.1764 -0.9521
  412TMC3    C2 6199   3.338   4.216  14.773 -0.3771  0.6415  0.5864
  412TMC3    C3 6200   3.247   4.131  14.725 -0.5133  0.7355  0.5217
  412TMC3    C4 6201   3.487   4.124  14.613  0.0745  0.4504 -0.2259
  412TMC3    C5 6202   3.397   4.037  14.572  1.4366  0.2619 -0.1983
  412TMC3    C6 6203   3.277   4.040  14.628  0.0904  0.6458  0.1196
  412TMC3     C 6204   3.564   4.312  14.760  0.2743  0.3547  0.0129
  412TMC3     O 6205   3.533   4.408  14.826 -0.0853 -0.6165  0.2405
  412TMC3     H 6206   3.312   4.292  14.845 -2.2490 -2.7228  3.4357
  412TMC3    H1 6207   3.575   4.116  14.550 -0.0176  1.7844 -0.5397
  412TMC3    H2 6208   3.201   3.992  14.567 -0.0108 -2.0796  2.4401
  412TMC3    C7 6209   3.394   4.052  14.427  0.1679 -0.2841  0.3835
  412TMC3    C8 6210   3.117   4.198  14.704  0.0862  0.0693  0.6056
  412TMC3    O1 6211   3.490   4.020  14.364 -0.0840 -0.6477  0.0422
  412TMC3    O2 6212   3.070   4.182  14.590  0.0534  0.1027 -0.1998
  413MPD2     C 6213   0.676   3.514  15.372 -0.0471 -0.1625  0.1384
  413MPD2    C1 6214   0.601   3.433  15.284  0.1812 -0.0260  0.2369
  413MPD2    C2 6215   0.658   3.321  15.234 -0.0036  0.1111 -0.6186
  413MPD2    C3 6216   0.797   3.291  15.252  0.3351 -0.2879 -0.2950
  413MPD2    C4 6217   0.865   3.376  15.336 -0.9596  0.3505 -0.4676
  413MPD2    C5 6218   0.808   3.485  15.391 -0.5188  0.7383 -0.3903
  413MPD2     H 6219   0.602   3.248  15.176 -1.1612  0.2712  0.2932
  413MPD2    H1 6220   0.970   3.362  15.355 -1.0093  0.2224 -0.2831
  413MPD2    H2 6221   0.643   3.601  15.427 -1.3233 -0.9618  0.6526
  413MPD2    H3 6222   0.867   3.550  15.454 -2.3353  2.2368 -0.2276
  413MPD2     N 6223   0.853   3.183  15.182 -0.5921  0.1313 -0.4784
  413MPD2    H5 6224   0.801   3.140  15.107 -0.6749 -1.6125  0.5607
  413MPD2    N1 6225   0.465   3.464  15.267  0.4335 -0.6709 -0.1127
  413MPD2    H7 6226   0.435   3.546  15.319  0.5087 -1.3611  1.0303
  414TMC3    C1 6227   1.030   3.053  15.102  0.8663 -0.3003  0.7199
  414TMC3    C2 6228   1.080   2.934  15.150 -0.5666  0.5344 -0.2051
  414TMC3    C3 6229   1.051   2.817  15.078 -0.2794  0.6094  0.2949
  414TMC3    C4 6230   0.944   3.044  14.991 -0.4388 -0.3577  0.1719
  414TMC3    C5 6231   0.916   2.932  14.920  0.2768 -0.9811 -1.1259
  414TMC3    C6 6232   0.962   2.810  14.970 -0.3438  0.1870 -0.0558
  414TMC3     C 6233   0.979   3.140  15.206 -0.5978  0.1725  0.9871
  414TMC3     O 6234   1.058   3.163  15.299  0.0830  0.0994  0.0550
  414TMC3     H 6235   1.139   2.937  15.241  0.7174 -0.6440 -1.0077
  414TMC3    H1 6236   0.915   3.137  14.944  2.8998 -0.0087 -1.2299
  414TMC3    H2 6237   0.952   2.723  14.906 -1.0122  0.4633 -0.3232
  414TMC3    C7 6238   0.818   2.947  14.821 -0.0190  0.2040 -0.5450
  414TMC3    C8 6239   1.127   2.690  15.101  0.1547  0.1504  0.0756
  414TMC3    O1 6240   0.727   3.021  14.855  0.3747  0.2179  0.6399
  414TMC3    O2 6241   1.085   2.586  15.056 -0.0505  0.1052 -0.3999
  415TMC3    C1 6242   1.308   0.869   9.789  0.2849  0.0653  0.1661
  415TMC3    C2 6243   1.373   0.968   9.722  0.0378 -0.4757  0.0281
  415TMC3    C3 6244   1.307   1.026   9.615 -0.2664  0.1674  0.3964
  415TMC3    C4 6245   1.177   0.840   9.770 -0.2698 -0.2163 -0.3689
  415TMC3    C5 6246   1.112   0.893   9.657  0.4257 -0.0089  0.4439
  415TMC3    C6 6247   1.174   0.994   9.589  0.2755  0.7753  0.2657
  415TMC3     C 6248   1.371   0.776   9.881 -0.2035  0.7107  1.1579
  415TMC3     O 6249   1.310   0.668   9.880  0.0726  0.2537  0.0603
  415TMC3     H 6250   1.468   1.013   9.745  0.0721 -0.5531  0.0370
  415TMC3    H1 6251   1.129   0.766   9.833  1.9493 -2.2504 -1.0898
  415TMC3    H2 6252   1.136   1.022   9.492  4.0743  1.3827 -1.0510
  415TMC3    C7 6253   0.995   0.835   9.605 -0.4801 -0.8230  0.0808
  415TMC3    C8 6254   1.355   1.149   9.548 -0.3338 -0.3415  0.7799
  415TMC3    O1 6255   0.947   0.891   9.506 -0.1855 -0.0342 -0.2399
  415TMC3    O2 6256   1.267   1.229   9.518 -0.2716 -0.4323  0.3560
  416MPD2     C 6257   3.159   0.407  10.910  0.7688 -0.6415  0.2151
  416MPD2    C1 6258   3.027   0.375  10.892  0.2035  0.0987  0.5823
  416MPD2    C2 6259   2.999   0.247  10.858 -0.0633 -0.2461  0.1314
  416MPD2    C3 6260   3.105   0.158  10.844 -0.6550 -0.7426  0.1454
  416MPD2    C4 6261   3.236   0.188  10.865 -0.1779 -0.1794  0.9602
  416MPD2    C5 6262   3.265   0.318  10.889  0.7784  0.1848  0.7393
  416MPD2     H 6263   2.897   0.218  10.834 -0.7124 -0.4406  3.0893
  416MPD2    H1 6264   3.318   0.120  10.847 -0.3126 -0.4635  1.4317
  416MPD2    H2 6265   3.178   0.507  10.946  0.7259 -1.5835  2.9050
  416MPD2    H3 6266   3.370   0.344  10.889  0.5276  1.2157 -0.6172
  416MPD2     N 6267   3.079   0.020  10.811  0.2193 -0.1449  0.1525
  416MPD2    H5 6268   3.161   4.695  10.814  0.2757 -0.2560 -3.1936
  416MPD2    N1 6269   2.936   0.480  10.925  0.1038 -0.1676 -0.0974
  416MPD2    H7 6270   2.980   0.568  10.951 -0.6132  0.1395  0.0655
  417TMC3    C1 6271   2.744   0.611  10.964 -0.6412 -0.1799 -0.5684
  417TMC3    C2 6272   2.774   0.657  11.090 -0.9636  0.5800  0.2506
  417TMC3    C3 6273   2.698   0.768  11.128 -0.5899 -0.3301  0.7116
  417TMC3    C4 6274   2.640   0.656  10.886  0.3097  0.8618  0.3905
  417TMC3    C5 6275   2.562   0.754  10.945  0.5957  0.3392  0.1234
  417TMC3    C6 6276   2.586   0.809  11.063  0.1981 -0.2570  0.2190
  417TMC3     C 6277   2.796   0.484  10.925 -0.0754  0.0953  0.5753
  417TMC3     O 6278   2.721   0.408  10.865 -0.1571  0.3031  0.4475
  417TMC3     H 6279   2.830   0.606  11.167 -0.2502  0.6158 -0.2387
  417TMC3    H1 6280   2.614   0.610  10.791  0.7137 -0.1221  0.7578
  417TMC3    H2 6281   2.543   0.906  11.085 -0.8622 -0.5601 -0.4717
  417TMC3    C7 6282   2.498   0.831  10.844  0.0899  0.2674  0.8980
  417TMC3    C8 6283   2.699   0.812  11.266 -0.0747  0.7750  0.3869
  417TMC3    O1 6284   2.561   0.817  10.737 -0.0677  0.3346  0.1774
  417TMC3    O2 6285   2.596   0.864  11.305 -0.1290  0.4833  0.6376
  418TMC3    C1 6286   1.949   1.629   0.059  0.6777  0.5173 -0.1337
  418TMC3    C2 6287   1.832   1.695   0.029 -0.1466  0.7593 -0.1910
  418TMC3    C3 6288   1.769   1.764   0.133 -0.5592  0.1913 -0.1572
  418TMC3    C4 6289   2.003   1.622   0.184 -0.6579  1.3171  0.4803
  418TMC3    C5 6290   1.936   1.684   0.285  0.1109 -0.2893 -0.6947
  418TMC3    C6 6291   1.812   1.748   0.262  0.1236  0.0210 -0.3837
  418TMC3     C 6292   1.980   1.504  17.728 -0.2852  0.4328  0.5457
  418TMC3     O 6293   1.983   1.405   0.053  0.4309 -0.3088  0.4459
  418TMC3     H 6294   1.789   1.684  17.675  1.2205  0.5595 -0.7647
  418TMC3    H1 6295   2.101   1.576   0.192  0.4779  3.4217 -1.4375
  418TMC3    H2 6296   1.752   1.794   0.340  1.4398 -0.0849  0.6888
  418TMC3    C7 6297   1.941   1.602   0.400 -0.0191 -0.3304  0.3183
  418TMC3    C8 6298   1.623   1.775   0.141 -0.0935 -0.6190  0.3024
  418TMC3    O1 6299   1.994   1.490   0.394 -0.0644 -0.2511  0.8124
  418TMC3    O2 6300   1.582   1.888   0.132 -0.6738 -0.2654  0.4267
  419MPD2     C 6301   0.568   4.277  12.236  0.6457  0.2491  0.2928
  419MPD2    C1 6302   0.554   4.412  12.218  0.8025 -0.3395  0.8179
  419MPD2    C2 6303   0.489   4.479  12.320  0.2490  0.4016 -0.5050
  419MPD2    C3 6304   0.431   4.425  12.431 -0.0998 -0.1723  0.6045
  419MPD2    C4 6305   0.448   4.289  12.446 -0.0185 -0.3658  0.6947
  419MPD2    C5 6306   0.519   4.219  12.348  0.2560 -0.0244  0.2010
  419MPD2     H 6307   0.470   4.584  12.302 -2.2532 -0.0830 -0.7411
  419MPD2    H1 6308   0.414   4.236  12.535  1.1225  1.4373  2.2035
  419MPD2    H2 6309   0.615   4.211  12.164 -1.2392 -3.3143  2.3393
  419MPD2    H3 6310   0.542   4.114  12.355  1.4031  0.1308 -1.2817
  419MPD2     N 6311   0.374   4.515  12.525 -0.4135 -0.3103  0.0710
  419MPD2    H5 6312   0.354   4.611  12.496 -2.8106 -0.3298  1.6618
  419MPD2    N1 6313   0.587   4.480  12.101 -0.4739  0.0669  0.0217
  419MPD2    H7 6314   0.565   4.579  12.093  1.1068  0.4044 -0.2190
  420TMC3    C1 6315   0.253   4.592  12.707 -0.0053 -0.0871  0.4087
  420TMC3    C2 6316   0.162   4.661  12.630 -0.0004  0.1703 -0.2428
  420TMC3    C3 6317   0.066   4.724  12.704 -0.3564 -0.8055  0.3047
  420TMC3    C4 6318   0.262   4.614  12.841  0.2800 -0.6736 -0.8166
  420TMC3    C5 6319   0.174   4.698  12.909 -0.1155 -0.6085  1.2665
  420TMC3    C6 6320   0.070   0.003  12.839 -0.0349 -0.7205  0.0025
  420TMC3     C 6321   0.322   4.482  12.650 -0.2111 -0.1596 -0.3123
  420TMC3     O 6322   0.349   4.389  12.729 -0.1818 -0.1071 -0.1676
  420TMC3     H 6323   0.154   4.647  12.523 -1.8751  1.5236 -0.2746
  420TMC3    H1 6324   0.342   4.565  12.895 -0.5712  0.6152  1.6178
  420TMC3    H2 6325   4.718   0.044  12.887  0.4178 -0.7659  0.8770
  420TMC3    C7 6326   0.167   4.680  13.046 -0.3218 -0.2362 -0.0662
  420TMC3    C8 6327   4.670   0.010  12.653  0.6536 -0.0209  0.3812
  420TMC3    O1 6328   0.217   4.577  13.092  0.1493 -0.1400 -0.3574
  420TMC3    O2 6329   4.606   0.110  12.690 -0.3518  0.1035 -0.0612
  421TMC3    C1 6330   1.299   1.642  13.527  0.2041  0.8466  0.0629
  421TMC3    C2 6331   1.332   1.753  13.606  0.7515 -0.7141  0.7044
  421TMC3    C3 6332   1.461   1.772  13.641 -0.0878 -0.5440 -0.2517
  421TMC3    C4 6333   1.393   1.549  13.495 -0.0198  0.5540 -0.0492
  421TMC3    C5 6334   1.525   1.568  13.537 -0.1680 -0.0259  0.3950
  421TMC3    C6 6335   1.555   1.676  13.612  0.4518 -0.6278  0.4131
  421TMC3     C 6336   1.166   1.646  13.468 -0.1385 -0.1571 -0.4434
  421TMC3     O 6337   1.113   1.758  13.448 -0.0687 -0.0694 -0.4046
  421TMC3     H 6338   1.259   1.828  13.636  0.6043  0.2239 -1.9722
  421TMC3    H1 6339   1.364   1.487  13.410 -3.2534  0.5244  1.0621
  421TMC3    H2 6340   1.655   1.676  13.655  0.1908 -0.9909  1.0298
  421TMC3    C7 6341   1.633   1.494  13.471 -1.0904 -0.1217 -0.1816
  421TMC3    C8 6342   1.495   1.875  13.740 -0.0754  0.3335 -0.0863
  421TMC3    O1 6343   1.741   1.548  13.451 -0.3039  0.9021  0.4119
  421TMC3    O2 6344   1.594   1.847  13.810 -0.0678  0.0210 -0.2147
  422TMC3    C1 6345   4.105   2.788  12.396 -0.4115 -0.4080  0.1655
  422TMC3    C2 6346   4.153   2.853  12.511  0.5572  0.3797  0.6005
  422TMC3    C3 6347   4.086   2.829  12.626  0.3057  0.3430 -0.7348
  422TMC3    C4 6348   3.993   2.716  12.408  0.2528  0.3425 -0.9140
  422TMC3    C5 6349   3.930   2.700  12.522  0.0658  0.9607  0.3906
  422TMC3    C6 6350   3.975   2.751  12.642 -0.5762 -0.4513  0.0628
  422TMC3     C 6351   4.196   2.775  12.286 -0.5560  0.3313 -0.2113
  422TMC3     O 6352   4.271   2.872  12.267  0.0499  0.2630 -0.3642
  422TMC3     H 6353   4.241   2.917  12.508  0.6264  0.1416 -2.3517
  422TMC3    H1 6354   3.955   2.665  12.320  0.8767 -0.0606 -0.9475
  422TMC3    H2 6355   3.925   2.730  12.736  1.8040 -1.2309  1.1290
  422TMC3    C7 6356   3.834   2.591  12.523  0.6228  0.1721 -0.2062
  422TMC3    C8 6357   4.155   2.860  12.759  0.1529 -0.3984 -0.1268
  422TMC3    O1 6358   3.859   2.502  12.447  0.0136 -0.2922  0.1697
  422TMC3    O2 6359   4.260   2.926  12.741  0.0036 -0.3968 -0.0913
  423MPD2     C 6360   0.367   3.154   0.319  0.6256 -0.3199 -0.3159
  423MPD2    C1 6361   0.464   3.213   0.251  0.8870  0.4283 -0.4546
  423MPD2    C2 6362   0.463   3.215   0.117 -0.6122 -0.1442  0.8242
  423MPD2    C3 6363   0.369   3.142   0.048 -0.2172 -1.0070  0.6327
  423MPD2    C4 6364   0.270   3.085   0.115 -0.4523 -0.6283  1.1624
  423MPD2    C5 6365   0.262   3.096   0.251  0.1101 -1.0932  0.8618
  423MPD2     H 6366   0.530   3.278   0.060 -1.3670  1.3668  1.5918
  423MPD2    H1 6367   0.184   3.046   0.061  1.7874 -2.0519 -1.3754
  423MPD2    H2 6368   0.355   3.145   0.426 -0.0627 -0.1617 -0.3757
  423MPD2    H3 6369   0.194   3.032   0.307 -2.1532  1.6087  1.1432
  423MPD2     N 6370   0.365   3.125  17.650 -0.0583  0.1078  0.7056
  423MPD2    H5 6371   0.305   3.056  17.607  0.9084 -1.2031  1.4514
  423MPD2    N1 6372   0.560   3.305   0.318  0.2388 -0.2243 -0.4315
  423MPD2    H7 6373   0.636   3.344   0.263  0.2453 -0.7904 -0.8302
  424TMC3    C1 6374   0.649   3.456   0.471  0.0019  0.3075 -0.4259
  424TMC3    C2 6375   0.765   3.443   0.405 -0.0546 -0.6338 -0.4211
  424TMC3    C3 6376   0.857   3.540   0.428  0.1602 -0.5605  0.5339
  424TMC3    C4 6377   0.617   3.563   0.548 -0.6834  0.6347 -0.5240
  424TMC3    C5 6378   0.713   3.662   0.559  0.3563  0.3455 -0.1201
  424TMC3    C6 6379   0.835   3.652   0.496 -0.1321 -0.2456 -0.5535
  424TMC3     C 6380   0.548   3.363   0.442 -0.3612 -0.5775  0.2315
  424TMC3     O 6381   0.461   3.334   0.522 -0.4683 -0.0632  0.0845
  424TMC3     H 6382   0.787   3.343   0.368 -0.0908 -0.3983 -1.0869
  424TMC3    H1 6383   0.521   3.573   0.597 -0.5354  0.1800 -0.1497
  424TMC3    H2 6384   0.902   3.736   0.497  1.0119 -1.1964  2.7154
  424TMC3    C7 6385   0.681   3.777   0.645  0.1129  0.1061  0.2317
  424TMC3    C8 6386   0.991   3.511   0.378  0.3897 -0.0864  0.6299
  424TMC3    O1 6387   0.776   3.839   0.694  0.2472  0.0453 -0.3008
  424TMC3    O2 6388   0.997   3.399   0.321 -0.0893  0.0386 -0.0447
  425MPD2     C 6389   4.327   2.795  17.133 -0.9829  0.0439  0.7596
  425MPD2    C1 6390   4.250   2.687  17.172  0.1963 -0.3098  0.7647
  425MPD2    C2 6391   4.118   2.714  17.220 -0.3477 -0.2323 -0.2728
  425MPD2    C3 6392   4.061   2.841  17.203  0.1451  0.2647  0.0709
  425MPD2    C4 6393   4.141   2.944  17.146 -0.0245  0.6877  0.9184
  425MPD2    C5 6394   4.273   2.921  17.117  0.2834  0.0093 -0.1065
  425MPD2     H 6395   4.057   2.632  17.254  0.3428 -1.5647 -2.2409
  425MPD2    H1 6396   4.104   3.041  17.112 -1.9688 -1.0865 -2.0549
  425MPD2    H2 6397   4.430   2.785  17.102 -0.8327 -0.2515  1.3679
  425MPD2    H3 6398   4.334   3.002  17.080  0.4966  0.1672  0.5930
  425MPD2     N 6399   3.923   2.853  17.237  0.4341  0.1257 -0.3186
  425MPD2    H5 6400   3.877   2.763  17.249 -0.0176  0.5483  1.0979
  425MPD2    N1 6401   4.296   2.551  17.159  0.0373 -0.1345 -0.4460
  425MPD2    H7 6402   4.382   2.544  17.104 -0.5649  1.9579 -1.6544
  426TMC3    C1 6403   4.269   2.310  17.166 -0.5927 -0.0151  0.0661
  426TMC3    C2 6404   4.338   2.304  17.051 -0.3374  0.4284 -0.5977
  426TMC3    C3 6405   4.353   2.184  16.994  0.0591  0.7674  0.2592
  426TMC3    C4 6406   4.212   2.201  17.231  0.4042 -0.3331 -0.1690
  426TMC3    C5 6407   4.222   2.083  17.169  0.0030 -0.1728 -0.5915
  426TMC3    C6 6408   4.298   2.076  17.056  0.2128  0.2389 -0.1181
  426TMC3     C 6409   4.224   2.440  17.210 -0.1708  0.0518  0.0840
  426TMC3     O 6410   4.134   2.440  17.292  0.2335  0.0681  0.1619
  426TMC3     H 6411   4.379   2.392  17.003 -0.1622  0.6170 -0.1121
  426TMC3    H1 6412   4.146   2.209  17.317 -1.9334 -0.6767 -1.9358
  426TMC3    H2 6413   4.304   1.979  17.008 -0.2265  0.8467 -1.4048
  426TMC3    C7 6414   4.133   1.969  17.206  0.5247  0.0085 -0.0519
  426TMC3    C8 6415   4.425   2.162  16.873  0.0409 -0.5532  0.5217
  426TMC3    O1 6416   4.152   1.858  17.158  0.6216  0.1850  0.0553
  426TMC3    O2 6417   4.420   2.050  16.824  0.4933 -0.9568  0.1006
  427MPD2     C 6418   3.096   0.161  14.707 -0.2807  0.3191 -0.3480
  427MPD2    C1 6419   3.056   0.118  14.832  0.0534 -0.3694 -0.3566
  427MPD2    C2 6420   2.923   0.130  14.862 -0.3296 -0.5076 -0.2040
  427MPD2    C3 6421   2.832   0.176  14.767 -0.0664  0.1319 -0.1263
  427MPD2    C4 6422   2.876   0.229  14.650  0.0273 -0.0134 -0.0297
  427MPD2    C5 6423   3.007   0.221  14.622 -0.3823 -0.4191 -0.6011
  427MPD2     H 6424   2.892   0.098  14.960 -0.7694 -1.3177 -0.6050
  427MPD2    H1 6425   2.822   0.294  14.582  1.7698  1.9343  0.4438
  427MPD2    H2 6426   3.200   0.144  14.680  0.2749 -1.0205  2.6334
  427MPD2    H3 6427   3.051   0.269  14.535 -0.2367 -0.4758 -0.5592
  427MPD2     N 6428   2.688   0.182  14.782 -0.4024 -0.6105  0.0333
  427MPD2    H5 6429   2.630   0.190  14.700  0.5822  0.5064 -0.5612
  427MPD2    N1 6430   3.137   0.034  14.914 -0.1397 -0.2542  0.1375
  427MPD2    H7 6431   3.092   0.000  14.999  1.5880  0.7662  1.4569
  428TMC3    C1 6432   3.304   4.650  14.990  0.4566  0.1946 -0.1682
  428TMC3    C2 6433   3.216   4.564  15.045 -0.0341 -0.3919  0.1532
  428TMC3    C3 6434   3.250   4.505  15.162 -0.1719  0.2046  0.2537
  428TMC3    C4 6435   3.412   4.700  15.060  0.4432  0.0242 -0.1616
  428TMC3    C5 6436   3.440   4.643  15.182  0.0782 -0.7329  0.3727
  428TMC3    C6 6437   3.354   4.548  15.237 -1.2201  0.1649  0.6772
  428TMC3     C 6438   3.266   0.009  14.892  0.3822  0.1720  0.0494
  428TMC3     O 6439   3.353   0.058  14.821 -0.1992 -0.0030  0.4423
  428TMC3     H 6440   3.126   4.530  14.995 -1.0234 -1.2721  2.5575
  428TMC3    H1 6441   3.459   0.058  15.033  2.5472 -1.1049 -0.4388
  428TMC3    H2 6442   3.388   4.503  15.330  0.7001 -2.3819 -1.2427
  428TMC3    C7 6443   3.503   4.730  15.279  0.0995 -0.5108 -0.2401
  428TMC3    C8 6444   3.162   4.412  15.232 -0.0273 -0.2621 -0.2086
  428TMC3    O1 6445   3.455   4.715  15.391 -0.0860  0.6296 -0.3835
  428TMC3    O2 6446   3.102   4.324  15.169 -0.3470  0.4670  0.5162
  429MPD2     C 6447   3.803   4.587  16.993  0.1757  0.4778  0.1883
  429MPD2    C1 6448   3.934   4.556  17.036  0.2675 -0.2651  0.1169
  429MPD2    C2 6449   4.017   4.655  17.078 -0.4107  0.5881 -0.2932
  429MPD2    C3 6450   3.980   0.053  17.066 -0.5479 -0.0172  0.1698
  429MPD2    C4 6451   3.854   0.092  17.017 -0.5461  0.1571 -0.2304
  429MPD2    C5 6452   3.767   4.720  16.990 -0.6160 -0.8368  0.0114
  429MPD2     H 6453   4.118   4.640  17.113 -0.7799 -0.8838  0.1670
  429MPD2    H1 6454   3.816   0.193  17.011 -0.5830  0.1794  0.4059
  429MPD2    H2 6455   3.741   4.508  16.954  0.4162  0.3289  0.1123
  429MPD2    H3 6456   3.665   0.009  16.963 -0.7925 -0.0229  1.4645
  429MPD2     N 6457   4.090   0.143  17.084 -0.0776  0.0767  0.2194
  429MPD2    H5 6458   4.178   0.108  17.120 -1.3635 -3.7841 -0.4616
  429MPD2    N1 6459   3.990   4.423  17.036 -0.3498  0.7372  0.4049
  429MPD2    H7 6460   4.072   4.402  17.093  0.4890  0.8562 -0.7396
  430TMC3    C1 6461   4.220   0.339  17.028 -0.3859  0.1198  0.6060
  430TMC3    C2 6462   4.220   0.471  16.996  0.7931 -0.2341 -0.1060
  430TMC3    C3 6463   4.319   0.524  16.915 -0.4543  0.1713  0.4507
  430TMC3    C4 6464   4.325   0.261  16.991 -0.2093 -0.7273  0.4483
  430TMC3    C5 6465   4.409   0.314  16.897 -0.5904 -0.5322  0.2166
  430TMC3    C6 6466   4.412   0.442  16.859 -0.2628 -0.0537  0.0944
  430TMC3     C 6467   4.093   0.282  17.051 -0.4689 -0.1111  0.3668
  430TMC3     O 6468   4.001   0.349  17.010 -0.3053 -0.4674  0.0971
  430TMC3     H 6469   4.145   0.537  17.040 -0.0772  1.0786 -3.6188
  430TMC3    H1 6470   4.327   0.153  17.007 -2.5368 -0.7824  0.4746
  430TMC3    H2 6471   4.486   0.488  16.794  0.7112 -0.2884  1.0289
  430TMC3    C7 6472   4.429   0.226  16.781  0.7565 -0.7514 -0.1795
  430TMC3    C8 6473   4.262   0.611  16.811  0.2578 -0.3127 -0.3354
  430TMC3    O1 6474   4.449   0.106  16.797  0.6791 -0.1312  0.4365
  430TMC3    O2 6475   4.299   0.588  16.695  0.4227  0.1883 -0.0035
  431MPD2     C 6476   0.117   0.092  12.278  0.1718  0.5012  0.0125
  431MPD2    C1 6477   0.189   0.167  12.187 -0.4499 -0.2674  0.3058
  431MPD2    C2 6478   0.212   0.121  12.061 -0.1830 -0.7294  0.2957
  431MPD2    C3 6479   0.195   4.723  12.040  0.4228 -0.6161  0.1010
  431MPD2    C4 6480   0.125   4.642  12.127 -0.4866  0.3293  0.6716
  431MPD2    C5 6481   0.085   4.701  12.246  0.1699  0.7338  0.2646
  431MPD2     H 6482   0.264   0.187  11.992  2.2627 -1.5027  1.3966
  431MPD2    H1 6483   0.100   4.538  12.110  1.3528  0.0004  0.0349
  431MPD2    H2 6484   0.063   0.135  12.362  1.2039  0.5709  0.6361
  431MPD2    H3 6485   0.022   4.648  12.317  0.0918  1.2560  0.5845
  431MPD2     N 6486   0.249   4.651  11.926  0.1266  0.3964 -0.1907
  431MPD2    H5 6487   0.234   4.551  11.931  0.8347  0.2319 -1.4179
  431MPD2    N1 6488   0.221   0.302  12.200  0.8088  0.2837 -0.3035
  431MPD2    H7 6489   0.237   0.357  12.117  0.3060 -0.6676 -1.0352
  432TMC3    C1 6490   0.425   4.604  11.782 -0.0050  0.2780 -0.8523
  432TMC3    C2 6491   0.513   4.640  11.692  0.4017 -0.3431  0.6321
  432TMC3    C3 6492   0.642   4.596  11.688 -0.0961 -0.1792  0.4348
  432TMC3    C4 6493   0.466   4.515  11.873 -0.5119 -0.1665  0.1848
  432TMC3    C5 6494   0.593   4.461  11.871  0.2807  0.6758 -0.3367
  432TMC3    C6 6495   0.685   4.503  11.783 -0.1191  0.3838 -0.4953
  432TMC3     C 6496   0.334   4.702  11.827  0.4380 -0.1024  0.2920
  432TMC3     O 6497   0.328   0.071  11.772 -0.1692  0.1421  0.2701
  432TMC3     H 6498   0.487   4.708  11.612 -0.7858 -0.9823  0.4753
  432TMC3    H1 6499   0.399   4.462  11.940 -2.2744  0.5996 -0.9729
  432TMC3    H2 6500   0.785   4.461  11.788  0.2225  1.1695 -0.7024
  432TMC3    C7 6501   0.649   4.421  11.994 -0.7962  0.4854 -0.2560
  432TMC3    C8 6502   0.724   4.644  11.577  0.0509  0.0116  0.0731
  432TMC3    O1 6503   0.727   4.327  11.989 -0.1750 -0.8886 -0.2033
  432TMC3    O2 6504   0.666   4.670  11.470  0.6026  0.1315  0.1290
  433MPD2     C 6505   3.775   3.505  10.472 -0.4250  0.7406 -0.1321
  433MPD2    C1 6506   3.785   3.399  10.563 -0.5600  0.1489 -0.5349
  433MPD2    C2 6507   3.882   3.413  10.662  0.2498 -0.2640  0.2929
  433MPD2    C3 6508   3.956   3.533  10.674  0.1419 -0.7182  1.0853
  433MPD2    C4 6509   3.934   3.637  10.585 -0.3162  0.8020  0.3351
  433MPD2    C5 6510   3.850   3.623  10.482  0.7431 -0.0593  0.4305
  433MPD2     H 6511   3.889   3.334  10.735  0.9035  0.5664  1.1306
  433MPD2    H1 6512   3.986   3.732  10.581 -0.1340  0.6995  0.2878
  433MPD2    H2 6513   3.696   3.508  10.398 -1.6145 -2.9036  1.0360
  433MPD2    H3 6514   3.831   3.696  10.404  0.7482 -1.4663 -0.9107
  433MPD2     N 6515   4.044   3.550  10.786 -0.3317 -0.5528 -0.6896
  433MPD2    H5 6516   4.040   3.474  10.853  1.0648  1.6846  1.9600
  433MPD2    N1 6517   3.701   3.286  10.545  0.0225 -0.2347  0.7245
  433MPD2    H7 6518   3.639   3.292  10.465  0.0428  2.5342  0.9230
  434TMC3    C1 6519   3.603   3.078  10.585 -0.5501 -0.2398  0.8753
  434TMC3    C2 6520   3.632   2.966  10.653  0.4584  0.2688 -0.1068
  434TMC3    C3 6521   3.658   2.853  10.577 -0.0886 -0.8738  0.3511
  434TMC3    C4 6522   3.566   3.080  10.457 -0.1965  0.0939  0.0431
  434TMC3    C5 6523   3.588   2.964  10.385 -0.5629 -0.9034  0.5693
  434TMC3    C6 6524   3.639   2.852  10.446 -0.4168  0.8236 -0.2459
  434TMC3     C 6525   3.695   3.179  10.628 -0.4263 -0.1425  0.0449
  434TMC3     O 6526   3.769   3.164  10.726 -0.1098  0.6889 -0.1975
  434TMC3     H 6527   3.658   2.959  10.758  1.8881  0.9472 -0.4087
  434TMC3    H1 6528   3.520   3.165  10.408 -1.7700 -0.1124  1.1550
  434TMC3    H2 6529   3.682   2.771  10.389  2.4708  1.6332  0.7406
  434TMC3    C7 6530   3.523   2.941  10.257 -0.6934 -0.0383 -0.7442
  434TMC3    C8 6531   3.741   2.750  10.646  0.6008 -0.1850  0.3799
  434TMC3    O1 6532   3.490   3.041  10.195 -0.8595  0.0648  0.0307
  434TMC3    O2 6533   3.724   2.747  10.767 -0.1539  0.1033  0.4625
  435MPD2     C 6534   1.667   3.707  15.291 -0.1507  0.0311  0.8305
  435MPD2    C1 6535   1.619   3.717  15.421 -0.0159  0.0045 -0.2014
  435MPD2    C2 6536   1.694   3.650  15.520  0.7779  0.0486 -0.4007
  435MPD2    C3 6537   1.804   3.579  15.494  0.5546 -0.0991  0.2826
  435MPD2    C4 6538   1.854   3.572  15.358 -0.5761  0.3069  0.6787
  435MPD2    C5 6539   1.784   3.637  15.261  0.0589 -0.4277 -0.0583
  435MPD2     H 6540   1.656   3.655  15.621 -2.8679  0.6454 -1.7991
  435MPD2    H1 6541   1.936   3.508  15.330 -1.9125 -0.3064 -1.7966
  435MPD2    H2 6542   1.611   3.758  15.213  0.0181 -1.9769 -0.5791
  435MPD2    H3 6543   1.819   3.630  15.158  1.0208 -2.1539  0.3924
  435MPD2     N 6544   1.856   3.489  15.588 -0.6778 -0.1041 -0.4394
  435MPD2    H5 6545   1.809   3.482  15.678 -0.2940  0.4236 -0.1974
  435MPD2    N1 6546   1.493   3.771  15.458  0.1698 -0.4137 -0.2824
  435MPD2    H7 6547   1.457   3.768  15.553  0.9240 -0.0856  0.0216
  436TMC3    C1 6548   1.117   3.830  15.617  0.1275 -0.5798  0.0605
  436TMC3    C2 6549   1.235   3.788  15.555  0.3046 -0.2394 -0.5291
  436TMC3    C3 6550   1.287   3.879  15.457 -0.1081 -0.3105  0.2904
  436TMC3    C4 6551   1.055   3.948  15.581  0.6885 -1.1261  0.4547
  436TMC3    C5 6552   1.108   4.029  15.487 -0.0256  0.0051  0.3466
  436TMC3    C6 6553   1.227   4.003  15.427  0.2471  0.4723  0.5116
  436TMC3     C 6554   1.025   3.728  15.666 -0.1727 -0.0716 -0.1947
  436TMC3     O 6555   1.048   3.614  15.631 -0.4969  0.4271 -0.0082
  436TMC3     H 6556   1.273   3.688  15.568  0.6853  0.0391  0.5140
  436TMC3    H1 6557   0.953   3.961  15.617  0.3047  0.7272 -1.2892
  436TMC3    H2 6558   1.272   4.070  15.354 -1.7474  1.2651  0.0213
  436TMC3    C7 6559   1.024   4.128  15.421  0.8307  0.2516  0.6381
  436TMC3    C8 6560   1.403   3.834  15.375 -0.7032 -0.1083  0.2204
  436TMC3    O1 6561   0.906   4.097  15.412 -0.5787  0.6006 -0.2003
  436TMC3    O2 6562   1.408   3.862  15.259  0.1155  0.2920 -0.2127
  437TMC3    C1 6563   4.548   0.624  11.861  0.2917 -0.3597  0.6147
  437TMC3    C2 6564   4.488   0.594  11.739 -1.0667 -0.6129 -0.5060
  437TMC3    C3 6565   4.488   0.691  11.640 -0.3834 -0.4282  0.7023
  437TMC3    C4 6566   4.623   0.741  11.884 -0.0812  0.2964 -0.2325
  437TMC3    C5 6567   4.619   0.834  11.786  0.4188  0.2629 -0.2792
  437TMC3    C6 6568   4.554   0.807  11.665  0.6019 -0.2640 -0.2625
  437TMC3     C 6569   4.521   0.533  11.971  0.3452  0.5083 -0.8801
  437TMC3     O 6570   4.467   0.429  11.936 -0.0617  0.2713 -0.0988
  437TMC3     H 6571   4.410   0.519  11.735 -1.5558 -0.2301  1.6733
  437TMC3    H1 6572   4.688   0.751  11.970 -1.1647 -0.3343  0.6617
  437TMC3    H2 6573   4.560   0.889  11.594 -1.4025  0.6786  0.6384
  437TMC3    C7 6574   4.716   0.943  11.788  0.0403 -1.1474  0.0169
  437TMC3    C8 6575   4.423   0.677  11.509  0.1237  0.0378 -0.8906
  437TMC3    O1 6576   4.732   1.008  11.688 -0.2261 -0.8564 -0.0085
  437TMC3    O2 6577   4.403   0.782  11.446  0.9709  0.1091  0.4499
  438MPD2     C 6578   2.211   1.355  16.737  0.2415 -0.0286  0.9672
  438MPD2    C1 6579   2.283   1.249  16.784  1.1370 -0.8973  0.0675
  438MPD2    C2 6580   2.239   1.186  16.900  0.3362  0.5731 -0.0729
  438MPD2    C3 6581   2.116   1.220  16.956 -0.5006  0.4283  0.0362
  438MPD2    C4 6582   2.044   1.321  16.896 -0.3978 -0.0749  0.0327
  438MPD2    C5 6583   2.099   1.400  16.794  0.1917 -0.0314  0.6260
  438MPD2     H 6584   2.295   1.103  16.941  0.9399  0.3645 -1.2981
  438MPD2    H1 6585   1.955   1.360  16.942  0.5072  1.1403  0.7643
  438MPD2    H2 6586   2.244   1.404  16.646  1.7402  0.1210  1.5928
  438MPD2    H3 6587   2.046   1.485  16.753 -0.4923  0.9532  3.5553
  438MPD2     N 6588   2.061   1.161  17.075  0.0823 -0.6317 -0.0052
  438MPD2    H5 6589   1.970   1.195  17.103  0.1798 -0.2400 -0.1604
  438MPD2    N1 6590   2.387   1.184  16.705  0.5687  0.6863 -0.1598
  438MPD2    H7 6591   2.422   1.096  16.742 -0.8348  1.3586  2.7283
  439TMC3    C1 6592   2.522   1.122  16.526 -0.5829  0.2831  0.1643
  439TMC3    C2 6593   2.504   1.106  16.395 -0.9200 -0.3336 -0.4258
  439TMC3    C3 6594   2.559   0.994  16.334 -0.1579  0.6328 -0.0110
  439TMC3    C4 6595   2.608   1.039  16.596 -1.1153 -0.3955 -0.0538
  439TMC3    C5 6596   2.661   0.938  16.535 -0.2494  0.2023  0.1692
  439TMC3    C6 6597   2.636   0.910  16.407 -1.0638 -0.1140  0.0797
  439TMC3     C 6598   2.448   1.233  16.587 -0.3502  0.1462  0.4675
  439TMC3     O 6599   2.436   1.329  16.517 -0.1852  0.4370 -0.1163
  439TMC3     H 6600   2.449   1.179  16.337 -3.2207  1.5854  4.1259
  439TMC3    H1 6601   2.625   1.054  16.702 -2.5753  0.3863  0.0765
  439TMC3    H2 6602   2.677   0.820  16.362  0.8212  0.4709  0.6622
  439TMC3    C7 6603   2.767   0.861  16.599 -0.3322  0.0084 -0.2708
  439TMC3    C8 6604   2.543   0.972  16.188  0.4198 -0.0730  0.2583
  439TMC3    O1 6605   2.836   0.931  16.667  0.2269  0.5770 -0.3838
  439TMC3    O2 6606   2.612   0.890  16.132  0.3040  0.0134 -0.4802
  440MPD2     C 6607   0.846   2.086  14.529  0.2950  0.1048 -0.9796
  440MPD2    C1 6608   0.891   2.187  14.617  0.5836  0.1010  0.1680
  440MPD2    C2 6609   1.014   2.170  14.685 -0.5853 -0.2333 -0.3123
  440MPD2    C3 6610   1.083   2.050  14.669  0.1012  0.0578  0.4884
  440MPD2    C4 6611   1.037   1.950  14.581 -0.1194 -0.5669 -0.3170
  440MPD2    C5 6612   0.920   1.978  14.517  0.3042 -0.3090 -0.2658
  440MPD2     H 6613   1.048   2.246  14.754 -2.0905 -0.1612  0.3517
  440MPD2    H1 6614   1.093   1.858  14.564 -1.5698 -1.4334 -0.4205
  440MPD2    H2 6615   0.754   2.096  14.472 -0.8211 -0.4945  0.6916
  440MPD2    H3 6616   0.883   1.903  14.448 -0.8762  0.4043 -0.3924
  440MPD2     N 6617   1.207   2.030  14.741 -0.2330 -0.3995  0.2054
  440MPD2    H5 6618   1.223   2.105  14.807 -1.6176 -0.0685  0.1703
  440MPD2    N1 6619   0.827   2.312  14.631  0.2001 -0.2431 -0.4395
  440MPD2    H7 6620   0.874   2.370  14.699 -0.1550  0.4138 -0.7490
  441TMC3    C1 6621   1.384   1.943  14.844 -0.3317 -0.6966 -0.0992
  441TMC3    C2 6622   1.425   2.071  14.870  0.1197 -0.2654  0.4954
  441TMC3    C3 6623   1.528   2.082  14.962 -0.4350  0.1999 -0.3337
  441TMC3    C4 6624   1.424   1.828  14.911  0.2563  0.0414  0.1117
  441TMC3    C5 6625   1.519   1.850  15.015 -0.4688  0.3100 -0.0808
  441TMC3    C6 6626   1.569   1.974  15.044  0.1287  0.3997 -0.1467
  441TMC3     C 6627   1.280   1.919  14.750  0.6150  0.2603 -0.8953
  441TMC3     O 6628   1.264   1.807  14.700 -0.1747  0.8818 -0.3778
  441TMC3     H 6629   1.381   2.159  14.825  0.6060 -0.9330 -1.3119
  441TMC3    H1 6630   1.371   1.733  14.905 -1.9132  1.3043 -0.6765
  441TMC3    H2 6631   1.625   1.997  15.133 -2.1856  2.3306  0.8186
  441TMC3    C7 6632   1.522   1.750  15.127 -0.4386  0.2426  0.5407
  441TMC3    C8 6633   1.563   2.202  15.030 -0.4673  0.4530 -0.4915
  441TMC3    O1 6634   1.418   1.693  15.149  0.0454  0.0128  0.1532
  441TMC3    O2 6635   1.686   2.213  15.053 -0.4716  0.1942  0.3860
  442MPD2     C 6636   4.095   2.190  16.446  0.1957 -0.4936  0.3942
  442MPD2    C1 6637   3.991   2.110  16.483 -0.1705 -0.5082  0.7290
  442MPD2    C2 6638   3.953   1.999  16.403 -0.0983 -0.0051 -0.1292
  442MPD2    C3 6639   4.022   1.967  16.288 -0.3587  0.4544  0.0761
  442MPD2    C4 6640   4.127   2.039  16.252 -0.2722  0.1694 -0.3535
  442MPD2    C5 6641   4.168   2.148  16.330 -0.2521  0.5443  0.5582
  442MPD2     H 6642   3.871   1.937  16.437  1.5759 -0.9004  2.3135
  442MPD2    H1 6643   4.185   2.015  16.164  0.5217  0.7947  0.0031
  442MPD2    H2 6644   4.118   2.285  16.494 -0.2891 -0.3834  0.4083
  442MPD2    H3 6645   4.260   2.198  16.304 -0.4415  1.1309  1.0237
  442MPD2     N 6646   3.990   1.859  16.206 -0.8141 -0.7253 -0.0974
  442MPD2    H5 6647   4.055   1.846  16.128  0.3988  0.7190  0.6833
  442MPD2    N1 6648   3.906   2.147  16.596 -0.0665  0.5245  0.1444
  442MPD2    H7 6649   3.834   2.077  16.612  0.0945  0.1723 -0.6520
  443TMC3    C1 6650   3.786   2.288  16.732 -0.0712 -0.3475 -0.1198
  443TMC3    C2 6651   3.748   2.418  16.731 -0.4459  0.4902  0.0346
  443TMC3    C3 6652   3.620   2.443  16.750 -0.2774  0.1109  0.7919
  443TMC3    C4 6653   3.709   2.185  16.777 -1.0154 -0.3608  0.3431
  443TMC3    C5 6654   3.579   2.221  16.800  0.8776  0.0999  0.2735
  443TMC3    C6 6655   3.535   2.347  16.794 -0.0827 -0.2081  0.4678
  443TMC3     C 6656   3.913   2.260  16.667  0.2477  0.9196  0.6392
  443TMC3     O 6657   3.998   2.351  16.665 -0.0703 -0.2043 -0.3587
  443TMC3     H 6658   3.819   2.488  16.688 -1.8459  0.2277 -2.7076
  443TMC3    H1 6659   3.743   2.083  16.787 -0.4638 -0.0061  2.1431
  443TMC3    H2 6660   3.427   2.363  16.799  0.0242  1.1468 -1.3789
  443TMC3    C7 6661   3.495   2.122  16.848  0.3174  0.0311  0.0209
  443TMC3    C8 6662   3.573   2.496  16.619 -0.1790 -0.1885  0.1324
  443TMC3    O1 6663   3.520   2.010  16.806 -0.1573 -0.1334  0.0739
  443TMC3    O2 6664   3.569   2.615  16.606 -0.7657 -0.2870 -0.0761
  444MPD2     C 6665   4.003   1.939  16.839 -0.0444 -0.0828  0.2988
  444MPD2    C1 6666   3.917   1.835  16.835 -0.5216 -0.4602  0.4388
  444MPD2    C2 6667   3.948   1.733  16.747 -0.0854 -0.2225  0.4171
  444MPD2    C3 6668   4.064   1.736  16.660  0.5626 -1.0252 -0.0855
  444MPD2    C4 6669   4.146   1.847  16.665 -0.1488  0.3667 -0.5204
  444MPD2    C5 6670   4.111   1.942  16.756  0.2411 -0.8437  0.7429
  444MPD2     H 6671   3.886   1.644  16.743 -2.1146  1.2975 -1.8088
  444MPD2    H1 6672   4.235   1.868  16.605 -1.6314  3.2484 -1.7357
  444MPD2    H2 6673   3.988   2.024  16.906 -3.3230 -0.0501 -0.4573
  444MPD2    H3 6674   4.175   2.030  16.758 -1.4047  0.3685  0.0045
  444MPD2     N 6675   4.101   1.628  16.576  0.5927  0.0564 -0.1611
  444MPD2    H5 6676   4.038   1.548  16.580  2.1697 -1.1108  1.1177
  444MPD2    N1 6677   3.811   1.818  16.929  0.3593  0.0276 -0.3630
  444MPD2    H7 6678   3.754   1.735  16.920  0.9357 -0.2739 -1.2602
  445TMC3    C1 6679   4.230   1.495  16.437  0.5152 -0.5981  0.3088
  445TMC3    C2 6680   4.133   1.426  16.374 -0.6615  0.3783  0.7417
  445TMC3    C3 6681   4.177   1.334  16.281 -0.7104 -0.0528 -0.3028
  445TMC3    C4 6682   4.353   1.459  16.414 -0.0533  0.4302  0.0450
  445TMC3    C5 6683   4.394   1.366  16.324  0.1389  0.3250  0.3801
  445TMC3    C6 6684   4.306   1.298  16.253  0.6624  0.0833 -0.3324
  445TMC3     C 6685   4.218   1.622  16.502 -0.1859 -0.6492 -0.2956
  445TMC3     O 6686   4.318   1.695  16.509 -0.0943  0.1272  0.3135
  445TMC3     H 6687   4.029   1.450  16.390 -0.9592 -2.1459  2.5238
  445TMC3    H1 6688   4.432   1.509  16.468 -0.0699 -0.0642  0.5183
  445TMC3    H2 6689   4.326   1.248  16.159  0.9189 -1.6545  0.6593
  445TMC3    C7 6690   4.530   1.332  16.309  0.3902 -0.5216 -0.0350
  445TMC3    C8 6691   4.072   1.262  16.216 -0.6973  0.2895 -0.3336
  445TMC3    O1 6692   4.605   1.419  16.344 -0.0902  0.6650 -0.4907
  445TMC3    O2 6693   3.954   1.300  16.229  0.1817 -0.7409  0.1362
  446MPD2     C 6694   3.719   2.875  11.255  0.2865 -0.2378  0.1376
  446MPD2    C1 6695   3.650   2.881  11.133  0.6791  0.6496 -0.2050
  446MPD2    C2 6696   3.723   2.902  11.027  0.7703  0.1796  0.0998
  446MPD2    C3 6697   3.867   2.926  11.031 -0.4916  0.1696 -0.0526
  446MPD2    C4 6698   3.929   2.926  11.154 -0.5009 -0.1648  0.1575
  446MPD2    C5 6699   3.856   2.892  11.261 -0.7522 -0.3948 -0.1211
  446MPD2     H 6700   3.681   2.894  10.927 -1.0009 -2.0922  1.0252
  446MPD2    H1 6701   4.036   2.924  11.172 -0.9926 -0.9919  2.9684
  446MPD2    H2 6702   3.667   2.856  11.348 -0.9209  3.2818  0.1959
  446MPD2    H3 6703   3.902   2.879  11.359 -0.6607 -1.0143 -0.2489
  446MPD2     N 6704   3.936   2.937  10.911  0.0311 -0.4867  0.5331
  446MPD2    H5 6705   3.878   2.939  10.827 -1.8966 -2.9294  1.8329
  446MPD2    N1 6706   3.513   2.850  11.126 -0.1188 -0.0658 -0.2566
  446MPD2    H7 6707   3.467   2.861  11.036  0.1046  1.7382 -0.1370
  447TMC3    C1 6708   4.103   2.912  10.759  0.1173 -0.3913  0.1926
  447TMC3    C2 6709   4.018   2.947  10.655  0.1086 -0.2790 -0.4676
  447TMC3    C3 6710   4.074   2.950  10.530 -0.0714  0.4489  0.1506
  447TMC3    C4 6711   4.234   2.886  10.737 -0.3544  0.4030 -0.0601
  447TMC3    C5 6712   4.278   2.881  10.608  0.3055 -0.3562 -0.2320
  447TMC3    C6 6713   4.206   2.928  10.501  0.4595  0.0456  0.2509
  447TMC3     C 6714   4.073   2.914  10.899 -0.0284  0.0243  0.0694
  447TMC3     O 6715   4.153   2.875  10.982 -0.1820  0.5917 -0.1180
  447TMC3     H 6716   3.917   2.986  10.662 -0.3729 -1.4849 -0.7222
  447TMC3    H1 6717   4.304   2.862  10.817  0.0614 -0.8831 -0.8041
  447TMC3    H2 6718   4.240   2.940  10.399 -0.6538  2.1642  0.1372
  447TMC3    C7 6719   4.421   2.888  10.590  0.2625  0.4047 -0.1184
  447TMC3    C8 6720   3.998   3.041  10.445  0.2285  0.9332  0.3004
  447TMC3    O1 6721   4.500   2.806  10.637  0.4086 -0.1223  0.2290
  447TMC3    O2 6722   3.894   3.004  10.397 -1.0224  0.0331 -0.0379
  448TMC3    C1 6723   2.579   2.821  16.652  0.0614 -0.4368 -0.5669
  448TMC3    C2 6724   2.467   2.739  16.645 -0.4487 -0.2205  0.4500
  448TMC3    C3 6725   2.429   2.679  16.757  0.3273  0.1810  0.1670
  448TMC3    C4 6726   2.650   2.849  16.764  0.2228 -0.4941  0.8671
  448TMC3    C5 6727   2.596   2.793  16.878 -0.7317 -0.1054 -0.0309
  448TMC3    C6 6728   2.484   2.712  16.878 -0.3753  0.6401  0.6399
  448TMC3     C 6729   2.635   2.852  16.517  0.2898  0.1997 -0.3433
  448TMC3     O 6730   2.555   2.849  16.423  0.0928  0.5187  0.5064
  448TMC3     H 6731   2.416   2.715  16.552  0.8595 -2.2215  0.2415
  448TMC3    H1 6732   2.742   2.907  16.768  0.7775 -1.2868 -0.3971
  448TMC3    H2 6733   2.456   2.661  16.969  1.3887  1.2120  1.4946
  448TMC3    C7 6734   2.656   2.849  17.002 -0.2356 -0.0121  0.2634
  448TMC3    C8 6735   2.361   2.551  16.742 -0.0163 -0.0853 -0.2266
  448TMC3    O1 6736   2.728   2.947  16.982  0.4063  0.5845 -0.2970
  448TMC3    O2 6737   2.368   2.478  16.839 -0.1625 -0.3031 -0.3714
  449MPD2     C 6738   3.562   1.467  14.026  0.4041  0.7179 -0.3339
  449MPD2    C1 6739   3.486   1.565  13.976  1.0797  0.7851 -0.4265
  449MPD2    C2 6740   3.346   1.555  13.994  0.0781  0.7352 -0.1483
  449MPD2    C3 6741   3.277   1.452  14.044 -0.2242 -0.3460 -0.0813
  449MPD2    C4 6742   3.357   1.351  14.091  1.0903  0.2938  0.0317
  449MPD2    C5 6743   3.496   1.364  14.083 -0.2603 -0.1871  0.0830
  449MPD2     H 6744   3.290   1.642  13.960 -0.9000  0.5244  0.9272
  449MPD2    H1 6745   3.315   1.267  14.145  0.6247  0.3295 -0.2761
  449MPD2    H2 6746   3.670   1.475  14.015  0.1767  3.1037 -0.8006
  449MPD2    H3 6747   3.547   1.279  14.128  0.3281  1.2201  2.0683
  449MPD2     N 6748   3.135   1.455  14.040 -0.0600 -0.6451  0.1139
  449MPD2    H5 6749   3.097   1.534  13.989  3.5559 -0.1333 -1.7618
  449MPD2    N1 6750   3.529   1.686  13.913  0.4033 -0.2428  0.3958
  449MPD2    H7 6751   3.454   1.743  13.878  2.0498  1.5252 -0.2716
  450TMC3    C1 6752   3.666   1.854  13.842 -0.1971  1.1613  0.1340
  450TMC3    C2 6753   3.742   1.853  13.725  0.4651 -0.4185 -0.7481
  450TMC3    C3 6754   3.692   1.921  13.617  0.6270 -0.3135 -0.7135
  450TMC3    C4 6755   3.541   1.911  13.845  1.0944 -0.0139 -0.0912
  450TMC3    C5 6756   3.492   1.969  13.731  0.4160 -0.0121  0.3102
  450TMC3    C6 6757   3.569   1.975  13.619 -0.3798  0.1971 -0.2852
  450TMC3     C 6758   3.661   1.722  13.904  0.5402 -0.4392 -0.5817
  450TMC3     O 6759   3.762   1.655  13.901 -0.6375 -0.2872  0.0024
  450TMC3     H 6760   3.832   1.792  13.728 -0.2818 -1.4786  0.3923
  450TMC3    H1 6761   3.475   1.909  13.931 -0.3614 -0.0354 -1.2062
  450TMC3    H2 6762   3.527   2.010  13.525 -0.1621 -0.6075 -0.6844
  450TMC3    C7 6763   3.348   1.921  13.712 -0.4786 -0.9558  0.1951
  450TMC3    C8 6764   3.758   1.930  13.487  0.1680  0.1070  0.0838
  450TMC3    O1 6765   3.317   1.825  13.784  0.2836  0.4757  0.5268
  450TMC3    O2 6766   3.717   2.010  13.406  0.1707  0.2483  0.3045
  451MPD2     C 6767   0.731   0.088   0.429  0.1012 -0.5270 -0.0295
  451MPD2    C1 6768   0.677   0.186   0.350  0.9442  0.1048 -0.0999
  451MPD2    C2 6769   0.649   0.162   0.215 -0.0748 -0.7061  0.2081
  451MPD2    C3 6770   0.672   0.034   0.163  0.1596  0.2343  0.7678
  451MPD2    C4 6771   0.713   4.676   0.247 -0.1624  0.0228 -0.1059
  451MPD2    C5 6772   0.742   4.701   0.377  0.3145 -0.0399  0.2071
  451MPD2     H 6773   0.618   0.240   0.147 -0.8950 -0.4890  0.8221
  451MPD2    H1 6774   0.724   4.577   0.204 -0.8008  0.1236 -0.5103
  451MPD2    H2 6775   0.760   0.110   0.531  0.3965 -1.4588  0.0874
  451MPD2    H3 6776   0.776   4.617   0.436  1.9754  0.0908 -0.5846
  451MPD2     N 6777   0.631   0.003   0.033  0.1851  0.8807  0.5758
  451MPD2    H5 6778   0.562   0.063  17.733 -0.4544  1.2638  2.0929
  451MPD2    N1 6779   0.650   0.309   0.418 -0.5307  0.1029 -0.3135
  451MPD2    H7 6780   0.664   0.315   0.518  0.1333 -1.1009 -0.3334
  452TMC3    C1 6781   0.572   4.603  17.611  0.0526  0.1141 -0.3346
  452TMC3    C2 6782   0.500   4.491  17.640 -0.6631  0.4228 -0.5888
  452TMC3    C3 6783   0.375   4.488  17.578  0.1926  0.1804 -0.0035
  452TMC3    C4 6784   0.520   4.703  17.537 -0.4400 -0.6776 -0.5389
  452TMC3    C5 6785   0.402   4.686  17.466  0.3523 -1.4092 -0.6452
  452TMC3    C6 6786   0.322   4.575  17.495  0.3334  0.2950  0.0620
  452TMC3     C 6787   0.676   4.635  17.708  1.3543  0.2446 -0.4267
  452TMC3     O 6788   0.765   4.553  17.733  0.0074 -0.1396  0.1201
  452TMC3     H 6789   0.536   4.408  17.700 -0.5692  0.5351 -0.4918
  452TMC3    H1 6790   0.578   0.050  17.500 -0.3615 -0.9709 -1.0785
  452TMC3    H2 6791   0.228   4.546  17.450 -0.6668  1.1304  1.6265
  452TMC3    C7 6792   0.364   0.054  17.369 -0.1966 -0.0798 -0.2490
  452TMC3    C8 6793   0.298   4.370  17.609 -0.3113 -0.1690  0.0405
  452TMC3    O1 6794   0.422   0.162  17.388 -0.6123 -0.6899 -0.0270
  452TMC3    O2 6795   0.206   4.352  17.529 -0.3806 -0.6681  0.2971
  453TMC3    C1 6796   1.687   2.358  11.825  0.2142  0.7409  0.4454
  453TMC3    C2 6797   1.570   2.291  11.823  0.5508 -0.5727  0.2764
  453TMC3    C3 6798   1.548   2.212  11.716  0.2496  0.3552  0.0656
  453TMC3    C4 6799   1.782   2.354  11.734 -0.4157 -0.0422  0.4953
  453TMC3    C5 6800   1.758   2.270  11.623  0.8694  0.1963  0.7080
  453TMC3    C6 6801   1.641   2.197  11.616  0.3926  0.4879  0.1718
  453TMC3     C 6802   1.721   2.425  11.953  0.4405  0.1698 -0.4125
  453TMC3     O 6803   1.819   2.500  11.933  0.1478 -0.2415  0.4195
  453TMC3     H 6804   1.490   2.312  11.893  0.4976  1.1715 -0.3186
  453TMC3    H1 6805   1.858   2.431  11.735  0.3935 -0.8213 -0.6401
  453TMC3    H2 6806   1.625   2.138  11.526 -0.0648 -1.7187  1.7011
  453TMC3    C7 6807   1.789   2.343  11.498 -0.3695  0.2610  0.0635
  453TMC3    C8 6808   1.421   2.147  11.709  0.1236  0.4002  0.3462
  453TMC3    O1 6809   1.718   2.308  11.402 -0.1922 -0.1658  0.5850
  453TMC3    O2 6810   1.328   2.210  11.754  0.2186  0.0173  0.0007
  454MPD2     C 6811   0.204   1.408  15.894  0.2236 -0.1573  0.0036
  454MPD2    C1 6812   0.117   1.483  15.815 -0.0697 -0.5207  0.6729
  454MPD2    C2 6813   0.077   1.605  15.864  0.7032  0.0192 -0.5348
  454MPD2    C3 6814   0.104   1.654  15.994 -0.6325  0.8751 -0.3238
  454MPD2    C4 6815   0.180   1.580  16.077  0.2075  0.5458 -0.1913
  454MPD2    C5 6816   0.241   1.465  16.024 -0.1614 -0.3613  0.0683
  454MPD2     H 6817   0.008   1.662  15.803  0.6946 -1.4401 -1.8761
  454MPD2    H1 6818   0.191   1.601  16.182 -2.3978  1.2151 -0.0422
  454MPD2    H2 6819   0.253   1.316  15.866  2.6711  0.9745  0.5307
  454MPD2    H3 6820   0.312   1.402  16.076 -0.2148 -0.0301  0.5459
  454MPD2     N 6821   0.045   1.771  16.050 -0.4279  0.0488 -0.1394
  454MPD2    H5 6822   0.042   1.767  16.152 -2.7229 -2.0459 -0.2996
  454MPD2    N1 6823   0.065   1.429  15.693  0.3534 -0.1632 -0.3581
  454MPD2    H7 6824   4.733   1.484  15.642  1.0935  1.5640  0.5154
  455TMC3    C1 6825   4.615   1.933  16.038 -0.6170  0.6904 -0.4536
  455TMC3    C2 6826   4.630   1.962  16.169 -0.0100 -0.3551 -0.4240
  455TMC3    C3 6827   4.528   1.950  16.260 -0.3528  0.0752 -0.0431
  455TMC3    C4 6828   4.500   1.880  15.991 -0.0421 -0.3595  0.2266
  455TMC3    C5 6829   4.406   1.854  16.083  0.5722  0.1938  1.0669
  455TMC3    C6 6830   4.410   1.896  16.213 -0.8535 -0.1971 -1.1000
  455TMC3     C 6831   4.729   1.873  15.975 -0.0318 -0.5040 -0.2488
  455TMC3     O 6832   4.735   1.896  15.855 -0.6632  0.3374  0.2239
  455TMC3     H 6833   4.732   1.984  16.200 -0.6042  1.4378  0.2607
  455TMC3    H1 6834   4.499   1.829  15.895  1.0361  2.6495 -1.3605
  455TMC3    H2 6835   4.339   1.856  16.285 -0.1686  0.4146 -0.1058
  455TMC3    C7 6836   4.344   1.724  16.066 -0.3303 -0.4588  0.1011
  455TMC3    C8 6837   4.528   2.027  16.377  0.2600  0.2766 -0.2215
  455TMC3    O1 6838   4.221   1.714  16.063 -0.4638  0.7418 -0.3400
  455TMC3    O2 6839   4.450   1.973  16.454  0.1227 -0.1710 -0.2319
  456MPD2     C 6840   2.233   1.431  15.975 -0.6471  0.1571  0.0064
  456MPD2    C1 6841   2.358   1.441  16.033 -0.4663 -0.2015  0.6306
  456MPD2    C2 6842   2.374   1.493  16.160  0.0427 -0.1250  0.5602
  456MPD2    C3 6843   2.261   1.524  16.235  0.0015 -0.3947  0.1906
  456MPD2    C4 6844   2.134   1.493  16.179 -0.1991 -0.3629 -0.5137
  456MPD2    C5 6845   2.122   1.448  16.047  0.4584  0.6015  0.1964
  456MPD2     H 6846   2.476   1.502  16.197 -0.0894  0.6269  0.7465
  456MPD2    H1 6847   2.042   1.512  16.233 -0.6223 -1.9444 -0.7133
  456MPD2    H2 6848   2.219   1.412  15.869  0.6130 -0.3745 -0.0680
  456MPD2    H3 6849   2.025   1.440  16.000  0.6662 -1.0363  0.0141
  456MPD2     N 6850   2.279   1.588  16.362 -0.4581  0.2263  0.1483
  456MPD2    H5 6851   2.372   1.621  16.384 -0.2630  0.9271 -1.7875
  456MPD2    N1 6852   2.465   1.396  15.950 -0.2889 -0.5011 -0.6424
  456MPD2    H7 6853   2.447   1.371  15.854 -0.8025  1.0009 -0.9323
  457TMC3    C1 6854   2.227   1.690  16.565 -0.4786 -0.0487 -0.5805
  457TMC3    C2 6855   2.155   1.803  16.601 -0.1789  0.5345  0.2306
  457TMC3    C3 6856   2.206   1.879  16.699 -0.0519 -0.0229  0.1452
  457TMC3    C4 6857   2.339   1.648  16.630 -0.5732 -0.2460  0.5687
  457TMC3    C5 6858   2.379   1.720  16.741 -0.2397 -0.3957  0.2369
  457TMC3    C6 6859   2.312   1.837  16.765  0.7346  0.1056  0.7237
  457TMC3     C 6860   2.179   1.612  16.452 -0.3097  0.1241 -0.0214
  457TMC3     O 6861   2.059   1.589  16.455  0.2955  0.4264 -0.2649
  457TMC3     H 6862   2.083   1.848  16.534  0.6120  2.1236  0.4443
  457TMC3    H1 6863   2.391   1.558  16.597 -0.5182 -0.5352  1.4506
  457TMC3    H2 6864   2.346   1.892  16.853  1.5382  1.1019 -0.2139
  457TMC3    C7 6865   2.429   1.650  16.861  0.2759  0.0787 -0.2665
  457TMC3    C8 6866   2.216   2.026  16.679 -0.3112  0.3044  0.3843
  457TMC3    O1 6867   2.398   1.709  16.963  0.4773  0.3518 -0.5369
  457TMC3    O2 6868   2.325   2.065  16.707 -0.5946 -0.8550 -0.1634
  458MPD2     C 6869   0.431   1.121  11.962  0.7053  0.8977 -1.3649
  458MPD2    C1 6870   0.354   1.086  12.070 -0.6077 -0.9689 -0.1723
  458MPD2    C2 6871   0.224   1.035  12.051  0.1676  0.3149 -0.0238
  458MPD2    C3 6872   0.174   1.018  11.926  0.2853  0.6177  0.4940
  458MPD2    C4 6873   0.252   1.062  11.821 -0.2420  0.4153  0.3964
  458MPD2    C5 6874   0.380   1.107  11.838 -0.1904 -0.6654 -0.2208
  458MPD2     H 6875   0.162   1.008  12.136  0.2854  2.6194  0.7857
  458MPD2    H1 6876   0.211   1.065  11.720  4.6537 -1.0998 -1.6098
  458MPD2    H2 6877   0.532   1.158  11.967  1.4777 -1.3831 -0.1721
  458MPD2    H3 6878   0.442   1.136  11.754  0.7694 -2.8147 -0.2548
  458MPD2     N 6879   0.053   0.947  11.909  0.2630  0.0737  0.2991
  458MPD2    H5 6880   0.020   0.907  11.996 -1.2143 -0.3730 -0.4655
  458MPD2    N1 6881   0.404   1.104  12.198  0.1196 -0.2239 -0.3678
  458MPD2    H7 6882   0.497   1.144  12.210 -0.7708  1.4248  1.1088
  459TMC3    C1 6883   0.417   1.095  12.434 -0.1732 -0.1833  0.2439
  459TMC3    C2 6884   0.509   1.199  12.430 -0.0288 -0.3853  0.2701
  459TMC3    C3 6885   0.572   1.219  12.549  0.0034  0.4449 -0.1404
  459TMC3    C4 6886   0.381   1.024  12.542 -0.0861  0.6233 -0.2378
  459TMC3    C5 6887   0.445   1.058  12.659 -0.6117 -0.3781 -0.1155
  459TMC3    C6 6888   0.544   1.148  12.664 -0.2693  0.2606  0.3211
  459TMC3     C 6889   0.340   1.077  12.310 -0.0956 -1.1770 -0.3180
  459TMC3     O 6890   0.228   1.034  12.333  0.0835  0.1042 -0.6747
  459TMC3     H 6891   0.511   1.268  12.347  1.5138 -0.9385 -0.1480
  459TMC3    H1 6892   0.304   0.947  12.546  0.3238  0.3282  2.2667
  459TMC3    H2 6893   0.608   1.157  12.752 -0.4149 -0.3045  0.4810
  459TMC3    C7 6894   0.424   0.975  12.778 -0.2421 -0.2615 -0.2589
  459TMC3    C8 6895   0.677   1.319  12.544 -0.4857  0.3648  0.4212
  459TMC3    O1 6896   0.512   0.975  12.861 -0.7618 -0.1156  0.2377
  459TMC3    O2 6897   0.712   1.366  12.433 -0.0267 -0.8309  0.3864
  460MPD2     C 6898   4.137   3.363  10.313  0.8625  0.2169 -0.5645
  460MPD2    C1 6899   4.049   3.259  10.328  0.0195  0.3455  0.2817
  460MPD2    C2 6900   3.945   3.256  10.232 -0.5058 -0.2224  0.1000
  460MPD2    C3 6901   3.933   3.345  10.133 -0.3759  0.5669  0.0445
  460MPD2    C4 6902   4.016   3.460  10.138 -0.0965 -0.0406 -0.3498
  460MPD2    C5 6903   4.119   3.462  10.222  0.9428 -0.3708 -0.3007
  460MPD2     H 6904   3.873   3.175  10.240  1.0530 -1.4683  1.5032
  460MPD2    H1 6905   4.017   3.538  10.063 -1.2625 -0.0554 -0.3757
  460MPD2    H2 6906   4.219   3.368  10.384  0.4690  0.0810 -0.0936
  460MPD2    H3 6907   4.190   3.543  10.213  0.9966 -0.1316  2.4670
  460MPD2     N 6908   3.832   3.336  10.026  0.5741 -0.1304  0.0022
  460MPD2    H5 6909   3.789   3.246  10.010 -0.4884  0.1796  1.1209
  460MPD2    N1 6910   4.078   3.149  10.413  0.5090 -0.0168 -0.3750
  460MPD2    H7 6911   4.164   3.161  10.464 -0.6066  3.0884  0.7472
  461TMC3    C1 6912   3.711   3.385   9.836 -0.2521 -0.7543 -0.0355
  461TMC3    C2 6913   3.780   3.291   9.760 -0.4897 -0.2899  0.5556
  461TMC3    C3 6914   3.812   3.327   9.628  0.2495 -0.5330  0.0685
  461TMC3    C4 6915   3.673   3.499   9.770 -0.3944 -0.2203 -0.3831
  461TMC3    C5 6916   3.706   3.525   9.643  0.4945 -0.3716 -0.0457
  461TMC3    C6 6917   3.768   3.438   9.562  0.2614  0.3274 -0.1995
  461TMC3     C 6918   3.792   3.437   9.939 -0.0984 -0.4085  0.1638
  461TMC3     O 6919   3.807   3.558   9.936 -0.0149  0.3197 -0.0111
  461TMC3     H 6920   3.797   3.192   9.800  0.1735 -1.4975 -2.7323
  461TMC3    H1 6921   3.626   3.578   9.828  0.4177 -0.4412  0.5950
  461TMC3    H2 6922   3.811   3.466   9.467  2.3222  0.5262  0.7914
  461TMC3    C7 6923   3.725   3.663   9.593  0.2340 -0.0444 -0.3761
  461TMC3    C8 6924   3.913   3.261   9.558 -0.7975 -0.6811 -0.0269
  461TMC3    O1 6925   3.718   3.675   9.471  0.1465 -0.2932 -0.9710
  461TMC3    O2 6926   3.994   3.330   9.494 -0.3833  0.1498  0.1152
  462TMC3    C1 6927   4.257   0.223  17.423  0.0795 -0.8568 -0.5944
  462TMC3    C2 6928   4.371   0.168  17.388 -0.2559  0.4816  0.3292
  462TMC3    C3 6929   4.393   0.035  17.398 -0.3231  0.1390 -0.1812
  462TMC3    C4 6930   4.159   0.145  17.484 -0.0225  0.2960 -0.2380
  462TMC3    C5 6931   4.200   0.019  17.524 -0.1167  0.2090 -0.0563
  462TMC3    C6 6932   4.315   4.696  17.482 -0.6558 -0.0284 -0.7275
  462TMC3     C 6933   4.244   0.358  17.392  0.0337  0.3720  0.3740
  462TMC3     O 6934   4.340   0.429  17.383 -0.4592  0.1837  0.0795
  462TMC3     H 6935   4.446   0.228  17.340 -1.3233  1.5432 -0.0043
  462TMC3    H1 6936   4.076   0.199  17.529 -1.9185 -0.0441 -3.3251
  462TMC3    H2 6937   4.316   4.588  17.474 -2.6759 -0.2445  1.6877
  462TMC3    C7 6938   4.100   4.670  17.565 -0.0047  0.0351  0.2412
  462TMC3    C8 6939   4.400   4.707  17.263 -0.8838  0.0635 -0.8604
  462TMC3    O1 6940   4.144   4.573  17.621 -0.2809 -0.0310  0.3752
  462TMC3    O2 6941   4.313   0.009  17.185 -0.2378  0.1888  0.8679
  463MPD2     C 6942   1.573   3.175   0.294 -0.3021  0.0296 -0.4224
  463MPD2    C1 6943   1.466   3.220   0.371 -0.1586  0.1640  0.0200
  463MPD2    C2 6944   1.465   3.340   0.437  0.2960  0.3231  0.2158
  463MPD2    C3 6945   1.567   3.425   0.409  0.2140 -0.0035  0.0219
  463MPD2    C4 6946   1.661   3.389   0.318 -0.1833 -0.7241 -0.1598
  463MPD2    C5 6947   1.667   3.266   0.267  0.4055  0.1664  0.0622
  463MPD2     H 6948   1.383   3.363   0.504 -1.3973  1.2039 -2.1641
  463MPD2    H1 6949   1.744   3.451   0.289  0.0163 -0.1183  1.7213
  463MPD2    H2 6950   1.595   3.075   0.259 -0.1000 -0.0089 -0.1849
  463MPD2    H3 6951   1.744   3.234   0.199  0.8777  0.6236  0.3812
  463MPD2     N 6952   1.575   3.553   0.474 -0.1390  0.5445  0.0460
  463MPD2    H5 6953   1.651   3.616   0.453 -1.4580  2.1743  0.1538
  463MPD2    N1 6954   1.354   3.139   0.396  0.1922  0.0846 -0.0689
  463MPD2    H7 6955   1.302   3.175   0.475 -0.1941 -1.2611  0.2815
  464TMC3    C1 6956   1.188   2.988   0.391  0.5203  0.4242 -0.3932
  464TMC3    C2 6957   1.105   3.079   0.451  0.5466 -0.3612 -0.3009
  464TMC3    C3 6958   1.004   3.037   0.529  0.2267 -0.2602 -0.6671
  464TMC3    C4 6959   1.168   2.855   0.404 -0.0133  0.8134  0.0201
  464TMC3    C5 6960   1.065   2.813   0.483 -0.2441  0.2415  0.3814
  464TMC3    C6 6961   0.975   2.897   0.541  0.5502  0.0300  0.4779
  464TMC3     C 6962   1.308   3.033   0.329  0.8597 -0.4002 -0.1732
  464TMC3     O 6963   1.350   2.958   0.243  0.4354 -0.4064  0.3479
  464TMC3     H 6964   1.111   3.185   0.432  0.3642 -0.5346 -1.3188
  464TMC3    H1 6965   1.233   2.777   0.368  1.2545  1.7631  0.2549
  464TMC3    H2 6966   0.902   2.863   0.614  0.2267 -1.4187 -0.5176
  464TMC3    C7 6967   1.053   2.665   0.510  0.5466 -0.5449 -0.8726
  464TMC3    C8 6968   0.929   3.133   0.599  0.8366 -0.0847 -0.7988
  464TMC3    O1 6969   1.139   2.592   0.461 -0.0957  0.4778 -0.2080
  464TMC3    O2 6970   0.807   3.112   0.608 -0.1882 -0.2661  0.3377
  465MPD2     C 6971   1.790   1.552  17.002  0.0549  0.5115  0.1964
  465MPD2    C1 6972   1.668   1.499  16.979 -0.3491  0.0624  0.0994
  465MPD2    C2 6973   1.584   1.557  16.885  0.0529  0.7686 -1.1574
  465MPD2    C3 6974   1.639   1.655  16.805 -0.1838 -0.1013 -0.0333
  465MPD2    C4 6975   1.768   1.704  16.821 -0.0890 -0.0481  0.6834
  465MPD2    C5 6976   1.839   1.662  16.931 -0.3012  0.3193 -0.4129
  465MPD2     H 6977   1.486   1.523  16.854  0.7233  0.1287 -2.5831
  465MPD2    H1 6978   1.795   1.795  16.770 -1.4882  0.4499  0.8318
  465MPD2    H2 6979   1.851   1.524  17.088  0.5238 -2.2376 -1.0253
  465MPD2    H3 6980   1.940   1.702  16.941 -0.2324  0.4316 -1.6300
  465MPD2     N 6981   1.549   1.704  16.706 -0.0753 -0.5266 -0.1769
  465MPD2    H5 6982   1.459   1.657  16.708 -0.9641  1.1048 -2.1118
  465MPD2    N1 6983   1.611   1.387  17.043 -0.7713  0.3738  0.1216
  465MPD2    H7 6984   1.511   1.373  17.047 -1.0465  2.4803  0.6797
  466TMC3    C1 6985   1.223   1.852  16.514 -0.6222  0.0601 -0.7215
  466TMC3    C2 6986   1.242   1.897  16.382 -0.1737  0.1923 -0.5154
  466TMC3    C3 6987   1.367   1.908  16.322  0.2410 -0.4675 -0.7788
  466TMC3    C4 6988   1.327   1.796  16.586  0.3901  0.5762  0.0831
  466TMC3    C5 6989   1.454   1.812  16.525  0.0466 -0.4553 -0.4421
  466TMC3    C6 6990   1.476   1.865  16.401 -0.3574 -0.3562 -0.5263
  466TMC3     C 6991   1.104   1.881  16.586  0.0411 -0.4452 -0.0874
  466TMC3     O 6992   1.091   1.830  16.698  0.6034 -0.4963 -0.0641
  466TMC3     H 6993   1.154   1.936  16.332 -0.4472 -0.7566 -0.7814
  466TMC3    H1 6994   1.304   1.754  16.683  0.1967 -1.7268 -0.9604
  466TMC3    H2 6995   1.578   1.879  16.367 -0.5580 -1.0119 -1.4078
  466TMC3    C7 6996   1.570   1.795  16.607 -0.7693  1.2498 -0.5004
  466TMC3    C8 6997   1.388   2.042  16.260  0.1425 -0.1099 -0.6177
  466TMC3    O1 6998   1.669   1.863  16.598 -0.4881  0.2519  0.2374
  466TMC3    O2 6999   1.404   2.038  16.136  0.4595  0.5452  0.0657
  467TMC3    C1 7000   2.139   0.495  13.751 -0.2371  1.0701  0.2136
  467TMC3    C2 7001   2.055   0.584  13.699  0.0514  0.1125 -0.5025
  467TMC3    C3 7002   1.940   0.541  13.637  0.3370 -0.3399  0.1240
  467TMC3    C4 7003   2.133   0.363  13.742 -0.3301  0.3689  0.8416
  467TMC3    C5 7004   2.014   0.317  13.691  0.5562 -0.3915 -0.5523
  467TMC3    C6 7005   1.928   0.402  13.632 -0.5118 -0.1874  0.0762
  467TMC3     C 7006   2.273   0.548  13.765 -0.2056 -0.8730  0.1407
  467TMC3     O 7007   2.288   0.662  13.799 -0.3182  0.7823  0.3122
  467TMC3     H 7008   2.086   0.688  13.710 -1.9625  0.4425  2.1367
  467TMC3    H1 7009   2.204   0.289  13.777  0.3341  1.1027  1.0397
  467TMC3    H2 7010   1.853   0.358  13.569  1.0978 -0.5538 -1.5785
  467TMC3    C7 7011   1.983   0.178  13.689 -0.3368  0.1313 -0.3603
  467TMC3    C8 7012   1.896   0.620  13.531  0.2592  0.4524 -0.2611
  467TMC3    O1 7013   2.077   0.102  13.686 -0.4821  0.4500  0.0854
  467TMC3    O2 7014   1.960   0.722  13.514  0.0094  0.3083 -0.5817
  468MPD2     C 7015   0.936   3.196  10.749  0.4371 -0.4639  0.0697
  468MPD2    C1 7016   1.063   3.134  10.747 -0.1050  0.0780  0.2785
  468MPD2    C2 7017   1.092   3.015  10.671 -0.1253 -0.0301 -0.0559
  468MPD2    C3 7018   0.985   2.952  10.609  0.2219 -1.0943 -0.4901
  468MPD2    C4 7019   0.861   3.007  10.620  0.0002 -0.0992 -0.4273
  468MPD2    C5 7020   0.835   3.123  10.688  0.0056  0.9306  0.0142
  468MPD2     H 7021   1.192   2.974  10.672 -0.8344 -1.7887 -0.0216
  468MPD2    H1 7022   0.785   2.956  10.562  0.1428 -1.0945  0.2587
  468MPD2    H2 7023   0.908   3.291  10.794 -0.1027 -0.5143 -0.1627
  468MPD2    H3 7024   0.737   3.168  10.682  0.3808  1.7379 -0.0185
  468MPD2     N 7025   0.984   2.823  10.548 -0.3137 -0.0775  0.3850
  468MPD2    H5 7026   0.897   2.778  10.522 -0.7176  0.8224  0.1731
  468MPD2    N1 7027   1.166   3.186  10.827  0.0962  0.0576 -0.7048
  468MPD2    H7 7028   1.255   3.138  10.817 -0.5951 -1.3662  0.0662
  469TMC3    C1 7029   1.281   3.325  10.985  0.3858 -0.1035 -0.6294
  469TMC3    C2 7030   1.369   3.231  11.031 -0.1279 -0.5964  0.4566
  469TMC3    C3 7031   1.478   3.277  11.099 -0.0318  0.5490 -0.3995
  469TMC3    C4 7032   1.296   3.457  11.015  0.2293 -0.8692 -0.1321
  469TMC3    C5 7033   1.410   3.498  11.082  0.1879 -0.0444 -0.3416
  469TMC3    C6 7034   1.499   3.412  11.130  0.1063 -0.0536  0.5573
  469TMC3     C 7035   1.156   3.285  10.918  0.1373 -0.1158 -0.4892
  469TMC3     O 7036   1.069   3.364  10.940  0.6462  0.1737 -0.2538
  469TMC3     H 7037   1.377   3.134  10.983 -3.0253 -1.1280  1.0064
  469TMC3    H1 7038   1.231   3.529  10.966 -0.0967 -0.6080  0.6888
  469TMC3    H2 7039   1.597   3.440  11.166  0.1308 -0.8283  1.0935
  469TMC3    C7 7040   1.422   3.637  11.104  0.2220  0.2225  0.1820
  469TMC3    C8 7041   1.591   3.186  11.105 -0.2105  0.8169 -0.0650
  469TMC3    O1 7042   1.333   3.709  11.064 -0.9728  0.1202  0.6865
  469TMC3    O2 7043   1.598   3.090  11.027  0.8292  0.3569 -0.1403
  470TMC3    C1 7044   4.039   0.059   0.141 -0.5038  0.3456 -0.5546
  470TMC3    C2 7045   4.001   0.192   0.148  0.2847  0.0371 -0.3713
  470TMC3    C3 7046   4.097   0.290   0.144  0.2046 -0.1469 -0.2653
  470TMC3    C4 7047   4.171   0.024   0.128  0.1101  0.4253  0.4586
  470TMC3    C5 7048   4.263   0.125   0.121 -0.3363 -0.5355  0.0281
  470TMC3    C6 7049   4.225   0.257   0.120 -0.2517 -0.1212 -0.9043
  470TMC3     C 7050   3.937   4.691   0.133 -0.0735 -0.2377 -0.1685
  470TMC3     O 7051   3.830   4.729   0.088  0.0741  0.2059  0.4835
  470TMC3     H 7052   3.894   0.201   0.163  0.5954  3.0753  0.0868
  470TMC3    H1 7053   4.204   4.660   0.104 -1.7301 -0.2168  0.5685
  470TMC3    H2 7054   4.306   0.328   0.112 -1.3979  1.3176  0.2070
  470TMC3    C7 7055   4.400   0.092   0.096  0.3747  0.3312 -0.7759
  470TMC3    C8 7056   4.078   0.402   0.228 -0.6158  0.1451 -0.5479
  470TMC3    O1 7057   4.463   0.166   0.021 -0.5517  0.0465  0.3326
  470TMC3    O2 7058   4.175   0.445   0.288 -0.1052 -0.1974 -0.1074
  471MPD2     C 7059   3.899   0.933  16.634 -0.3340  0.2899  0.0772
  471MPD2    C1 7060   3.959   0.820  16.577  0.0378 -0.0126  0.4164
  471MPD2    C2 7061   4.046   0.747  16.655  0.5798  1.2607 -0.1088
  471MPD2    C3 7062   4.090   0.784  16.785  0.4890  0.2586  0.2632
  471MPD2    C4 7063   4.042   0.897  16.825  0.4893 -0.5107 -0.4410
  471MPD2    C5 7064   3.944   0.967  16.759 -0.2615 -0.2237  0.1255
  471MPD2     H 7065   4.095   0.664  16.606 -1.0471 -0.3108  0.8953
  471MPD2    H1 7066   4.080   0.937  16.918 -0.3466 -1.2088  0.2018
  471MPD2    H2 7067   3.820   0.991  16.588 -1.5124 -0.6948  0.8581
  471MPD2    H3 7068   3.924   1.066  16.800 -0.3289  1.0743 -2.9863
  471MPD2     N 7069   4.191   0.713  16.862  0.1749 -0.0276 -0.9659
  471MPD2    H5 7070   4.214   0.756  16.951  2.9616 -0.3379 -1.5270
  471MPD2    N1 7071   3.952   0.776  16.442  0.5741 -0.2020  1.0231
  471MPD2    H7 7072   4.004   0.694  16.412 -2.0429 -0.7412 -2.0128
  472TMC3    C1 7073   3.866   0.762  16.214  0.1801  0.1097  0.1468
  472TMC3    C2 7074   3.746   0.786  16.150 -0.0110 -0.5598  0.3823
  472TMC3    C3 7075   3.701   0.694  16.061 -0.0356  0.1120 -0.1200
  472TMC3    C4 7076   3.946   0.651  16.193 -0.6097 -0.0138 -0.0945
  472TMC3    C5 7077   3.893   0.562  16.095 -0.0212  0.1723 -0.6344
  472TMC3    C6 7078   3.773   0.581  16.032 -0.1823  0.1713 -0.1399
  472TMC3     C 7079   3.887   0.845  16.338  0.5292 -0.1265 -0.7180
  472TMC3     O 7080   3.817   0.945  16.341 -0.0672 -0.3563  0.1205
  472TMC3     H 7081   3.685   0.872  16.175 -0.7636 -0.2410 -2.6063
  472TMC3    H1 7082   4.047   0.649  16.231  0.0481 -0.0111 -1.8124
  472TMC3    H2 7083   3.741   0.515  15.952 -0.7578  0.1623  0.0979
  472TMC3    C7 7084   3.961   0.435  16.085  0.5930 -0.0304  0.0099
  472TMC3    C8 7085   3.565   0.690  16.042 -0.0785 -0.0199  0.2472
  472TMC3    O1 7086   4.033   0.399  16.178 -0.7246  0.6548  0.0816
  472TMC3    O2 7087   3.505   0.794  16.069 -0.2694 -0.5889  0.5551
  473MPD2     C 7088   4.067   2.943  13.581 -0.3618  0.1756 -0.1332
  473MPD2    C1 7089   3.960   3.036  13.597 -0.7934 -0.0557  0.6818
  473MPD2    C2 7090   3.993   3.163  13.642  0.4883 -0.4355 -0.0726
  473MPD2    C3 7091   4.113   3.184  13.705  0.2501  0.1704  0.2368
  473MPD2    C4 7092   4.212   3.085  13.700  0.4710  0.7345 -0.8076
  473MPD2    C5 7093   4.187   2.966  13.639  0.0402 -0.5238 -1.6574
  473MPD2     H 7094   3.912   3.234  13.649  1.7839  0.5340  5.1626
  473MPD2    H1 7095   4.306   3.092  13.755 -0.0356 -1.2584  0.3167
  473MPD2    H2 7096   4.053   2.845  13.535 -1.8006 -0.1827  1.0594
  473MPD2    H3 7097   4.270   2.895  13.644  1.1240  0.9264  0.8422
  473MPD2     N 7098   4.145   3.305  13.775  0.5857 -0.1026  0.0165
  473MPD2    H5 7099   4.228   3.302  13.834  0.3100  2.1854  0.5555
  473MPD2    N1 7100   3.827   3.000  13.564 -0.3833 -0.7650 -0.1697
  473MPD2    H7 7101   3.761   3.077  13.554 -2.3017 -2.1205  2.2557
  474TMC3    C1 7102   4.155   3.522  13.831 -0.1829 -0.2215 -0.5341
  474TMC3    C2 7103   4.087   3.636  13.867  0.4636  1.0038  0.4760
  474TMC3    C3 7104   4.112   3.705  13.981 -0.2840  0.3922 -0.5108
  474TMC3    C4 7105   4.254   3.488  13.917 -0.6335  0.6385 -0.3947
  474TMC3    C5 7106   4.275   3.560  14.031 -0.9717  0.1463  0.1931
  474TMC3    C6 7107   4.205   3.668  14.070 -0.4715 -0.8111 -0.4582
  474TMC3     C 7108   4.079   3.417  13.768 -0.8465 -0.1738  0.3075
  474TMC3     O 7109   3.969   3.443  13.715 -0.1209 -0.0697  0.6501
  474TMC3     H 7110   4.011   3.671  13.798  2.0428  1.1157 -1.2263
  474TMC3    H1 7111   4.320   3.405  13.898  0.7717  1.6298  0.1502
  474TMC3    H2 7112   4.234   3.731  14.153 -0.8818  0.1076 -1.0153
  474TMC3    C7 7113   4.366   3.496  14.125  0.4535 -0.3915  0.0168
  474TMC3    C8 7114   4.051   3.837  13.991  0.7457  0.2362 -0.1122
  474TMC3    O1 7115   4.455   3.425  14.076  0.0817  0.2831  0.1365
  474TMC3    O2 7116   4.111   3.922  14.059  0.0457 -0.0780  0.0582
  475MPD2     C 7117   2.680   0.869  10.047  0.4982 -0.6021 -1.1077
  475MPD2    C1 7118   2.587   0.934   9.965  0.2356  0.4071 -0.1810
  475MPD2    C2 7119   2.454   0.940  10.000 -0.3772  0.2818  0.2547
  475MPD2    C3 7120   2.410   0.898  10.122 -0.1922  0.1147  0.3742
  475MPD2    C4 7121   2.500   0.831  10.199  0.0124  0.2819 -0.4203
  475MPD2    C5 7122   2.631   0.813  10.162 -0.9936  0.0348 -0.1706
  475MPD2     H 7123   2.383   1.005   9.951 -2.1838 -0.8058  1.4116
  475MPD2    H1 7124   2.468   0.794  10.295  0.7361 -1.2038 -0.7611
  475MPD2    H2 7125   2.785   0.854  10.023  1.7371  1.9291  2.8518
  475MPD2    H3 7126   2.700   0.758  10.224 -0.6421 -1.9072 -2.2809
  475MPD2     N 7127   2.272   0.918  10.163 -1.0131 -0.1037  0.3123
  475MPD2    H5 7128   2.218   0.957  10.086 -2.6146  1.3412  2.1648
  475MPD2    N1 7129   2.639   0.975   9.837 -0.2464 -0.0531  0.0692
  475MPD2    H7 7130   2.737   0.954   9.822 -0.1392  0.6369 -0.1856
  476TMC3    C1 7131   2.647   1.121   9.650  0.2632  0.2939  0.1244
  476TMC3    C2 7132   2.567   1.198   9.573 -0.4269  0.1016 -0.1498
  476TMC3    C3 7133   2.589   1.335   9.579 -0.6044  1.0668 -0.4870
  476TMC3    C4 7134   2.746   1.179   9.713  0.5335 -0.5237  1.1735
  476TMC3    C5 7135   2.773   1.309   9.704  0.4967 -0.0835  0.4462
  476TMC3    C6 7136   2.697   1.395   9.640 -0.3625  0.0552  0.1141
  476TMC3     C 7137   2.569   1.045   9.740  0.0490  0.2093 -0.3818
  476TMC3     O 7138   2.452   1.075   9.729  0.4167  0.1710  0.2652
  476TMC3     H 7139   2.473   1.176   9.525  1.0928 -1.5583 -2.3359
  476TMC3    H1 7140   2.825   1.126   9.766  1.2398  0.1984  0.8408
  476TMC3    H2 7141   2.714   1.502   9.649 -0.9665  0.2127 -0.5838
  476TMC3    C7 7142   2.888   1.370   9.769  0.3910 -0.3870  0.1425
  476TMC3    C8 7143   2.471   1.410   9.598 -0.3734 -0.2638  0.7791
  476TMC3    O1 7144   2.985   1.321   9.713 -0.6947  0.6145  0.2968
  476TMC3    O2 7145   2.457   1.525   9.554 -0.5141 -0.3363 -0.1213
  477MPD2     C 7146   4.428   1.925  11.336  0.5373 -0.2415 -0.2443
  477MPD2    C1 7147   4.437   2.045  11.401 -0.0753  0.3257  0.1557
  477MPD2    C2 7148   4.490   2.033  11.531  0.3934 -0.0930  0.2792
  477MPD2    C3 7149   4.528   1.913  11.594 -1.0650  0.2322 -0.0292
  477MPD2    C4 7150   4.506   1.793  11.526  0.7406  0.1495  0.2027
  477MPD2    C5 7151   4.446   1.803  11.398 -0.1668 -0.0350  0.1571
  477MPD2     H 7152   4.516   2.125  11.581  0.6198  0.1994 -0.3705
  477MPD2    H1 7153   4.530   1.700  11.575 -0.4797 -0.1468  0.2342
  477MPD2    H2 7154   4.389   1.930  11.235 -0.0684 -0.6312 -0.0269
  477MPD2    H3 7155   4.428   1.719  11.332  1.5959 -1.0509  0.9614
  477MPD2     N 7156   4.560   1.910  11.731 -0.0906 -0.1408 -0.2331
  477MPD2    H5 7157   4.597   1.822  11.766 -0.6029 -0.2295  0.0860
  477MPD2    N1 7158   4.399   2.165  11.327  0.2531  0.2827 -0.0516
  477MPD2    H7 7159   4.354   2.162  11.237 -3.4482  2.2550  1.7244
  478TMC3    C1 7160   4.378   2.395  11.294  0.9755 -0.6481  0.0240
  478TMC3    C2 7161   4.366   2.519  11.349 -0.0523  0.4077 -0.4431
  478TMC3    C3 7162   4.302   2.624  11.282 -0.3750 -0.5293 -0.1914
  478TMC3    C4 7163   4.330   2.366  11.168 -0.1965  0.4896  0.1363
  478TMC3    C5 7164   4.273   2.475  11.100 -0.3367  0.3149  0.5013
  478TMC3    C6 7165   4.252   2.599  11.152 -0.0531 -0.4750 -1.1133
  478TMC3     C 7166   4.427   2.294  11.374 -0.6942 -0.3914 -0.2849
  478TMC3     O 7167   4.465   2.321  11.486 -0.1357  0.0676 -0.0453
  478TMC3     H 7168   4.404   2.539  11.448 -0.1543 -1.1769 -0.0955
  478TMC3    H1 7169   4.344   2.269  11.122 -2.3947  0.7875 -1.1270
  478TMC3    H2 7170   4.224   2.685  11.093  1.5279 -0.0532 -1.2478
  478TMC3    C7 7171   4.248   2.445  10.958  0.7148 -0.3168 -0.3826
  478TMC3    C8 7172   4.241   2.720  11.373 -0.1474  0.7476 -0.5816
  478TMC3    O1 7173   4.295   2.345  10.906  0.0879  0.4316 -0.3246
  478TMC3    O2 7174   4.215   2.683  11.491 -0.7972 -0.5717 -0.4288
  479MPD2     C 7175   3.817   0.193  15.281  0.3142 -0.1307 -0.1886
  479MPD2    C1 7176   3.702   0.137  15.320 -0.1783  0.2711 -0.4410
  479MPD2    C2 7177   3.645   0.184  15.442 -0.0514 -0.1280  0.1398
  479MPD2    C3 7178   3.713   0.269  15.526  0.0026  0.2253 -0.2255
  479MPD2    C4 7179   3.821   0.334  15.476 -0.4164  0.0815 -0.2762
  479MPD2    C5 7180   3.881   0.291  15.356 -0.0329  0.5109 -0.3363
  479MPD2     H 7181   3.553   0.150  15.488  0.8040 -0.4978  1.5954
  479MPD2    H1 7182   3.874   0.415  15.523 -0.5230 -1.4338  2.4502
  479MPD2    H2 7183   3.856   0.159  15.186  0.2727  0.6938 -0.5080
  479MPD2    H3 7184   3.972   0.341  15.325  0.1805  1.7384  2.2799
  479MPD2     N 7185   3.657   0.309  15.646 -0.3708  0.7227  0.1414
  479MPD2    H5 7186   3.686   0.398  15.684 -3.1029  2.3108 -1.5061
  479MPD2    N1 7187   3.617   0.059  15.237 -0.0534  0.1398 -0.5772
  479MPD2    H7 7188   3.649   0.025  15.147  0.7065 -0.9567  0.1019
  480TMC3    C1 7189   3.327   0.136  15.922 -0.0919 -0.0491  0.2806
  480TMC3    C2 7190   3.228   0.182  15.837 -0.0487 -0.4655  0.5791
  480TMC3    C3 7191   3.272   0.288  15.754  0.4495  0.2372  0.5915
  480TMC3    C4 7192   3.456   0.178  15.906  0.0523 -0.0345 -0.1554
  480TMC3    C5 7193   3.493   0.274  15.820  0.2290 -0.5878  0.8445
  480TMC3    C6 7194   3.394   0.344  15.754 -0.3742 -0.2745 -0.9350
  480TMC3     C 7195   3.320   4.730  15.973  0.2444 -0.1937  0.4155
  480TMC3     O 7196   3.417   4.671  16.020 -0.1594  0.2108  0.3540
  480TMC3     H 7197   3.127   0.143  15.836  0.0842 -0.8073  0.5129
  480TMC3    H1 7198   3.534   0.117  15.951  0.1026 -1.2663 -1.8706
  480TMC3    H2 7199   3.421   0.425  15.687  1.8601  0.4738  0.8746
  480TMC3    C7 7200   3.587   0.223  15.730  0.6457 -0.2705 -0.6153
  480TMC3    C8 7201   3.203   0.288  15.624  0.3257  0.4591 -0.4575
  480TMC3    O1 7202   3.580   0.104  15.706  0.1222  0.3590 -0.9700
  480TMC3    O2 7203   3.102   0.217  15.616  0.1351  0.3256  0.2122
  481MPD2     C 7204   0.470   4.341  14.023 -0.4732 -0.0928  0.2968
  481MPD2    C1 7205   0.356   4.273  14.052  0.4771  0.8399 -0.3208
  481MPD2    C2 7206   0.345   4.213  14.179  0.0776  0.1379  0.2366
  481MPD2    C3 7207   0.448   4.229  14.265 -0.6222  0.7004  0.4380
  481MPD2    C4 7208   0.563   4.291  14.229  0.5769  0.0804  0.2152
  481MPD2    C5 7209   0.578   4.353  14.106 -1.0611 -0.4351  0.0772
  481MPD2     H 7210   0.262   4.149  14.205 -0.3987  1.2631  1.5048
  481MPD2    H1 7211   0.648   4.300  14.296  1.2797  1.7306 -0.8821
  481MPD2    H2 7212   0.483   4.391  13.927 -2.6436 -2.3582 -1.1510
  481MPD2    H3 7213   0.664   4.417  14.087  1.1073 -3.4409 -0.3453
  481MPD2     N 7214   0.443   4.168  14.392 -0.2246 -0.4783  0.5584
  481MPD2    H5 7215   0.529   4.167  14.446  0.6573  2.3750 -0.7947
  481MPD2    N1 7216   0.256   4.264  13.954  0.3781 -0.7630 -0.2826
  481MPD2    H7 7217   0.284   4.311  13.868 -2.2946 -2.9628 -2.3512
  482TMC3    C1 7218   0.067   4.214  13.850 -0.2709 -0.1299 -0.3244
  482TMC3    C2 7219   0.060   4.107  13.762 -0.3638  0.2760  0.1409
  482TMC3    C3 7220   0.041   4.144  13.629  0.2961 -0.2484  0.3468
  482TMC3    C4 7221   0.061   4.342  13.816 -0.0211  0.3310 -0.3959
  482TMC3    C5 7222   0.023   4.369  13.691  0.6209  0.3628  0.4099
  482TMC3    C6 7223   0.013   4.269  13.592 -0.0428  0.7112 -0.3252
  482TMC3     C 7224   0.150   4.181  13.960 -0.3446  0.4604 -1.1106
  482TMC3     O 7225   0.120   4.095  14.036  0.9595 -0.3271 -0.5317
  482TMC3     H 7226   0.073   4.006  13.800 -1.4074 -0.4836 -1.5386
  482TMC3    H1 7227   0.090   4.419  13.886 -0.3984  0.8970 -0.8588
  482TMC3    H2 7228   0.014   4.298  13.487 -2.8580  0.0436 -0.5328
  482TMC3    C7 7229   0.001   4.511  13.662 -0.9176 -0.5462 -0.1733
  482TMC3    C8 7230   0.037   4.034  13.534  0.6190 -0.8228  0.3116
  482TMC3    O1 7231   4.728   4.591  13.755 -0.4779  0.6718  0.0456
  482TMC3    O2 7232   0.073   3.925  13.575  0.2032  0.1544 -0.2785
  483TMC3    C1 7233   3.518   3.653   0.886  0.8228  0.3737  0.1931
  483TMC3    C2 7234   3.564   3.743   0.796  0.4382  0.1864 -0.6111
  483TMC3    C3 7235   3.700   3.774   0.792  0.7591 -0.5726 -0.1271
  483TMC3    C4 7236   3.591   3.603   0.985 -0.2980  0.7876  0.0472
  483TMC3    C5 7237   3.729   3.624   0.974 -0.3892  1.0133 -0.0286
  483TMC3    C6 7238   3.787   3.707   0.881 -0.5803  0.0062  0.3645
  483TMC3     C 7239   3.378   3.623   0.874 -0.0866  0.1332 -0.9520
  483TMC3     O 7240   3.305   3.723   0.858  0.0291 -0.3090  0.3005
  483TMC3     H 7241   3.490   3.793   0.735 -0.5319 -1.7047 -0.9803
  483TMC3    H1 7242   3.551   3.534   1.059 -0.3050  1.1054  0.3416
  483TMC3    H2 7243   3.891   3.692   0.857 -0.6919  0.1942 -0.2312
  483TMC3    C7 7244   3.818   3.522   1.013  0.0452 -0.2803  0.2499
  483TMC3    C8 7245   3.751   3.802   0.662  0.2919 -0.2674 -0.0878
  483TMC3    O1 7246   3.778   3.408   1.015  0.2924 -0.1872 -0.3863
  483TMC3    O2 7247   3.668   3.810   0.573  0.1351 -0.2535  0.2061
  484MPD2     C 7248   0.861   1.452  12.832  0.4368  0.4830  0.6031
  484MPD2    C1 7249   0.836   1.410  12.707  0.5603 -0.2325  0.3486
  484MPD2    C2 7250   0.943   1.409  12.619 -0.1105 -0.8298  0.5410
  484MPD2    C3 7251   1.069   1.435  12.662  0.6541 -0.5187  0.5668
  484MPD2    C4 7252   1.089   1.461  12.797  0.3809 -0.2557  0.5147
  484MPD2    C5 7253   0.984   1.478  12.877  0.5805 -0.4033  0.0025
  484MPD2     H 7254   0.934   1.372  12.517  1.3318 -1.5440  0.6714
  484MPD2    H1 7255   1.187   1.489  12.832 -0.0878  1.0867  0.7505
  484MPD2    H2 7256   0.779   1.474  12.899  0.8053  0.2343  1.1301
  484MPD2    H3 7257   0.994   1.497  12.983 -0.0770 -0.2087  0.0276
  484MPD2     N 7258   1.176   1.441  12.570  0.4051  0.2257 -0.0810
  484MPD2    H5 7259   1.269   1.452  12.609  0.2978  1.2942 -0.1388
  484MPD2    N1 7260   0.713   1.353  12.668 -0.1351  0.2855  0.0985
  484MPD2    H7 7261   0.643   1.342  12.741  0.7900  0.2422  0.9800
  485TMC3    C1 7262   1.291   1.472  12.367  0.4652 -0.1821  0.1903
  485TMC3    C2 7263   1.400   1.424  12.439 -0.2379  0.5502  0.3468
  485TMC3    C3 7264   1.532   1.452  12.401 -0.1220 -0.4232 -0.5232
  485TMC3    C4 7265   1.311   1.535  12.247  0.1741  0.0400  0.2024
  485TMC3    C5 7266   1.436   1.555  12.206  0.3240  0.0415  0.4763
  485TMC3    C6 7267   1.545   1.523  12.281  0.0082  0.3518  1.3243
  485TMC3     C 7268   1.160   1.460  12.431 -0.1008 -0.1249  0.2371
  485TMC3     O 7269   1.062   1.469  12.356 -0.3160 -0.2870 -0.4924
  485TMC3     H 7270   1.392   1.356  12.523  0.8766 -0.0283 -0.0150
  485TMC3    H1 7271   1.221   1.557  12.190 -0.2034 -0.0729  0.7465
  485TMC3    H2 7272   1.646   1.531  12.243 -0.0467 -0.8066  0.9349
  485TMC3    C7 7273   1.457   1.522  12.064  0.3418  0.0872 -0.3485
  485TMC3    C8 7274   1.596   1.324  12.395  0.6560  0.1029 -0.1488
  485TMC3    O1 7275   1.362   1.464  12.008  0.6999  0.0754 -0.0253
  485TMC3    O2 7276   1.530   1.219  12.413 -0.2460 -0.2607 -0.0924
  486MPD2     C 7277   2.826   0.583  13.410  0.2669  0.2275 -0.2504
  486MPD2    C1 7278   2.801   0.537  13.284 -0.2436 -0.3486  0.4123
  486MPD2    C2 7279   2.806   0.626  13.177  0.3425 -0.3245  0.1791
  486MPD2    C3 7280   2.839   0.756  13.192  0.4812 -0.6284  0.2281
  486MPD2    C4 7281   2.872   0.800  13.323 -0.1360  0.4198 -0.0120
  486MPD2    C5 7282   2.858   0.714  13.435 -0.0537 -0.0132 -0.6260
  486MPD2     H 7283   2.776   0.579  13.084  0.2065  0.3919 -0.1413
  486MPD2    H1 7284   2.911   0.897  13.354  0.9701  0.4718 -1.5593
  486MPD2    H2 7285   2.827   0.515  13.495 -0.7515 -0.8156 -1.0766
  486MPD2    H3 7286   2.878   0.760  13.531  1.3347 -2.1170  0.0882
  486MPD2     N 7287   2.834   0.845  13.084 -0.1318  0.0180 -0.1676
  486MPD2    H5 7288   2.792   0.797  13.005 -0.5593 -0.5868  0.4285
  486MPD2    N1 7289   2.796   0.396  13.266  0.0660  0.3014  0.0122
  486MPD2    H7 7290   2.811   0.340  13.349  1.2357  1.6796  0.7408
  487TMC3    C1 7291   2.782   0.177  13.182  0.2122  0.3177  0.1300
  487TMC3    C2 7292   2.808   0.099  13.074  0.1512  0.1736  0.0304
  487TMC3    C3 7293   2.775   4.701  13.090 -0.1477 -0.1389 -0.8691
  487TMC3    C4 7294   2.727   0.133  13.297 -0.0283  0.7187  0.0659
  487TMC3    C5 7295   2.692   4.735  13.305 -0.1919 -0.6247 -0.4198
  487TMC3    C6 7296   2.733   4.645  13.203 -0.3624 -0.3580 -0.3080
  487TMC3     C 7297   2.770   0.321  13.155  0.4911  0.1551  0.5057
  487TMC3     O 7298   2.757   0.357  13.039 -0.3962 -0.1927 -0.1253
  487TMC3     H 7299   2.841   0.149  12.984  0.3157 -0.9273 -0.5263
  487TMC3    H1 7300   2.702   0.199  13.379  0.1438  0.5547  0.2494
  487TMC3    H2 7301   2.706   4.542  13.221  0.5993 -0.8113 -1.3985
  487TMC3    C7 7302   2.682   4.697  13.444  0.4292  0.5887 -0.3729
  487TMC3    C8 7303   2.792   4.613  12.970 -0.0010  0.0579 -0.0407
  487TMC3    O1 7304   2.719   0.040  13.529  0.5000 -0.6929  0.4695
  487TMC3    O2 7305   2.719   4.513  12.961 -0.4517 -0.0645 -0.2611
  488MPD2     C 7306   3.147   1.462  16.118 -0.3489  0.3098 -0.2690
  488MPD2    C1 7307   3.262   1.503  16.181 -0.0436 -0.5749 -0.0646
  488MPD2    C2 7308   3.276   1.478  16.318 -0.3063 -0.1766  0.4031
  488MPD2    C3 7309   3.178   1.411  16.386  0.4545 -0.2410 -0.0256
  488MPD2    C4 7310   3.065   1.371  16.322 -0.5975  0.0791  0.3053
  488MPD2    C5 7311   3.052   1.396  16.185 -0.2378  0.1665  0.8170
  488MPD2     H 7312   3.368   1.516  16.363  0.2896 -1.1652  0.0344
  488MPD2    H1 7313   2.979   1.323  16.367 -0.5187 -0.7419 -0.4147
  488MPD2    H2 7314   3.130   1.489  16.015 -1.9522 -1.6028 -0.5159
  488MPD2    H3 7315   2.961   1.375  16.131  0.0127 -1.6671  1.1254
  488MPD2     N 7316   3.197   1.397  16.530 -0.2699 -0.8465  0.2698
  488MPD2    H5 7317   3.279   1.448  16.561  0.6487 -1.7099 -0.7698
  488MPD2    N1 7318   3.357   1.585  16.114  0.2796 -0.5829  0.0158
  488MPD2    H7 7319   3.422   1.642  16.167 -0.1326  0.0951 -0.2046
  489TMC3    C1 7320   3.136   1.362  16.756 -0.0289 -0.6154  0.0246
  489TMC3    C2 7321   3.222   1.462  16.791 -0.7507  0.3179 -0.1121
  489TMC3    C3 7322   3.222   1.510  16.915  0.4326 -0.5946  0.2260
  489TMC3    C4 7323   3.054   1.302  16.852  0.0603  0.0968  0.5365
  489TMC3    C5 7324   3.057   1.353  16.982  0.1683  0.3232 -0.0104
  489TMC3    C6 7325   3.133   1.464  17.013 -0.1811 -0.2244 -0.0683
  489TMC3     C 7326   3.117   1.329  16.621 -0.8459  0.1744 -0.2638
  489TMC3     O 7327   3.032   1.245  16.596 -0.3594 -0.5486 -0.2670
  489TMC3     H 7328   3.281   1.509  16.713 -1.6944 -0.2095 -1.1482
  489TMC3    H1 7329   2.995   1.221  16.812  1.8612 -0.7161 -0.4629
  489TMC3    H2 7330   3.135   1.489  17.118 -0.4643 -1.4704  0.2341
  489TMC3    C7 7331   3.010   1.265  17.090  0.1972  0.2260  0.0870
  489TMC3    C8 7332   3.276   1.650  16.925  0.3053  0.2596 -0.1265
  489TMC3    O1 7333   3.014   1.318  17.199 -0.1051  0.4553 -0.2172
  489TMC3    O2 7334   3.356   1.690  16.839 -0.2431  0.2216  0.1552
  490MPD2     C 7335   3.808   1.373  17.083 -0.2855  0.0755 -0.0374
  490MPD2    C1 7336   3.893   1.310  17.183  0.8757  0.3262  0.0028
  490MPD2    C2 7337   4.020   1.366  17.204  0.1179 -0.4294  0.6584
  490MPD2    C3 7338   4.060   1.483  17.143  0.4511 -0.0497 -0.4864
  490MPD2    C4 7339   3.972   1.554  17.061 -0.0737  0.5019 -0.3896
  490MPD2    C5 7340   3.850   1.498  17.032  0.5603 -0.8705  0.0542
  490MPD2     H 7341   4.074   1.311  17.280  0.3722 -1.8735 -0.5902
  490MPD2    H1 7342   4.000   1.646  17.010 -0.3025  1.5257  1.3266
  490MPD2    H2 7343   3.708   1.337  17.061 -0.0134 -0.9548  0.4174
  490MPD2    H3 7344   3.782   1.539  16.958  0.1610 -1.8267 -0.1116
  490MPD2     N 7345   4.183   1.544  17.159  0.3591 -0.2509  0.4516
  490MPD2    H5 7346   4.186   1.643  17.134  1.2479 -0.2636  0.5207
  490MPD2    N1 7347   3.845   1.199  17.258  0.1597  0.4434  0.2216
  490MPD2    H7 7348   3.897   1.161  17.336  0.5518 -3.2029 -1.8152
  491TMC3    C1 7349   3.686   1.042  17.326  0.5546  0.1655  0.2011
  491TMC3    C2 7350   3.724   1.047  17.460  0.1500 -0.6506 -0.4021
  491TMC3    C3 7351   3.666   0.962  17.559 -0.0376 -0.0958  0.0823
  491TMC3    C4 7352   3.623   0.931  17.283  0.3262  1.0037 -0.0630
  491TMC3    C5 7353   3.575   0.845  17.378 -0.0089 -0.2667 -0.3950
  491TMC3    C6 7354   3.592   0.862  17.515  0.3941 -0.9833 -0.2169
  491TMC3     C 7355   3.725   1.130  17.224  0.2262 -0.2593 -0.0494
  491TMC3     O 7356   3.652   1.139  17.128  0.5744 -0.0551  0.4222
  491TMC3     H 7357   3.791   1.128  17.487  0.9130 -1.0132 -1.1874
  491TMC3    H1 7358   3.608   0.922  17.176 -2.1928 -0.2655  0.3985
  491TMC3    H2 7359   3.570   0.782  17.585 -0.2935 -0.4374  0.1899
  491TMC3    C7 7360   3.501   0.734  17.328 -0.8964  0.5821  0.5748
  491TMC3    C8 7361   3.639   1.011  17.695  0.0132 -0.3095  0.8570
  491TMC3    O1 7362   3.497   0.734  17.203 -0.0844  0.0668 -0.1613
  491TMC3    O2 7363   3.534   0.974  17.742 -0.3655  0.4336  0.5932
  492MPD2     C 7364   4.601   1.202  11.140  0.0729 -0.7004 -0.3619
  492MPD2    C1 7365   4.510   1.138  11.053 -0.9028 -0.4345 -0.9132
  492MPD2    C2 7366   4.397   1.076  11.102  0.7586 -0.0295 -0.8428
  492MPD2    C3 7367   4.369   1.084  11.239  0.4714  0.0895 -0.5433
  492MPD2    C4 7368   4.455   1.148  11.323  0.3744  0.3987 -0.2885
  492MPD2    C5 7369   4.572   1.202  11.276  0.2000  0.1534 -0.5706
  492MPD2     H 7370   4.334   1.006  11.049  2.6896 -1.0829 -1.7544
  492MPD2    H1 7371   4.448   1.132  11.430  1.1726  0.6238 -0.2041
  492MPD2    H2 7372   4.697   1.236  11.102  0.4200 -1.4606 -0.1537
  492MPD2    H3 7373   4.643   1.234  11.351 -0.1377 -0.8476  0.1880
  492MPD2     N 7374   4.251   1.033  11.298  0.5563  0.3412 -0.1350
  492MPD2    H5 7375   4.249   1.063  11.395 -2.7868  0.5827 -0.2816
  492MPD2    N1 7376   4.545   1.149  10.915  0.6289  0.3337  0.5169
  492MPD2    H7 7377   4.626   1.205  10.890  0.1378 -0.0543 -1.8846
  493TMC3    C1 7378   4.535   1.131  10.692 -0.2481  0.0275 -0.5147
  493TMC3    C2 7379   4.662   1.184  10.673  0.4164  0.3424  0.0103
  493TMC3    C3 7380   4.679   1.234  10.548 -0.3983 -0.7962 -0.7318
  493TMC3    C4 7381   4.439   1.133  10.596  0.7109 -0.0321  0.0038
  493TMC3    C5 7382   4.467   1.190  10.474 -0.0731 -1.4918  0.4939
  493TMC3    C6 7383   4.584   1.245  10.449 -0.0525  0.5732 -0.9870
  493TMC3     C 7384   4.488   1.076  10.815  0.2458 -0.3153 -0.3384
  493TMC3     O 7385   4.384   1.012  10.823  0.7209  0.0654 -0.0592
  493TMC3     H 7386   0.003   1.165  10.746  0.1062  2.4526  0.8926
  493TMC3    H1 7387   4.339   1.100  10.622  0.9339  0.2778  1.2610
  493TMC3    H2 7388   4.598   1.287  10.350  2.9249 -1.8665 -1.5879
  493TMC3    C7 7389   4.383   1.152  10.359 -0.2664  0.8461  1.1115
  493TMC3    C8 7390   0.070   1.297  10.516  0.5446 -0.8055  0.3423
  493TMC3    O1 7391   4.409   1.218  10.260  0.1794 -0.4925 -0.1402
  493TMC3    O2 7392   0.162   1.284  10.595 -0.6540  0.0450  0.1235
  494TMC3    C1 7393   4.628   3.299   0.263  0.2001  0.9028  0.1567
  494TMC3    C2 7394   4.598   3.168   0.268 -0.0379  0.5501 -0.2188
  494TMC3    C3 7395   4.612   3.088   0.161 -0.5807 -0.1590  0.0824
  494TMC3    C4 7396   4.678   3.351   0.146 -0.7944 -0.0443 -0.4175
  494TMC3    C5 7397   4.686   3.271   0.036  0.2042  0.0650 -0.6396
  494TMC3    C6 7398   4.656   3.139   0.039  0.9118 -0.2465  0.3752
  494TMC3     C 7399   4.634   3.384   0.375  0.8019  0.7776  0.2987
  494TMC3     O 7400   4.702   3.486   0.368 -0.2762 -0.3162  0.3789
  494TMC3     H 7401   4.553   3.131   0.359 -1.9292  2.5452 -0.3352
  494TMC3    H1 7402   4.701   3.457   0.147 -2.4635  0.3168  0.2613
  494TMC3    H2 7403   4.693   3.076  17.704  2.0798  0.6409  0.2171
  494TMC3    C7 7404   0.024   3.314  17.661  0.9186  0.1099  0.0261
  494TMC3    C8 7405   4.671   2.961   0.193 -0.3353  0.0938 -0.2340
  494TMC3    O1 7406   0.044   3.228  17.576  0.5445 -0.7960  0.4853
  494TMC3    O2 7407   4.730   2.947   0.299  0.1061  0.2810  0.3138
  495TMC3    C1 7408   3.709   0.172  14.828  0.7694 -0.5070  0.1801
  495TMC3    C2 7409   3.644   0.184  14.708  0.6703  1.2769  0.7133
  495TMC3    C3 7410   3.543   0.275  14.695  0.7213  0.5449  0.7805
  495TMC3    C4 7411   3.667   0.245  14.941  0.4841  0.1264  0.2784
  495TMC3    C5 7412   3.560   0.330  14.927  0.3238  1.0216  0.4109
  495TMC3    C6 7413   3.499   0.355  14.803  0.4011 -0.4403 -0.5593
  495TMC3     C 7414   3.763   0.040  14.853  0.3390 -0.0019  0.2383
  495TMC3     O 7415   3.733   4.716  14.957  0.0098  0.3149  0.5017
  495TMC3     H 7416   3.679   0.123  14.625 -0.6265  2.3347 -0.5967
  495TMC3    H1 7417   3.704   0.220  15.040  0.0925 -0.0196  0.3915
  495TMC3    H2 7418   3.415   0.423  14.793 -0.2057 -0.8044  2.2109
  495TMC3    C7 7419   3.504   0.370  15.047 -0.1767  0.8675 -0.6091
  495TMC3    C8 7420   3.455   0.282  14.582  0.6195  0.7318  0.3112
  495TMC3    O1 7421   3.572   0.393  15.147 -0.4603 -0.0966  0.4641
  495TMC3    O2 7422   3.396   0.384  14.558 -0.5180 -0.2394  0.1369
  496MPD2     C 7423   0.485   0.666  15.133  0.0062 -0.0227  0.3978
  496MPD2    C1 7424   0.568   0.593  15.218  0.4135  0.7299 -0.0779
  496MPD2    C2 7425   0.511   0.521  15.322 -0.4931  1.0620 -0.0725
  496MPD2    C3 7426   0.369   0.507  15.330  0.2316  0.0552  1.0064
  496MPD2    C4 7427   0.295   0.567  15.233  0.0399 -0.0043 -0.2305
  496MPD2    C5 7428   0.353   0.661  15.143 -0.4517 -0.1156 -0.1138
  496MPD2     H 7429   0.581   0.473  15.390 -0.5926  0.9758 -0.0309
  496MPD2    H1 7430   0.187   0.563  15.241 -0.0659  0.2942 -1.4363
  496MPD2    H2 7431   0.537   0.733  15.066  1.0649 -0.7791  0.4724
  496MPD2    H3 7432   0.294   0.718  15.072  0.0599 -0.1743 -0.5899
  496MPD2     N 7433   0.314   0.416  15.423 -0.2494 -0.3445  0.0510
  496MPD2    H5 7434   0.221   0.387  15.395 -0.2936 -2.1004  1.9720
  496MPD2    N1 7435   0.708   0.598  15.197  0.4605 -0.3436  0.1041
  496MPD2    H7 7436   0.748   0.655  15.123 -0.7721  0.4699  0.0737
  497TMC3    C1 7437   0.326   0.210  15.541 -0.8840  0.2974 -0.3455
  497TMC3    C2 7438   0.275   0.146  15.432  0.2656 -0.4030 -0.0597
  497TMC3    C3 7439   0.282   0.013  15.411 -0.6334  0.3675 -0.1561
  497TMC3    C4 7440   0.390   0.132  15.632  0.0017 -0.2002 -0.3929
  497TMC3    C5 7441   0.407   4.730  15.609 -0.5949 -0.3694  0.1462
  497TMC3    C6 7442   0.353   4.670  15.498 -0.0043  0.0001 -0.2801
  497TMC3     C 7443   0.374   0.347  15.530 -0.3721  0.0211 -0.4364
  497TMC3     O 7444   0.483   0.378  15.581 -0.9878  0.5111 -0.2364
  497TMC3     H 7445   0.239   0.202  15.347 -0.0580 -1.0544 -0.3483
  497TMC3    H1 7446   0.422   0.178  15.724 -2.1861 -1.8742  1.2112
  497TMC3    H2 7447   0.365   4.564  15.476  1.0801  0.1633 -0.4864
  497TMC3    C7 7448   0.471   4.643  15.704 -0.0293  0.9208 -0.0290
  497TMC3    C8 7449   0.253   4.704  15.277 -0.5441  0.5817  0.3685
  497TMC3    O1 7450   0.456   4.520  15.699  0.0289 -0.3913 -0.2153
  497TMC3    O2 7451   0.166   0.023  15.213 -0.6524 -0.0831 -0.0412
  498MPD2     C 7452   1.757   1.461   9.435  0.0932 -0.6742 -0.5152
  498MPD2    C1 7453   1.795   1.332   9.433 -0.3557 -0.1872 -0.3023
  498MPD2    C2 7454   1.700   1.233   9.456  0.1925  0.0113  0.4319
  498MPD2    C3 7455   1.566   1.260   9.489 -0.6426  0.6724 -0.3032
  498MPD2    C4 7456   1.532   1.394   9.502  0.4674  0.0024 -0.3174
  498MPD2    C5 7457   1.625   1.487   9.463  0.0193  0.6265  0.0633
  498MPD2     H 7458   1.733   1.130   9.449  1.1750  0.2493  1.5817
  498MPD2    H1 7459   1.437   1.424   9.546  1.0968  1.9692 -0.2996
  498MPD2    H2 7460   1.821   1.547   9.420 -0.5310 -0.0849  0.2199
  498MPD2    H3 7461   1.600   1.590   9.486  0.5577  1.0994 -1.4975
  498MPD2     N 7462   1.486   1.150   9.525 -0.5646 -0.2363  0.5967
  498MPD2    H5 7463   1.536   1.064   9.543  0.3479  0.1672 -0.0348
  498MPD2    N1 7464   1.930   1.297   9.396 -0.5765  0.1976  0.2218
  498MPD2    H7 7465   1.940   1.197   9.385  0.4920  0.4674 -1.3152
  499TMC3    C1 7466   2.146   1.316   9.302 -0.4414  0.1260  0.0421
  499TMC3    C2 7467   2.135   1.195   9.239 -0.4866 -0.5454 -0.7785
  499TMC3    C3 7468   2.253   1.138   9.201 -0.6969 -0.2786 -0.2319
  499TMC3    C4 7469   2.269   1.387   9.309 -0.6835  0.4861 -0.1208
  499TMC3    C5 7470   2.377   1.326   9.259  0.2940  0.0777 -0.0538
  499TMC3    C6 7471   2.375   1.200   9.212 -0.3110  0.0372 -0.0045
  499TMC3     C 7472   2.034   1.382   9.365  0.5269  0.0268 -0.4682
  499TMC3     O 7473   2.042   1.505   9.368  0.3511 -0.0356  0.2623
  499TMC3     H 7474   2.040   1.143   9.244  0.2615 -1.8198  0.1943
  499TMC3    H1 7475   2.284   1.488   9.346 -0.1974  0.3770 -0.0286
  499TMC3    H2 7476   2.468   1.154   9.180  0.9469  3.3590 -1.1716
  499TMC3    C7 7477   2.460   1.430   9.188 -0.5837 -0.0896  0.3878
  499TMC3    C8 7478   2.249   1.007   9.135 -0.7642  0.3418 -0.6850
  499TMC3    O1 7479   2.425   1.549   9.180 -0.1500  0.1611 -0.3975
  499TMC3    O2 7480   2.349   0.940   9.134 -0.2485 -0.4638  0.3176
  500MPD2     C 7481   2.998   1.760   9.637  0.0834  0.2989 -0.1795
  500MPD2    C1 7482   2.937   1.847   9.724 -0.1708 -0.2695 -0.0194
  500MPD2    C2 7483   2.797   1.862   9.713  0.6224 -0.5567 -0.8694
  500MPD2    C3 7484   2.730   1.777   9.627  1.0343  0.3421 -0.0289
  500MPD2    C4 7485   2.794   1.707   9.531  0.0776  0.0764 -0.1788
  500MPD2    C5 7486   2.933   1.699   9.533 -0.1362 -0.0872  0.7584
  500MPD2     H 7487   2.745   1.925   9.784  1.2818 -2.0023  0.9013
  500MPD2    H1 7488   2.748   1.636   9.464 -1.8736 -0.3482  1.6179
  500MPD2    H2 7489   3.103   1.738   9.650  0.4075  1.5157 -0.7951
  500MPD2    H3 7490   2.989   1.647   9.455 -0.9270  0.1662  0.0156
  500MPD2     N 7491   2.588   1.764   9.632 -0.0668 -0.5056 -0.2005
  500MPD2    H5 7492   2.550   1.711   9.555 -0.4602 -1.1865  0.4657
  500MPD2    N1 7493   3.012   1.926   9.820  0.2605  0.1380  0.1124
  500MPD2    H7 7494   2.968   2.004   9.866  1.5552  1.2576 -0.5620
  501TMC3    C1 7495   3.197   2.021   9.926  0.1533 -0.2507 -0.1379
  501TMC3    C2 7496   3.198   2.143   9.869  0.2907 -0.0316 -0.7249
  501TMC3    C3 7497   3.294   2.225   9.914 -0.5902  0.2630  0.0812
  501TMC3    C4 7498   3.272   1.977  10.028  0.4360 -0.5738  0.3906
  501TMC3    C5 7499   3.382   2.059  10.053 -0.2659 -0.0976  0.3911
  501TMC3    C6 7500   3.398   2.185   9.994  0.6444 -0.3590  0.3014
  501TMC3     C 7501   3.152   1.919   9.844 -0.2234 -0.9666 -0.1948
  501TMC3     O 7502   3.238   1.840   9.811  0.4174 -0.5696 -0.0677
  501TMC3     H 7503   3.144   2.176   9.781 -1.0516  1.3380  0.5991
  501TMC3    H1 7504   3.255   1.877  10.067  0.4910 -0.1268  1.5574
  501TMC3    H2 7505   3.480   2.250  10.025 -1.3300  1.2738  2.0799
  501TMC3    C7 7506   3.475   2.011  10.143  0.8112  0.3608 -0.3214
  501TMC3    C8 7507   3.268   2.364   9.896  0.4023  0.2531  0.9864
  501TMC3    O1 7508   3.592   2.052  10.136  0.0141  0.4992 -0.3009
  501TMC3    O2 7509   3.239   2.402   9.785 -0.1475 -0.7902  0.1556
  502TMC3    C1 7510   3.084   1.143  14.979  0.5201 -0.0383  0.3277
  502TMC3    C2 7511   3.058   1.262  14.915  0.4750 -0.5636  0.1779
  502TMC3    C3 7512   2.941   1.282  14.854  0.1576  0.6370  0.5138
  502TMC3    C4 7513   2.999   1.040  14.955 -0.0568  0.1429 -0.1722
  502TMC3    C5 7514   2.880   1.059  14.896 -0.7675  0.4663 -0.5007
  502TMC3    C6 7515   2.846   1.188  14.848  0.5008  0.1778  0.2766
  502TMC3     C 7516   3.171   1.147  15.094 -0.8395 -0.3861  0.2049
  502TMC3     O 7517   3.264   1.226  15.090 -0.3058 -0.3555  0.2815
  502TMC3     H 7518   3.125   1.347  14.916 -0.4260  0.1402  0.7593
  502TMC3    H1 7519   3.027   0.945  14.998 -0.2336  0.5069  0.7446
  502TMC3    H2 7520   2.759   1.202  14.785 -0.3588 -0.9751  1.2192
  502TMC3    C7 7521   2.785   0.955  14.910 -0.0873 -0.1036 -0.5171
  502TMC3    C8 7522   2.916   1.419  14.808  0.2749  0.0509  0.6017
  502TMC3    O1 7523   2.830   0.844  14.943 -0.3982 -0.3032 -0.1372
  502TMC3    O2 7524   3.008   1.496  14.793 -0.3306  0.0596 -0.4644
  503MPD2     C 7525   0.764   1.890  16.373 -0.1836  0.7287 -0.4637
  503MPD2    C1 7526   0.680   1.913  16.481  0.3301  0.6469  0.4785
  503MPD2    C2 7527   0.681   1.827  16.590 -0.0061 -0.9386  0.0098
  503MPD2    C3 7528   0.760   1.710  16.586 -0.2124 -0.7958  0.1597
  503MPD2    C4 7529   0.836   1.682  16.472  0.4180  0.5092 -1.1611
  503MPD2    C5 7530   0.841   1.775  16.373 -0.1900 -0.9862 -0.1554
  503MPD2     H 7531   0.628   1.868  16.675 -0.1789  0.5547 -0.8310
  503MPD2    H1 7532   0.918   1.611  16.471 -0.2576 -0.2799  0.7777
  503MPD2    H2 7533   0.791   1.960  16.294  0.5324  0.4288 -0.4871
  503MPD2    H3 7534   0.915   1.775  16.293 -0.7315 -0.5438 -0.6596
  503MPD2     N 7535   0.764   1.639  16.708 -0.7200 -0.1389  0.1068
  503MPD2    H5 7536   0.713   1.683  16.783  0.3006  1.4623 -0.1438
  503MPD2    N1 7537   0.587   2.023  16.485  0.0404 -1.2987  0.0038
  503MPD2    H7 7538   0.542   2.032  16.575 -1.0239 -3.5417 -0.3063
  504TMC3    C1 7539   0.828   1.475  16.863 -0.4190 -0.0300  0.5142
  504TMC3    C2 7540   0.768   1.553  16.964 -0.7855 -0.6515 -0.0717
  504TMC3    C3 7541   0.788   1.524  17.096  0.0265 -0.3040  0.1498
  504TMC3    C4 7542   0.903   1.365  16.900  0.6031  0.7249 -0.5481
  504TMC3    C5 7543   0.921   1.339  17.034  0.2203  0.6746 -0.5402
  504TMC3    C6 7544   0.865   1.414  17.136 -0.1152 -0.1074  0.1497
  504TMC3     C 7545   0.841   1.526  16.731  0.1520  0.8327 -0.0702
  504TMC3     O 7546   0.889   1.448  16.645  0.2504 -0.1317  0.6891
  504TMC3     H 7547   0.696   1.632  16.946  1.1616  1.2365  0.4364
  504TMC3    H1 7548   0.938   1.296  16.824 -3.1031 -2.9281  1.0807
  504TMC3    H2 7549   0.900   1.393  17.237  0.3208 -1.0229 -0.1846
  504TMC3    C7 7550   1.028   1.239  17.056 -0.0697 -0.2330  0.3190
  504TMC3    C8 7551   0.703   1.584  17.188  0.0067  0.4969  0.0775
  504TMC3    O1 7552   1.022   1.177  17.162  0.1994 -0.1560 -0.9183
  504TMC3    O2 7553   0.623   1.668  17.145  0.2098  0.6180  0.4976
  505MPD2     C 7554   0.824   0.112  10.659 -0.3771 -0.3074 -0.0379
  505MPD2    C1 7555   0.852   0.172  10.533  0.3161  0.5650  0.4193
  505MPD2    C2 7556   0.985   0.209  10.494 -0.7831  0.0360 -1.0773
  505MPD2    C3 7557   1.083   0.184  10.592 -0.7166 -0.2290  0.3471
  505MPD2    C4 7558   1.050   0.137  10.721 -0.4022 -0.5273 -0.6629
  505MPD2    C5 7559   0.920   0.110  10.759  0.2163 -0.4067 -0.1164
  505MPD2     H 7560   1.008   0.251  10.396  0.7292 -2.4571 -1.7809
  505MPD2    H1 7561   1.135   0.133  10.788  0.9779  2.7465 -2.2319
  505MPD2    H2 7562   0.718   0.096  10.677 -1.1619  2.7020 -2.0052
  505MPD2    H3 7563   0.905   0.084  10.864 -3.6961  0.6202 -0.4111
  505MPD2     N 7564   1.221   0.220  10.584 -0.2162 -0.3455 -0.4324
  505MPD2    H5 7565   1.286   0.191  10.657  0.1370 -1.8579 -1.3570
  505MPD2    N1 7566   0.744   0.176  10.437 -0.4877  0.8445  0.2449
  505MPD2    H7 7567   0.658   0.126  10.460 -0.9723  1.9562  0.8308
  506TMC3    C1 7568   0.655   0.192  10.217  0.2745  0.0151  0.4675
  506TMC3    C2 7569   0.649   0.263  10.098 -0.1293 -0.1046 -0.2886
  506TMC3    C3 7570   0.592   0.207   9.988  0.1769  0.1865  0.6050
  506TMC3    C4 7571   0.616   0.062  10.217  0.3779 -0.7019 -1.0206
  506TMC3    C5 7572   0.578   0.000  10.097  0.1043  0.0464  0.5973
  506TMC3    C6 7573   0.557   0.079   9.986  0.7480  0.3760  0.0330
  506TMC3     C 7574   0.756   0.238  10.314  0.1932  0.0132  0.4396
  506TMC3     O 7575   0.834   0.322  10.272 -0.2112 -0.7510 -0.4311
  506TMC3     H 7576   0.674   0.367  10.116  2.7523 -0.8535  0.0930
  506TMC3    H1 7577   0.624   4.732  10.302  0.6938  0.0414 -0.4660
  506TMC3    H2 7578   0.502   0.046   9.899  3.2715  0.6021 -1.6534
  506TMC3    C7 7579   0.643   4.608  10.082  0.1768 -0.0463 -0.0008
  506TMC3    C8 7580   0.583   0.286   9.860 -0.7244 -0.3276  0.8125
  506TMC3    O1 7581   0.582   4.506  10.107  0.3768  0.3429 -0.5664
  506TMC3    O2 7582   0.502   0.246   9.778 -0.0230 -0.1933  0.4939
  507TMC3    C1 7583   1.593   1.662  14.559  0.4541 -0.2846 -0.3242
  507TMC3    C2 7584   1.586   1.568  14.460 -0.1468 -0.3306  0.4085
  507TMC3    C3 7585   1.634   1.610  14.340  0.6040  0.1828  0.9006
  507TMC3    C4 7586   1.623   1.793  14.537 -0.2689  0.2064 -0.3690
  507TMC3    C5 7587   1.662   1.837  14.413 -0.2054  0.1193 -0.1490
  507TMC3    C6 7588   1.668   1.743  14.317 -0.0003  0.2109  0.1469
  507TMC3     C 7589   1.617   1.619  14.695 -0.8231  0.3193  0.5003
  507TMC3     O 7590   1.684   1.696  14.768 -0.9210  0.2770  0.0408
  507TMC3     H 7591   1.556   1.464  14.471 -0.5172 -0.1041  1.5089
  507TMC3    H1 7592   1.616   1.864  14.619  1.6498 -0.2597  0.1967
  507TMC3    H2 7593   1.694   1.768  14.214  2.9378  0.7296  1.0136
  507TMC3    C7 7594   1.571   1.935  14.358 -0.2392  0.2260  0.3044
  507TMC3    C8 7595   1.563   1.547  14.228 -0.1304  0.0504 -0.1307
  507TMC3    O1 7596   1.523   1.906  14.250 -0.1781  0.3204 -0.3586
  507TMC3    O2 7597   1.552   1.422  14.227  0.1725  0.8777 -0.4659
  508MPD2     C 7598   2.746   3.198  15.583  0.0057 -0.6451  0.2403
  508MPD2    C1 7599   2.688   3.295  15.662 -1.0529 -0.3065 -0.0257
  508MPD2    C2 7600   2.662   3.416  15.603 -0.9172  0.0548 -0.6889
  508MPD2    C3 7601   2.689   3.443  15.467 -0.2680 -0.3228  0.7069
  508MPD2    C4 7602   2.746   3.346  15.394  0.1828 -0.4826 -0.1170
  508MPD2    C5 7603   2.763   3.222  15.455  0.3353  0.1613  0.1327
  508MPD2     H 7604   2.617   3.495  15.662 -3.0740 -0.7383 -1.2507
  508MPD2    H1 7605   2.757   3.356  15.287  1.3157  0.7362  0.1119
  508MPD2    H2 7606   2.782   3.103  15.621  0.3797 -1.3681 -1.9131
  508MPD2    H3 7607   2.797   3.144  15.388 -1.2329 -0.6681  0.3048
  508MPD2     N 7608   2.671   3.574  15.421  0.4220  0.2124 -0.3844
  508MPD2    H5 7609   2.643   3.639  15.495 -1.2848 -0.2455 -0.6245
  508MPD2    N1 7610   2.686   3.264  15.800 -1.0981  0.6836 -0.6483
  508MPD2    H7 7611   2.722   3.174  15.831 -2.8789  0.9790  2.3585
  509TMC3    C1 7612   2.654   3.943  15.120 -0.3742 -0.1318 -0.7846
  509TMC3    C2 7613   2.668   4.030  15.226  0.6536 -0.3028 -0.0203
  509TMC3    C3 7614   2.672   3.977  15.353  0.2534  0.4442  0.1104
  509TMC3    C4 7615   2.651   3.809  15.142 -0.4344 -1.1758 -0.0898
  509TMC3    C5 7616   2.668   3.754  15.270  0.0283  0.6712 -0.3651
  509TMC3    C6 7617   2.671   3.841  15.375 -0.6825 -0.1704 -0.2486
  509TMC3     C 7618   2.653   3.987  14.980  0.7636 -0.2917 -1.0106
  509TMC3     O 7619   2.700   3.916  14.895 -0.2266 -0.0501 -0.5722
  509TMC3     H 7620   2.678   4.137  15.211 -0.8466 -0.5155 -2.6047
  509TMC3    H1 7621   2.645   3.743  15.056 -0.4548  1.0605 -1.8329
  509TMC3    H2 7622   2.666   3.812  15.479 -0.4982  1.4425  0.2169
  509TMC3    C7 7623   2.703   3.617  15.291  0.3043 -0.0575  0.4660
  509TMC3    C8 7624   2.688   4.051  15.480  0.4119 -0.3598 -0.0400
  509TMC3    O1 7625   2.767   3.562  15.203 -0.8302  0.1698 -0.4173
  509TMC3    O2 7626   2.708   3.987  15.581  0.0235 -0.6785 -0.5329
  510MPD2     C 7627   0.101   0.754  14.483  0.6525  0.2903  0.2786
  510MPD2    C1 7628   0.168   0.648  14.536  0.5422  0.4265  0.5377
  510MPD2    C2 7629   0.289   0.604  14.479 -0.0267 -0.6628 -0.6914
  510MPD2    C3 7630   0.342   0.671  14.371 -0.2057  0.2486 -0.5669
  510MPD2    C4 7631   0.279   0.782  14.326 -0.0705 -1.0138 -0.9776
  510MPD2    C5 7632   0.161   0.823  14.378  0.7968  0.9157 -0.3284
  510MPD2     H 7633   0.356   0.534  14.528 -1.4158 -0.2042  1.8972
  510MPD2    H1 7634   0.330   0.835  14.247  1.2414  1.5663  1.5864
  510MPD2    H2 7635   0.000   0.781  14.514  1.1674  1.9009  0.5422
  510MPD2    H3 7636   0.102   0.907  14.340 -1.0323 -0.4573 -0.5589
  510MPD2     N 7637   0.474   0.632  14.340 -0.6616 -0.1260 -0.3626
  510MPD2    H5 7638   0.515   0.568  14.407 -1.3547 -1.5360 -1.2993
  510MPD2    N1 7639   0.107   0.587  14.652 -0.2063 -0.2492 -0.2174
  510MPD2    H7 7640   0.016   0.627  14.674 -0.0755  0.3556 -0.7761
  511TMC3    C1 7641   0.071   0.409  14.812  0.4699 -0.6753  0.9799
  511TMC3    C2 7642   4.711   0.475  14.879 -0.7726  0.0566 -0.5865
  511TMC3    C3 7643   4.624   0.407  14.961  0.3138 -0.1434 -0.6914
  511TMC3    C4 7644   0.083   0.275  14.837 -0.3912 -0.0814 -0.5676
  511TMC3    C5 7645   4.730   0.205  14.908 -0.2767  0.3297 -0.2013
  511TMC3    C6 7646   4.627   0.266  14.972  0.1954 -0.5269 -0.7331
  511TMC3     C 7647   0.149   0.465  14.706  0.6267  0.4739  0.2884
  511TMC3     O 7648   0.228   0.388  14.651  0.2220 -0.5205 -0.1908
  511TMC3     H 7649   4.712   0.583  14.892  1.9065  0.3893 -3.5927
  511TMC3    H1 7650   0.160   0.226  14.778  0.2765  1.1170 -0.7101
  511TMC3    H2 7651   4.543   0.212  15.015  0.0060 -0.5806 -1.1687
  511TMC3    C7 7652   4.728   0.066  14.881  0.4147  0.5654 -0.1739
  511TMC3    C8 7653   4.541   0.490  15.044 -0.4854 -0.5176  0.1890
  511TMC3    O1 7654   0.046   0.032  14.779  0.4442  0.5341  0.1119
  511TMC3    O2 7655   4.536   0.611  15.036  0.4085  0.6596  0.7155
  512TMC3    C1 7656   4.422   4.361  13.622 -0.0528  0.7486  0.2072
  512TMC3    C2 7657   4.368   4.454  13.704  0.0646 -0.3604 -0.9138
  512TMC3    C3 7658   4.322   4.416  13.827  0.4752  0.3602 -1.0715
  512TMC3    C4 7659   4.428   4.231  13.659  0.3026  0.0299  0.7175
  512TMC3    C5 7660   4.368   4.194  13.774 -0.7021 -0.3200 -0.0435
  512TMC3    C6 7661   4.319   4.284  13.864 -0.1255  0.2809 -0.2986
  512TMC3     C 7662   4.450   4.382  13.484 -0.3096 -0.6424  0.1119
  512TMC3     O 7663   4.499   4.285  13.421 -0.1654  0.5221 -0.2452
  512TMC3     H 7664   4.357   4.557  13.669 -0.0648 -0.0917 -0.0749
  512TMC3    H1 7665   4.490   4.159  13.606 -1.5792 -0.8091 -0.3411
  512TMC3    H2 7666   4.288   4.266  13.966 -0.5618 -0.4412 -0.5545
  512TMC3    C7 7667   4.415   4.072  13.833 -0.0607 -0.0813  0.7232
  512TMC3    C8 7668   4.199   4.485  13.869 -0.6769  0.2630 -0.1459
  512TMC3    O1 7669   4.444   4.073  13.950  0.0268 -0.3206  0.3668
  512TMC3    O2 7670   4.106   4.420  13.914 -0.0509 -0.4432 -0.5266
  513MPD2     C 7671   1.002   4.063  13.005 -0.1678 -0.1460 -0.1481
  513MPD2    C1 7672   0.905   4.155  12.968  0.1445  0.2456  0.3936
  513MPD2    C2 7673   0.836   4.222  13.073  0.1540  0.5386 -0.0464
  513MPD2    C3 7674   0.854   4.185  13.207  0.2565 -0.4022 -0.7280
  513MPD2    C4 7675   0.939   4.081  13.236 -0.3887 -0.2551 -0.3124
  513MPD2    C5 7676   1.005   4.015  13.129 -0.0970 -0.3993  0.1135
  513MPD2     H 7677   0.760   4.296  13.049  1.0849  1.7869  0.8901
  513MPD2    H1 7678   0.954   4.049  13.338  0.3336  0.7927 -0.0902
  513MPD2    H2 7679   1.058   4.017  12.925  0.6857 -1.1781  1.0477
  513MPD2    H3 7680   1.072   3.936  13.163  1.7249  0.2649 -1.9471
  513MPD2     N 7681   0.782   4.256  13.306  0.1060 -0.3710 -0.0206
  513MPD2    H5 7682   0.711   4.320  13.270  0.3006 -0.6710 -0.9348
  513MPD2    N1 7683   0.895   4.194  12.828 -0.4798 -0.2342  0.4822
  513MPD2    H7 7684   0.978   4.176  12.772 -0.1006  0.1286  0.9258
  514TMC3    C1 7685   0.852   4.350  12.667  0.2022  0.2235 -0.6480
  514TMC3    C2 7686   0.985   4.378  12.648  0.7815  0.3389 -0.1804
  514TMC3    C3 7687   1.025   4.479  12.570 -0.2684  0.3544  0.2241
  514TMC3    C4 7688   0.759   4.430  12.610  0.2146  0.0754  0.3153
  514TMC3    C5 7689   0.798   4.551  12.569  0.0401  0.5318 -0.8964
  514TMC3    C6 7690   0.929   4.567  12.526 -0.0263 -0.2124  0.1511
  514TMC3     C 7691   0.808   4.291  12.789 -0.4076 -0.4438 -0.3343
  514TMC3     O 7692   0.703   4.318  12.835  0.1184 -0.0984  0.1693
  514TMC3     H 7693   1.059   4.309  12.688 -0.6864 -0.6921  0.7292
  514TMC3    H1 7694   0.654   4.422  12.636  0.8045  0.4139  2.8070
  514TMC3    H2 7695   0.955   4.665  12.487  0.5997 -0.2992  0.3525
  514TMC3    C7 7696   0.734   4.668  12.631 -0.1600 -0.4869 -0.1819
  514TMC3    C8 7697   1.164   4.508  12.553 -0.4455 -0.5030  1.2279
  514TMC3    O1 7698   0.721   0.040  12.571 -0.0528 -0.5193 -0.5826
  514TMC3    O2 7699   1.233   4.443  12.634  0.2784  0.4510 -0.0631
  515MPD2     C 7700   4.060   1.892  14.312 -0.4307 -0.3060 -0.3924
  515MPD2    C1 7701   3.983   1.817  14.400 -0.3016 -0.7537 -0.4888
  515MPD2    C2 7702   4.042   1.782  14.518 -0.1311  0.0796  0.7448
  515MPD2    C3 7703   4.175   1.813  14.547 -0.8177 -0.3656  0.0538
  515MPD2    C4 7704   4.247   1.887  14.462 -0.2319  0.5177 -0.0953
  515MPD2    C5 7705   4.186   1.924  14.345  0.2134  0.5440  0.1654
  515MPD2     H 7706   3.983   1.724  14.587  0.2134 -1.0344  0.1021
  515MPD2    H1 7707   4.352   1.905  14.479 -0.6773  0.7926  2.4779
  515MPD2    H2 7708   4.027   1.941  14.220  0.6857 -0.7747 -1.0420
  515MPD2    H3 7709   4.252   1.980  14.279  1.2522 -2.5463 -1.4032
  515MPD2     N 7710   4.233   1.787  14.675 -0.5813 -0.1306  0.1852
  515MPD2    H5 7711   4.325   1.825  14.692 -1.1613  1.1428  0.5430
  515MPD2    N1 7712   3.848   1.768  14.375 -0.6197  0.1023 -0.1525
  515MPD2    H7 7713   3.801   1.716  14.449  1.1489 -3.7579 -1.7410
  516TMC3    C1 7714   3.642   1.746  14.287 -1.0647  0.0360 -0.3627
  516TMC3    C2 7715   3.542   1.806  14.215 -0.4023 -0.5573  0.8296
  516TMC3    C3 7716   3.416   1.761  14.247  0.5524 -0.7143  0.2881
  516TMC3    C4 7717   3.619   1.641  14.374 -0.6559 -0.0586  0.0749
  516TMC3    C5 7718   3.491   1.588  14.372 -0.0703 -0.0280  0.1787
  516TMC3    C6 7719   3.382   1.660  14.330  0.0546  0.1012  0.1432
  516TMC3     C 7720   3.773   1.793  14.263 -0.0692 -0.7050 -0.8669
  516TMC3     O 7721   3.801   1.853  14.161  0.2014  0.4017 -0.6306
  516TMC3     H 7722   3.559   1.885  14.143 -0.6762  0.7186  2.1806
  516TMC3    H1 7723   3.706   1.581  14.396 -1.1426 -1.0027 -0.5732
  516TMC3    H2 7724   3.278   1.652  14.360  0.5719 -0.4158  1.8153
  516TMC3    C7 7725   3.466   1.467  14.450 -1.3267 -0.1726  0.1141
  516TMC3    C8 7726   3.299   1.823  14.184 -0.2233 -1.0796 -0.0630
  516TMC3    O1 7727   3.563   1.406  14.490  0.1530  0.0366  0.2723
  516TMC3    O2 7728   3.197   1.756  14.165 -0.0314  0.1982 -0.4837
  517MPD2     C 7729   3.508   3.242   0.057  0.0825  1.5834 -0.0155
  517MPD2    C1 7730   3.545   3.287  17.678  0.0057 -0.1039  0.2578
  517MPD2    C2 7731   3.575   3.421  17.660  0.3304 -0.1729  0.2156
  517MPD2    C3 7732   3.583   3.507   0.020 -0.4530  0.6297 -0.5469
  517MPD2    C4 7733   3.547   3.458   0.142 -0.5043 -0.2826  0.1264
  517MPD2    C5 7734   3.516   3.328   0.157 -0.0908 -0.1664  0.0532
  517MPD2     H 7735   3.620   3.447  17.565 -1.4488 -0.2371 -0.6322
  517MPD2    H1 7736   3.552   3.522   0.229  1.0779  0.2400 -0.3594
  517MPD2    H2 7737   3.483   3.138   0.069  3.9744  0.2202 -3.6766
  517MPD2    H3 7738   3.491   3.296   0.257  0.5988  2.1838  0.9663
  517MPD2     N 7739   3.645   3.634   0.006  0.6462  0.1521  0.0556
  517MPD2    H5 7740   3.658   3.688   0.091 -0.8053 -1.7751  1.5038
  517MPD2    N1 7741   3.550   3.203  17.564 -1.0707 -0.0588 -0.6997
  517MPD2    H7 7742   3.564   3.247  17.474 -2.2131 -1.6929 -1.6815
  518TMC3    C1 7743   3.553   3.009  17.443 -0.1684 -0.4583  0.8484
  518TMC3    C2 7744   3.500   2.883  17.444 -0.0618  0.2980  0.3894
  518TMC3    C3 7745   3.548   2.795  17.348  0.4238  0.0622 -0.1018
  518TMC3    C4 7746   3.661   3.047  17.361 -0.1220  0.2953  0.5681
  518TMC3    C5 7747   3.710   2.956  17.275  0.8612  0.3671 -0.1844
  518TMC3    C6 7748   3.653   2.833  17.264  0.4281 -0.0021  0.2363
  518TMC3     C 7749   3.536   3.069  17.570 -0.1301  0.3800 -0.0479
  518TMC3     O 7750   3.523   2.991  17.658 -0.2691 -0.2670 -0.5516
  518TMC3     H 7751   3.424   2.857  17.516 -0.9491 -0.6297 -0.8706
  518TMC3    H1 7752   3.712   3.142  17.372  1.5122 -0.4534 -0.5202
  518TMC3    H2 7753   3.683   2.763  17.187  0.7264  0.0406  0.3141
  518TMC3    C7 7754   3.851   2.970  17.240  0.2134  0.0099  0.0289
  518TMC3    C8 7755   3.519   2.654  17.350  0.6455  0.1815  0.0196
  518TMC3    O1 7756   3.898   3.082  17.246 -0.0515 -0.1433  0.0340
  518TMC3    O2 7757   3.533   2.602  17.241 -0.0466  0.4360 -0.4749
  519MPD2     C 7758   0.755   1.698  14.144  0.2495  0.1155 -0.5418
  519MPD2    C1 7759   0.672   1.705  14.032  1.2329 -0.0195 -0.0523
  519MPD2    C2 7760   0.709   1.626  13.932  0.3421 -0.1416 -0.7269
  519MPD2    C3 7761   0.818   1.544  13.936  0.7389 -0.0100  0.9094
  519MPD2    C4 7762   0.897   1.547  14.047  0.2934 -0.4401 -0.3045
  519MPD2    C5 7763   0.870   1.627  14.147 -0.0282 -0.2145 -0.6976
  519MPD2     H 7764   0.652   1.621  13.840  1.4019 -0.3298 -1.3771
  519MPD2    H1 7765   0.988   1.487  14.052  0.5611  0.1339  1.7599
  519MPD2    H2 7766   0.736   1.750  14.237  1.1495 -0.9608  0.2445
  519MPD2    H3 7767   0.931   1.629  14.237  3.5273  0.5557 -3.1160
  519MPD2     N 7768   0.844   1.454  13.826  0.2176 -0.5565  0.7766
  519MPD2    H5 7769   0.919   1.387  13.838  0.5153 -0.1339  1.2789
  519MPD2    N1 7770   0.553   1.771  14.047 -0.4610 -0.2011  0.5000
  519MPD2    H7 7771   0.536   1.814  14.138 -0.7563  1.5411 -0.3624
  520TMC3    C1 7772   0.816   1.328  13.629 -0.1723  0.6648  0.2460
  520TMC3    C2 7773   0.723   1.288  13.541 -0.3145 -0.4493  0.1313
  520TMC3    C3 7774   0.715   1.158  13.518  0.0780 -0.0089 -0.3229
  520TMC3    C4 7775   0.906   1.237  13.682 -0.2753 -0.7187 -0.0660
  520TMC3    C5 7776   0.903   1.106  13.639 -0.0596  0.4216 -0.1369
  520TMC3    C6 7777   0.810   1.072  13.549  0.4392 -0.3420 -0.0672
  520TMC3     C 7778   0.787   1.451  13.698  0.3754  0.1114  0.4389
  520TMC3     O 7779   0.704   1.522  13.640 -0.3031 -0.6632 -0.3977
  520TMC3     H 7780   0.647   1.351  13.497 -0.7112  0.4337  2.1058
  520TMC3    H1 7781   0.985   1.260  13.753  0.7792 -0.1000 -1.4319
  520TMC3    H2 7782   0.810   0.972  13.506 -0.9718  0.9474 -3.0813
  520TMC3    C7 7783   0.997   1.003  13.681  0.1973 -0.2085 -0.3713
  520TMC3    C8 7784   0.615   1.112  13.423  0.7305  0.6467 -0.2934
  520TMC3    O1 7785   1.024   0.990  13.799  0.5351 -0.4658 -0.2810
  520TMC3    O2 7786   0.647   1.004  13.373  0.2076 -0.1901  0.0633
  521MPD2     C 7787   1.704   4.071  17.455 -1.1665  0.4669 -1.0376
  521MPD2    C1 7788   1.646   4.055  17.334 -0.1756 -0.1079  0.0808
  521MPD2    C2 7789   1.727   4.042  17.223 -0.5424 -0.0412 -0.2237
  521MPD2    C3 7790   1.862   4.026  17.249 -0.3241 -0.2031  0.1400
  521MPD2    C4 7791   1.915   4.038  17.376 -0.4199 -0.0125  0.4042
  521MPD2    C5 7792   1.834   4.072  17.478 -0.4047 -0.2081 -0.1218
  521MPD2     H 7793   1.691   4.029  17.121  0.0089 -0.6095 -0.3452
  521MPD2    H1 7794   2.019   4.059  17.400 -0.6379  0.7217  0.7240
  521MPD2    H2 7795   1.637   4.078  17.540 -0.0837 -1.7589 -0.0133
  521MPD2    H3 7796   1.872   4.085  17.579  2.0059  1.6294 -1.2654
  521MPD2     N 7797   1.944   3.994  17.136  0.1130  0.4139 -0.2325
  521MPD2    H5 7798   1.900   3.982  17.045  0.8730 -0.3039 -0.5040
  521MPD2    N1 7799   1.510   4.064  17.323 -0.4554  0.4313 -0.2863
  521MPD2    H7 7800   1.460   4.066  17.411  2.1345 -2.1803  1.2246
  522TMC3    C1 7801   2.127   3.897  17.026 -0.3097 -0.9677 -0.1832
  522TMC3    C2 7802   2.186   3.776  17.039 -0.4713 -0.3422 -0.5899
  522TMC3    C3 7803   2.198   3.701  16.925  0.0807  0.1988  0.3499
  522TMC3    C4 7804   2.100   3.964  16.911  0.0172 -0.1683 -0.4974
  522TMC3    C5 7805   2.129   3.885  16.799  0.6539  0.4698 -0.3957
  522TMC3    C6 7806   2.180   3.763  16.802  0.1123  0.0206 -0.0971
  522TMC3     C 7807   2.063   3.932  17.154  0.6655  0.0514 -0.2501
  522TMC3     O 7808   2.141   3.914  17.248  0.0958 -0.5182  0.1163
  522TMC3     H 7809   2.184   3.723  17.134  1.9833  1.0612  0.2471
  522TMC3    H1 7810   2.085   4.071  16.899  1.2775  0.2720  1.8497
  522TMC3    H2 7811   2.184   3.705  16.710  0.2921  0.7417 -0.5378
  522TMC3    C7 7812   2.115   3.934  16.666 -0.1944  0.3901 -0.2430
  522TMC3    C8 7813   2.278   3.585  16.926  0.2233  0.3928 -0.0440
  522TMC3    O1 7814   2.198   3.894  16.587  0.4788 -0.4708  0.1538
  522TMC3    O2 7815   2.285   3.535  17.036  0.0928 -0.3623 -0.1793
  523MPD2     C 7816   3.835   3.943   9.802 -0.5675  0.7467  0.0385
  523MPD2    C1 7817   3.779   3.887   9.693 -0.4842 -0.5883  0.7121
  523MPD2    C2 7818   3.738   3.973   9.589 -0.0207 -0.6477  0.3275
  523MPD2    C3 7819   3.755   4.111   9.600  0.9357 -0.0819 -0.0207
  523MPD2    C4 7820   3.814   4.162   9.717  0.2954  0.4226  0.7843
  523MPD2    C5 7821   3.848   4.073   9.813 -0.4866  0.1880 -0.1303
  523MPD2     H 7822   3.703   3.920   9.502 -1.4721  0.6754  0.1202
  523MPD2    H1 7823   3.825   4.269   9.728 -0.8830  0.6379 -0.1146
  523MPD2    H2 7824   3.871   3.885   9.886  0.8968 -0.7943 -1.6700
  523MPD2    H3 7825   3.893   4.111   9.904 -1.6515  0.3462  0.3890
  523MPD2     N 7826   3.708   4.204   9.502  0.6660  0.1787  0.1517
  523MPD2    H5 7827   3.720   4.303   9.524  1.3874  0.1321 -0.0288
  523MPD2    N1 7828   3.777   3.747   9.693  0.4125  0.3607  0.5073
  523MPD2    H7 7829   3.803   3.705   9.782 -3.7232 -2.5918  0.3446
  524TMC3    C1 7830   3.575   4.271   9.316  0.4083  0.2036  0.2661
  524TMC3    C2 7831   3.549   4.269   9.183  0.0304  0.1552  0.0659
  524TMC3    C3 7832   3.437   4.334   9.145  0.3737  0.2103 -0.2405
  524TMC3    C4 7833   3.509   4.351   9.404 -0.5707  1.0661 -0.7292
  524TMC3    C5 7834   3.413   4.432   9.353 -0.1712 -0.2554 -0.0697
  524TMC3    C6 7835   3.375   4.426   9.224  0.4864 -0.2101 -0.4451
  524TMC3     C 7836   3.657   4.169   9.381 -0.2992  0.0759  0.0360
  524TMC3     O 7837   3.676   4.067   9.317  0.1742  0.3327  0.7969
  524TMC3     H 7838   3.595   4.193   9.121 -2.5056 -1.0396 -0.3533
  524TMC3    H1 7839   3.525   4.354   9.511 -1.0408 -0.7168 -0.6120
  524TMC3    H2 7840   3.292   4.486   9.189  0.9527  0.4382 -0.4449
  524TMC3    C7 7841   3.327   4.500   9.453 -0.0901  0.5091  0.9222
  524TMC3    C8 7842   3.372   4.290   9.023 -0.0379 -0.1737  0.7400
  524TMC3    O1 7843   3.346   4.475   9.571  0.3384  0.1401  0.9880
  524TMC3    O2 7844   3.426   4.205   8.952 -0.3080 -0.0936  0.1998
  525MPD2     C 7845   1.887   0.750  14.107  0.3476 -0.0103  0.3304
  525MPD2    C1 7846   1.998   0.786  14.183 -0.0883 -0.5760 -0.2194
  525MPD2    C2 7847   2.075   0.891  14.142 -1.3012  0.8483 -0.0821
  525MPD2    C3 7848   2.039   0.974  14.037  0.3185 -0.2369 -0.5821
  525MPD2    C4 7849   1.927   0.932  13.966  0.2794  0.0743 -0.1329
  525MPD2    C5 7850   1.846   0.833  14.012  1.0550  0.4974 -0.1377
  525MPD2     H 7851   2.170   0.916  14.186 -0.8413 -2.0877  0.6235
  525MPD2    H1 7852   1.899   0.986  13.876 -2.1606 -2.3286 -0.8363
  525MPD2    H2 7853   1.827   0.662  14.126  0.5392 -0.2584 -0.2162
  525MPD2    H3 7854   1.748   0.813  13.971  1.4201 -1.2413 -0.1883
  525MPD2     N 7855   2.103   1.095  13.991  0.2884  0.8737  0.3299
  525MPD2    H5 7856   2.061   1.153  13.919  0.6574 -0.2858 -0.8440
  525MPD2    N1 7857   2.033   0.725  14.304 -0.2178  0.2453  0.3593
  525MPD2    H7 7858   2.125   0.752  14.339  0.4910  0.1706 -1.4640
  526TMC3    C1 7859   1.991   0.601  14.508  0.4027  0.1695 -0.3048
  526TMC3    C2 7860   1.901   0.546  14.597 -0.8787 -0.0730  0.2301
  526TMC3    C3 7861   1.944   0.477  14.708 -0.2471 -0.8635  0.2588
  526TMC3    C4 7862   2.121   0.597  14.534 -1.1412 -0.5319 -0.3059
  526TMC3    C5 7863   2.159   0.526  14.642 -0.4369 -0.1871  0.6473
  526TMC3    C6 7864   2.077   0.460  14.725 -0.5124  0.1260  0.2927
  526TMC3     C 7865   1.938   0.667  14.382  0.2471 -0.8910 -1.4816
  526TMC3     O 7866   1.817   0.671  14.359  0.1890  0.1337 -0.1625
  526TMC3     H 7867   1.797   0.570  14.582 -0.4540  0.2778 -2.0513
  526TMC3    H1 7868   2.191   0.645  14.467 -0.7033 -2.7386 -1.4124
  526TMC3    H2 7869   2.111   0.391  14.801  0.9723  0.4766 -0.0486
  526TMC3    C7 7870   2.287   0.544  14.705 -0.1442  0.2665 -0.1482
  526TMC3    C8 7871   1.884   0.494  14.837  0.3945 -1.0362  0.0043
  526TMC3    O1 7872   2.301   0.522  14.826 -0.0689  0.0979 -0.4386
  526TMC3    O2 7873   1.944   0.469  14.941 -0.0015 -0.3239  0.4557
  527MPD2     C 7874   0.348   4.009   0.964 -0.1350 -0.8268  0.5597
  527MPD2    C1 7875   0.276   3.942   0.862  0.1905  0.2883 -0.0618
  527MPD2    C2 7876   0.345   3.870   0.769  0.3362  0.4290 -0.8896
  527MPD2    C3 7877   0.484   3.876   0.763 -0.1098 -0.3217  0.0494
  527MPD2    C4 7878   0.554   3.953   0.852  0.4807 -0.2852  0.0421
  527MPD2    C5 7879   0.487   4.014   0.952 -0.3970 -0.1155  0.4152
  527MPD2     H 7880   0.283   3.828   0.690  0.6491 -0.8273 -0.4574
  527MPD2    H1 7881   0.661   3.969   0.852  0.3308  0.8042  1.2848
  527MPD2    H2 7882   0.307   4.056   1.053 -0.0753 -0.8861  0.6189
  527MPD2    H3 7883   0.548   4.077   1.016  0.3558  0.4907 -0.8832
  527MPD2     N 7884   0.546   3.794   0.662  0.1446  0.6430  0.4378
  527MPD2    H5 7885   0.490   3.723   0.616  1.1628  0.0475  0.1092
  527MPD2    N1 7886   0.143   3.922   0.861  0.1924  0.8329  0.1445
  527MPD2    H7 7887   0.111   3.862   0.785 -0.2701 -0.9981  1.7876
  528TMC3    C1 7888   4.654   3.904   0.943 -0.1402 -0.1995 -0.0171
  528TMC3    C2 7889   4.628   3.830   0.830  0.1024  0.0626 -0.9783
  528TMC3    C3 7890   4.497   3.804   0.793 -0.4499  0.0783 -0.0123
  528TMC3    C4 7891   4.556   3.951   1.025 -0.2707 -0.5958  0.3321
  528TMC3    C5 7892   4.425   3.923   0.978  0.4348 -0.1571 -0.0637
  528TMC3    C6 7893   4.390   3.847   0.869  0.0303  0.1235 -1.3403
  528TMC3     C 7894   0.051   3.971   0.951 -1.4603 -1.0774  0.0844
  528TMC3     O 7895   0.066   4.045   1.046 -0.1011  0.1094 -0.0758
  528TMC3     H 7896   4.700   3.790   0.760 -0.5752 -2.8094 -0.0283
  528TMC3    H1 7897   4.585   4.000   1.118  3.2341 -0.5490 -0.8039
  528TMC3    H2 7898   4.288   3.832   0.835 -1.1206 -0.2304  2.2680
  528TMC3    C7 7899   4.321   3.976   1.069 -0.1871 -0.4939 -0.7437
  528TMC3    C8 7900   4.482   3.761   0.652 -0.1901  0.1843 -0.2924
  528TMC3    O1 7901   4.204   3.955   1.042 -0.6446 -0.1888 -0.0926
  528TMC3    O2 7902   4.563   3.809   0.576 -0.0304  0.4116  0.0627
  529MPD2     C 7903   2.878   2.715   0.813 -0.4091 -0.1949  0.7984
  529MPD2    C1 7904   2.898   2.592   0.757 -0.2632 -0.5830  0.0294
  529MPD2    C2 7905   2.838   2.560   0.636  0.1008 -0.8044 -0.3360
  529MPD2    C3 7906   2.757   2.654   0.572  0.5594  0.8521  0.2056
  529MPD2    C4 7907   2.749   2.783   0.621 -0.2006 -0.2262  0.2251
  529MPD2    C5 7908   2.813   2.812   0.740  0.0387 -0.1836 -0.4860
  529MPD2     H 7909   2.846   2.463   0.589 -3.2587 -0.8192 -0.8470
  529MPD2    H1 7910   2.704   2.863   0.564 -0.6927  1.0590  2.4324
  529MPD2    H2 7911   2.932   2.735   0.905  2.0317 -0.0600 -0.6465
  529MPD2    H3 7912   2.811   2.915   0.775  3.6230 -0.3273  0.1386
  529MPD2     N 7913   2.699   2.632   0.450 -0.0052  0.1566  0.1304
  529MPD2    H5 7914   2.673   2.718   0.402  0.8031  1.0143  1.2454
  529MPD2    N1 7915   2.975   2.496   0.823 -0.9806 -0.1579  0.3015
  529MPD2    H7 7916   2.968   2.402   0.787  0.2095 -0.5294  1.0302
  530TMC3    C1 7917   3.123   2.399   0.984  0.3557  0.2929  0.2261
  530TMC3    C2 7918   3.245   2.407   1.049 -0.6512 -0.4722 -0.2695
  530TMC3    C3 7919   3.305   2.284   1.084  0.5690  0.0920 -0.7149
  530TMC3    C4 7920   3.060   2.282   0.968 -0.7242 -0.6203  0.1602
  530TMC3    C5 7921   3.124   2.165   1.010 -0.0974  0.1822  0.2419
  530TMC3    C6 7922   3.243   2.166   1.070 -0.0305  0.2362 -0.4271
  530TMC3     C 7923   3.074   2.521   0.923  0.2742  0.0777 -0.0529
  530TMC3     O 7924   3.107   2.628   0.976  0.1248  0.2299  0.1302
  530TMC3     H 7925   3.291   2.502   1.073  0.9275 -1.8900  2.2901
  530TMC3    H1 7926   2.956   2.276   0.939 -0.7958  3.9480 -0.5575
  530TMC3    H2 7927   3.285   2.076   1.113 -4.7670 -2.4874 -1.3967
  530TMC3    C7 7928   3.042   2.046   1.001 -0.1185 -0.8144 -0.7330
  530TMC3    C8 7929   3.418   2.284   1.179 -0.8385  0.3461 -0.2367
  530TMC3    O1 7930   2.923   2.064   1.002 -0.3527  0.5469  0.5527
  530TMC3    O2 7931   3.425   2.383   1.253  0.1568  0.1349 -0.3888
  531MPD2     C 7932   0.534   0.132  13.062 -0.4382  0.1653 -0.5865
  531MPD2    C1 7933   0.579   0.010  13.087  0.1261 -0.5491 -0.5810
  531MPD2    C2 7934   0.641   4.676  12.984 -0.0670 -0.9152 -0.1626
  531MPD2    C3 7935   0.641   4.716  12.858  0.3997 -0.8527 -0.1993
  531MPD2    C4 7936   0.592   0.099  12.828  0.0066 -0.4449 -0.0618
  531MPD2    C5 7937   0.547   0.180  12.929  0.4021 -0.3265 -0.4576
  531MPD2     H 7938   0.677   4.574  12.997  1.1716 -0.5338 -0.6762
  531MPD2    H1 7939   0.584   0.140  12.727 -1.6755 -0.4205  0.0898
  531MPD2    H2 7940   0.496   0.200  13.138  0.1759 -0.5200  0.3278
  531MPD2    H3 7941   0.510   0.277  12.896 -1.4673 -0.8774  0.0052
  531MPD2     N 7942   0.707   4.633  12.762  0.1585  0.0132 -0.2556
  531MPD2    H5 7943   0.735   4.542  12.796 -2.8507 -1.1504 -0.8862
  531MPD2    N1 7944   0.587   4.700  13.224  0.1570  0.7223 -1.0529
  531MPD2    H7 7945   0.567   0.028  13.299 -0.6788  1.3589 -1.8185
  532TMC3    C1 7946   0.640   4.566  13.407 -0.9222  0.4643  0.2277
  532TMC3    C2 7947   0.656   4.435  13.438 -0.2564 -0.3743 -0.0198
  532TMC3    C3 7948   0.769   4.393  13.497  0.4094  0.1122 -0.1470
  532TMC3    C4 7949   0.722   4.665  13.458  0.3617 -0.2012  0.5514
  532TMC3    C5 7950   0.834   4.618  13.525  0.1829  0.0941  0.6178
  532TMC3    C6 7951   0.868   4.483  13.531 -0.1619 -0.2204  0.3013
  532TMC3     C 7952   0.623   4.575  13.267 -0.2866  0.0543 -0.1105
  532TMC3     O 7953   0.655   4.475  13.206 -0.1027  0.2137  0.0196
  532TMC3     H 7954   0.583   4.358  13.414  1.6418 -2.1923 -0.0424
  532TMC3    H1 7955   0.708   0.036  13.452 -1.0715 -0.2277  3.3472
  532TMC3    H2 7956   0.952   4.446  13.589 -0.8719 -0.6304  1.0704
  532TMC3    C7 7957   0.949   4.712  13.519  0.6456  0.4656 -0.0968
  532TMC3    C8 7958   0.825   4.281  13.437 -0.0867 -0.0089  0.4609
  532TMC3    O1 7959   0.915   0.087  13.546 -0.0259  0.6620 -0.3325
  532TMC3    O2 7960   0.932   4.247  13.493 -0.6044 -0.0828  0.6727
  533TMC3    C1 7961   2.238   1.285  14.015  0.5531 -0.4337 -0.2660
  533TMC3    C2 7962   2.363   1.330  14.053  0.4162 -0.4426  0.9363
  533TMC3    C3 7963   2.369   1.465  14.075 -0.2980 -0.5222  0.3972
  533TMC3    C4 7964   2.122   1.360  14.000  0.3316  0.0514  0.3822
  533TMC3    C5 7965   2.137   1.488  14.031  0.0967  0.7238 -0.3320
  533TMC3    C6 7966   2.258   1.547  14.065  0.0800 -0.1213 -0.1174
  533TMC3     C 7967   2.216   1.142  14.049  0.2619 -0.2970  0.2482
  533TMC3     O 7968   2.303   1.087  14.113 -0.5270  0.3416  0.0172
  533TMC3     H 7969   2.443   1.262  14.080  0.5159 -1.7596 -2.6650
  533TMC3    H1 7970   2.024   1.326  13.968  0.9718 -1.5071  0.1223
  533TMC3    H2 7971   2.263   1.649  14.102 -1.3198 -0.0367 -0.1554
  533TMC3    C7 7972   2.031   1.526  14.130 -1.0396  0.4112 -0.2226
  533TMC3    C8 7973   2.492   1.522  14.124 -0.2303  0.0128 -0.3954
  533TMC3    O1 7974   1.931   1.458  14.134 -0.5197 -0.1709  0.6436
  533TMC3    O2 7975   2.499   1.643  14.119 -0.1833 -0.1982 -0.5530
  534MPD2     C 7976   0.999   2.393   0.600  0.4409  0.5461 -0.0540
  534MPD2    C1 7977   0.902   2.488   0.590 -0.5990 -0.5080  0.1260
  534MPD2    C2 7978   0.768   2.454   0.612  0.0148 -0.5428 -0.1771
  534MPD2    C3 7979   0.730   2.318   0.641  0.7886  0.1040 -0.2486
  534MPD2    C4 7980   0.829   2.223   0.632  0.1242  0.2930  0.0379
  534MPD2    C5 7981   0.962   2.260   0.621 -0.4343 -0.4475 -0.1935
  534MPD2     H 7982   0.694   2.533   0.619  2.6015  1.5197  4.1141
  534MPD2    H1 7983   0.810   2.116   0.636 -0.5570  0.4609  1.1107
  534MPD2    H2 7984   1.107   2.400   0.597  0.4228  0.6165 -0.6144
  534MPD2    H3 7985   1.043   2.188   0.627  1.5126  1.7078 -0.7645
  534MPD2     N 7986   0.598   2.271   0.652 -0.0645 -1.0231 -0.3550
  534MPD2    H5 7987   0.580   2.172   0.637 -0.7886 -0.9459 -0.0038
  534MPD2    N1 7988   0.928   2.621   0.561  0.0669  0.4213  0.5863
  534MPD2    H7 7989   0.848   2.681   0.578 -0.3578 -0.4661  1.7522
  535TMC3    C1 7990   0.357   2.270   0.645  0.8871  0.0541 -0.4712
  535TMC3    C2 7991   0.359   2.135   0.667  0.2720  0.2976 -0.0692
  535TMC3    C3 7992   0.251   2.064   0.633 -0.0829 -0.4268 -0.0843
  535TMC3    C4 7993   0.261   2.332   0.585 -0.5105  0.1333  0.0702
  535TMC3    C5 7994   0.157   2.251   0.538 -0.1928 -0.9986  0.3239
  535TMC3    C6 7995   0.150   2.122   0.559 -0.7512  0.4321  0.4237
  535TMC3     C 7996   0.482   2.347   0.656 -0.2762  0.1972 -0.1540
  535TMC3     O 7997   0.471   2.467   0.648 -0.1775 -0.1268  0.6148
  535TMC3     H 7998   0.442   2.098   0.726 -2.4124 -0.0074  3.5776
  535TMC3    H1 7999   0.273   2.435   0.556  1.6309  0.1166  0.8949
  535TMC3    H2 8000   0.068   2.066   0.516 -2.0026  1.9639  0.7859
  535TMC3    C7 8001   0.035   2.312   0.491 -0.1350 -0.0640 -0.1438
  535TMC3    C8 8002   0.198   1.985   0.737  0.7289 -0.2851  0.4233
  535TMC3    O1 8003   4.688   2.233   0.445 -0.6053 -0.0934 -0.4041
  535TMC3    O2 8004   0.275   1.913   0.804 -0.3946  0.5611  0.1582
  536MPD2     C 8005   3.116   0.878  16.480 -0.0468  1.0207 -0.3892
  536MPD2    C1 8006   3.058   0.756  16.451 -0.3174  0.1052  0.6512
  536MPD2    C2 8007   2.989   0.738  16.329  0.1623 -0.5792 -0.2191
  536MPD2    C3 8008   2.980   0.843  16.236 -0.2362  0.5395 -0.6788
  536MPD2    C4 8009   3.014   0.966  16.283 -0.4535 -0.1509 -0.1814
  536MPD2    C5 8010   3.090   0.984  16.399  0.4005 -0.2859 -0.1164
  536MPD2     H 8011   2.972   0.634  16.304 -3.2312 -0.1477  0.2668
  536MPD2    H1 8012   2.989   1.053  16.224  1.7456 -0.3934 -1.4539
  536MPD2    H2 8013   3.195   0.886  16.554 -1.4923 -0.0400  1.2711
  536MPD2    H3 8014   3.142   1.078  16.410  1.7994 -1.1223  0.4414
  536MPD2     N 8015   2.922   0.837  16.102 -0.1341  0.1879  0.3215
  536MPD2    H5 8016   2.939   0.917  16.042  0.5812  1.2374  1.9035
  536MPD2    N1 8017   3.098   0.646  16.533  0.2611 -0.0092  0.3598
  536MPD2    H7 8018   3.174   0.663  16.599  0.2668  2.4403 -0.2987
  537TMC3    C1 8019   3.096   0.434  16.642 -0.2458  0.3428  0.1442
  537TMC3    C2 8020   3.157   0.485  16.758  0.0931  0.1652  0.6870
  537TMC3    C3 8021   3.185   0.398  16.854 -0.2945 -0.0245 -0.6812
  537TMC3    C4 8022   3.072   0.299  16.624 -0.4355 -0.2117  0.3427
  537TMC3    C5 8023   3.109   0.215  16.725  0.1012  0.4821 -0.3252
  537TMC3    C6 8024   3.169   0.262  16.841 -0.9374 -0.2685 -0.2054
  537TMC3     C 8025   3.034   0.525  16.546  0.1228  0.6339 -0.3927
  537TMC3     O 8026   2.946   0.485  16.472  0.2502 -0.3940  0.0456
  537TMC3     H 8027   3.176   0.592  16.767  0.6445  0.1960 -0.8143
  537TMC3    H1 8028   3.003   0.251  16.555  3.1904 -1.6529 -2.3075
  537TMC3    H2 8029   3.189   0.193  16.922  0.8493 -1.0037 -1.2598
  537TMC3    C7 8030   3.061   0.080  16.727  0.0619 -0.1053  0.1398
  537TMC3    C8 8031   3.260   0.435  16.970  0.2974 -0.3287 -0.4057
  537TMC3    O1 8032   2.954   0.062  16.677 -0.0318 -0.2827  0.3294
  537TMC3    O2 8033   3.330   0.535  16.954  0.5159 -0.7290 -0.0926
  538TMC3    C1 8034   4.596   3.565  10.618  0.3900 -0.3088 -0.4432
  538TMC3    C2 8035   4.726   3.558  10.584  0.4329 -0.5265 -0.0959
  538TMC3    C3 8036   0.031   3.634  10.473  0.0478 -0.8271 -0.1693
  538TMC3    C4 8037   4.497   3.615  10.534 -0.4295 -0.2442  0.2206
  538TMC3    C5 8038   4.543   3.678  10.426 -0.2469  0.4056 -0.4694
  538TMC3    C6 8039   4.673   3.695  10.396  0.8270 -0.4867 -0.1369
  538TMC3     C 8040   4.557   3.466  10.717 -0.6100 -0.4253 -0.6898
  538TMC3     O 8041   4.451   3.408  10.705  0.3650  0.4543 -0.3415
  538TMC3     H 8042   0.065   3.498  10.634  0.2318  0.6859  1.6790
  538TMC3    H1 8043   4.391   3.605  10.552 -0.4863 -0.9996 -0.5237
  538TMC3    H2 8044   4.698   3.766  10.318 -2.3232 -2.0354 -2.5629
  538TMC3    C7 8045   4.450   3.714  10.321  0.0533 -0.8181  0.4290
  538TMC3    C8 8046   0.161   3.615  10.418  0.1710  0.0428 -0.1639
  538TMC3    O1 8047   4.500   3.730  10.213 -0.4335 -0.0854 -0.8704
  538TMC3    O2 8048   0.239   3.531  10.467  0.4152  0.8396  0.2962
  539MPD2     C 8049   4.210   2.978  11.504 -0.1889  0.1992 -0.4100
  539MPD2    C1 8050   4.238   2.971  11.376 -0.5655  0.7172 -0.0460
  539MPD2    C2 8051   4.248   3.086  11.297 -0.2480 -0.0106  0.2160
  539MPD2    C3 8052   4.207   3.204  11.348  0.4963 -0.8429 -0.0172
  539MPD2    C4 8053   4.175   3.210  11.480  0.8226 -0.4812 -0.0144
  539MPD2    C5 8054   4.180   3.097  11.552  0.1483  0.0204 -0.3852
  539MPD2     H 8055   4.272   3.073  11.192  0.3441 -0.0104  0.3513
  539MPD2    H1 8056   4.147   3.303  11.528  1.7519 -0.1763 -0.0583
  539MPD2    H2 8057   4.199   2.892  11.570 -2.7826  1.6258  1.0143
  539MPD2    H3 8058   4.158   3.091  11.658 -1.7064  1.3083 -0.6931
  539MPD2     N 8059   4.191   3.319  11.275 -0.4897  0.6828  0.1842
  539MPD2    H5 8060   4.174   3.393  11.342 -2.3142  0.3727  0.0713
  539MPD2    N1 8061   4.267   2.845  11.315  0.3937 -0.1524  0.0707
  539MPD2    H7 8062   4.309   2.850  11.223  1.3580 -2.7485  0.3863
  540TMC3    C1 8063   4.259   3.469  11.097 -0.6676 -0.1189 -0.1370
  540TMC3    C2 8064   4.234   3.491  10.967 -0.6105 -0.4854  0.9894
  540TMC3    C3 8065   4.206   3.620  10.930  0.3592  0.2917 -0.7887
  540TMC3    C4 8066   4.252   3.569  11.194 -0.3844  0.0270  0.0035
  540TMC3    C5 8067   4.230   3.701  11.152 -0.1206 -0.3845  0.0368
  540TMC3    C6 8068   4.201   3.723  11.019 -0.0169  0.1305 -0.3800
  540TMC3     C 8069   4.224   3.332  11.142 -0.1541 -0.1983 -0.0542
  540TMC3     O 8070   4.213   3.247  11.057  0.5143 -0.6863 -0.2301
  540TMC3     H 8071   4.233   3.411  10.894  0.3040 -0.4754  0.9559
  540TMC3    H1 8072   4.271   3.551  11.299 -2.5444 -1.6660  0.0991
  540TMC3    H2 8073   4.168   3.822  10.989 -1.1230 -0.3129 -0.6130
  540TMC3    C7 8074   4.189   3.799  11.247 -0.3090 -0.3407 -0.8803
  540TMC3    C8 8075   4.142   3.645  10.801  0.6988  0.3954 -0.5458
  540TMC3    O1 8076   4.120   3.760  11.341 -1.1176  0.0812 -0.4952
  540TMC3    O2 8077   4.178   3.743  10.736 -0.6541  0.2588  0.4104
  541MPD2     C 8078   2.301   0.196  12.471  0.6542  0.5987 -0.2196
  541MPD2    C1 8079   2.380   0.185  12.358  0.3002 -0.3097  0.2418
  541MPD2    C2 8080   2.412   0.296  12.284 -0.1173 -0.3019  0.8948
  541MPD2    C3 8081   2.389   0.421  12.338 -0.7599  0.0705  0.4455
  541MPD2    C4 8082   2.320   0.430  12.456  0.5993 -0.1620  0.0226
  541MPD2    C5 8083   2.271   0.318  12.521 -0.0658 -0.4550 -0.0939
  541MPD2     H 8084   2.462   0.285  12.188 -1.1996 -1.9166  0.5168
  541MPD2    H1 8085   2.303   0.526  12.503 -0.6814  0.3967 -1.5922
  541MPD2    H2 8086   2.278   0.106  12.528 -1.8697 -0.0069 -2.2193
  541MPD2    H3 8087   2.201   0.326  12.603  0.3457 -4.5849  0.6908
  541MPD2     N 8088   2.428   0.543  12.271 -0.0096 -0.2493  0.2740
  541MPD2    H5 8089   2.421   0.634  12.314  0.0365 -1.1066  2.0661
  541MPD2    N1 8090   2.424   0.057  12.324  0.2867 -0.5635 -0.1143
  541MPD2    H7 8091   2.397   4.719  12.388  0.6716  1.8252  2.8383
  542TMC3    C1 8092   2.511   0.693  12.111  0.5186 -0.4084  0.2819
  542TMC3    C2 8093   2.590   0.718  12.004 -0.0427  0.3628 -0.1919
  542TMC3    C3 8094   2.545   0.819  11.925  0.1546 -0.7024 -0.7047
  542TMC3    C4 8095   2.413   0.781  12.147  0.6164  0.3354 -0.3439
  542TMC3    C5 8096   2.374   0.882  12.066  0.1539  0.1877  0.6756
  542TMC3    C6 8097   2.437   0.896  11.945 -0.1716 -0.1086  0.0477
  542TMC3     C 8098   2.492   0.551  12.150  0.6040  0.4654  0.3934
  542TMC3     O 8099   2.532   0.471  12.072 -0.7858 -0.1501  0.2034
  542TMC3     H 8100   2.652   0.645  11.954 -1.0559 -1.3023  0.9761
  542TMC3    H1 8101   2.357   0.773  12.240  2.3019 -1.9331  0.4575
  542TMC3    H2 8102   2.402   0.966  11.870  0.7885 -0.5723 -0.8276
  542TMC3    C7 8103   2.337   0.999  12.135  0.8278 -0.1947 -1.1836
  542TMC3    C8 8104   2.615   0.849  11.800  0.0610 -0.5765 -0.1899
  542TMC3    O1 8105   2.362   1.009  12.253 -0.1312  0.1373  0.2884
  542TMC3    O2 8106   2.569   0.934  11.722 -0.1642 -0.4037 -0.1397
  543TMC3    C1 8107   2.040   1.038  17.279 -0.3913  0.9191  0.8127
  543TMC3    C2 8108   2.043   0.908  17.334  0.1050 -0.1914 -0.1645
  543TMC3    C3 8109   1.985   0.883  17.456  0.3881 -0.3940  0.1629
  543TMC3    C4 8110   1.963   1.131  17.338  1.1631 -0.0434  0.9270
  543TMC3    C5 8111   1.903   1.099  17.458 -0.8217  0.6353 -0.6908
  543TMC3    C6 8112   1.917   0.978  17.524  0.3856 -0.0878 -0.5728
  543TMC3     C 8113   2.110   1.062  17.151 -0.9219 -0.0474  0.3146
  543TMC3     O 8114   2.199   0.986  17.119  0.7868 -1.1518  0.6935
  543TMC3     H 8115   2.098   0.829  17.284  0.5369  0.0256 -0.0337
  543TMC3    H1 8116   1.963   1.230  17.294 -1.8429 -1.1960 -1.6476
  543TMC3    H2 8117   1.860   0.948  17.612  2.9161 -2.7095  0.1645
  543TMC3    C7 8118   1.803   1.191  17.511 -0.0001  0.2650 -0.1318
  543TMC3    C8 8119   2.026   0.753  17.504 -0.6624  0.3388 -0.1269
  543TMC3    O1 8120   1.721   1.141  17.586  0.2757  0.2408 -0.5394
  543TMC3    O2 8121   2.076   0.671  17.428 -0.6473  0.1863 -1.1011
  544MPD2     C 8122   1.997   0.391   0.104 -0.4007  0.0200 -0.4011
  544MPD2    C1 8123   2.069   0.393  17.739  0.3277  0.1164 -0.3696
  544MPD2    C2 8124   2.073   0.511  17.669  0.1203 -0.1071 -0.1207
  544MPD2    C3 8125   1.993   0.617  17.709  0.4348 -0.1193  0.3804
  544MPD2    C4 8126   1.929   0.618   0.087  0.1618 -0.5483  0.3547
  544MPD2    C5 8127   1.936   0.497   0.149  0.7348  0.6730 -0.1007
  544MPD2     H 8128   2.132   0.517  17.578  1.8160  0.3746  1.0214
  544MPD2    H1 8129   1.870   0.698   0.131 -0.6607 -1.0820  0.2277
  544MPD2    H2 8130   1.996   0.302   0.166  1.4585  0.4349  0.2325
  544MPD2    H3 8131   1.887   0.488   0.246  0.8116  0.1977 -0.1079
  544MPD2     N 8132   1.980   0.735  17.631 -0.5220 -0.0545 -0.1532
  544MPD2    H5 8133   1.929   0.809  17.678 -1.6122 -0.2068 -1.0668
  544MPD2    N1 8134   2.128   0.273  17.694 -0.3173 -0.0562 -0.1178
  544MPD2    H7 8135   2.104   0.190   0.003  0.5287 -2.0574 -2.8252
  545TMC3    C1 8136   2.232   0.112  17.548  0.4010  0.2844  0.9392
  545TMC3    C2 8137   2.292   0.088  17.428 -0.1703  0.1010  0.1396
  545TMC3    C3 8138   2.341   4.695  17.411 -0.6521 -0.1297  0.0757
  545TMC3    C4 8139   2.213   0.017  17.645  0.4055  0.1186  0.1436
  545TMC3    C5 8140   2.277   4.629  17.625 -0.2864 -0.7368  0.0779
  545TMC3    C6 8141   2.340   4.597  17.505 -0.5342 -0.3409 -0.2732
  545TMC3     C 8142   2.194   0.248  17.575 -0.4521 -0.2881 -0.0763
  545TMC3     O 8143   2.216   0.330  17.485  0.1424  0.1827  0.1264
  545TMC3     H 8144   2.296   0.168  17.355 -1.3604 -0.4616 -0.5516
  545TMC3    H1 8145   2.155   0.018  17.736 -0.0682 -0.3189 -0.1534
  545TMC3    H2 8146   2.382   4.500  17.482  0.9009  0.2529 -0.1349
  545TMC3    C7 8147   2.278   4.536  17.741 -0.0622 -0.6239  0.2490
  545TMC3    C8 8148   2.373   4.655  17.275  0.2074 -0.2360  0.0796
  545TMC3    O1 8149   2.202   4.558   0.088 -0.8669  0.0715 -0.2299
  545TMC3    O2 8150   2.436   4.549  17.271  0.0693 -0.1910 -0.7421
  546MPD2     C 8151   3.407   1.231  17.578 -0.0356 -0.2764  0.1044
  546MPD2    C1 8152   3.378   1.221  17.442 -0.3656 -0.0457 -0.4852
  546MPD2    C2 8153   3.414   1.324  17.358 -0.1375 -0.2301  0.2651
  546MPD2    C3 8154   3.481   1.432  17.416  0.2064  0.5094  0.0674
  546MPD2    C4 8155   3.523   1.434  17.548  0.4131  0.0057  0.5881
  546MPD2    C5 8156   3.487   1.332  17.627 -0.3230 -0.2541  0.3111
  546MPD2     H 8157   3.400   1.325  17.250 -3.5108  0.7137  0.7084
  546MPD2    H1 8158   3.577   1.514  17.599  0.7142 -0.1521  0.5147
  546MPD2    H2 8159   3.364   1.167  17.654 -1.3571 -0.4224 -0.7520
  546MPD2    H3 8160   3.501   1.343  17.734 -0.4662 -1.2917  0.4341
  546MPD2     N 8161   3.502   1.552  17.352  0.2841  0.4366 -0.5959
  546MPD2    H5 8162   3.541   1.629  17.406  1.4479 -0.9858  0.5818
  546MPD2    N1 8163   3.306   1.105  17.405 -0.1920  0.0503 -0.4434
  546MPD2    H7 8164   3.281   1.042  17.480  0.1748  0.7521  0.2698
  547TMC3    C1 8165   3.221   0.926  17.272 -0.5467  0.3557  0.5345
  547TMC3    C2 8166   3.210   0.855  17.158  0.7436  0.0427  1.0245
  547TMC3    C3 8167   3.134   0.739  17.153  0.4363 -0.0128 -0.6038
  547TMC3    C4 8168   3.177   0.869  17.391  0.3008 -0.1083 -0.4585
  547TMC3    C5 8169   3.114   0.747  17.383 -0.2952 -0.1963 -0.0825
  547TMC3    C6 8170   3.084   0.685  17.269 -0.5383  0.0188  0.4999
  547TMC3     C 8171   3.276   1.062  17.276 -0.6524 -0.3684  0.4283
  547TMC3     O 8172   3.322   1.108  17.170  0.1662 -0.0426 -0.0854
  547TMC3     H 8173   3.243   0.898  17.065  0.3026  0.7480  1.1916
  547TMC3    H1 8174   3.187   0.919  17.487  1.0230  0.6150 -0.9138
  547TMC3    H2 8175   3.016   0.600  17.265 -0.4604 -0.0956  1.6844
  547TMC3    C7 8176   3.079   0.688  17.510 -0.7876 -0.2127  0.1564
  547TMC3    C8 8177   3.072   0.715  17.024 -0.1131 -0.0391  0.3688
  547TMC3    O1 8178   3.120   0.739  17.613  0.0879 -0.2509 -0.0174
  547TMC3    O2 8179   3.093   0.793  16.929 -0.4931 -0.4080 -0.2632
  548MPD2     C 8180   3.407   2.203  12.255  0.1021  0.7435  0.4280
  548MPD2    C1 8181   3.355   2.092  12.316  0.2513  0.5936  0.4736
  548MPD2    C2 8182   3.416   1.968  12.302  0.3377  0.3499  0.1431
  548MPD2    C3 8183   3.524   1.955  12.219  0.1158 -0.2529 -0.1869
  548MPD2    C4 8184   3.577   2.062  12.154  0.2999  0.1784  0.3120
  548MPD2    C5 8185   3.521   2.186  12.176  0.0775 -0.7044 -0.3123
  548MPD2     H 8186   3.370   1.885  12.353 -0.4678  1.4894  1.2830
  548MPD2    H1 8187   3.660   2.043  12.086  0.0869 -0.4374  0.2222
  548MPD2    H2 8188   3.361   2.301  12.268 -0.5573  0.2025  2.2393
  548MPD2    H3 8189   3.560   2.274  12.126 -1.6101  0.0510 -0.2784
  548MPD2     N 8190   3.583   1.827  12.191  0.5638 -0.8069  0.0507
  548MPD2    H5 8191   3.646   1.822  12.111 -0.3986 -1.4695 -0.6714
  548MPD2    N1 8192   3.238   2.112  12.391  0.6237 -0.0295  0.2470
  548MPD2    H7 8193   3.200   2.205  12.376 -0.2703 -0.1564  1.7439
  549TMC3    C1 8194   3.033   2.061  12.490  0.2500  0.5951 -0.0932
  549TMC3    C2 8195   2.968   2.142  12.400  0.0685 -0.0137 -0.0249
  549TMC3    C3 8196   2.842   2.176  12.440 -0.0864 -0.2927 -0.2359
  549TMC3    C4 8197   2.974   2.010  12.602 -0.2706  1.1118  0.0170
  549TMC3    C5 8198   2.854   2.054  12.642  0.2437 -0.5736  0.0539
  549TMC3    C6 8199   2.791   2.143  12.566  0.2771 -0.1576 -0.5696
  549TMC3     C 8200   3.171   2.025  12.463 -0.2998  0.1347  0.3448
  549TMC3     O 8201   3.193   1.907  12.486  0.5136  0.2266  0.8488
  549TMC3     H 8202   3.009   2.161  12.301 -1.2873  0.7854 -0.4325
  549TMC3    H1 8203   3.037   1.953  12.669 -1.9981 -0.9335 -0.1014
  549TMC3    H2 8204   2.710   2.201  12.609  1.2873 -0.7936  2.1647
  549TMC3    C7 8205   2.798   2.010  12.770  0.6762  0.2662  0.1593
  549TMC3    C8 8206   2.764   2.264  12.362 -0.7875  0.0140 -0.3748
  549TMC3    O1 8207   2.721   2.076  12.835 -0.0442  0.0887  0.3308
  549TMC3    O2 8208   2.641   2.247  12.368  0.3033  0.4717 -0.2172
  550TMC3    C1 8209   2.180   4.673  12.136  0.6774  0.1339  0.7374
  550TMC3    C2 8210   2.143   0.069  12.154  0.6208 -0.1993  0.2928
  550TMC3    C3 8211   2.179   0.159  12.054  0.4268  0.0682 -0.3902
  550TMC3    C4 8212   2.254   4.634  12.029  0.2367 -0.0117 -0.4342
  550TMC3    C5 8213   2.293   4.725  11.939 -0.0189 -0.6703  0.6575
  550TMC3    C6 8214   2.264   0.122  11.951  0.2407 -0.0364  0.3201
  550TMC3     C 8215   2.075   4.584  12.183  0.2387  0.1261  0.2159
  550TMC3     O 8216   2.115   4.511  12.272 -0.3010  0.4005  0.0251
  550TMC3     H 8217   2.082   0.094  12.240  2.3310  3.2839  0.4869
  550TMC3    H1 8218   2.292   4.534  12.012 -2.6597 -0.6456 -3.1844
  550TMC3    H2 8219   2.302   0.203  11.889  0.7032 -0.9823 -0.6269
  550TMC3    C7 8220   2.387   4.677  11.831 -0.0253  0.4634 -0.2790
  550TMC3    C8 8221   2.094   0.273  12.044  0.1684  1.0294  0.6788
  550TMC3    O1 8222   2.488   4.619  11.876 -0.3353 -0.0716  0.4307
  550TMC3    O2 8223   2.021   0.289  12.143 -0.2372 -0.1889 -0.1447
  551TMC3    C1 8224   4.485   2.229  13.408  0.4758 -0.3763  0.1241
  551TMC3    C2 8225   4.611   2.207  13.349  0.7447 -0.3591 -0.4302
  551TMC3    C3 8226   4.709   2.294  13.374 -0.1656 -0.8400 -0.1529
  551TMC3    C4 8227   4.472   2.324  13.510 -0.3858  0.2131  0.4259
  551TMC3    C5 8228   4.586   2.406  13.530 -0.3461  0.9921 -0.5363
  551TMC3    C6 8229   4.702   2.397  13.461  0.0781  0.0903  0.2215
  551TMC3     C 8230   4.374   2.199  13.313 -0.0673  0.7411  0.2823
  551TMC3     O 8231   4.392   2.130  13.217 -0.2484 -0.5606  0.0144
  551TMC3     H 8232   4.619   2.126  13.277 -1.1270  0.2067 -1.2813
  551TMC3    H1 8233   4.376   2.340  13.557  0.0565  1.8472  0.7441
  551TMC3    H2 8234   0.050   2.464  13.474 -0.0303  0.1009  0.8987
  551TMC3    C7 8235   4.569   2.509  13.628 -0.4221 -0.1639  0.6746
  551TMC3    C8 8236   0.041   2.331  13.249 -0.4869 -0.3799 -0.1902
  551TMC3    O1 8237   4.502   2.485  13.727 -0.6694 -0.6416 -0.0134
  551TMC3    O2 8238   0.155   2.373  13.242 -0.4393 -0.2581 -0.1794
  552MPD2     C 8239   1.221   4.435  14.091 -0.3750  0.7428  0.8349
  552MPD2    C1 8240   1.323   4.345  14.060  0.5560  0.3538  0.9839
  552MPD2    C2 8241   1.442   4.334  14.139 -0.6411 -0.1829  0.2837
  552MPD2    C3 8242   1.474   4.441  14.214 -0.1096 -0.4528  0.5986
  552MPD2    C4 8243   1.379   4.543  14.239  0.9512 -0.1894 -0.3452
  552MPD2    C5 8244   1.251   4.525  14.188  0.0769 -0.1627  0.1459
  552MPD2     H 8245   1.518   4.260  14.116 -1.8886 -1.5675  0.6409
  552MPD2    H1 8246   1.403   4.636  14.289  0.1988  1.1494 -2.4708
  552MPD2    H2 8247   1.132   4.453  14.032 -0.2051  2.4284  1.1005
  552MPD2    H3 8248   1.175   4.602  14.198  0.0749 -0.4575  2.4908
  552MPD2     N 8249   1.611   4.455  14.252 -0.2422 -0.4649 -0.4018
  552MPD2    H5 8250   1.665   4.370  14.242 -2.1425 -1.9892  2.4425
  552MPD2    N1 8251   1.319   4.248  13.948  0.5544  0.3394  0.8342
  552MPD2    H7 8252   1.409   4.205  13.928  0.1229  0.6714 -1.7948
  553TMC3    C1 8253   1.253   4.152  13.744 -0.0689 -0.4692  0.5575
  553TMC3    C2 8254   1.225   4.186  13.619  0.0813 -0.3728 -0.4347
  553TMC3    C3 8255   1.286   4.118  13.514  0.5211  0.2667 -0.1957
  553TMC3    C4 8256   1.329   4.043  13.780  0.4223 -0.5410 -0.1431
  553TMC3    C5 8257   1.377   3.978  13.675  0.3259 -0.0125 -0.1991
  553TMC3    C6 8258   1.364   4.017  13.541  0.3660  0.0005 -0.7332
  553TMC3     C 8259   1.229   4.249  13.847  0.9348  0.2487 -0.0888
  553TMC3     O 8260   1.124   4.309  13.843  0.1786 -1.1547 -0.0307
  553TMC3     H 8261   1.164   4.274  13.600 -0.6355 -0.8906 -0.5461
  553TMC3    H1 8262   1.339   4.012  13.883 -0.9173 -1.3787 -0.2602
  553TMC3    H2 8263   1.409   3.963  13.458 -0.8220  1.5634 -2.4020
  553TMC3    C7 8264   1.504   3.914  13.716 -0.0542 -0.2827 -0.0830
  553TMC3    C8 8265   1.280   4.153  13.370  0.4413  0.0933 -0.3334
  553TMC3    O1 8266   1.510   3.853  13.825  0.2148  0.0809 -0.2589
  553TMC3    O2 8267   1.382   4.132  13.303 -0.1037 -0.4343  0.3161
  554TMC3    C1 8268   3.072   3.459  11.521  0.4510  0.1181 -1.1316
  554TMC3    C2 8269   2.949   3.485  11.466 -0.2541  0.7102 -0.8474
  554TMC3    C3 8270   2.940   3.587  11.381  0.5011  0.4978 -0.9083
  554TMC3    C4 8271   3.183   3.529  11.488  0.6032 -0.0140 -0.6096
  554TMC3    C5 8272   3.169   3.643  11.416  0.5491  0.4180 -0.5783
  554TMC3    C6 8273   3.046   3.668  11.360 -0.0252  0.1851  1.0039
  554TMC3     C 8274   3.055   3.364  11.627  0.2562  0.0449  0.1956
  554TMC3     O 8275   2.948   3.313  11.659  0.0416 -0.5698 -0.2573
  554TMC3     H 8276   2.858   3.430  11.490  0.7923  0.3214  2.2518
  554TMC3    H1 8277   3.282   3.490  11.510  0.7192  0.6334  0.0227
  554TMC3    H2 8278   3.051   3.745  11.284  0.3755 -0.8428 -0.0200
  554TMC3    C7 8279   3.284   3.710  11.361  0.6834  0.1172  0.8567
  554TMC3    C8 8280   2.856   3.591  11.260  0.3736 -0.1011  0.1028
  554TMC3    O1 8281   3.261   3.802  11.284  0.1980 -0.1967 -0.6839
  554TMC3    O2 8282   2.862   3.681  11.179  0.2716 -0.1284 -0.2399
  555TMC3    C1 8283   2.833   2.950  14.782  0.6790 -0.2401  0.5543
  555TMC3    C2 8284   2.931   2.951  14.887 -0.8628  0.0257 -0.0232
  555TMC3    C3 8285   2.933   2.851  14.985 -0.3253 -0.5898 -0.6718
  555TMC3    C4 8286   2.734   2.863  14.791 -0.2240  0.2411  1.0186
  555TMC3    C5 8287   2.746   2.758  14.877 -0.6838  0.5315 -0.3218
  555TMC3    C6 8288   2.840   2.756  14.981 -0.3954 -1.1565  0.3531
  555TMC3     C 8289   2.857   3.043  14.666  0.7038  0.6047  0.6260
  555TMC3     O 8290   2.977   3.070  14.643 -0.1807  0.3958 -0.0659
  555TMC3     H 8291   3.010   3.025  14.883 -1.1119  0.2044 -1.9203
  555TMC3    H1 8292   2.676   2.848  14.701  2.2994 -0.7939 -0.4222
  555TMC3    H2 8293   2.842   2.667  15.044 -0.6915 -1.1993  0.3001
  555TMC3    C7 8294   2.636   2.662  14.886 -0.0696  0.5433  0.2585
  555TMC3    C8 8295   2.983   2.895  15.113  1.0053  0.1789 -0.3719
  555TMC3    O1 8296   2.651   2.559  14.943 -0.2739 -0.0437 -0.5864
  555TMC3    O2 8297   2.980   3.015  15.132  0.4672 -0.2410  0.2462
  556MPD2     C 8298   0.167   0.126  10.200  0.0310  0.1924  0.2192
  556MPD2    C1 8299   0.211   0.013  10.271 -0.2657  0.1321  0.5408
  556MPD2    C2 8300   0.238   4.637  10.199  0.7027 -0.0378 -0.0263
  556MPD2    C3 8301   0.237   4.641  10.055  0.2565  0.1039  0.7222
  556MPD2    C4 8302   0.192   0.018   9.984 -0.0078  0.0251  0.0497
  556MPD2    C5 8303   0.169   0.124  10.064  0.1144  0.7391 -0.5591
  556MPD2     H 8304   0.277   4.556  10.259 -1.0976 -1.0173 -0.1565
  556MPD2    H1 8305   0.187   0.023   9.876  2.3438 -0.9458 -0.0976
  556MPD2    H2 8306   0.143   0.226  10.236  0.2304 -0.0443  1.0143
  556MPD2    H3 8307   0.146   0.218  10.015  2.4952  0.4947 -2.1378
  556MPD2     N 8308   0.286   4.532   9.981  0.7756  0.8705  0.2290
  556MPD2    H5 8309   0.320   4.450  10.032 -1.8000 -0.6402 -0.4928
  556MPD2    N1 8310   0.223   0.014  10.409  0.3864 -0.1791  0.2983
  556MPD2    H7 8311   0.266   4.669  10.451  0.6999  0.1606  0.6353
  557TMC3    C1 8312   0.373   4.389   9.818  0.1621  0.4596  0.5896
  557TMC3    C2 8313   0.470   4.378   9.723 -0.0607  0.1494 -0.6101
  557TMC3    C3 8314   0.524   4.251   9.718 -0.0104 -0.2405 -0.4732
  557TMC3    C4 8315   0.330   4.291   9.908 -0.3035 -0.0445  0.3033
  557TMC3    C5 8316   0.391   4.169   9.887  0.6323  0.2886 -1.1231
  557TMC3    C6 8317   0.489   4.149   9.799  0.0218  0.2245  0.1946
  557TMC3     C 8318   0.328   4.525   9.847 -0.3785  0.0047  0.0681
  557TMC3     O 8319   0.341   4.618   9.766  0.8872  0.4975  0.0744
  557TMC3     H 8320   0.508   4.464   9.670  0.8334  0.5371  0.6821
  557TMC3    H1 8321   0.237   4.294   9.964 -0.6850  2.1718 -0.4388
  557TMC3    H2 8322   0.554   4.064   9.815 -0.1457  0.2299  0.9444
  557TMC3    C7 8323   0.358   4.065   9.987 -0.0973  1.0845 -0.3107
  557TMC3    C8 8324   0.625   4.230   9.618 -0.3227  0.1141  0.7480
  557TMC3    O1 8325   0.292   4.104  10.083 -0.4681  0.5470 -0.1356
  557TMC3    O2 8326   0.643   4.321   9.538  0.6889  0.2109 -0.1437
  558TMC3    C1 8327   2.358   1.820   9.683 -0.9310 -0.6753 -0.7053
  558TMC3    C2 8328   2.268   1.803   9.783  0.2194 -0.7484  0.4281
  558TMC3    C3 8329   2.154   1.867   9.784  0.0214  0.1924  0.3683
  558TMC3    C4 8330   2.336   1.886   9.569 -0.6825 -0.4982 -0.1142
  558TMC3    C5 8331   2.208   1.949   9.569 -0.7727  0.3863  0.2104
  558TMC3    C6 8332   2.122   1.944   9.678  0.1889 -0.0584  0.4836
  558TMC3     C 8333   2.503   1.813   9.725  0.9608 -0.2217 -0.5524
  558TMC3     O 8334   2.529   1.863   9.836 -0.0256  0.3808 -0.4678
  558TMC3     H 8335   2.291   1.733   9.863  1.7561 -1.3468 -0.5329
  558TMC3    H1 8336   2.417   1.906   9.500  1.3712  0.9739  2.6757
  558TMC3    H2 8337   2.026   1.994   9.668 -1.7085 -3.8373 -0.2338
  558TMC3    C7 8338   2.180   2.052   9.469  0.6553  0.3502  0.6931
  558TMC3    C8 8339   2.119   1.914   9.911 -0.6843  0.5264 -0.1657
  558TMC3    O1 8340   2.093   2.134   9.490  0.6434  0.1588 -0.4883
  558TMC3    O2 8341   1.999   1.937   9.929  0.0627  0.3834 -0.4400
  559MPD2     C 8342   2.510   3.082  11.051 -0.3097  0.1074  0.1516
  559MPD2    C1 8343   2.517   2.954  10.999 -0.6230 -0.5078 -0.3449
  559MPD2    C2 8344   2.644   2.890  10.985 -0.1177  0.1210 -0.4793
  559MPD2    C3 8345   2.757   2.955  11.025  0.5952 -0.5770  0.5295
  559MPD2    C4 8346   2.743   3.081  11.074  0.3095 -0.8263  0.1141
  559MPD2    C5 8347   2.622   3.145  11.087  0.4416  0.0654  0.5214
  559MPD2     H 8348   2.644   2.785  10.961  1.0013  0.2714 -1.1206
  559MPD2    H1 8349   2.828   3.140  11.106  0.4989  0.0263 -1.9141
  559MPD2    H2 8350   2.416   3.135  11.064  1.2221  2.8411  0.1178
  559MPD2    H3 8351   2.625   3.248  11.120  0.0011 -0.0166  0.8237
  559MPD2     N 8352   2.877   2.879  11.037  0.1419 -0.1588  0.3831
  559MPD2    H5 8353   2.875   2.786  10.996 -0.1517  1.0880 -2.4435
  559MPD2    N1 8354   2.399   2.903  10.948 -0.5314  0.0222  0.1898
  559MPD2    H7 8355   2.322   2.969  10.957  0.8515  1.6367  0.2837
  560TMC3    C1 8356   3.098   2.812  11.089 -0.1585 -0.0188 -0.4546
  560TMC3    C2 8357   3.050   2.683  11.094 -0.8836 -0.2105  0.2168
  560TMC3    C3 8358   3.137   2.592  11.141  0.1754  0.0654 -0.4392
  560TMC3    C4 8359   3.224   2.847  11.126  0.8406 -0.5956  0.9489
  560TMC3    C5 8360   3.299   2.752  11.179  0.9380 -0.2483 -0.0034
  560TMC3    C6 8361   3.257   2.623  11.186  0.4211 -0.3654 -0.2619
  560TMC3     C 8362   3.002   2.918  11.078  0.0854 -0.2250  0.1674
  560TMC3     O 8363   3.037   3.029  11.118 -0.2834  0.4030  0.3717
  560TMC3     H 8364   2.948   2.656  11.069 -0.3681 -2.3373  0.4146
  560TMC3    H1 8365   3.259   2.950  11.118  1.2534 -0.7778  0.3619
  560TMC3    H2 8366   3.325   2.560  11.244  0.1915  0.7749  1.2574
  560TMC3    C7 8367   3.434   2.783  11.214  0.1038  0.1675  0.0385
  560TMC3    C8 8368   3.107   2.455  11.103  0.0054 -0.8651  0.1881
  560TMC3    O1 8369   3.470   2.719  11.312 -0.1188  0.5858 -0.5966
  560TMC3    O2 8370   2.988   2.432  11.077 -0.0970 -0.5189  0.1779
  561TMC3    C1 8371   0.969   2.000  11.432  0.6078  0.3872  0.6915
  561TMC3    C2 8372   0.916   1.889  11.488 -0.8207 -0.0090 -0.6847
  561TMC3    C3 8373   0.782   1.876  11.500  0.3406 -0.3406  0.1934
  561TMC3    C4 8374   0.888   2.091  11.373 -0.9061  0.1894  0.6516
  561TMC3    C5 8375   0.752   2.075  11.370  0.6384  0.4296  0.2264
  561TMC3    C6 8376   0.700   1.966  11.434 -0.5570  0.3725  0.2754
  561TMC3     C 8377   1.113   2.003  11.388 -0.0725  0.2142  0.4975
  561TMC3     O 8378   1.156   2.111  11.344 -0.3030 -0.3009  0.1506
  561TMC3     H 8379   0.975   1.819  11.545 -2.8222 -0.5371  0.7502
  561TMC3    H1 8380   0.933   2.177  11.325  2.2605 -1.6212  0.3541
  561TMC3    H2 8381   0.593   1.949  11.435 -0.3272 -1.0678  1.4786
  561TMC3    C7 8382   0.667   2.139  11.271  0.2746 -0.7187  0.2997
  561TMC3    C8 8383   0.749   1.833  11.637 -0.1640  0.6959 -0.3222
  561TMC3    O1 8384   0.545   2.133  11.295 -0.1169  0.0547  0.3163
  561TMC3    O2 8385   0.831   1.751  11.684  0.0380  0.2863  1.1550
  562TMC3    C1 8386   2.334   3.079  15.772 -0.1001 -0.4859 -0.3159
  562TMC3    C2 8387   2.322   3.216  15.785 -0.0345 -0.5914  0.2604
  562TMC3    C3 8388   2.277   3.267  15.907  0.1240  0.1433  0.6329
  562TMC3    C4 8389   2.282   2.990  15.868  0.6881  0.4037  0.3474
  562TMC3    C5 8390   2.242   3.049  15.983  0.4183  0.0729 -0.0720
  562TMC3    C6 8391   2.244   3.181  16.007  0.2402  0.1270 -0.6572
  562TMC3     C 8392   2.340   3.024  15.641 -0.2077  0.2709  0.8884
  562TMC3     O 8393   2.338   2.902  15.628  0.2197  0.0627 -0.3861
  562TMC3     H 8394   2.369   3.281  15.712 -1.2250  0.7111  0.6309
  562TMC3    H1 8395   2.294   2.884  15.851 -1.0340  0.4295 -0.9961
  562TMC3    H2 8396   2.212   3.219  16.103 -0.8419 -1.7417 -0.2908
  562TMC3    C7 8397   2.150   2.969  16.062 -0.3208 -0.1700 -0.4569
  562TMC3    C8 8398   2.252   3.408  15.936  0.0210  0.2879  0.0726
  562TMC3    O1 8399   2.062   3.027  16.122 -0.4617  0.0991 -0.4239
  562TMC3    O2 8400   2.201   3.435  16.041 -0.3148 -0.2351 -0.0089
  563MPD2     C 8401   0.013   4.409  15.350  0.2159  0.5991 -0.4848
  563MPD2    C1 8402   0.012   4.433  15.485  0.3968 -0.3160  0.3332
  563MPD2    C2 8403   0.120   4.394  15.560  0.0786 -0.7880 -0.6639
  563MPD2    C3 8404   0.230   4.327  15.507 -0.1157  0.0057  1.0782
  563MPD2    C4 8405   0.236   4.312  15.369 -0.0764  1.0602 -0.0477
  563MPD2    C5 8406   0.123   4.349  15.294 -0.7665  0.3196  0.4401
  563MPD2     H 8407   0.119   4.409  15.668  0.2362 -2.3740 -0.4406
  563MPD2    H1 8408   0.306   4.244  15.322  1.9167  1.8707  1.7708
  563MPD2    H2 8409   4.669   4.440  15.285 -1.2343 -0.6732  0.7038
  563MPD2    H3 8410   0.117   4.315  15.191 -2.5297 -0.2558  0.7335
  563MPD2     N 8411   0.326   4.286  15.600  0.1794 -0.2016 -0.1804
  563MPD2    H5 8412   0.314   4.297  15.700  1.7876 -0.5931  0.0546
  563MPD2    N1 8413   4.643   4.489  15.558  0.2486 -0.3245 -0.9824
  563MPD2    H7 8414   4.657   4.516  15.655 -0.8760 -2.7223 -0.1499
  564TMC3    C1 8415   4.429   4.542  15.618  0.3024 -0.1695  0.3084
  564TMC3    C2 8416   4.308   4.480  15.603 -0.2128  0.5242 -0.3258
  564TMC3    C3 8417   4.254   4.428  15.712  0.9089  0.3614 -0.5145
  564TMC3    C4 8418   4.498   4.533  15.733 -0.3124 -0.1799  0.2334
  564TMC3    C5 8419   4.442   4.467  15.836 -0.0525  0.9441  0.4999
  564TMC3    C6 8420   4.315   4.423  15.835 -0.1081  0.4223 -0.2474
  564TMC3     C 8421   4.519   4.519  15.504  0.0551 -0.3308  0.2258
  564TMC3     O 8422   4.474   4.505  15.390 -0.2715 -0.3433 -0.9186
  564TMC3     H 8423   4.272   4.475  15.500 -0.6263  0.6478 -0.1889
  564TMC3    H1 8424   4.573   4.609  15.751 -1.1847  0.0640  2.9202
  564TMC3    H2 8425   4.266   4.374  15.918 -2.4577  2.1027 -0.6362
  564TMC3    C7 8426   4.533   4.375  15.902  0.2691  0.7447 -0.5664
  564TMC3    C8 8427   4.180   4.303  15.685  0.2484  1.1526 -0.1646
  564TMC3    O1 8428   4.647   4.408  15.931 -0.1888 -0.2853  0.2931
  564TMC3    O2 8429   4.194   4.213  15.769  0.5332 -0.6700  0.0134
  565TMC3    C1 8430   0.224   1.018   9.897 -0.1328  0.0901 -0.3692
  565TMC3    C2 8431   0.161   0.900   9.916  0.1205 -0.1283  0.5530
  565TMC3    C3 8432   0.091   0.842   9.811  0.2616  0.2925  0.2389
  565TMC3    C4 8433   0.221   1.075   9.771 -0.1515 -0.5496  0.4098
  565TMC3    C5 8434   0.166   1.010   9.665  0.0933 -0.4159  0.1102
  565TMC3    C6 8435   0.084   0.901   9.688 -0.0521 -0.1099 -0.0377
  565TMC3     C 8436   0.337   1.055   9.986  1.1044  1.1274  0.2233
  565TMC3     O 8437   0.412   1.141   9.950 -0.6369  0.4462  0.3281
  565TMC3     H 8438   0.175   0.842  10.006  2.5643  0.2655  0.4494
  565TMC3    H1 8439   0.283   1.164   9.761 -0.9430 -0.1201 -0.7044
  565TMC3    H2 8440   0.048   0.844   9.602 -0.3571  1.0860 -0.7048
  565TMC3    C7 8441   0.175   1.088   9.536  0.4147  0.0970 -0.3630
  565TMC3    C8 8442   4.733   0.746   9.853 -0.4638  0.1819  0.5415
  565TMC3    O1 8443   0.243   1.188   9.526  0.4257  0.1860  0.2181
  565TMC3    O2 8444   4.722   0.732   9.973 -0.2258  0.0560 -0.1745
  566MPD2     C 8445   2.089   2.357  13.937 -0.3539 -0.2684  0.0826
  566MPD2    C1 8446   2.059   2.480  13.882 -0.6500 -0.6044 -0.5214
  566MPD2    C2 8447   1.929   2.510  13.844 -0.6316  0.0476 -0.4773
  566MPD2    C3 8448   1.838   2.406  13.835 -0.5348  0.1641  0.4936
  566MPD2    C4 8449   1.865   2.281  13.899  0.9768  0.7796  0.1641
  566MPD2    C5 8450   1.991   2.252  13.943 -0.3524  0.4528 -0.0836
  566MPD2     H 8451   1.913   2.611  13.807  1.9473  0.9927  0.9294
  566MPD2    H1 8452   1.792   2.201  13.906  2.1461 -0.3377 -0.3274
  566MPD2    H2 8453   2.190   2.340  13.973  0.3497 -0.2629 -1.8902
  566MPD2    H3 8454   2.021   2.157  13.987 -1.5982  0.5062  0.8622
  566MPD2     N 8455   1.712   2.420  13.776 -0.2060 -0.3949 -0.2885
  566MPD2    H5 8456   1.645   2.344  13.773  0.1790 -0.7930  1.1456
  566MPD2    N1 8457   2.166   2.581  13.882  0.0386 -0.6204  0.0970
  566MPD2    H7 8458   2.246   2.558  13.941  0.7886  1.2582 -0.1799
  567TMC3    C1 8459   2.267   2.781  13.864 -0.1680  0.1901 -0.2865
  567TMC3    C2 8460   2.282   2.873  13.773 -0.6625  0.3375 -0.3515
  567TMC3    C3 8461   2.300   3.005  13.800  0.0230  1.0119 -0.3349
  567TMC3    C4 8462   2.262   2.818  14.000 -0.3289 -0.1644  0.4247
  567TMC3    C5 8463   2.263   2.951  14.024  0.5388 -0.3845 -0.0689
  567TMC3    C6 8464   2.284   3.054  13.928  0.4718  0.2512  0.1948
  567TMC3     C 8465   2.162   2.701  13.820 -0.2311  0.7602 -0.0814
  567TMC3     O 8466   2.072   2.763  13.757 -0.4388  0.0747 -0.2139
  567TMC3     H 8467   2.288   2.838  13.670  2.6583  0.6027 -0.2279
  567TMC3    H1 8468   2.258   2.750  14.085  0.6722 -1.9120 -0.9370
  567TMC3    H2 8469   2.274   3.158  13.955 -2.7728  0.0888 -0.4073
  567TMC3    C7 8470   2.244   3.003  14.155 -0.1453 -0.3254  0.0495
  567TMC3    C8 8471   2.255   3.091  13.689 -0.0762 -0.3098  0.5486
  567TMC3    O1 8472   2.301   3.107  14.185  0.1821  0.2435  0.2298
  567TMC3    O2 8473   2.203   3.029  13.596  0.5297 -0.1121  0.2969
  568MPD2     C 8474   3.780   2.779  15.642  0.3399  0.3051 -0.1817
  568MPD2    C1 8475   3.905   2.824  15.675 -0.3979  0.3726  0.0913
  568MPD2    C2 8476   3.925   2.960  15.700  0.0088 -1.4764 -0.1427
  568MPD2    C3 8477   3.822   3.051  15.666  0.9332 -0.0585 -0.5481
  568MPD2    C4 8478   3.705   3.001  15.623  0.2170 -0.0271 -0.3279
  568MPD2    C5 8479   3.683   2.867  15.618  0.2228  0.7507  0.7106
  568MPD2     H 8480   4.018   3.002  15.735 -1.6218  2.4558 -0.5241
  568MPD2    H1 8481   3.621   3.060  15.589  0.5056  0.0870 -0.8501
  568MPD2    H2 8482   3.748   2.678  15.623  2.2288 -0.7918  2.5636
  568MPD2    H3 8483   3.591   2.828  15.577 -0.4641  0.1592  2.8712
  568MPD2     N 8484   3.852   3.192  15.670  0.1881 -0.4059 -0.4134
  568MPD2    H5 8485   3.952   3.210  15.681  0.1391  0.0723 -0.7526
  568MPD2    N1 8486   4.006   2.722  15.698 -0.4924  0.3676  0.1304
  568MPD2    H7 8487   3.972   2.627  15.690 -1.6614  0.7959  0.0365
  569TMC3    C1 8488   3.834   3.417  15.688 -0.2886 -0.2618 -0.1943
  569TMC3    C2 8489   3.933   3.414  15.791 -0.0459  0.2655  0.5287
  569TMC3    C3 8490   3.980   3.538  15.832  0.2277 -0.3962  0.1774
  569TMC3    C4 8491   3.789   3.531  15.640  0.3896  0.4431 -0.2561
  569TMC3    C5 8492   3.853   3.648  15.668  0.2824  0.0391  0.3510
  569TMC3    C6 8493   3.944   3.653  15.771 -0.2817  0.5900  0.1554
  569TMC3     C 8494   3.764   3.295  15.651 -0.3115 -0.2134  0.4338
  569TMC3     O 8495   3.656   3.298  15.593 -0.3891 -1.1025  0.7949
  569TMC3     H 8496   3.965   3.324  15.842  2.5177  1.8214  1.6292
  569TMC3    H1 8497   3.713   3.523  15.563  0.6158 -1.8388 -0.2631
  569TMC3    H2 8498   3.970   3.744  15.823 -1.3359  1.4389 -0.8098
  569TMC3    C7 8499   3.836   3.755  15.567  0.3105  0.5675 -0.6801
  569TMC3    C8 8500   4.062   3.537  15.951  0.2275 -0.4085 -0.1464
  569TMC3    O1 8501   3.774   3.723  15.467  0.3569 -0.0042  0.0750
  569TMC3    O2 8502   4.080   3.429  16.002 -0.0674 -1.3053 -0.1977
  570TMC3    C1 8503   3.439   1.738  15.967  0.1892  0.6155 -0.1669
  570TMC3    C2 8504   3.468   1.764  15.837  0.0839 -0.4078  0.1414
  570TMC3    C3 8505   3.554   1.873  15.829 -0.2282 -0.2587 -0.0467
  570TMC3    C4 8506   3.482   1.811  16.077 -0.4890  0.4923 -0.2272
  570TMC3    C5 8507   3.554   1.920  16.052 -0.5415 -0.2745 -0.9803
  570TMC3    C6 8508   3.604   1.953  15.926 -0.0499 -0.3122 -0.2738
  570TMC3     C 8509   3.357   1.620  15.987  0.1939 -0.1331  0.0760
  570TMC3     O 8510   3.306   1.570  15.885 -0.3748  0.4322  0.2831
  570TMC3     H 8511   3.415   1.726  15.750  0.3631  1.1854 -0.7341
  570TMC3    H1 8512   3.439   1.805  16.176  1.8838 -0.0349  0.7714
  570TMC3    H2 8513   3.671   2.036  15.906  0.7521 -1.0227 -0.5434
  570TMC3    C7 8514   3.559   2.023  16.156  0.1494 -0.2040  0.5886
  570TMC3    C8 8515   3.585   1.924  15.702  0.6042 -0.3287  0.3095
  570TMC3    O1 8516   3.550   1.983  16.269 -0.1187  0.3874  0.1525
  570TMC3    O2 8517   3.625   2.038  15.691  0.2707  0.0700 -0.6679
  571MPD2     C 8518   1.083   4.408   0.345 -0.5457 -0.3314 -0.2153
  571MPD2    C1 8519   1.149   4.318   0.264 -0.1280 -0.2792  0.0039
  571MPD2    C2 8520   1.287   4.317   0.254  0.0458  0.4145  0.3073
  571MPD2    C3 8521   1.353   4.415   0.326 -0.6995 -0.0617  0.1320
  571MPD2    C4 8522   1.284   4.501   0.413  0.5442 -0.4767 -0.5274
  571MPD2    C5 8523   1.148   4.499   0.418 -0.9657  0.2541  0.0435
  571MPD2     H 8524   1.344   4.243   0.199 -0.7388  1.3065 -1.7052
  571MPD2    H1 8525   1.329   4.569   0.484 -1.5232  0.0493  0.2809
  571MPD2    H2 8526   0.976   4.408   0.360 -0.9466 -0.9190 -3.1212
  571MPD2    H3 8527   1.108   4.574   0.485  0.2543 -0.0927  1.1561
  571MPD2     N 8528   1.492   4.435   0.309  0.0522  0.1950  0.3485
  571MPD2    H5 8529   1.539   4.506   0.365  1.6524  1.0190 -2.0103
  571MPD2    N1 8530   1.067   4.224   0.197 -0.7834 -0.1830  0.4676
  571MPD2    H7 8531   0.968   4.228   0.217 -0.8598  0.8038 -0.0953
  572TMC3    C1 8532   1.715   4.427   0.233 -0.0478  0.0284 -0.0874
  572TMC3    C2 8533   1.737   4.517   0.339 -0.4592  0.2278 -0.2242
  572TMC3    C3 8534   1.829   4.622   0.319 -0.1719 -0.6386 -0.0855
  572TMC3    C4 8535   1.782   4.437   0.114 -0.0219 -0.7314  0.3721
  572TMC3    C5 8536   1.863   4.546   0.101 -0.3061  0.6661  0.3281
  572TMC3    C6 8537   1.884   4.649   0.198  0.5042  0.3752 -0.3293
  572TMC3     C 8538   1.580   4.374   0.221 -0.0482 -0.3664 -0.0058
  572TMC3     O 8539   1.558   4.300   0.126  0.1836  0.8705 -0.5807
  572TMC3     H 8540   1.714   4.481   0.439  0.2715 -1.4068 -0.6277
  572TMC3    H1 8541   1.773   4.366   0.033 -2.2452 -1.9442  1.6910
  572TMC3    H2 8542   1.951   4.732   0.176  1.0727  0.1699  0.6435
  572TMC3    C7 8543   1.920   4.580  17.719  0.1992  0.3115  0.4354
  572TMC3    C8 8544   1.828   4.736   0.410 -0.1910  0.8165  0.4809
  572TMC3    O1 8545   1.926   4.697  17.685 -0.1069 -0.3098  0.4075
  572TMC3    O2 8546   1.909   0.093   0.390 -0.0080  0.0411  0.0056
  573MPD2     C 8547   3.070   4.404   0.833  0.9980 -0.4242 -0.0901
  573MPD2    C1 8548   3.179   4.389   0.747  1.0560  1.0356 -0.2848
  573MPD2    C2 8549   3.170   4.309   0.635 -0.0571 -0.3678  1.0468
  573MPD2    C3 8550   3.053   4.235   0.610  0.0035  0.6515 -0.1011
  573MPD2    C4 8551   2.950   4.250   0.704  0.2203 -0.8733  0.3929
  573MPD2    C5 8552   2.955   4.333   0.810  0.1150  0.2569  0.0669
  573MPD2     H 8553   3.261   4.310   0.577  0.5406 -1.7176  1.9783
  573MPD2    H1 8554   2.855   4.206   0.676 -0.0525  1.2274 -1.9677
  573MPD2    H2 8555   3.069   4.472   0.918 -1.0047  1.9371 -1.9941
  573MPD2    H3 8556   2.866   4.348   0.870  0.4926  1.9549  0.2253
  573MPD2     N 8557   3.028   4.163   0.496 -0.0906 -0.2693 -0.2064
  573MPD2    H5 8558   2.954   4.093   0.498 -0.2842 -0.0890 -1.2017
  573MPD2    N1 8559   3.297   4.467   0.788 -0.3820  0.1885  0.2549
  573MPD2    H7 8560   3.290   4.516   0.876 -2.9991 -0.0477  0.1525
  574TMC3    C1 8561   3.053   4.087   0.279 -0.1196 -0.5476  0.5901
  574TMC3    C2 8562   2.944   4.004   0.288  0.2783 -0.4090  0.1515
  574TMC3    C3 8563   2.863   3.983   0.180 -0.6066 -0.2503 -0.8578
  574TMC3    C4 8564   3.100   4.127   0.152 -0.2555  0.1658  0.5095
  574TMC3    C5 8565   3.026   4.085   0.044 -0.1485  0.3023  0.6033
  574TMC3    C6 8566   2.900   4.027   0.058 -0.3750 -0.0708  0.4612
  574TMC3     C 8567   3.112   4.165   0.388  0.2604 -0.2955 -0.0177
  574TMC3     O 8568   3.213   4.228   0.370  0.0086 -0.1658  0.0101
  574TMC3     H 8569   2.924   3.958   0.385  0.9127 -0.0331  0.4649
  574TMC3    H1 8570   3.189   4.187   0.139 -2.0487  2.7593  0.1330
  574TMC3    H2 8571   2.851   3.994  17.712 -2.4363  1.5905  0.9726
  574TMC3    C7 8572   3.070   4.107  17.657  0.7093  0.0079 -1.2747
  574TMC3    C8 8573   2.726   4.003   0.215 -0.3068  0.0911 -0.0245
  574TMC3    O1 8574   3.023   4.031  17.567 -0.4261  0.0534 -0.3947
  574TMC3    O2 8575   2.704   3.981   0.332 -0.2644  0.0431 -0.2588
  575TMC3    C1 8576   4.575   0.072  10.374 -0.0620  0.4142 -0.0481
  575TMC3    C2 8577   4.506   4.708  10.334  0.2100 -0.3565 -0.3237
  575TMC3    C3 8578   4.459   4.706  10.205 -0.2678 -0.2942  0.5506
  575TMC3    C4 8579   4.593   0.187  10.299 -0.2198 -0.6447  0.4256
  575TMC3    C5 8580   4.533   0.187  10.176  0.0591 -1.1460 -0.2891
  575TMC3    C6 8581   4.479   0.074  10.120  0.3736 -0.2431 -0.3260
  575TMC3     C 8582   4.597   0.081  10.518  0.2716  0.5737  0.1817
  575TMC3     O 8583   4.552   4.723  10.580  0.2838 -1.1475  0.4102
  575TMC3     H 8584   4.488   4.616  10.390 -1.2114 -2.1501 -3.7167
  575TMC3    H1 8585   4.645   0.279  10.325 -0.3622 -0.4510  0.0220
  575TMC3    H2 8586   4.442   0.071  10.018 -2.0073 -0.8637  0.5444
  575TMC3    C7 8587   4.546   0.313  10.096 -0.3648  0.1222  0.0209
  575TMC3    C8 8588   4.405   4.590  10.135 -0.0365  0.4702 -0.5895
  575TMC3    O1 8589   4.620   0.402  10.141 -0.3084 -0.1812  0.3075
  575TMC3    O2 8590   4.346   4.608  10.027  0.0544  0.0534  0.4322
  576MPD2     C 8591   4.234   2.289  12.342 -0.2307 -0.3146 -0.0342
  576MPD2    C1 8592   4.369   2.275  12.359 -0.0547  0.5123  0.1307
  576MPD2    C2 8593   4.423   2.336  12.467  0.2814  0.6476  0.1708
  576MPD2    C3 8594   4.349   2.415  12.560  0.2709  0.1409 -0.5689
  576MPD2    C4 8595   4.216   2.438  12.529 -0.4853  0.1703 -0.4194
  576MPD2    C5 8596   4.163   2.372  12.429 -0.9659  0.6827 -0.0229
  576MPD2     H 8597   4.531   2.337  12.484  0.2631 -0.9438  0.3955
  576MPD2    H1 8598   4.158   2.513  12.583  0.2134 -0.3434  1.0676
  576MPD2    H2 8599   4.179   2.244  12.260 -0.1745  2.9159 -1.8725
  576MPD2    H3 8600   4.056   2.383  12.420 -0.8767 -1.1875 -3.4608
  576MPD2     N 8601   4.421   2.479  12.659 -0.7731  0.1863 -0.4288
  576MPD2    H5 8602   4.521   2.487  12.649 -0.5298 -1.7334  0.4380
  576MPD2    N1 8603   4.440   2.202  12.260 -0.4518 -0.1667 -0.0829
  576MPD2    H7 8604   4.381   2.164  12.186  0.1011 -1.8089  0.3165
  577TMC3    C1 8605   4.608   2.056  12.171 -0.0591  0.5615 -0.7150
  577TMC3    C2 8606   4.727   1.990  12.195 -0.4341  0.3742  0.1017
  577TMC3    C3 8607   0.043   1.929  12.081  0.2697  0.0151  0.4689
  577TMC3    C4 8608   4.545   2.044  12.053 -0.7429 -0.0010 -0.7601
  577TMC3    C5 8609   4.591   1.968  11.954 -0.4910 -0.7396 -0.4016
  577TMC3    C6 8610   4.716   1.914  11.959  0.2393  0.1213 -0.3137
  577TMC3     C 8611   4.572   2.149  12.276 -0.3313  0.7715 -0.0807
  577TMC3     O 8612   4.651   2.168  12.364 -0.5164  0.3622 -0.0845
  577TMC3     H 8613   0.040   2.009  12.290  0.9133  1.6737 -0.8641
  577TMC3    H1 8614   4.444   2.078  12.036 -1.1283 -0.9432 -0.3534
  577TMC3    H2 8615   0.030   1.869  11.875  0.9309 -0.7695  0.5729
  577TMC3    C7 8616   4.539   2.008  11.824 -0.0071  0.4165 -0.6844
  577TMC3    C8 8617   0.184   1.919  12.100 -0.2168 -0.2045  0.2053
  577TMC3    O1 8618   4.467   2.108  11.824  0.2201 -0.1650  0.3063
  577TMC3    O2 8619   0.229   1.899  12.212 -0.2441 -0.1386 -0.3210
  578MPD2     C 8620   3.546   2.726   1.012 -0.6023 -0.2054  0.0437
  578MPD2    C1 8621   3.522   2.658   0.891  0.0919 -0.1074 -1.2981
  578MPD2    C2 8622   3.607   2.555   0.856  0.9835  0.2256 -0.4858
  578MPD2    C3 8623   3.714   2.522   0.942  0.2365  0.2297  0.4798
  578MPD2    C4 8624   3.742   2.597   1.049 -0.4219  0.7875  0.1264
  578MPD2    C5 8625   3.653   2.696   1.089  0.5522  0.6521  0.3054
  578MPD2     H 8626   3.598   2.511   0.758 -1.0332 -0.4046 -0.0217
  578MPD2    H1 8627   3.827   2.589   1.116  1.1123  0.8715 -1.8004
  578MPD2    H2 8628   3.477   2.800   1.053 -3.2899 -2.4885 -0.3092
  578MPD2    H3 8629   3.677   2.763   1.171  1.9661  0.2653  0.2054
  578MPD2     N 8630   3.778   2.397   0.929 -0.3565 -0.1097  0.3875
  578MPD2    H5 8631   3.742   2.340   0.853  0.2055  0.8570 -0.5895
  578MPD2    N1 8632   3.403   2.696   0.817 -0.0894  0.3931 -0.2420
  578MPD2    H7 8633   3.340   2.767   0.855  0.3648  1.5499 -1.6740
  579TMC3    C1 8634   3.947   2.234   0.950  0.4804  0.2878  0.3860
  579TMC3    C2 8635   4.058   2.183   1.013  0.0193  0.1782 -0.5740
  579TMC3    C3 8636   4.131   2.085   0.943  0.4346  0.4437  0.5363
  579TMC3    C4 8637   3.911   2.185   0.827 -0.3856  0.6797  0.3641
  579TMC3    C5 8638   3.984   2.086   0.770 -0.0546 -0.0835 -0.3808
  579TMC3    C6 8639   4.097   2.030   0.824 -0.4733 -0.2419  1.0343
  579TMC3     C 8640   3.876   2.343   1.006  0.7031 -0.4099 -0.0555
  579TMC3     O 8641   3.924   2.389   1.110  0.1037 -0.0282 -0.1223
  579TMC3     H 8642   4.093   2.229   1.105  0.0535  2.2391 -1.6227
  579TMC3    H1 8643   3.838   2.237   0.765  0.7227  0.4762 -1.0986
  579TMC3    H2 8644   4.170   1.967   0.776 -1.5460 -1.2394  0.7274
  579TMC3    C7 8645   3.916   1.999   0.673  0.7635 -0.9646 -0.8888
  579TMC3    C8 8646   4.258   2.059   1.011 -0.8177 -0.2550 -0.2503
  579TMC3    O1 8647   3.994   1.922   0.611  0.2566  0.5749  0.1699
  579TMC3    O2 8648   4.256   2.062   1.132  0.5853  0.1768 -0.4638
  580TMC3    C1 8649   2.496   1.803  12.089  0.3633 -0.5829 -0.0156
  580TMC3    C2 8650   2.577   1.913  12.114 -0.3135 -0.2210  0.2938
  580TMC3    C3 8651   2.696   1.890  12.183  0.1315 -0.0712 -0.0190
  580TMC3    C4 8652   2.532   1.679  12.129 -0.0644  0.2268 -0.1081
  580TMC3    C5 8653   2.646   1.664  12.204 -0.4151  0.0241  0.2250
  580TMC3    C6 8654   2.733   1.766  12.223  0.2172  0.3609 -0.8516
  580TMC3     C 8655   2.433   1.813  11.956 -0.0052  0.4987  0.1451
  580TMC3     O 8656   2.429   1.923  11.907  0.7834 -0.1019  0.5263
  580TMC3     H 8657   2.576   2.006  12.058 -0.8729  0.2679  1.1175
  580TMC3    H1 8658   2.466   1.595  12.107  0.6751 -0.0658 -1.2464
  580TMC3    H2 8659   2.819   1.760  12.288 -1.4059 -2.3488  1.0617
  580TMC3    C7 8660   2.682   1.543  12.265 -0.8587 -0.2420  0.1124
  580TMC3    C8 8661   2.804   1.969  12.127  0.1813  0.5182 -0.3854
  580TMC3    O1 8662   2.764   1.557  12.355 -0.1621  0.0845 -0.2352
  580TMC3    O2 8663   2.784   2.089  12.107  0.4867  0.0735  0.0198
  581MPD2     C 8664   0.698   1.714  15.310 -0.1008 -0.3809  0.1751
  581MPD2    C1 8665   0.698   1.608  15.223  0.5351 -0.6707 -0.2500
  581MPD2    C2 8666   0.581   1.595  15.147 -0.0970  0.0758 -0.2623
  581MPD2    C3 8667   0.489   1.690  15.146 -0.0320  0.9076 -0.4257
  581MPD2    C4 8668   0.495   1.800  15.218  0.3397 -0.2433 -0.4467
  581MPD2    C5 8669   0.597   1.806  15.306 -0.5599 -0.1809  0.2478
  581MPD2     H 8670   0.570   1.510  15.081  2.5020 -1.5056  1.3216
  581MPD2    H1 8671   0.428   1.885  15.211  0.7043  0.3366  2.7105
  581MPD2    H2 8672   0.773   1.730  15.386  2.2019  0.5196 -2.2736
  581MPD2    H3 8673   0.613   1.894  15.367  2.9480 -2.8872  3.1682
  581MPD2     N 8674   0.388   1.679  15.050  0.1742  0.2241 -0.1528
  581MPD2    H5 8675   0.394   1.607  14.978  1.3362  0.2663 -0.1094
  581MPD2    N1 8676   0.806   1.520  15.227 -0.4216 -0.2302  0.3854
  581MPD2    H7 8677   0.883   1.551  15.286  0.4677 -1.2060 -0.2649
  582TMC3    C1 8678   0.957   1.341  15.198 -0.1284  0.2438 -0.5556
  582TMC3    C2 8679   0.997   1.355  15.329 -0.0601 -0.3369  0.0874
  582TMC3    C3 8680   1.047   1.244  15.387  0.3967  0.2029  0.4620
  582TMC3    C4 8681   1.002   1.229  15.125  0.2464  0.6633 -0.3628
  582TMC3    C5 8682   1.083   1.135  15.182  0.5051  0.2027 -0.2456
  582TMC3    C6 8683   1.104   1.140  15.318 -0.1019  0.3109 -0.0012
  582TMC3     C 8684   0.828   1.406  15.156 -0.1153  0.2186  0.8071
  582TMC3     O 8685   0.769   1.347  15.070 -0.1543 -0.1569  0.1103
  582TMC3     H 8686   0.949   1.429  15.392 -0.6888 -3.7182  3.5462
  582TMC3    H1 8687   0.971   1.233  15.021 -1.3186 -1.9608 -0.0072
  582TMC3    H2 8688   1.158   1.066  15.377 -2.5809 -1.6048 -0.1347
  582TMC3    C7 8689   1.154   1.027  15.103  0.3802 -0.2283  0.6634
  582TMC3    C8 8690   1.040   1.249  15.537  0.0198 -0.8086  0.3465
  582TMC3    O1 8691   1.264   0.997  15.146 -0.2134 -0.0034 -0.1917
  582TMC3    O2 8692   0.947   1.318  15.576  0.4503  0.0704 -0.3947
  583MPD2     C 8693   0.781   2.803  16.581  0.4556 -0.3590 -0.0983
  583MPD2    C1 8694   0.750   2.921  16.512  0.4902 -0.5890 -0.1989
  583MPD2    C2 8695   0.658   3.006  16.567  0.9717  0.3200 -0.7169
  583MPD2    C3 8696   0.595   2.976  16.689 -0.2009  0.3864 -0.1027
  583MPD2    C4 8697   0.624   2.868  16.762 -0.1029 -0.1456  0.3620
  583MPD2    C5 8698   0.719   2.783  16.700 -0.2446  0.9811 -0.4032
  583MPD2     H 8699   0.622   3.084  16.501  1.2738  1.6493  0.6873
  583MPD2    H1 8700   0.587   2.843  16.860  0.6969 -0.5535  0.5639
  583MPD2    H2 8701   0.853   2.729  16.549 -0.9515 -1.7321 -0.1037
  583MPD2    H3 8702   0.725   2.687  16.749  0.1039  0.6822 -1.0309
  583MPD2     N 8703   0.497   3.071  16.723 -0.0650  0.4032  0.2478
  583MPD2    H5 8704   0.486   3.143  16.653 -0.2514  0.1130 -0.0166
  583MPD2    N1 8705   0.816   2.951  16.394 -0.5759 -0.5297 -0.6266
  583MPD2    H7 8706   0.781   3.030  16.341  0.2062  0.1258 -0.1679
  584TMC3    C1 8707   0.379   3.220  16.868 -0.1087 -0.7088 -0.3136
  584TMC3    C2 8708   0.434   3.325  16.799 -0.0609  0.8843 -0.5936
  584TMC3    C3 8709   0.430   3.449  16.864 -0.2074 -0.3877 -0.1486
  584TMC3    C4 8710   0.318   3.235  16.994  0.0912  0.0179 -0.6162
  584TMC3    C5 8711   0.323   3.357  17.050 -0.1109 -0.3624  0.1948
  584TMC3    C6 8712   0.382   3.466  16.991 -0.2276 -0.0396 -0.3325
  584TMC3     C 8713   0.430   3.083  16.840  0.6369 -0.1921  0.3577
  584TMC3     O 8714   0.422   3.000  16.929  0.3816  0.4468  0.2449
  584TMC3     H 8715   0.496   3.310  16.711  1.4333  1.6432  0.3351
  584TMC3    H1 8716   0.282   3.147  17.047  0.1583  0.1228 -0.3968
  584TMC3    H2 8717   0.374   3.569  17.024 -1.0870 -0.2753  0.1939
  584TMC3    C7 8718   0.243   3.379  17.169 -0.3649  0.2474 -0.0736
  584TMC3    C8 8719   0.512   3.547  16.796  0.3304 -0.1755 -0.7214
  584TMC3    O1 8720   0.175   3.286  17.198 -0.1802 -0.4701  0.7051
  584TMC3    O2 8721   0.522   3.534  16.675 -0.0147  0.5777 -0.5274
  585MPD2     C 8722   4.154   1.930   0.088  0.6912 -0.4799  0.2442
  585MPD2    C1 8723   4.208   2.019  17.739  0.1078 -0.1392  0.5562
  585MPD2    C2 8724   4.280   1.966  17.636  0.5171 -0.3028  0.3774
  585MPD2    C3 8725   4.309   1.828  17.626 -0.3123 -0.1946 -0.3289
  585MPD2    C4 8726   4.266   1.743  17.724  0.1860  0.2926  0.1989
  585MPD2    C5 8727   4.186   1.797   0.082  0.9513  0.4258  0.6661
  585MPD2     H 8728   4.327   2.040  17.572  0.0259  0.1877  0.5827
  585MPD2    H1 8729   4.273   1.635  17.733  0.7890  0.2311 -1.0819
  585MPD2    H2 8730   4.084   1.960   0.164 -0.7481  0.3547 -1.4012
  585MPD2    H3 8731   4.142   1.734   0.158 -0.5143 -0.2378 -0.7299
  585MPD2     N 8732   4.374   1.776  17.517 -0.5041 -0.8206  0.1966
  585MPD2    H5 8733   4.391   1.676  17.516 -0.8122 -0.8408 -2.7502
  585MPD2    N1 8734   4.188   2.155   0.013  0.2937 -0.6890 -0.7193
  585MPD2    H7 8735   4.151   2.177   0.105  0.7664 -1.2158 -0.4020
  586TMC3    C1 8736   4.460   1.758  17.309  0.3255  0.3840  0.1048
  586TMC3    C2 8737   4.590   1.738  17.276  0.1562  0.8285  0.2492
  586TMC3    C3 8738   4.621   1.623  17.211  0.6709 -0.3680  0.4242
  586TMC3    C4 8739   4.371   1.665  17.295 -0.4092 -0.2262 -0.1719
  586TMC3    C5 8740   4.406   1.557  17.228  0.1388 -0.3390  0.3796
  586TMC3    C6 8741   4.529   1.534  17.177  0.4605 -0.3500 -0.0098
  586TMC3     C 8742   4.441   1.848  17.422  0.6916 -0.5424  0.0067
  586TMC3     O 8743   4.469   1.965  17.408  0.2493  0.5797  0.0664
  586TMC3     H 8744   4.668   1.803  17.315  0.2085  0.8799  0.0574
  586TMC3    H1 8745   4.269   1.688  17.324  0.2184  0.7556  1.2365
  586TMC3    H2 8746   4.549   1.441  17.124  3.5643 -0.1441  0.8094
  586TMC3    C7 8747   4.297   1.467  17.184  0.1274 -0.1420  0.2856
  586TMC3    C8 8748   0.022   1.620  17.169 -0.2858 -0.4158 -0.4557
  586TMC3    O1 8749   4.311   1.348  17.173 -0.8156  0.5339  0.3763
  586TMC3    O2 8750   0.109   1.680  17.232  0.2990 -0.0293 -0.2311
  587TMC3    C1 8751   2.150   0.582  15.842  0.0756  0.5685  0.2192
  587TMC3    C2 8752   2.169   0.618  15.974  0.8924  0.3632 -0.7069
  587TMC3    C3 8753   2.293   0.586  16.026  0.5879 -0.7668 -0.4647
  587TMC3    C4 8754   2.242   0.512  15.766 -0.4234 -0.7803  0.3633
  587TMC3    C5 8755   2.357   0.472  15.829  0.3499 -0.3766  0.3530
  587TMC3    C6 8756   2.386   0.511  15.959  0.0965 -0.1890 -0.7407
  587TMC3     C 8757   2.022   0.614  15.774 -0.1059  0.3219 -0.0309
  587TMC3     O 8758   2.020   0.618  15.651  0.1393 -0.2213  0.2069
  587TMC3     H 8759   2.096   0.675  16.030 -0.8333  0.0013 -2.5795
  587TMC3    H1 8760   2.220   0.483  15.664  0.0906 -0.2726  0.1160
  587TMC3    H2 8761   2.483   0.480  15.996 -1.5564 -1.1225  2.7949
  587TMC3    C7 8762   2.413   0.338  15.793 -0.3166 -0.0070  0.3536
  587TMC3    C8 8763   2.324   0.605  16.160 -0.2693  0.6617 -0.3772
  587TMC3    O1 8764   2.517   0.310  15.848  0.6490 -0.1166  0.4930
  587TMC3    O2 8765   2.408   0.536  16.211 -0.0691  0.3645  0.3313
  588TMC3    C1 8766   4.293   2.944   9.809  0.1780 -0.2472  0.0035
  588TMC3    C2 8767   4.261   2.819   9.812  0.0732 -0.0717  0.2819
  588TMC3    C3 8768   4.360   2.732   9.775  0.0563  0.3218  0.1639
  588TMC3    C4 8769   4.416   2.983   9.770 -0.3985  1.0444 -0.0878
  588TMC3    C5 8770   4.514   2.899   9.722 -0.3452 -0.1250 -1.1355
  588TMC3    C6 8771   4.486   2.772   9.738 -0.3364 -0.7223 -0.6560
  588TMC3     C 8772   4.198   3.048   9.868 -0.7476  0.3371 -0.3725
  588TMC3     O 8773   4.077   3.051   9.837 -1.1845 -0.1398 -0.8410
  588TMC3     H 8774   4.161   2.779   9.823 -0.7244  2.6816  3.0107
  588TMC3    H1 8775   4.442   3.089   9.769 -3.0023  1.6626 -1.9682
  588TMC3    H2 8776   4.559   2.699   9.705 -0.0464 -0.9216  0.4330
  588TMC3    C7 8777   4.651   2.942   9.703 -0.4746 -0.4904  0.7382
  588TMC3    C8 8778   4.324   2.592   9.754  0.1822 -0.3517  0.4617
  588TMC3    O1 8779   4.736   2.858   9.685  0.6051 -0.1647  0.5474
  588TMC3    O2 8780   4.206   2.566   9.736 -0.3847 -0.1175  0.2930
  589TMC3    C1 8781   4.116   0.897   0.988  0.0128  0.0562 -1.0930
  589TMC3    C2 8782   4.237   0.868   1.046  0.8012  0.0815 -0.1677
  589TMC3    C3 8783   4.311   0.779   0.975 -0.2239  0.1685  0.1075
  589TMC3    C4 8784   4.061   0.835   0.882  0.0854 -0.6456  0.6724
  589TMC3    C5 8785   4.139   0.750   0.809 -0.0542  1.3345 -1.0540
  589TMC3    C6 8786   4.267   0.728   0.854 -0.6527 -0.2365 -0.6520
  589TMC3     C 8787   4.022   0.980   1.070  0.7816  0.1739 -0.2946
  589TMC3     O 8788   3.910   1.001   1.025  0.3971 -0.1930  0.8930
  589TMC3     H 8789   4.268   0.904   1.144 -0.8325  1.6188 -0.2273
  589TMC3    H1 8790   3.955   0.847   0.861  0.6105 -0.1230 -1.7058
  589TMC3    H2 8791   4.324   0.654   0.798 -0.8745 -1.5899  0.9203
  589TMC3    C7 8792   4.092   0.675   0.690 -0.4503 -0.4507 -0.0904
  589TMC3    C8 8793   4.441   0.732   1.028 -0.3985  0.2975  0.0942
  589TMC3    O1 8794   4.172   0.628   0.610 -0.0153  0.4749 -0.0816
  589TMC3    O2 8795   4.452   0.735   1.151  0.5713  0.1397 -0.1449
  590MPD2     C 8796   3.152   3.328  16.520 -0.1028  0.3108  0.4813
  590MPD2    C1 8797   3.127   3.319  16.382 -0.7705 -0.0057 -0.4582
  590MPD2    C2 8798   3.182   3.417  16.303  0.6559 -0.2607 -0.4314
  590MPD2    C3 8799   3.263   3.515  16.356 -0.7442  0.3666  0.7969
  590MPD2    C4 8800   3.296   3.518  16.489  0.2244  0.5672  0.3665
  590MPD2    C5 8801   3.242   3.418  16.567  0.7478  0.3536  0.4070
  590MPD2     H 8802   3.154   3.426  16.199  3.9522  0.5703 -1.2394
  590MPD2    H1 8803   3.363   3.589  16.536 -0.8403  0.8293  1.5130
  590MPD2    H2 8804   3.110   3.254  16.588 -0.9593  1.4325  1.1757
  590MPD2    H3 8805   3.266   3.429  16.673  0.3857  0.5660  0.4658
  590MPD2     N 8806   3.305   3.612  16.272  0.3471  0.1737 -0.4272
  590MPD2    H5 8807   3.287   3.586  16.176 -0.0272  2.9373 -1.0899
  590MPD2    N1 8808   3.002   3.261  16.335 -0.8556  0.4604 -0.8139
  590MPD2    H7 8809   2.933   3.230  16.403 -0.1804 -1.2864 -0.9290
  591TMC3    C1 8810   3.396   3.817  16.188  0.4858  0.0006  0.2666
  591TMC3    C2 8811   3.371   3.758  16.064 -0.4562 -0.3892  0.0111
  591TMC3    C3 8812   3.332   3.842  15.962 -0.3935  0.2660  0.0226
  591TMC3    C4 8813   3.373   3.949  16.205  1.0095  0.4071  0.6435
  591TMC3    C5 8814   3.322   4.023  16.106  0.3959  0.0014 -0.0065
  591TMC3    C6 8815   3.294   3.967  15.988 -0.5297 -0.1190 -0.0144
  591TMC3     C 8816   3.376   3.726  16.305 -0.5221 -0.2547  0.0981
  591TMC3     O 8817   3.415   3.770  16.414 -0.2897 -0.1003  0.1883
  591TMC3     H 8818   3.399   3.657  16.040  1.0381 -0.1102  0.6076
  591TMC3    H1 8819   3.374   3.993  16.305  2.5689 -0.1614  0.8792
  591TMC3    H2 8820   3.244   4.031  15.916  1.2192 -1.4331 -2.4129
  591TMC3    C7 8821   3.214   4.101  16.147 -0.2298 -0.7191 -0.6832
  591TMC3    C8 8822   3.301   3.777  15.836 -0.3486 -0.0858 -0.3751
  591TMC3    O1 8823   3.114   4.044  16.183 -0.4602 -0.2016  0.3306
  591TMC3    O2 8824   3.277   3.659  15.849 -0.5061 -0.3411 -0.1737
  592MPD2     C 8825   3.724   0.996  11.117 -0.0192  0.4438  0.2163
  592MPD2    C1 8826   3.705   1.074  11.228  0.8267 -0.5822 -1.1430
  592MPD2    C2 8827   3.574   1.094  11.277 -0.0369 -0.5416  1.0054
  592MPD2    C3 8828   3.462   1.033  11.219 -0.3126 -0.7514  0.0789
  592MPD2    C4 8829   3.485   0.946  11.105 -0.3129  0.7026  0.4218
  592MPD2    C5 8830   3.617   0.931  11.055 -0.2573  0.5042  0.6663
  592MPD2     H 8831   3.569   1.159  11.363 -1.6961 -0.8834  1.1590
  592MPD2    H1 8832   3.410   0.889  11.053 -0.8023  0.9985  0.8048
  592MPD2    H2 8833   3.827   0.990  11.084 -0.3837  0.6602 -0.9366
  592MPD2    H3 8834   3.646   0.864  10.976 -0.8150 -0.7551  1.5278
  592MPD2     N 8835   3.335   1.046  11.277  0.5872 -0.1524  0.2516
  592MPD2    H5 8836   3.316   1.131  11.329 -0.4517 -0.1172 -0.2020
  592MPD2    N1 8837   3.822   1.136  11.278  0.9495  0.8092  0.4976
  592MPD2    H7 8838   3.903   1.134  11.217 -0.1078  0.3248 -0.8834
  593TMC3    C1 8839   3.954   1.284  11.399  0.1720 -0.8792  0.2341
  593TMC3    C2 8840   3.988   1.330  11.528 -0.2678  0.4528 -0.6232
  593TMC3    C3 8841   4.108   1.399  11.534 -0.5354 -0.2373 -0.2159
  593TMC3    C4 8842   4.042   1.305  11.295 -0.2225 -0.5934 -0.2984
  593TMC3    C5 8843   4.169   1.363  11.317  0.0123  0.2307  1.1768
  593TMC3    C6 8844   4.202   1.410  11.440  1.1808 -0.1777 -0.1899
  593TMC3     C 8845   3.826   1.220  11.385 -0.0567  0.9053 -0.4412
  593TMC3     O 8846   3.741   1.242  11.473  0.4047  0.0178  0.3107
  593TMC3     H 8847   3.920   1.318  11.612 -0.1414  1.8584 -0.3224
  593TMC3    H1 8848   4.009   1.286  11.193  1.0209  0.1880 -0.8469
  593TMC3    H2 8849   4.286   1.476  11.459 -0.3919  1.3176  1.5248
  593TMC3    C7 8850   4.232   1.416  11.198 -0.1442 -0.0351  0.3420
  593TMC3    C8 8851   4.121   1.480  11.653  0.0319 -0.1503  0.8013
  593TMC3    O1 8852   4.184   1.395  11.086  1.0500 -0.4663 -0.0073
  593TMC3    O2 8853   4.012   1.515  11.700  0.0803 -0.5409 -0.3569
  594MPD2     C 8854   2.238   4.708  13.947  0.0468  0.1746 -0.5990
  594MPD2    C1 8855   2.256   4.730  14.076  0.6269  0.0307 -0.5221
  594MPD2    C2 8856   2.366   0.060  14.127 -0.0561 -0.2074 -0.0336
  594MPD2    C3 8857   2.470   0.101  14.033 -0.0516 -0.7698 -0.3897
  594MPD2    C4 8858   2.456   0.062  13.897 -0.3883 -0.3050  0.2150
  594MPD2    C5 8859   2.342   0.001  13.856  0.5036  0.4812  0.2800
  594MPD2     H 8860   2.365   0.080  14.234  0.6518 -0.1444 -0.0424
  594MPD2    H1 8861   2.532   0.083  13.823  1.2092 -0.8473  1.6940
  594MPD2    H2 8862   2.155   4.646  13.916 -0.5871  0.6755  0.1068
  594MPD2    H3 8863   2.338   4.715  13.750 -3.1633 -0.5048  0.6400
  594MPD2     N 8864   2.583   0.175  14.081  0.4751  0.2518  0.3444
  594MPD2    H5 8865   2.584   0.229  14.167 -0.2226  0.0839  0.4531
  594MPD2    N1 8866   2.151   4.681  14.160  0.3720 -0.3309 -0.6474
  594MPD2    H7 8867   2.059   4.663  14.123  0.9100  0.4336 -2.3578
  595TMC3    C1 8868   2.991   0.403  14.092 -0.8550 -0.7448  0.1134
  595TMC3    C2 8869   2.919   0.297  14.036  0.3323 -0.1598  0.2102
  595TMC3    C3 8870   2.786   0.299  14.051 -0.0661 -0.3130 -1.1667
  595TMC3    C4 8871   2.927   0.510  14.150 -0.1913 -0.1536  0.1317
  595TMC3    C5 8872   2.796   0.516  14.145 -0.1139  0.4273 -0.2680
  595TMC3    C6 8873   2.727   0.412  14.093 -0.4293  0.4700  0.4479
  595TMC3     C 8874   3.124   0.380  14.144 -0.3186 -0.5527  0.0966
  595TMC3     O 8875   3.167   0.458  14.222 -0.2008 -0.2377  0.1166
  595TMC3     H 8876   2.973   0.212  13.998  4.3036  2.2644  0.4762
  595TMC3    H1 8877   2.990   0.594  14.178 -0.7625  0.0996  0.6670
  595TMC3    H2 8878   2.620   0.422  14.108 -0.4445 -0.1164  0.7296
  595TMC3    C7 8879   2.733   0.597  14.244 -0.2009 -0.0401  0.1649
  595TMC3    C8 8880   2.697   0.188  14.004 -0.1698  0.3489  0.1730
  595TMC3    O1 8881   2.622   0.644  14.216 -0.0875 -0.2941  0.1536
  595TMC3    O2 8882   2.741   0.120  13.914  0.0361 -0.6166  0.0554
  596MPD2     C 8883   1.545   2.510  16.622  0.2494 -0.2266 -0.6938
  596MPD2    C1 8884   1.520   2.637  16.570  0.5917  0.2123 -0.9320
  596MPD2    C2 8885   1.511   2.662  16.439 -0.6102  0.4360 -0.0440
  596MPD2    C3 8886   1.525   2.557  16.351 -0.1212  0.0147  0.4189
  596MPD2    C4 8887   1.562   2.433  16.400 -0.4352 -0.3238  0.3938
  596MPD2    C5 8888   1.573   2.407  16.537  0.2008  0.2693  0.5385
  596MPD2     H 8889   1.472   2.761  16.417 -0.7447  0.6015  0.9297
  596MPD2    H1 8890   1.565   2.352  16.329 -0.9334  0.9951 -1.1401
  596MPD2    H2 8891   1.545   2.494  16.730  0.1171 -1.1623 -0.8367
  596MPD2    H3 8892   1.579   2.312  16.588  2.9500  0.7697  1.1382
  596MPD2     N 8893   1.502   2.563  16.219 -0.1299  0.3423  0.4890
  596MPD2    H5 8894   1.518   2.473  16.173 -0.1500 -1.0766  3.2813
  596MPD2    N1 8895   1.511   2.754  16.650  0.1955  0.2159 -0.3561
  596MPD2    H7 8896   1.500   2.841  16.600  0.0829  2.3305  3.3714
  597TMC3    C1 8897   1.510   2.897  16.834  0.2074  0.4325  0.4015
  597TMC3    C2 8898   1.570   2.989  16.756  0.1225  0.1816  0.1483
  597TMC3    C3 8899   1.543   3.115  16.781 -0.0141  0.5731 -0.2212
  597TMC3    C4 8900   1.422   2.925  16.931 -0.3507 -0.4529 -0.0825
  597TMC3    C5 8901   1.392   3.060  16.941 -0.6115 -0.8723 -0.0745
  597TMC3    C6 8902   1.455   3.154  16.868  0.4260 -0.5415 -0.1643
  597TMC3     C 8903   1.505   2.761  16.789 -0.3079  0.2968  0.1059
  597TMC3     O 8904   1.501   2.679  16.876  0.1384 -0.3386  0.0360
  597TMC3     H 8905   1.657   2.958  16.699  1.0629  0.8260  1.2383
  597TMC3    H1 8906   1.366   2.848  16.983 -0.9318  0.3769  0.5236
  597TMC3    H2 8907   1.452   3.260  16.893  0.2192 -1.7239  4.8502
  597TMC3    C7 8908   1.258   3.093  16.985  0.5213 -0.5680 -0.2782
  597TMC3    C8 8909   1.635   3.212  16.721  0.5677  0.7266 -0.2004
  597TMC3    O1 8910   1.195   2.998  17.029 -0.6425  0.4040 -0.3403
  597TMC3    O2 8911   1.620   3.325  16.766  0.4665  0.3346  0.1648
  598TMC3    C1 8912   4.456   4.051  15.444 -1.0081 -0.0798  0.4156
  598TMC3    C2 8913   4.388   3.936  15.423 -0.7247  0.0565 -0.0599
  598TMC3    C3 8914   4.300   3.932  15.323 -0.1860  0.2509  0.1825
  598TMC3    C4 8915   4.436   4.167  15.371 -0.4025  0.8153 -0.2721
  598TMC3    C5 8916   4.345   4.157  15.269  0.0967 -0.4426  0.2773
  598TMC3    C6 8917   4.272   4.043  15.247 -0.1928 -0.0568 -0.1386
  598TMC3     C 8918   4.574   4.056  15.534 -0.6747  0.5647 -0.5846
  598TMC3     O 8919   4.608   4.172  15.568 -0.0655 -0.1863  0.7309
  598TMC3     H 8920   4.401   3.844  15.478 -2.1886 -0.3687 -0.4461
  598TMC3    H1 8921   4.491   4.260  15.385 -0.9946  1.2883 -1.0604
  598TMC3    H2 8922   4.208   4.039  15.159 -0.7379  1.7946  0.1686
  598TMC3    C7 8923   4.396   4.213  15.140 -0.1369 -0.5644  0.2603
  598TMC3    C8 8924   4.222   3.810  15.299 -0.0878  0.0196 -0.5965
  598TMC3    O1 8925   4.364   4.138  15.049  0.0793  0.0485  0.9335
  598TMC3    O2 8926   4.204   3.745  15.399  0.2039  0.9625 -0.1672
  599MPD2     C 8927   4.435   1.785  15.595  0.3002 -0.1934  0.8235
  599MPD2    C1 8928   4.380   1.658  15.592  0.1427 -0.3166 -1.2419
  599MPD2    C2 8929   4.253   1.648  15.644  0.2758  0.1276  0.6767
  599MPD2    C3 8930   4.179   1.752  15.699  0.3811 -0.4790 -0.6861
  599MPD2    C4 8931   4.231   1.877  15.691 -0.0824  0.9079  0.1140
  599MPD2    C5 8932   4.359   1.890  15.642  0.1166  0.1287  0.0460
  599MPD2     H 8933   4.206   1.551  15.634  0.4482 -0.0092  1.1938
  599MPD2    H1 8934   4.171   1.958  15.731  0.3549  1.1101  0.3557
  599MPD2    H2 8935   4.532   1.798  15.547 -0.0159  1.9696  0.7584
  599MPD2    H3 8936   4.409   1.986  15.640 -0.1849  0.2406 -1.8338
  599MPD2     N 8937   4.055   1.734  15.769  0.0470  0.7601 -0.0394
  599MPD2    H5 8938   4.020   1.815  15.820 -0.3625 -0.4583  1.5959
  599MPD2    N1 8939   4.461   1.552  15.530 -0.2557 -1.2642 -0.3419
  599MPD2    H7 8940   4.556   1.583  15.512 -0.6530  1.5367  2.2572
  600TMC3    C1 8941   3.876   1.634  15.876 -0.0264  0.2524  0.2024
  600TMC3    C2 8942   3.797   1.530  15.904  0.6020 -0.4780 -0.4590
  600TMC3    C3 8943   3.755   1.503  16.032 -0.7795 -0.0940 -0.0377
  600TMC3    C4 8944   3.905   1.723  15.981 -0.1054  0.3247 -0.4706
  600TMC3    C5 8945   3.866   1.693  16.108  0.5127  1.0298 -0.0061
  600TMC3    C6 8946   3.785   1.585  16.131  0.6800 -0.1151  0.3118
  600TMC3     C 8947   3.969   1.629  15.768 -0.4922  0.2536 -0.6877
  600TMC3     O 8948   3.986   1.521  15.712  0.3823  0.1025  0.3855
  600TMC3     H 8949   3.782   1.464  15.819 -1.2065  1.2486 -1.4755
  600TMC3    H1 8950   3.947   1.822  15.967  1.2967  0.0063  1.4479
  600TMC3    H2 8951   3.745   1.563  16.230 -1.8333 -2.0365 -1.1237
  600TMC3    C7 8952   3.893   1.767  16.228 -1.0275 -0.0909 -0.2921
  600TMC3    C8 8953   3.673   1.388  16.064  0.7106 -0.6641 -0.1082
  600TMC3    O1 8954   3.812   1.752  16.318  0.2121  0.5688  0.4519
  600TMC3    O2 8955   3.671   1.364  16.185 -0.1025 -0.3185  0.4785
  601MPD2     C 8956   2.056   4.436  17.241  0.1629 -0.0026 -0.3582
  601MPD2    C1 8957   1.993   4.550  17.289  0.2843 -0.0234 -0.6814
  601MPD2    C2 8958   1.959   4.560  17.427 -0.1237 -0.3012 -0.3693
  601MPD2    C3 8959   1.995   4.456  17.513 -0.9861 -0.1173 -0.3939
  601MPD2    C4 8960   2.055   4.338  17.464 -0.5944  0.1920  0.5039
  601MPD2    C5 8961   2.077   4.329  17.325  0.4342  1.3776 -0.5047
  601MPD2     H 8962   1.899   4.649  17.444  0.9434  0.4015 -0.3084
  601MPD2    H1 8963   2.088   4.258  17.529  1.7876  0.2398 -0.6305
  601MPD2    H2 8964   2.099   4.424  17.142 -0.3488 -1.0084 -0.4586
  601MPD2    H3 8965   2.121   4.240  17.281 -0.9546  0.7220 -0.5797
  601MPD2     N 8966   1.959   4.466  17.653  0.3844  0.0976  0.4427
  601MPD2    H5 8967   1.986   4.389  17.714  0.6841  0.6807  1.0490
  601MPD2    N1 8968   1.964   4.667  17.213 -0.2383 -0.6193 -0.2773
  601MPD2    H7 8969   1.909   0.004  17.256 -0.0271  0.8674 -2.5468
  602TMC3    C1 8970   1.922   0.064  17.024  0.2472 -0.0558 -0.2728
  602TMC3    C2 8971   1.823   0.136  17.098 -0.9711  0.6178  0.0878
  602TMC3    C3 8972   1.729   0.206  17.031  0.6455  0.5233  1.2590
  602TMC3    C4 8973   1.902   0.057  16.891  0.3607  0.1889  0.3187
  602TMC3    C5 8974   1.802   0.131  16.827 -0.4012 -0.8477  0.1246
  602TMC3    C6 8975   1.711   0.199  16.897  0.7183 -0.5668  0.0107
  602TMC3     C 8976   1.971   4.671  17.079  0.0634 -0.4907  0.5068
  602TMC3     O 8977   1.981   4.576  17.000 -0.1362  0.1047  0.4722
  602TMC3     H 8978   1.841   0.154  17.204  0.3149  2.2632 -0.4071
  602TMC3    H1 8979   1.980   0.008  16.833  2.3558  0.0087  3.1483
  602TMC3    H2 8980   1.613   0.225  16.858  1.6283  1.3132 -1.0086
  602TMC3    C7 8981   1.798   0.154  16.685  0.4712 -0.2678 -0.5177
  602TMC3    C8 8982   1.651   0.302  17.107 -0.7411 -0.0467  0.2167
  602TMC3    O1 8983   1.873   0.089  16.614 -0.2334 -0.2367  1.0681
  602TMC3    O2 8984   1.651   0.300  17.231  0.0665  0.6124 -0.0150
  603TMC3    C1 8985   4.400   0.505  10.842 -0.3803  0.1957  0.9112
  603TMC3    C2 8986   4.444   0.448  10.959  0.0068 -0.3190 -0.1393
  603TMC3    C3 8987   4.539   0.512  11.026  0.1132  0.4085  0.3171
  603TMC3    C4 8988   4.462   0.614  10.790  0.3649  0.1036  0.1203
  603TMC3    C5 8989   4.560   0.675  10.859  0.4696  0.1786  0.5818
  603TMC3    C6 8990   4.594   0.631  10.985 -0.1319  0.3503 -0.0411
  603TMC3     C 8991   4.299   0.441  10.758  0.8940  0.6527 -0.2214
  603TMC3     O 8992   4.285   0.478  10.642 -0.1125 -0.6380 -0.4944
  603TMC3     H 8993   4.402   0.359  11.005  0.0505 -1.6616 -2.6904
  603TMC3    H1 8994   4.418   0.662  10.703 -0.6575 -0.0208  0.5656
  603TMC3    H2 8995   4.681   0.679  11.028 -1.1467  1.2456  1.0209
  603TMC3    C7 8996   4.672   0.740  10.786  0.0548 -0.2596  0.4097
  603TMC3    C8 8997   4.586   0.462  11.154 -0.4759  0.3545 -0.7323
  603TMC3    O1 8998   0.030   0.783  10.849  0.4577 -0.5390 -0.2805
  603TMC3    O2 8999   4.560   0.344  11.183  0.3665 -0.5254 -0.8188
  604MPD2     C 9000   0.594   3.550  15.864 -0.3685  0.0535 -0.7269
  604MPD2    C1 9001   0.628   3.664  15.934  0.6782  0.5557 -0.3805
  604MPD2    C2 9002   0.737   3.737  15.900 -0.4235 -0.0055  0.2672
  604MPD2    C3 9003   0.820   3.684  15.794 -0.0199  0.1673 -0.2046
  604MPD2    C4 9004   0.784   3.566  15.729 -0.2145  0.1556 -0.3187
  604MPD2    C5 9005   0.678   3.498  15.769  0.0259 -0.1578  0.2497
  604MPD2     H 9006   0.757   3.829  15.952  0.8637 -0.6464  0.9277
  604MPD2    H1 9007   0.844   3.523  15.649 -0.2328  1.0816 -0.8388
  604MPD2    H2 9008   0.505   3.494  15.893 -1.2790  0.0884 -3.4932
  604MPD2    H3 9009   0.640   3.405  15.727 -1.8581 -0.9851  3.7594
  604MPD2     N 9010   0.930   3.768  15.758 -0.6846 -0.3472  0.1495
  604MPD2    H5 9011   0.939   3.862  15.796  0.1600 -0.3828  0.0360
  604MPD2    N1 9012   0.539   3.719  16.034 -0.0723  0.2652  0.4471
  604MPD2    H7 9013   0.447   3.679  16.043  0.2266 -0.3184  0.9636
  605TMC3    C1 9014   0.462   3.847  16.220  0.3432 -0.2017 -1.1101
  605TMC3    C2 9015   0.507   3.907  16.335  0.1032 -1.0395  0.9226
  605TMC3    C3 9016   0.431   4.002  16.396 -0.3406  0.1809  0.2854
  605TMC3    C4 9017   0.339   3.882  16.167  0.4856  0.3210 -0.4275
  605TMC3    C5 9018   0.288   4.001  16.204 -0.5709 -0.1824  0.7633
  605TMC3    C6 9019   0.329   4.060  16.323  0.3069 -0.4361 -0.1198
  605TMC3     C 9020   0.572   3.815  16.128  0.1900  0.6562  0.2627
  605TMC3     O 9021   0.681   3.869  16.154 -0.4751 -0.0222 -0.1299
  605TMC3     H 9022   0.603   3.881  16.377  1.3660  0.6576 -0.8929
  605TMC3    H1 9023   0.314   3.845  16.068  2.1495 -1.7901 -0.0645
  605TMC3    H2 9024   0.276   4.147  16.359  1.5130 -0.3292  1.3725
  605TMC3    C7 9025   0.165   4.059  16.147  0.0792  0.4136 -0.0391
  605TMC3    C8 9026   0.501   4.074  16.501 -0.0406  0.2268  0.5886
  605TMC3    O1 9027   0.161   4.178  16.151  0.0091 -0.4959 -0.1337
  605TMC3    O2 9028   0.459   4.050  16.614 -0.3641  0.1531  0.2191
  606TMC3    C1 9029   1.540   2.510  17.463 -0.7132 -0.6638 -0.0288
  606TMC3    C2 9030   1.670   2.485  17.495 -0.3690  0.2614  0.5368
  606TMC3    C3 9031   1.697   2.362  17.549  0.7312  0.0116  0.2720
  606TMC3    C4 9032   1.436   2.420  17.481 -0.5301  0.3518  0.3544
  606TMC3    C5 9033   1.470   2.304  17.542 -0.0606 -0.4578  0.1999
  606TMC3    C6 9034   1.596   2.269  17.578 -0.8200  0.2479  0.3261
  606TMC3     C 9035   1.501   2.649  17.438 -0.2444 -0.0554 -0.3569
  606TMC3     O 9036   1.387   2.674  17.469  0.0499 -0.8160  0.2211
  606TMC3     H 9037   1.755   2.552  17.489  0.4031 -0.6679  0.9231
  606TMC3    H1 9038   1.332   2.447  17.465 -0.7273 -0.0453  0.9447
  606TMC3    H2 9039   1.607   2.166  17.608  2.1237 -0.1859 -2.2269
  606TMC3    C7 9040   1.361   2.223  17.598  0.3967 -0.1441  0.7338
  606TMC3    C8 9041   1.836   2.328  17.580  0.4542  0.2624  0.2270
  606TMC3    O1 9042   1.389   2.155  17.696 -0.2703  0.1128 -0.0072
  606TMC3    O2 9043   1.918   2.410  17.548 -0.4438 -1.4077  0.0621
  607MPD2     C 9044   3.680   0.377  11.346 -0.2304  0.0378  0.1205
  607MPD2    C1 9045   3.684   0.466  11.455 -0.5533 -0.1619 -0.4096
  607MPD2    C2 9046   3.650   0.421  11.578  0.2603 -0.5881 -0.4088
  607MPD2    C3 9047   3.609   0.291  11.598 -0.5075  1.1428  0.5181
  607MPD2    C4 9048   3.615   0.205  11.496  0.0014 -0.0266 -0.4027
  607MPD2    C5 9049   3.650   0.247  11.370 -0.3327 -0.3738  0.5136
  607MPD2     H 9050   3.676   0.475  11.668  0.0093 -1.1209 -0.0131
  607MPD2    H1 9051   3.582   0.103  11.509  0.4342 -0.4512 -2.6729
  607MPD2    H2 9052   3.695   0.398  11.241 -2.1944  1.2155  0.0587
  607MPD2    H3 9053   3.654   0.171  11.292 -1.4132 -0.0577  0.1438
  607MPD2     N 9054   3.588   0.253  11.732 -0.3892 -0.5156  0.6566
  607MPD2    H5 9055   3.611   0.325  11.800  2.7059 -1.9760  1.1666
  607MPD2    N1 9056   3.738   0.599  11.454  0.0091 -0.1578 -0.6412
  607MPD2    H7 9057   3.737   0.645  11.545 -3.2046 -0.0428 -0.7349
  608TMC3    C1 9058   3.858   0.783  11.378 -0.7788 -0.0193 -0.2431
  608TMC3    C2 9059   3.840   0.843  11.498  0.2769 -0.2159  1.0859
  608TMC3    C3 9060   3.932   0.935  11.546  0.2062  0.0097  0.6463
  608TMC3    C4 9061   3.960   0.816  11.298 -0.1840 -0.0563 -0.1414
  608TMC3    C5 9062   4.059   0.906  11.346 -0.2131  0.2037 -0.4953
  608TMC3    C6 9063   4.045   0.965  11.471 -0.0463  0.0960 -0.2898
  608TMC3     C 9064   3.791   0.662  11.345 -0.1330 -0.4822  0.1875
  608TMC3     O 9065   3.805   0.617  11.230 -0.2326 -0.5159  0.2730
  608TMC3     H 9066   3.745   0.834  11.549  0.4003 -2.7952  0.8597
  608TMC3    H1 9067   3.964   0.771  11.199 -0.3830 -0.6675  0.1310
  608TMC3    H2 9068   4.124   1.027  11.513 -1.5199  1.1906  0.8308
  608TMC3    C7 9069   4.153   0.951  11.240 -0.4203 -0.5934  0.1291
  608TMC3    C8 9070   3.938   0.960  11.687  0.4635  0.3259  0.3905
  608TMC3    O1 9071   4.157   0.888  11.137 -0.4188 -0.2547 -0.1928
  608TMC3    O2 9072   4.016   1.046  11.729 -0.7146  0.7780 -0.0724
  609TMC3    C1 9073   2.598   4.254   8.852 -0.0628 -0.5748  0.1451
  609TMC3    C2 9074   2.597   4.231   8.718  0.1390  0.2623  0.3971
  609TMC3    C3 9075   2.719   4.208   8.652 -0.6635 -0.9707  0.0261
  609TMC3    C4 9076   2.715   4.243   8.926 -0.1108 -0.3372  0.1928
  609TMC3    C5 9077   2.827   4.203   8.859 -0.4150  0.5309  0.0097
  609TMC3    C6 9078   2.833   4.186   8.722 -0.0133 -0.4833 -0.5598
  609TMC3     C 9079   2.472   4.273   8.924 -0.1152 -0.0394 -0.1620
  609TMC3     O 9080   2.477   4.264   9.047  0.6182  0.0442  0.2375
  609TMC3     H 9081   2.504   4.235   8.663  0.9805 -0.1798 -1.0513
  609TMC3    H1 9082   2.718   4.250   9.034 -1.1255 -0.3506  0.2258
  609TMC3    H2 9083   2.927   4.152   8.679 -0.3278 -1.3163 -0.5946
  609TMC3    C7 9084   2.937   4.156   8.953 -0.4982  0.2772  0.4150
  609TMC3    C8 9085   2.729   4.194   8.516  0.0553  0.6456  0.3356
  609TMC3    O1 9086   2.946   4.202   9.064 -0.6178  0.0856 -0.0713
  609TMC3    O2 9087   2.835   4.158   8.462  0.1082  0.1426 -0.3899
  610TMC3    C1 9088   4.224   0.574  12.423 -0.3674 -0.1250 -0.2773
  610TMC3    C2 9089   4.200   0.596  12.288 -0.3047  0.1176 -0.7274
  610TMC3    C3 9090   4.193   0.481  12.207  0.2786  0.9710  0.2940
  610TMC3    C4 9091   4.221   0.457  12.477 -0.2901  0.2707  0.5953
  610TMC3    C5 9092   4.201   0.344  12.400 -0.4250 -0.3710 -0.8393
  610TMC3    C6 9093   4.195   0.355  12.257  0.1416  0.0636  0.4527
  610TMC3     C 9094   4.222   0.698  12.499 -0.0951 -0.9062 -0.0457
  610TMC3     O 9095   4.264   0.800  12.448 -0.4365  0.0664  0.6346
  610TMC3     H 9096   4.217   0.693  12.243  1.3652 -0.9298 -2.3560
  610TMC3    H1 9097   4.258   0.447  12.578  0.3986 -1.5899  0.1535
  610TMC3    H2 9098   4.212   0.270  12.193 -1.6744  0.8987 -1.1511
  610TMC3    C7 9099   4.235   0.221  12.465  0.7700 -1.1355  1.0529
  610TMC3    C8 9100   4.170   0.508  12.071  0.1628  0.2201 -0.1123
  610TMC3    O1 9101   4.266   0.222  12.582  0.5274 -0.2557  0.6769
  610TMC3    O2 9102   4.196   0.620  12.031 -0.5449 -0.2884  0.0228
  611MPD2     C 9103   3.959   0.523   9.982  0.1671  0.5943 -0.4956
  611MPD2    C1 9104   3.940   0.649   9.931  0.7641  0.2481 -0.4158
  611MPD2    C2 9105   4.042   0.745   9.926 -0.3255 -0.3998 -0.1497
  611MPD2    C3 9106   4.168   0.704   9.969  0.0073 -0.1345  0.0881
  611MPD2    C4 9107   4.182   0.590  10.040  0.5982  0.3732  0.4130
  611MPD2    C5 9108   4.083   0.492  10.037  0.4942 -0.8324  0.4114
  611MPD2     H 9109   4.031   0.846   9.887  1.5911 -0.6147 -1.2539
  611MPD2    H1 9110   4.278   0.555  10.076  0.1030 -0.1041  1.2565
  611MPD2    H2 9111   3.880   0.449   9.978  0.5758  0.1675 -0.7373
  611MPD2    H3 9112   4.102   0.395  10.081  2.0033 -0.1452  1.2545
  611MPD2     N 9113   4.283   0.786   9.960  0.2526 -0.0831  0.3455
  611MPD2    H5 9114   4.365   0.760  10.014  0.7663  0.2152 -0.2883
  611MPD2    N1 9115   3.813   0.670   9.880  0.4928  0.0601 -0.2481
  611MPD2    H7 9116   3.745   0.595   9.889  1.0289 -0.2306  1.2085
  612TMC3    C1 9117   4.393   0.978   9.883  0.0013 -0.3482  0.2640
  612TMC3    C2 9118   4.463   0.986  10.004  0.1916 -0.0234 -0.1327
  612TMC3    C3 9119   4.574   1.067  10.013 -0.2280 -0.0458 -0.1362
  612TMC3    C4 9120   4.430   1.066   9.785  0.4564  0.0758  0.8527
  612TMC3    C5 9121   4.535   1.141   9.801 -0.2942  0.1895 -0.8561
  612TMC3    C6 9122   4.615   1.146   9.908  0.4229  0.1410  0.4019
  612TMC3     C 9123   4.274   0.894   9.878 -0.6204  0.5032  0.0087
  612TMC3     O 9124   4.204   0.922   9.781 -0.5898  0.4442 -0.5029
  612TMC3     H 9125   4.430   0.928  10.089  1.1831  0.7626  0.7758
  612TMC3    H1 9126   4.362   1.089   9.704 -0.2862 -0.0259  1.4462
  612TMC3    H2 9127   4.710   1.199   9.906 -0.1352  1.2116  2.5053
  612TMC3    C7 9128   4.584   1.216   9.685 -0.6760  0.2925 -0.5611
  612TMC3    C8 9129   4.661   1.072  10.130 -0.5054 -0.2583 -0.4980
  612TMC3    O1 9130   4.536   1.169   9.582  0.2483  0.3953 -0.2232
  612TMC3    O2 9131   0.015   1.154  10.129 -0.2856 -0.0843 -0.0994
  613MPD2     C 9132   2.787   2.405  16.439  0.2823 -0.2457  0.0727
  613MPD2    C1 9133   2.751   2.343  16.326 -0.2284  0.1771  0.5591
  613MPD2    C2 9134   2.633   2.266  16.321  0.6453  0.8657  0.1275
  613MPD2    C3 9135   2.549   2.264  16.434  0.1681  0.8001 -0.3570
  613MPD2    C4 9136   2.579   2.345  16.542 -0.4136 -0.3025  0.3874
  613MPD2    C5 9137   2.701   2.414  16.549 -0.1244 -0.4187 -0.3733
  613MPD2     H 9138   2.615   2.202  16.235 -0.1226  0.1187  0.8476
  613MPD2    H1 9139   2.509   2.336  16.625  0.3095  2.6180  1.3029
  613MPD2    H2 9140   2.886   2.448  16.452  0.4766 -1.1267  1.5234
  613MPD2    H3 9141   2.730   2.470  16.637 -1.9314 -0.2643  0.1229
  613MPD2     N 9142   2.426   2.187  16.433  0.5017  0.4673 -0.4594
  613MPD2    H5 9143   2.370   2.192  16.518 -0.5353  0.1437 -1.1216
  613MPD2    N1 9144   2.849   2.332  16.228 -0.0623  0.1698  0.1259
  613MPD2    H7 9145   2.926   2.397  16.227  0.9496 -1.0317  0.4220
  614TMC3    C1 9146   2.928   2.277  16.007  0.2532 -0.8983 -0.2816
  614TMC3    C2 9147   2.935   2.170  15.920  0.3351 -0.5475 -0.2819
  614TMC3    C3 9148   2.913   2.193  15.783  0.3876  0.3104  0.2567
  614TMC3    C4 9149   2.912   2.404  15.954 -0.3034  0.5260  0.3570
  614TMC3    C5 9150   2.907   2.416  15.818 -0.1920  0.4392 -0.3619
  614TMC3    C6 9151   2.904   2.313  15.723 -0.1860  0.5457 -0.3511
  614TMC3     C 9152   2.845   2.244  16.124 -0.0414 -0.5542 -0.3343
  614TMC3     O 9153   2.792   2.136  16.120 -0.0005 -0.3398 -0.2780
  614TMC3     H 9154   2.946   2.069  15.956 -0.1349 -0.3571  0.4002
  614TMC3    H1 9155   2.898   2.487  16.022 -0.9211  0.8689 -0.1868
  614TMC3    H2 9156   2.867   2.325  15.622 -0.0553 -1.1284 -0.6000
  614TMC3    C7 9157   2.931   2.549  15.765  0.1359  0.2803 -0.0598
  614TMC3    C8 9158   2.821   2.093  15.729 -0.8659  0.5288  0.3043
  614TMC3    O1 9159   2.959   2.634  15.854 -0.2755 -0.0727  0.0215
  614TMC3    O2 9160   2.792   2.095  15.608 -0.4261  0.2985 -0.1428
  615MPD2     C 9161   2.335   4.071  15.393  0.0654 -0.0606  0.2444
  615MPD2    C1 9162   2.266   4.135  15.491 -0.5767  0.2206 -0.4845
  615MPD2    C2 9163   2.163   4.221  15.452 -0.0174  0.0393  0.1904
  615MPD2    C3 9164   2.144   4.249  15.318 -0.4867 -0.4010 -0.1430
  615MPD2    C4 9165   2.212   4.184  15.224 -0.6168  0.0836  0.6630
  615MPD2    C5 9166   2.315   4.100  15.258 -0.2219 -0.1003  0.4239
  615MPD2     H 9167   2.105   4.273  15.527  0.6538 -0.6669  1.1924
  615MPD2    H1 9168   2.189   4.181  15.118  1.3490  3.7827  0.1508
  615MPD2    H2 9169   2.416   4.003  15.415  0.6379  0.5467 -0.0059
  615MPD2    H3 9170   2.362   4.042  15.179  1.3575 -1.2372  2.2114
  615MPD2     N 9171   2.050   4.343  15.274 -0.3760 -0.2322  0.5137
  615MPD2    H5 9172   2.047   4.368  15.175 -0.3473 -1.0689  0.3037
  615MPD2    N1 9173   2.299   4.132  15.630 -0.1869  0.2575 -0.4857
  615MPD2    H7 9174   2.254   4.202  15.688  0.5374  0.9946 -0.8118
  616TMC3    C1 9175   2.415   4.087  15.823  0.1169  0.1412 -0.7243
  616TMC3    C2 9176   2.391   4.216  15.856  0.4702 -0.4095  0.0704
  616TMC3    C3 9177   2.390   4.239  15.990 -0.0850 -0.3770  0.0796
  616TMC3    C4 9178   2.427   3.992  15.916 -0.3353 -0.4799  0.4363
  616TMC3    C5 9179   2.426   4.024  16.049 -0.6573 -0.1075 -0.4773
  616TMC3    C6 9180   2.406   4.152  16.090  0.1851  0.3950 -0.4523
  616TMC3     C 9181   2.380   4.042  15.687 -0.2649  0.0731  0.5696
  616TMC3     O 9182   2.434   3.943  15.643  0.3591 -0.4552  0.1009
  616TMC3     H 9183   2.388   4.296  15.784  0.0593 -1.1145 -0.6929
  616TMC3    H1 9184   2.449   3.889  15.889  0.2242 -0.6168  1.4223
  616TMC3    H2 9185   2.403   4.181  16.194 -0.3568 -2.2036  0.2764
  616TMC3    C7 9186   2.471   3.931  16.151  0.4855 -0.8495  0.5413
  616TMC3    C8 9187   2.370   4.374  16.019  0.3592 -0.5909  0.0443
  616TMC3    O1 9188   2.442   3.961  16.266 -0.2954  0.1710  0.0651
  616TMC3    O2 9189   2.289   4.435  15.948  0.0699  0.1462  0.4942
  617MPD2     C 9190   0.354   2.525  13.732 -0.0978  0.2698  0.1038
  617MPD2    C1 9191   0.315   2.391  13.715 -0.3613 -0.0121 -0.4778
  617MPD2    C2 9192   0.206   2.328  13.777 -0.2699  0.7636 -0.0155
  617MPD2    C3 9193   0.131   2.417  13.852  0.3721  0.6485 -0.4887
  617MPD2    C4 9194   0.171   2.551  13.877  1.0933 -0.0987 -0.0211
  617MPD2    C5 9195   0.279   2.604  13.813 -0.1327  0.1182 -0.4420
  617MPD2     H 9196   0.195   2.222  13.759 -1.5157  1.1726 -1.6852
  617MPD2    H1 9197   0.108   2.617  13.936 -1.6676 -0.2479 -2.8001
  617MPD2    H2 9198   0.450   2.562  13.697 -0.0974 -0.4253 -0.6468
  617MPD2    H3 9199   0.299   2.710  13.822  1.7548 -0.4334  1.9980
  617MPD2     N 9200   0.012   2.376  13.917 -0.4787 -0.5145 -0.4937
  617MPD2    H5 9201   4.713   2.447  13.980 -1.4829 -0.9077 -0.6163
  617MPD2    N1 9202   0.411   2.314  13.636  0.0024 -0.1513  0.6394
  617MPD2    H7 9203   0.485   2.371  13.597  1.6218  0.0637  3.9443
  618TMC3    C1 9204   0.543   2.153  13.547  0.4977 -0.0704  0.8796
  618TMC3    C2 9205   0.534   2.049  13.453 -0.2925  0.0763 -0.8424
  618TMC3    C3 9206   0.648   2.016  13.380  0.0657 -0.0633  0.4491
  618TMC3    C4 9207   0.659   2.232  13.551  0.6132  0.7229 -0.7805
  618TMC3    C5 9208   0.765   2.201  13.473  0.8574 -0.0568  0.8794
  618TMC3    C6 9209   0.763   2.082  13.403  0.3386  0.1141 -0.1767
  618TMC3     C 9210   0.418   2.178  13.610 -0.0735 -0.2439  0.7441
  618TMC3     O 9211   0.334   2.091  13.617  0.7007  0.5176 -0.6303
  618TMC3     H 9212   0.444   1.996  13.427 -0.7989  2.3132 -3.6489
  618TMC3    H1 9213   0.675   2.313  13.621 -1.1675  0.7458 -0.3796
  618TMC3    H2 9214   0.859   2.051  13.363  0.0048 -4.8120  2.8283
  618TMC3    C7 9215   0.887   2.279  13.487  0.2502  0.3267  0.0444
  618TMC3    C8 9216   0.621   1.947  13.262  0.3907 -0.2723  0.2305
  618TMC3    O1 9217   0.914   2.316  13.598  0.0374 -0.5628  0.4473
  618TMC3    O2 9218   0.511   1.907  13.234  0.3239 -0.5192  0.4402
  619MPD2     C 9219   1.730   3.829  13.278 -0.2740  0.6590  0.1505
  619MPD2    C1 9220   1.614   3.883  13.226  0.2485 -0.4018 -0.1786
  619MPD2    C2 9221   1.492   3.818  13.240  0.1363  0.0713  0.7489
  619MPD2    C3 9222   1.481   3.717  13.331  0.0688  0.0165 -0.0588
  619MPD2    C4 9223   1.603   3.658  13.380  0.4934  0.5924  0.1908
  619MPD2    C5 9224   1.722   3.713  13.357  0.4498 -0.3078  0.3689
  619MPD2     H 9225   1.409   3.870  13.193 -0.9195 -0.9729  1.4697
  619MPD2    H1 9226   1.586   3.584  13.458  0.7481  2.6347  2.1991
  619MPD2    H2 9227   1.822   3.885  13.272 -1.6550  3.0497  1.0203
  619MPD2    H3 9228   1.809   3.669  13.405 -0.3159 -0.9776  1.1506
  619MPD2     N 9229   1.360   3.656  13.377 -0.5611 -0.1897  0.7392
  619MPD2    H5 9230   1.358   3.577  13.439 -0.7044  0.7339  1.9056
  619MPD2    N1 9231   1.610   4.011  13.169  0.4392 -0.1835 -0.0944
  619MPD2    H7 9232   1.517   4.041  13.144  0.7115  0.2768 -0.5467
  620TMC3    C1 9233   1.666   4.234  13.138  0.0021  0.0553  0.3645
  620TMC3    C2 9234   1.597   4.237  13.015 -0.3765 -0.1010 -0.6339
  620TMC3    C3 9235   1.529   4.348  12.988 -0.7060 -0.0740 -0.6131
  620TMC3    C4 9236   1.666   4.331  13.222  0.2236  0.4087  0.1358
  620TMC3    C5 9237   1.605   4.450  13.189 -0.1259  0.3238 -0.2858
  620TMC3    C6 9238   1.538   4.458  13.069 -0.5523  0.1366  0.6643
  620TMC3     C 9239   1.713   4.104  13.177  0.5798 -0.4257  0.6074
  620TMC3     O 9240   1.819   4.102  13.235 -0.1205 -0.5152  0.0774
  620TMC3     H 9241   1.594   4.152  12.947  0.6935 -0.3648 -0.3505
  620TMC3    H1 9242   1.708   4.315  13.320 -1.9473  0.2531  1.0555
  620TMC3    H2 9243   1.488   4.548  13.036  1.7624  0.6421 -1.4612
  620TMC3    C7 9244   1.534   4.512  13.298  0.5535 -0.5263 -0.3708
  620TMC3    C8 9245   1.445   4.341  12.868  0.1296 -0.5016  0.0033
  620TMC3    O1 9246   1.494   4.443  13.394 -0.4234  0.0966 -0.3320
  620TMC3    O2 9247   1.494   4.298  12.762 -0.4966  0.0307  0.2279
  621MPD2     C 9248   2.145   3.531   9.632 -0.3718 -0.6578 -0.0823
  621MPD2    C1 9249   2.169   3.596   9.749 -0.3100 -0.4446  0.3658
  621MPD2    C2 9250   2.254   3.704   9.741 -0.2794  0.0873  0.4160
  621MPD2    C3 9251   2.329   3.742   9.626 -0.0284 -0.3755 -0.6313
  621MPD2    C4 9252   2.301   3.672   9.506 -0.0621 -0.3469 -0.5718
  621MPD2    C5 9253   2.215   3.566   9.518  0.4465  0.4379 -0.1458
  621MPD2     H 9254   2.277   3.769   9.824  0.0572  0.9413 -0.3443
  621MPD2    H1 9255   2.344   3.699   9.411 -1.1225 -1.2889 -1.3160
  621MPD2    H2 9256   2.071   3.453   9.623 -0.0921 -1.2361  2.8419
  621MPD2    H3 9257   2.172   3.511   9.435 -0.0222  1.5920 -0.6612
  621MPD2     N 9258   2.428   3.845   9.650 -0.2299  0.0815  0.3130
  621MPD2    H5 9259   2.432   3.890   9.741 -0.8875  0.2452  0.2560
  621MPD2    N1 9260   2.110   3.571   9.880 -0.0069 -0.7204  0.5466
  621MPD2    H7 9261   2.153   3.615   9.961  1.9188  0.9437 -1.3777
  622TMC3    C1 9262   1.994   3.451  10.037  0.4482  0.7409  0.1241
  622TMC3    C2 9263   2.100   3.439  10.119  0.1239  0.6636 -1.2327
  622TMC3    C3 9264   2.078   3.438  10.254 -0.1263 -0.1187 -0.7277
  622TMC3    C4 9265   1.867   3.432  10.078  0.3320 -0.3839 -0.4082
  622TMC3    C5 9266   1.842   3.418  10.209 -0.0177  0.3330  0.3633
  622TMC3    C6 9267   1.950   3.434  10.292 -0.3334 -0.0111  0.2126
  622TMC3     C 9268   2.010   3.482   9.901  0.1564  0.0861 -0.1440
  622TMC3     O 9269   1.956   3.405   9.825 -0.3901  0.4006  0.4267
  622TMC3     H 9270   2.198   3.451  10.075  0.2261  3.0770 -0.3490
  622TMC3    H1 9271   1.792   3.421  10.000  1.6868  2.3412 -2.1153
  622TMC3    H2 9272   1.929   3.430  10.399 -1.0051 -2.0357 -0.0101
  622TMC3    C7 9273   1.716   3.476  10.268  0.3804 -0.2559  0.3834
  622TMC3    C8 9274   2.146   3.545  10.323  0.6464  0.0880  0.1277
  622TMC3    O1 9275   1.714   3.474  10.389 -0.8962  0.3842 -0.3113
  622TMC3    O2 9276   2.254   3.580  10.278 -0.1178 -0.1701  0.4726
  623MPD2     C 9277   1.020   4.416  15.674  0.2903  0.2659 -0.5615
  623MPD2    C1 9278   0.980   4.320  15.763  0.6405  0.1219  0.6613
  623MPD2    C2 9279   1.050   4.306  15.880  0.4824  0.0524  0.1620
  623MPD2    C3 9280   1.159   4.383  15.905 -0.0191  0.2317  0.2120
  623MPD2    C4 9281   1.208   4.473  15.809 -0.4510  0.3412  0.8359
  623MPD2    C5 9282   1.131   4.485  15.696  0.8058 -0.2272  0.2613
  623MPD2     H 9283   1.022   4.242  15.964  0.0735 -0.2122 -0.1762
  623MPD2    H1 9284   1.295   4.535  15.825 -0.6848  0.0924  2.9859
  623MPD2    H2 9285   0.971   4.431  15.578 -2.7028 -2.5879  0.5184
  623MPD2    H3 9286   1.151   4.557  15.617 -1.8421  0.6599  0.3914
  623MPD2     N 9287   1.214   4.372  16.030 -0.2704 -0.4764  0.0334
  623MPD2    H5 9288   1.171   4.304  16.092 -1.1834  1.0317  1.0596
  623MPD2    N1 9289   0.876   4.237  15.712  0.3242  0.0835 -0.3459
  623MPD2    H7 9290   0.818   4.280  15.641  0.2784 -1.1971 -1.0947
  624TMC3    C1 9291   1.505   4.368  16.398 -0.1282 -0.1873 -0.3548
  624TMC3    C2 9292   1.402   4.374  16.487 -0.6311 -0.2520 -0.5137
  624TMC3    C3 9293   1.278   4.400  16.441 -0.4455 -1.2584 -0.8902
  624TMC3    C4 9294   1.489   4.391  16.264 -0.3936  0.4160 -0.1333
  624TMC3    C5 9295   1.361   4.414  16.221 -0.0010 -0.1949  0.2134
  624TMC3    C6 9296   1.255   4.418  16.308 -0.0381  0.1758  0.2950
  624TMC3     C 9297   1.621   4.283  16.436 -0.2798  1.2967 -0.2603
  624TMC3     O 9298   1.605   4.227  16.542  0.0100  0.1088 -0.4712
  624TMC3     H 9299   1.426   4.362  16.592  0.6250  0.5618 -0.6955
  624TMC3    H1 9300   1.569   4.375  16.193 -0.3907  0.8166 -0.2188
  624TMC3    H2 9301   1.155   4.436  16.271  0.3784  0.1565 -0.8475
  624TMC3    C7 9302   1.336   4.424  16.070 -0.0492  0.2729  0.5388
  624TMC3    C8 9303   1.176   4.372  16.539  0.0426 -0.7894  0.7153
  624TMC3    O1 9304   1.432   4.463  16.007  0.1004 -0.3645  0.4191
  624TMC3    O2 9305   1.207   4.378  16.656 -0.1666  0.2019  0.2260
  625MPD2     C 9306   0.870   0.755   0.462  0.1968 -0.4356 -0.6022
  625MPD2    C1 9307   0.891   0.889   0.491  0.5153  0.4157 -0.5967
  625MPD2    C2 9308   1.005   0.921   0.567 -0.1276 -0.2489  0.0107
  625MPD2    C3 9309   1.087   0.825   0.622  0.3334  0.2182 -0.2741
  625MPD2    C4 9310   1.067   0.697   0.585 -0.0247 -0.1159  0.5053
  625MPD2    C5 9311   0.959   0.657   0.501  0.5874  0.8363  0.1297
  625MPD2     H 9312   1.019   1.027   0.584 -2.2888 -0.4854  3.2835
  625MPD2    H1 9313   1.131   0.618   0.622  1.1085  0.1682 -0.8325
  625MPD2    H2 9314   0.784   0.727   0.403 -0.3900  0.9990 -0.4341
  625MPD2    H3 9315   0.941   0.553   0.478 -0.0179  0.8948  0.3352
  625MPD2     N 9316   1.197   0.876   0.695  0.1586  0.1584  0.4284
  625MPD2    H5 9317   1.209   0.977   0.692 -4.1557  0.6793  0.8438
  625MPD2    N1 9318   0.809   0.999   0.449 -0.4886  0.1207 -0.1900
  625MPD2    H7 9319   0.831   1.079   0.509 -2.7185  0.9717 -0.5047
  626TMC3    C1 9320   0.634   1.110   0.331  0.7316 -0.2704  0.9973
  626TMC3    C2 9321   0.624   1.153   0.201 -0.6830  0.3848 -0.0805
  626TMC3    C3 9322   0.589   1.285   0.181 -0.2971 -0.1889  0.1136
  626TMC3    C4 9323   0.612   1.185   0.441 -0.8082  0.5088 -0.0727
  626TMC3    C5 9324   0.580   1.312   0.417  0.0254 -0.9113 -0.7379
  626TMC3    C6 9325   0.561   1.361   0.292 -0.8902 -0.1438 -0.6346
  626TMC3     C 9326   0.712   0.989   0.349  0.7140 -0.3304  0.2715
  626TMC3     O 9327   0.707   0.907   0.257  0.7500 -0.5463  0.4974
  626TMC3     H 9328   0.658   1.089   0.120  0.4803  0.5424  0.2974
  626TMC3    H1 9329   0.610   1.144   0.541  1.0321 -0.1102 -0.2998
  626TMC3    H2 9330   0.570   1.469   0.290  1.8239 -0.3621  0.5454
  626TMC3    C7 9331   0.502   1.369   0.525  0.0097 -0.1254  0.4069
  626TMC3    C8 9332   0.614   1.336   0.051 -0.0256  0.3473 -0.2970
  626TMC3    O1 9333   0.549   1.374   0.636  0.0277 -0.4513 -0.3258
  626TMC3    O2 9334   0.682   1.269  17.716 -0.7078  0.0508  0.1667
  627MPD2     C 9335   0.195   1.122  14.801  0.8101  0.4730 -0.5067
  627MPD2    C1 9336   0.080   1.190  14.837  0.4055  0.3831  0.1565
  627MPD2    C2 9337   4.691   1.125  14.840 -0.0584 -0.3210  0.3641
  627MPD2    C3 9338   4.678   0.992  14.800 -0.4496 -0.5384 -0.6638
  627MPD2    C4 9339   0.065   0.927  14.760 -0.9662 -1.1252 -0.1629
  627MPD2    C5 9340   0.183   0.993  14.761  0.1086 -0.0861  0.1799
  627MPD2     H 9341   4.599   1.174  14.868 -0.5966 -1.2298  0.1837
  627MPD2    H1 9342   0.063   0.824  14.726  0.3210 -1.2744  0.2234
  627MPD2    H2 9343   0.288   1.176  14.806  1.1108  0.0247 -1.4374
  627MPD2    H3 9344   0.271   0.937  14.730 -0.1864 -0.7888  0.6272
  627MPD2     N 9345   4.550   0.937  14.780 -0.3402 -0.4950 -0.3126
  627MPD2    H5 9346   4.470   0.997  14.798 -0.6247 -0.9908  0.0774
  627MPD2    N1 9347   0.097   1.328  14.871  0.2645 -0.3441  0.2650
  627MPD2    H7 9348   0.190   1.361  14.891  0.8077 -1.1735 -0.9389
  628TMC3    C1 9349   0.021   1.553  14.899  0.0510  0.3382  0.4312
  628TMC3    C2 9350   0.149   1.582  14.946 -0.3285 -0.4148 -0.9243
  628TMC3    C3 9351   0.182   1.715  14.944  0.0302 -0.1226  0.1145
  628TMC3    C4 9352   4.673   1.646  14.854 -0.7880 -0.9871 -0.1758
  628TMC3    C5 9353   4.709   1.778  14.865  0.1194  0.8488 -0.6268
  628TMC3    C6 9354   0.098   1.814  14.902  0.4776  0.1070 -0.2049
  628TMC3     C 9355   4.729   1.421  14.853  0.4305  0.2680 -0.7291
  628TMC3     O 9356   4.619   1.398  14.804 -0.2700  0.6451 -0.2303
  628TMC3     H 9357   0.204   1.512  15.008  0.8199  0.1038 -1.3732
  628TMC3    H1 9358   4.577   1.622  14.812 -1.1413  0.5877 -0.2668
  628TMC3    H2 9359   0.142   1.910  14.880  2.1662 -0.1210  2.2660
  628TMC3    C7 9360   4.628   1.871  14.793 -0.0435  0.1411 -0.6998
  628TMC3    C8 9361   0.278   1.764  15.036  0.3769 -1.0794 -0.1274
  628TMC3    O1 9362   4.554   1.831  14.707  0.6035 -0.0167  0.2280
  628TMC3    O2 9363   0.244   1.873  15.090  0.6462 -0.3858  0.4920
  629MPD2     C 9364   2.574   0.093  16.166 -0.7801 -0.4142  0.1785
  629MPD2    C1 9365   2.649   4.723  16.217  0.1113  0.1729 -0.0632
  629MPD2    C2 9366   2.604   4.596  16.198  0.9969  0.6524 -0.4019
  629MPD2    C3 9367   2.495   4.567  16.122  0.6701 -0.0576 -0.6301
  629MPD2    C4 9368   2.422   4.668  16.072  0.6219  0.3794  0.0810
  629MPD2    C5 9369   2.465   0.060  16.091  0.3601  0.4306 -0.1639
  629MPD2     H 9370   2.658   4.513  16.243  2.5814  2.1467  0.4767
  629MPD2    H1 9371   2.334   4.645  16.014 -0.2698 -1.7445  2.2752
  629MPD2    H2 9372   2.593   0.199  16.179 -0.7443 -0.2894 -0.9020
  629MPD2    H3 9373   2.412   0.142  16.045 -1.8545  0.1393  1.8899
  629MPD2     N 9374   2.462   4.430  16.109 -0.2882  0.4636 -0.3523
  629MPD2    H5 9375   2.533   4.367  16.145 -0.4248 -0.4685 -1.7202
  629MPD2    N1 9376   2.765   0.019  16.287  0.1507 -0.2949 -0.1967
  629MPD2    H7 9377   2.799   0.113  16.300  1.7533 -0.3201 -4.2042
  630TMC3    C1 9378   2.976   4.694  16.372 -0.2549  0.2535 -0.4433
  630TMC3    C2 9379   3.030   0.070  16.322 -0.5478  0.4880  0.8921
  630TMC3    C3 9380   3.162   0.086  16.341 -0.9176 -0.0980 -0.0584
  630TMC3    C4 9381   3.060   4.603  16.438 -0.0018 -0.0808 -0.2985
  630TMC3    C5 9382   3.192   4.626  16.452  0.0810 -0.0964 -0.9044
  630TMC3    C6 9383   3.247   0.002  16.408  0.0825 -0.0284 -0.3319
  630TMC3     C 9384   2.830   4.668  16.367 -0.2327  0.6457  0.2276
  630TMC3     O 9385   2.799   4.560  16.420  0.0961 -0.6101 -0.0231
  630TMC3     H 9386   2.979   0.134  16.250 -1.4566  2.3506  3.1753
  630TMC3    H1 9387   3.006   4.535  16.502  0.4696 -0.6129 -0.4640
  630TMC3    H2 9388   3.352   0.023  16.428  0.0017 -0.4115  0.5036
  630TMC3    C7 9389   3.279   4.521  16.497  0.0769  0.8264  0.1382
  630TMC3    C8 9390   3.229   0.206  16.297  0.4220  0.0431  0.2817
  630TMC3    O1 9391   3.390   4.547  16.529 -0.6926 -0.1055  0.1817
  630TMC3    O2 9392   3.343   0.232  16.331  0.1451 -0.7344  0.1658
  631MPD2     C 9393   1.202   0.225  15.571 -0.5222 -0.6935 -0.1830
  631MPD2    C1 9394   1.262   0.293  15.463 -0.6759 -0.4527  0.1309
  631MPD2    C2 9395   1.358   0.227  15.394  0.3787  0.0330  0.3171
  631MPD2    C3 9396   1.398   0.100  15.431  0.1149  0.2779 -0.1452
  631MPD2    C4 9397   1.343   0.040  15.539  0.1072  0.0583 -0.3666
  631MPD2    C5 9398   1.237   0.091  15.603 -0.2191  0.2125  0.3206
  631MPD2     H 9399   1.411   0.280  15.316  4.0527  1.9795  4.0611
  631MPD2    H1 9400   1.375   4.678  15.572 -2.3376 -0.7416 -0.3788
  631MPD2    H2 9401   1.125   0.272  15.630  0.9911  0.2995  1.0150
  631MPD2    H3 9402   1.202   0.050  15.698 -2.6492 -0.6665 -0.9527
  631MPD2     N 9403   1.505   0.037  15.355 -0.0747 -0.6194 -0.3607
  631MPD2    H5 9404   1.551   0.094  15.285 -0.8858  1.4114  0.7524
  631MPD2    N1 9405   1.219   0.421  15.433 -0.1707 -0.3623 -0.5701
  631MPD2    H7 9406   1.143   0.463  15.484  1.3325 -0.3604  1.6548
  632TMC3    C1 9407   1.160   0.599  15.294 -0.5322  0.2615  0.1381
  632TMC3    C2 9408   1.031   0.554  15.318  0.3110 -0.1824  0.7015
  632TMC3    C3 9409   0.938   0.572  15.226  0.3945 -0.7018 -1.0630
  632TMC3    C4 9410   1.188   0.646  15.170 -0.1276 -0.7562  0.0334
  632TMC3    C5 9411   1.092   0.653  15.065  0.3762  0.4654 -0.1201
  632TMC3    C6 9412   0.964   0.611  15.093 -0.3971  0.1554 -0.3105
  632TMC3     C 9413   1.257   0.496  15.329 -0.0889 -0.4141  0.4905
  632TMC3     O 9414   1.323   0.459  15.237  0.4429 -0.2490  0.0453
  632TMC3     H 9415   1.002   0.512  15.414 -2.2275 -0.7359 -0.3151
  632TMC3    H1 9416   1.294   0.664  15.151 -0.0169 -0.2557  1.1046
  632TMC3    H2 9417   0.890   0.587  15.017 -0.9223 -0.7373  0.4909
  632TMC3    C7 9418   1.138   0.596  14.946 -0.3463  0.6945  0.7107
  632TMC3    C8 9419   0.807   0.532  15.264  0.1604 -0.7386 -0.6557
  632TMC3    O1 9420   1.082   0.618  14.839 -0.0465 -0.0805 -0.2425
  632TMC3    O2 9421   0.806   0.464  15.363  0.4423 -0.4727 -0.0544
  633MPD2     C 9422   0.764   2.717  17.194  0.1381 -0.3374  0.8033
  633MPD2    C1 9423   0.778   2.635  17.085  0.4194 -0.2373 -0.7149
  633MPD2    C2 9424   0.705   2.515  17.075  0.0186 -1.1048  0.2641
  633MPD2    C3 9425   0.617   2.485  17.185 -0.1832 -0.1543  0.0820
  633MPD2    C4 9426   0.617   2.566  17.296  0.2757  0.8487 -0.2469
  633MPD2    C5 9427   0.679   2.682  17.287 -0.4051  0.3850  0.1278
  633MPD2     H 9428   0.718   2.450  16.990  0.1915 -0.4321 -0.2277
  633MPD2    H1 9429   0.556   2.560  17.385  0.1260 -0.6014 -0.4448
  633MPD2    H2 9430   0.817   2.808  17.217 -1.4800  0.6625  0.5505
  633MPD2    H3 9431   0.656   2.747  17.371 -1.1996  0.1876  0.0560
  633MPD2     N 9432   0.543   2.372  17.192 -0.1479  0.0692 -0.1214
  633MPD2    H5 9433   0.491   2.367  17.279 -1.2547 -2.2382 -0.9019
  633MPD2    N1 9434   0.870   2.668  16.982 -0.3045 -0.1351 -0.2252
  633MPD2    H7 9435   0.905   2.590  16.927  0.7032 -0.2977  0.6318
  634TMC3    C1 9436   1.026   2.799  16.854  0.6219  0.1301  0.1761
  634TMC3    C2 9437   1.078   2.682  16.802  0.1464 -0.1252  1.1414
  634TMC3    C3 9438   1.139   2.693  16.682 -0.3378  0.2258  0.5659
  634TMC3    C4 9439   1.041   2.919  16.796  0.1370 -0.1440  0.1134
  634TMC3    C5 9440   1.111   2.930  16.679 -0.4012  1.0353 -0.1623
  634TMC3    C6 9441   1.155   2.814  16.616 -0.8461 -0.0166  0.1377
  634TMC3     C 9442   0.928   2.792  16.963  0.4347 -0.3381  0.0782
  634TMC3     O 9443   0.896   2.901  17.007 -0.8803  0.1302 -0.0432
  634TMC3     H 9444   1.054   2.581  16.834 -1.4527  0.4287  1.6724
  634TMC3    H1 9445   1.001   3.005  16.848 -1.7343 -1.6837  1.2103
  634TMC3    H2 9446   1.195   2.822  16.515  1.4020  0.4229  1.0656
  634TMC3    C7 9447   1.098   3.040  16.588  0.4870  0.5078  0.2284
  634TMC3    C8 9448   1.166   2.572  16.612 -0.1811  0.4509 -0.1596
  634TMC3    O1 9449   1.185   3.063  16.507 -0.5108  0.1410  0.3540
  634TMC3    O2 9450   1.204   2.473  16.678  0.0860 -0.2017 -0.7497
  635TMC3    C1 9451   1.020   4.002   0.112  0.4096  1.4239  0.0562
  635TMC3    C2 9452   1.069   3.898   0.035 -0.2100  0.3890 -0.0627
  635TMC3    C3 9453   0.983   3.798   0.010 -0.1237 -0.0999  0.2208
  635TMC3    C4 9454   0.893   4.003   0.170 -0.7207  0.3777 -0.3655
  635TMC3    C5 9455   0.819   3.896   0.147 -0.4414 -1.1193  0.2691
  635TMC3    C6 9456   0.860   3.793   0.069  0.1143  0.5728 -0.1235
  635TMC3     C 9457   1.115   4.112   0.130  0.1014 -0.2090  0.2067
  635TMC3     O 9458   1.228   4.091   0.090 -0.1829  0.1056  0.2355
  635TMC3     H 9459   1.170   3.903  17.742  0.1828 -2.1064  0.6260
  635TMC3    H1 9460   0.854   4.087   0.225 -1.2545 -0.7786  1.0359
  635TMC3    H2 9461   0.806   3.700   0.057  1.1708 -0.1653  0.7173
  635TMC3    C7 9462   0.707   3.879   0.236 -0.4390  0.2542 -0.2073
  635TMC3    C8 9463   1.010   3.691  17.658  0.6536 -0.2083 -0.2825
  635TMC3    O1 9464   0.688   3.963   0.321 -0.1448  0.2547 -0.8157
  635TMC3    O2 9465   0.916   3.640  17.597  0.0731  0.4514 -0.2197
  636MPD2     C 9466   1.936   2.778  16.124 -0.2602  0.2299 -0.1907
  636MPD2    C1 9467   2.063   2.739  16.094  0.9237  0.3751  0.4775
  636MPD2    C2 9468   2.108   2.610  16.120 -0.1364  0.2719 -0.4655
  636MPD2    C3 9469   2.029   2.514  16.174 -0.8674 -0.0067 -0.1053
  636MPD2    C4 9470   1.897   2.545  16.181  0.7322  0.0863  0.5209
  636MPD2    C5 9471   1.851   2.672  16.152  0.1822  0.4078  0.2861
  636MPD2     H 9472   2.214   2.594  16.103 -0.4849 -4.1384  1.4968
  636MPD2    H1 9473   1.823   2.474  16.216  1.8136  0.0547  2.7343
  636MPD2    H2 9474   1.905   2.877  16.091  1.3002  0.1380 -1.9822
  636MPD2    H3 9475   1.750   2.705  16.172 -0.2924 -1.9582  1.7527
  636MPD2     N 9476   2.083   2.384  16.189 -0.4186  0.1658 -1.0367
  636MPD2    H5 9477   2.183   2.370  16.181 -0.5761 -0.8807 -1.1003
  636MPD2    N1 9478   2.162   2.834  16.044  0.3330  0.3495  0.0881
  636MPD2    H7 9479   2.250   2.799  16.007  1.0060  0.5074  1.5069
  637TMC3    C1 9480   2.091   2.153  16.203  0.5638 -0.1304 -0.0559
  637TMC3    C2 9481   2.185   2.157  16.304  0.4623  0.5449  0.3695
  637TMC3    C3 9482   2.259   2.052  16.333 -0.0818  0.8001 -0.3292
  637TMC3    C4 9483   2.078   2.037  16.129 -0.4534 -0.3469 -0.7444
  637TMC3    C5 9484   2.165   1.935  16.150  0.2827  0.0493  0.0208
  637TMC3    C6 9485   2.249   1.936  16.256 -0.1650 -0.7562 -0.6462
  637TMC3     C 9486   2.003   2.270  16.186 -0.0003  0.7224  0.2310
  637TMC3     O 9487   1.882   2.257  16.195 -0.1068  0.1055  0.2523
  637TMC3     H 9488   2.212   2.256  16.341 -1.1132  1.9149 -2.1483
  637TMC3    H1 9489   2.009   2.034  16.046 -2.1269 -1.2832  0.6809
  637TMC3    H2 9490   2.312   1.849  16.272 -0.4017 -0.2287  3.2775
  637TMC3    C7 9491   2.209   1.872  16.029 -0.2818 -0.1756  0.0091
  637TMC3    C8 9492   2.398   2.083  16.346 -0.5613  0.5348  0.5139
  637TMC3    O1 9493   2.137   1.875  15.933 -0.1192 -0.5747 -0.0208
  637TMC3    O2 9494   2.469   2.024  16.262 -0.0172 -0.9594 -0.1959
  638MPD2     C 9495   2.016   1.747  14.426  0.1005 -0.6343  0.3873
  638MPD2    C1 9496   2.011   1.626  14.355  0.2927  0.3449 -0.3331
  638MPD2    C2 9497   1.991   1.499  14.414  0.3238  0.0704 -0.0939
  638MPD2    C3 9498   1.969   1.495  14.547  0.4650  0.1604  0.3624
  638MPD2    C4 9499   1.970   1.616  14.619 -0.0064  0.0734 -0.6475
  638MPD2    C5 9500   1.990   1.738  14.559 -0.1091  0.0464  0.0605
  638MPD2     H 9501   1.997   1.404  14.361  2.2640  0.8740 -1.3093
  638MPD2    H1 9502   1.941   1.613  14.723 -2.6530  1.6501 -1.3251
  638MPD2    H2 9503   2.039   1.844  14.384 -1.7029 -0.3184  0.1425
  638MPD2    H3 9504   1.995   1.833  14.611  0.3862  0.7285 -1.2231
  638MPD2     N 9505   1.940   1.378  14.615 -0.1608  0.2562 -0.2848
  638MPD2    H5 9506   1.924   1.298  14.556  1.8234 -1.0997  1.0072
  638MPD2    N1 9507   2.058   1.623  14.222 -0.1653 -0.3317 -0.1609
  638MPD2    H7 9508   2.117   1.701  14.194 -0.3363  0.0598  0.5795
  639TMC3    C1 9509   1.921   1.219  14.794 -0.3707 -0.6461  0.5391
  639TMC3    C2 9510   1.816   1.154  14.728  0.0380  0.5214  0.0849
  639TMC3    C3 9511   1.783   1.034  14.778 -0.2413 -0.2839  0.5219
  639TMC3    C4 9512   1.985   1.169  14.911 -0.0017  0.3942 -1.1330
  639TMC3    C5 9513   1.954   1.038  14.950  0.4023 -0.4191 -1.0802
  639TMC3    C6 9514   1.851   0.972  14.882 -0.4500  0.1532 -0.0801
  639TMC3     C 9515   1.942   1.360  14.758 -0.6716 -0.2467 -0.5081
  639TMC3     O 9516   2.009   1.426  14.841 -0.3530 -0.0963  0.0369
  639TMC3     H 9517   1.774   1.192  14.636  0.9503  1.5586  0.0908
  639TMC3    H1 9518   2.050   1.235  14.967 -0.5742 -1.5007  1.7737
  639TMC3    H2 9519   1.834   0.867  14.902 -0.5865  0.0993 -0.4672
  639TMC3    C7 9520   2.054   0.957  15.005  0.5183  0.7523 -0.0770
  639TMC3    C8 9521   1.716   0.949  14.678  0.6254 -0.4878 -0.1357
  639TMC3    O1 9522   2.026   0.860  15.076 -0.2474  0.0627 -0.0743
  639TMC3    O2 9523   1.785   0.916  14.584  0.2922  0.1554  0.1524
  640MPD2     C 9524   2.599   0.444   9.748 -0.1869  0.0285 -0.1323
  640MPD2    C1 9525   2.496   0.395   9.678 -0.3211  0.3607  0.0177
  640MPD2    C2 9526   2.368   0.446   9.690  0.5837 -0.0639  0.4303
  640MPD2    C3 9527   2.342   0.553   9.781 -0.8264 -0.0657  0.8052
  640MPD2    C4 9528   2.446   0.596   9.853 -0.3282 -0.4821  0.3624
  640MPD2    C5 9529   2.570   0.543   9.837 -0.7089 -1.0769 -0.0895
  640MPD2     H 9530   2.287   0.392   9.642  0.8321 -0.7861  0.8186
  640MPD2    H1 9531   2.437   0.687   9.912 -0.4362 -0.6058  0.5382
  640MPD2    H2 9532   2.696   0.396   9.736 -1.4088 -2.0324 -1.7627
  640MPD2    H3 9533   2.655   0.580   9.894 -2.7284  1.0849  1.5439
  640MPD2     N 9534   2.219   0.617   9.801  0.0793 -0.0519  0.1002
  640MPD2    H5 9535   2.213   0.673   9.886 -1.3047 -0.3808  0.2191
  640MPD2    N1 9536   2.524   0.280   9.605  0.2781  0.1128 -0.4451
  640MPD2    H7 9537   2.614   0.238   9.623  0.9751  1.7811 -0.0237
  641TMC3    C1 9538   2.496   0.108   9.448  0.2201  0.1304  0.4822
  641TMC3    C2 9539   2.595   0.029   9.506 -0.5258 -0.2279 -0.6686
  641TMC3    C3 9540   2.656   4.672   9.425  0.2944 -0.8912 -0.0744
  641TMC3    C4 9541   2.456   0.086   9.323 -0.4173 -1.0618 -0.8690
  641TMC3    C5 9542   2.523   4.732   9.246 -0.3104  0.5837  0.0130
  641TMC3    C6 9543   2.626   4.660   9.288 -0.7155 -0.4228  0.0924
  641TMC3     C 9544   2.435   0.228   9.513 -0.0465 -0.6009  0.5511
  641TMC3     O 9545   2.338   0.273   9.458 -0.7974 -0.3807 -0.4962
  641TMC3     H 9546   2.629   0.056   9.605 -0.4191 -0.4235 -0.6511
  641TMC3    H1 9547   2.378   0.147   9.277  0.4412 -0.1332 -1.0867
  641TMC3    H2 9548   2.662   4.581   9.222  1.0076  0.1276  0.3792
  641TMC3    C7 9549   2.488   4.718   9.108 -0.5635  0.0561  0.0064
  641TMC3    C8 9550   2.757   4.586   9.485 -0.2367 -0.7704  0.4152
  641TMC3    O1 9551   2.375   0.013   9.080 -0.2180 -0.1496 -0.3302
  641TMC3    O2 9552   2.816   4.508   9.417  0.1237  0.8802 -0.0132
  642TMC3    C1 9553   3.617   1.595  12.192 -0.1525 -0.0407 -0.4335
  642TMC3    C2 9554   3.661   1.513  12.284 -0.8511 -0.7522  0.5668
  642TMC3    C3 9555   3.633   1.381  12.288 -0.0623  0.7072  0.5724
  642TMC3    C4 9556   3.532   1.544  12.098  0.6386 -0.1000  0.1326
  642TMC3    C5 9557   3.493   1.411  12.102 -0.0865  0.2690  0.6974
  642TMC3    C6 9558   3.542   1.328  12.207 -0.2685 -0.2242 -0.1676
  642TMC3     C 9559   3.555   1.710  12.253 -0.3332 -0.1808 -0.6090
  642TMC3     O 9560   3.495   1.692  12.358 -0.3907 -0.1570  0.2240
  642TMC3     H 9561   3.728   1.549  12.362  0.4435  0.3290 -1.0249
  642TMC3    H1 9562   3.479   1.614  12.034 -0.0060 -1.3094 -0.6571
  642TMC3    H2 9563   3.506   1.225  12.210 -1.1365  0.0714 -0.3184
  642TMC3    C7 9564   3.378   1.364  12.028  0.1830  0.1230 -0.0906
  642TMC3    C8 9565   3.653   1.306  12.413 -0.5091  0.2954 -1.0499
  642TMC3    O1 9566   3.369   1.430  11.919  0.2592 -0.0572  0.6485
  642TMC3    O2 9567   3.654   1.361  12.520 -0.1326  0.9623 -0.1983
  643TMC3    C1 9568   2.826   0.754   0.597 -0.2390 -0.0807 -0.1440
  643TMC3    C2 9569   2.694   0.771   0.624 -0.5924  0.5653 -0.1915
  643TMC3    C3 9570   2.600   0.714   0.539 -0.7160  0.4099  0.1440
  643TMC3    C4 9571   2.863   0.673   0.486  0.0267  0.5960  0.3377
  643TMC3    C5 9572   2.764   0.606   0.417  0.6350 -0.3372 -0.5026
  643TMC3    C6 9573   2.632   0.640   0.434  0.7791 -0.9757  0.3237
  643TMC3     C 9574   2.911   0.851   0.650 -0.1706  0.7942 -0.1747
  643TMC3     O 9575   2.868   0.925   0.734 -0.2001 -0.1470  0.7962
  643TMC3     H 9576   2.652   0.834   0.701  0.0098 -0.6816  1.1434
  643TMC3    H1 9577   2.966   0.649   0.460 -0.8494 -0.3102 -2.2639
  643TMC3    H2 9578   2.554   0.588   0.380 -0.8449  0.2132  1.5122
  643TMC3    C7 9579   2.788   0.495   0.322  0.1952  0.0567  0.2542
  643TMC3    C8 9580   2.484   0.802   0.532  0.4608 -0.2500  1.0566
  643TMC3    O1 9581   2.700   0.412   0.297 -0.4949 -0.2669  0.5165
  643TMC3    O2 9582   2.424   0.821   0.637 -0.2675 -0.1039  0.1427
  644MPD2     C 9583   2.383   0.730   9.490  0.1298 -0.3414  0.8312
  644MPD2    C1 9584   2.356   0.647   9.382 -0.0193  0.0941 -0.7674
  644MPD2    C2 9585   2.229   0.653   9.329  0.7161 -0.5565  0.3031
  644MPD2    C3 9586   2.136   0.756   9.372 -0.1237 -0.1342  0.7623
  644MPD2    C4 9587   2.174   0.842   9.474 -0.0307  0.3150  0.2251
  644MPD2    C5 9588   2.291   0.821   9.532 -0.0866 -0.9829 -0.1668
  644MPD2     H 9589   2.194   0.586   9.251  0.0812  0.5661 -0.3822
  644MPD2    H1 9590   2.111   0.919   9.519 -0.2628  0.9213 -1.1198
  644MPD2    H2 9591   2.473   0.723   9.549  0.8535  0.4495 -0.1703
  644MPD2    H3 9592   2.328   0.871   9.621  0.9062  0.5366 -1.4124
  644MPD2     N 9593   2.007   0.753   9.317  0.1091  0.4939  0.1028
  644MPD2    H5 9594   1.993   0.670   9.260  1.9274  1.3794 -1.6196
  644MPD2    N1 9595   2.456   0.566   9.330  0.0866  0.5562 -0.3948
  644MPD2    H7 9596   2.550   0.580   9.367  0.4334  1.4088 -1.6144
  645TMC3    C1 9597   1.797   0.848   9.253  0.3131  0.0970 -0.5199
  645TMC3    C2 9598   1.739   0.959   9.203 -0.2350 -0.2297  0.6601
  645TMC3    C3 9599   1.622   0.938   9.138  0.0871  0.2300  0.1193
  645TMC3    C4 9600   1.744   0.720   9.249 -0.8304  0.0347 -0.3870
  645TMC3    C5 9601   1.633   0.707   9.172  0.6274 -0.7918  0.4444
  645TMC3    C6 9602   1.567   0.815   9.131  1.4035  0.2484 -0.6165
  645TMC3     C 9603   1.926   0.863   9.316  0.0490  1.2156  0.3508
  645TMC3     O 9604   1.949   0.973   9.360 -0.6111  0.0893  0.4979
  645TMC3     H 9605   1.795   1.052   9.205 -0.0796 -0.3424  2.1343
  645TMC3    H1 9606   1.796   0.645   9.307 -2.2673 -1.1062 -0.5748
  645TMC3    H2 9607   1.472   0.806   9.080  0.4013  0.7217  1.1773
  645TMC3    C7 9608   1.568   0.582   9.177  0.0573 -0.6203 -0.5189
  645TMC3    C8 9609   1.530   1.050   9.131 -0.4801 -0.0532  0.5895
  645TMC3    O1 9610   1.456   0.584   9.131 -0.8511 -0.3538 -0.3134
  645TMC3    O2 9611   1.409   1.029   9.127  0.0449 -0.6608 -0.0555
  646MPD2     C 9612   2.269   0.382  14.322 -0.4542  0.7488  0.3893
  646MPD2    C1 9613   2.180   0.296  14.381 -0.4262  0.4390 -0.6692
  646MPD2    C2 9614   2.048   0.292  14.333 -0.6421  0.3905  0.8109
  646MPD2    C3 9615   2.019   0.357  14.215  0.2292  0.3896  0.1069
  646MPD2    C4 9616   2.118   0.430  14.146  0.2431  0.0760  0.5091
  646MPD2    C5 9617   2.235   0.442  14.204 -0.0892  0.0239  0.1425
  646MPD2     H 9618   1.972   0.227  14.375  1.1701 -1.8975  0.5654
  646MPD2    H1 9619   2.087   0.486  14.059  1.9426 -0.0924 -0.1943
  646MPD2    H2 9620   2.363   0.410  14.368  0.5001 -0.8478 -0.5678
  646MPD2    H3 9621   2.313   0.497  14.152  0.5079 -0.2301  0.7624
  646MPD2     N 9622   1.883   0.365  14.172 -0.1716  0.4840  0.6790
  646MPD2    H5 9623   1.807   0.336  14.233  0.3577  1.5181  1.8291
  646MPD2    N1 9624   2.204   0.222  14.498  0.9831  0.2467  0.5207
  646MPD2    H7 9625   2.127   0.177  14.546  1.1004  1.0398  1.4660
  647TMC3    C1 9626   2.331   0.155  14.682 -0.2493 -0.1178 -0.2478
  647TMC3    C2 9627   2.297   0.029  14.708 -0.2063  0.7916 -0.5408
  647TMC3    C3 9628   2.337   4.703  14.823 -0.1059 -0.2255 -0.0711
  647TMC3    C4 9629   2.429   0.207  14.766  0.2715 -0.0061  0.4730
  647TMC3    C5 9630   2.474   0.138  14.878 -0.1535 -0.6396  0.8804
  647TMC3    C6 9631   2.427   0.019  14.906 -0.6701 -0.1131  0.1946
  647TMC3     C 9632   2.335   0.201  14.547 -0.3456  0.2939 -0.4154
  647TMC3     O 9633   2.440   0.255  14.511 -0.3760 -0.5378  0.4468
  647TMC3     H 9634   2.250   4.701  14.634  0.9926  0.1069 -0.6996
  647TMC3    H1 9635   2.461   0.310  14.750 -0.8389  0.3192  0.3563
  647TMC3    H2 9636   2.465   4.705  14.994  0.9401  0.6906 -0.0391
  647TMC3    C7 9637   2.620   0.146  14.898  0.3681  0.1823 -0.5853
  647TMC3    C8 9638   2.339   4.556  14.824 -0.4223  0.7547  0.0316
  647TMC3    O1 9639   2.672   0.115  15.004  0.3607 -0.3307  0.1295
  647TMC3    O2 9640   2.285   4.494  14.916 -0.0594 -0.1158  0.2860
  648TMC3    C1 9641   1.476   2.654  15.997  0.7108  0.2164  0.6381
  648TMC3    C2 9642   1.469   2.534  15.937 -0.2768  0.3475  0.6478
  648TMC3    C3 9643   1.478   2.526  15.802  0.3498 -0.0805 -0.5919
  648TMC3    C4 9644   1.495   2.765  15.919 -0.8289  0.6229 -0.1380
  648TMC3    C5 9645   1.519   2.754  15.784  0.9192 -0.3427  0.5289
  648TMC3    C6 9646   1.516   2.628  15.725 -0.6264 -0.4983 -0.1828
  648TMC3     C 9647   1.477   2.679  16.143 -0.6852 -0.3425 -0.4428
  648TMC3     O 9648   1.454   2.788  16.192  0.2932 -0.6409 -0.3000
  648TMC3     H 9649   1.454   2.444  15.994  0.2994  0.5993  1.1927
  648TMC3    H1 9650   1.526   2.851  15.977  0.9926 -1.2270  1.6314
  648TMC3    H2 9651   1.509   2.620  15.617  2.3977 -3.1667 -0.1940
  648TMC3    C7 9652   1.551   2.869  15.703  0.7943 -0.6253 -0.7106
  648TMC3    C8 9653   1.515   2.397  15.759  0.1755 -0.0108  0.1915
  648TMC3    O1 9654   1.609   2.869  15.594 -0.5578 -0.1728  0.0790
  648TMC3    O2 9655   1.449   2.308  15.813 -0.0077  0.1983  0.0114
  649TMC3    C1 9656   0.698   3.899  12.191 -0.3137  0.4593  0.2943
  649TMC3    C2 9657   0.814   3.969  12.183  0.6099 -0.1291 -0.2640
  649TMC3    C3 9658   0.909   3.976  12.281  0.3191 -0.5574 -0.5333
  649TMC3    C4 9659   0.671   3.834  12.313  0.0430 -0.2193  0.4002
  649TMC3    C5 9660   0.770   3.839  12.411 -0.0524 -0.2403  0.5361
  649TMC3    C6 9661   0.893   3.907  12.395 -0.3390  0.4559  0.3087
  649TMC3     C 9662   0.592   3.933  12.101  0.6797 -0.3028 -0.9148
  649TMC3     O 9663   0.478   3.942  12.150 -0.4341 -0.1349  0.0677
  649TMC3     H 9664   0.829   4.026  12.091  0.1869  1.7637  0.8322
  649TMC3    H1 9665   0.576   3.782  12.319  0.9926 -2.1708 -1.6471
  649TMC3    H2 9666   0.978   3.895  12.460 -1.6333  0.9915  2.1039
  649TMC3    C7 9667   0.727   3.781  12.536  0.1021  0.3680 -0.0807
  649TMC3    C8 9668   1.019   4.064  12.267 -0.4583  0.2002  0.4932
  649TMC3    O1 9669   0.613   3.760  12.558 -0.1316 -0.0920  0.2129
  649TMC3    O2 9670   1.114   4.039  12.343 -0.4068 -0.1766 -0.4539
  650TMC3    C1 9671   2.820   1.042  12.953 -0.0361 -0.3731  0.7335
  650TMC3    C2 9672   2.787   1.174  12.975  0.3936 -0.5263 -0.0902
  650TMC3    C3 9673   2.696   1.235  12.892 -0.1135  0.3418  1.0165
  650TMC3    C4 9674   2.768   0.973  12.852  0.0942  0.5225  0.3433
  650TMC3    C5 9675   2.678   1.039  12.768  0.6944  0.7383  0.2219
  650TMC3    C6 9676   2.636   1.168  12.790 -0.6516  0.0415  0.5847
  650TMC3     C 9677   2.882   0.971  13.070  0.7014 -0.1323  0.3107
  650TMC3     O 9678   2.951   1.038  13.148 -0.4143  0.3645 -0.1799
  650TMC3     H 9679   2.847   1.235  13.041 -3.2425  1.9328  0.9279
  650TMC3    H1 9680   2.794   0.873  12.820 -1.0488  0.8070 -1.4260
  650TMC3    H2 9681   2.554   1.219  12.740  1.3299  1.5750 -1.1171
  650TMC3    C7 9682   2.687   1.015  12.626  0.3189 -0.0186  0.6035
  650TMC3    C8 9683   2.708   1.375  12.870 -0.7715 -0.2143 -0.4208
  650TMC3    O1 9684   2.707   0.898  12.586  0.1099 -0.5653 -0.2258
  650TMC3    O2 9685   2.678   1.403  12.756  0.1367  0.3835 -0.1909
  651MPD2     C 9686   1.635   2.275  10.453  0.2181  0.7315  0.1710
  651MPD2    C1 9687   1.581   2.397  10.498 -0.3346 -0.3962 -0.5391
  651MPD2    C2 9688   1.670   2.495  10.548  0.5266  0.4787  0.5444
  651MPD2    C3 9689   1.806   2.469  10.571 -0.0948  0.5323  0.0884
  651MPD2    C4 9690   1.850   2.344  10.539  0.3228 -0.1883  0.0153
  651MPD2    C5 9691   1.768   2.249  10.480  0.3979 -0.1519  0.0043
  651MPD2     H 9692   1.630   2.589  10.583  0.3088 -0.1542  2.0227
  651MPD2    H1 9693   1.956   2.321  10.545  0.5881  1.4135  1.1928
  651MPD2    H2 9694   1.564   2.197  10.427 -1.4775  3.3375 -3.0433
  651MPD2    H3 9695   1.804   2.147  10.468 -1.6983 -0.6778 -2.0398
  651MPD2     N 9696   1.882   2.577  10.623 -0.1679  0.4148 -0.3045
  651MPD2    H5 9697   1.848   2.672  10.637  0.6341  0.3620  1.8573
  651MPD2    N1 9698   1.446   2.436  10.487 -0.3054  0.2278 -0.7999
  651MPD2    H7 9699   1.425   2.532  10.511  0.6555 -0.0185  1.0412
  652TMC3    C1 9700   2.245   2.800  10.810 -0.2927 -0.4938 -0.0396
  652TMC3    C2 9701   2.186   2.686  10.763  0.7022  0.0058 -0.5213
  652TMC3    C3 9702   2.069   2.691  10.686  0.2851  0.1082  0.7120
  652TMC3    C4 9703   2.184   2.923  10.791  0.5705 -0.2949  0.0554
  652TMC3    C5 9704   2.073   2.926  10.709  0.1162 -0.0806 -1.0032
  652TMC3    C6 9705   2.015   2.809  10.662  0.0040  0.0994  0.3324
  652TMC3     C 9706   2.381   2.790  10.869 -0.6587  0.1460 -0.0612
  652TMC3     O 9707   2.450   2.689  10.842 -0.0719 -0.2889  0.5788
  652TMC3     H 9708   2.239   2.593  10.781 -1.3216 -0.9581  0.4914
  652TMC3    H1 9709   2.235   3.017  10.810  0.2258  0.2814 -1.8630
  652TMC3    H2 9710   1.931   2.821  10.594 -1.5315 -0.3517  2.1619
  652TMC3    C7 9711   1.992   3.050  10.694  0.4329  0.1429 -0.0491
  652TMC3    C8 9712   2.011   2.567  10.653  0.4376 -0.2111 -0.3734
  652TMC3    O1 9713   1.873   3.037  10.695 -0.2994 -0.0536  0.4395
  652TMC3    O2 9714   2.083   2.468  10.650 -0.2618 -0.1051  0.3791
  653MPD2     C 9715   0.248   2.617  17.155 -0.4061  0.1334  0.2283
  653MPD2    C1 9716   0.336   2.692  17.081  0.6454  0.3476 -0.0679
  653MPD2    C2 9717   0.353   2.666  16.950 -0.3650  0.9497  0.3122
  653MPD2    C3 9718   0.300   2.546  16.894 -0.1465  0.0003 -0.0430
  653MPD2    C4 9719   0.222   2.462  16.972 -0.2453  0.7113  0.2191
  653MPD2    C5 9720   0.194   2.506  17.102 -0.1735  0.4346  0.7328
  653MPD2     H 9721   0.414   2.727  16.884 -0.6822  3.7651  2.6499
  653MPD2    H1 9722   0.178   2.371  16.933  1.4284 -1.5817  3.7044
  653MPD2    H2 9723   0.230   2.629  17.261  1.8850 -0.3300  0.6508
  653MPD2    H3 9724   0.146   2.430  17.162 -0.1470 -1.6026 -1.8673
  653MPD2     N 9725   0.341   2.513  16.758 -0.0653 -0.6391  0.1079
  653MPD2    H5 9726   0.398   2.582  16.711  0.1896 -1.0923 -0.2394
  653MPD2    N1 9727   0.390   2.813  17.125 -0.6353  0.5651  0.0435
  653MPD2    H7 9728   0.433   2.878  17.060  0.0946 -0.4692 -0.5213
  654TMC3    C1 9729   0.385   2.370  16.566  0.0666 -0.0563 -0.1859
  654TMC3    C2 9730   0.346   2.449  16.461  0.1961  0.1238  0.2298
  654TMC3    C3 9731   0.369   2.409  16.335 -0.4264 -0.3672 -0.4758
  654TMC3    C4 9732   0.448   2.248  16.547  1.0594  0.1136 -0.5666
  654TMC3    C5 9733   0.482   2.222  16.415 -0.0647  0.4365 -0.6048
  654TMC3    C6 9734   0.446   2.300  16.305 -0.4883 -0.0335  0.5369
  654TMC3     C 9735   0.325   2.389  16.697 -0.4744 -0.0887  0.0523
  654TMC3     O 9736   0.256   2.299  16.739  0.0144 -0.0152  0.0362
  654TMC3     H 9737   0.288   2.537  16.488  1.6195  0.4453  2.2130
  654TMC3    H1 9738   0.477   2.188  16.633 -0.5846  0.0178 -0.0842
  654TMC3    H2 9739   0.466   2.265  16.204  0.1301 -2.1461  1.3777
  654TMC3    C7 9740   0.566   2.110  16.380 -0.7576 -0.1971 -0.2831
  654TMC3    C8 9741   0.281   2.463  16.238  0.4171  0.9254 -0.7811
  654TMC3    O1 9742   0.625   2.133  16.275 -0.0434  0.6388  0.2310
  654TMC3    O2 9743   0.171   2.502  16.279 -0.0114  0.8408  0.9853
  655MPD2     C 9744   2.037   2.690  15.444 -0.3125 -0.1204 -0.1768
  655MPD2    C1 9745   1.969   2.811  15.415 -0.1082 -0.3867 -0.2501
  655MPD2    C2 9746   1.898   2.821  15.296  1.3234  0.4518  0.6794
  655MPD2    C3 9747   1.891   2.717  15.208  0.0239  0.8440 -0.3099
  655MPD2    C4 9748   1.978   2.611  15.225 -0.1526  0.0902 -0.4927
  655MPD2    C5 9749   2.043   2.591  15.347  0.1590  0.2822  0.4841
  655MPD2     H 9750   1.838   2.911  15.290 -0.9295 -1.0977 -0.0848
  655MPD2    H1 9751   1.984   2.520  15.165  1.6669  0.3019 -0.6402
  655MPD2    H2 9752   2.096   2.690  15.535  0.7708  2.2074 -0.8762
  655MPD2    H3 9753   2.100   2.500  15.364  0.4310  0.5341  0.9574
  655MPD2     N 9754   1.806   2.714  15.091  0.6635 -0.0077 -0.2170
  655MPD2    H5 9755   1.814   2.633  15.030 -0.7589  0.4809 -1.0570
  655MPD2    N1 9756   1.956   2.920  15.503  0.0400  0.5781 -0.3779
  655MPD2    H7 9757   1.906   2.998  15.462  0.0851  1.0916  0.5307
  656TMC3    C1 9758   1.974   3.062  15.692 -0.1644  0.5558  0.5689
  656TMC3    C2 9759   1.903   3.066  15.805  0.1218 -0.0312  0.3398
  656TMC3    C3 9760   1.869   3.188  15.856 -0.1676  0.0060  0.3572
  656TMC3    C4 9761   2.001   3.176  15.621 -0.9377  0.2648 -0.2613
  656TMC3    C5 9762   1.951   3.287  15.667  0.0689 -0.8419 -0.0262
  656TMC3    C6 9763   1.886   3.304  15.793 -0.0688  0.2812 -0.2876
  656TMC3     C 9764   1.996   2.930  15.632 -0.1963 -0.7861  0.2199
  656TMC3     O 9765   2.035   2.838  15.702 -0.2459 -0.0536 -0.1748
  656TMC3     H 9766   1.870   2.972  15.846  0.5960 -0.3962 -0.1163
  656TMC3    H1 9767   2.057   3.170  15.528  1.6703 -0.1792  1.3385
  656TMC3    H2 9768   1.839   3.394  15.833  0.4019  0.4160 -0.0348
  656TMC3    C7 9769   1.953   3.390  15.567 -0.3572  0.4797 -0.4103
  656TMC3    C8 9770   1.777   3.175  15.970 -0.0406  0.1681 -0.3869
  656TMC3    O1 9771   2.031   3.385  15.472  0.3071 -0.1306 -0.6971
  656TMC3    O2 9772   1.747   3.062  16.009 -0.1247  0.0230 -0.0464
  657TMC3    C1 9773   0.668   2.483  14.630 -0.0896 -0.3715 -0.2674
  657TMC3    C2 9774   0.694   2.510  14.761  0.4562  0.3796  0.6141
  657TMC3    C3 9775   0.615   2.599  14.829 -0.9100 -0.0190  0.1557
  657TMC3    C4 9776   0.564   2.549  14.567  0.4390  0.1156 -0.4433
  657TMC3    C5 9777   0.492   2.647  14.628 -0.1943  0.1385  0.7533
  657TMC3    C6 9778   0.513   2.675  14.762 -0.7416 -0.1159 -0.0339
  657TMC3     C 9779   0.712   2.360  14.575  0.1672 -0.4401  0.1712
  657TMC3     O 9780   0.640   2.315  14.485  0.7790  0.3685  0.3634
  657TMC3     H 9781   0.774   2.470  14.822  0.4861 -1.5166 -0.6627
  657TMC3    H1 9782   0.533   2.515  14.469  0.2759  1.4300 -0.8465
  657TMC3    H2 9783   0.453   2.752  14.810  0.6649  0.4837  0.7572
  657TMC3    C7 9784   0.441   2.759  14.560  0.6305 -0.1055 -0.1606
  657TMC3    C8 9785   0.657   2.641  14.966 -0.3221  0.2668 -0.1096
  657TMC3    O1 9786   0.462   2.863  14.617 -0.0017  0.0481  0.1271
  657TMC3    O2 9787   0.722   2.556  15.029 -0.3043  0.6295 -0.4204
  658MPD2     C 9788   2.051   3.024  14.633  0.3997  0.7431 -0.0574
  658MPD2    C1 9789   1.986   2.929  14.564  0.5967 -0.3654 -0.0978
  658MPD2    C2 9790   2.016   2.905  14.436 -0.6676 -0.0714  0.6886
  658MPD2    C3 9791   2.116   2.972  14.374 -0.0872  0.2578  0.4159
  658MPD2    C4 9792   2.196   3.053  14.453 -0.2921  0.1718  0.1647
  658MPD2    C5 9793   2.170   3.076  14.586 -0.1835 -0.0637 -0.0090
  658MPD2     H 9794   1.949   2.841  14.380  0.7162 -0.0933 -0.9437
  658MPD2    H1 9795   2.288   3.103  14.425  0.5224 -1.7213 -0.5219
  658MPD2    H2 9796   2.027   3.061  14.732  0.2522  0.7587 -0.1002
  658MPD2    H3 9797   2.227   3.148  14.643  1.9325 -2.7305  1.2605
  658MPD2     N 9798   2.153   2.943  14.239  0.1706  0.1111  0.6207
  658MPD2    H5 9799   2.089   2.873  14.202  0.5656 -0.3396  0.7751
  658MPD2    N1 9800   1.880   2.858  14.634 -0.4343  0.0549  0.1210
  658MPD2    H7 9801   1.854   2.905  14.720  1.4112  3.5126 -1.2372
  659TMC3    C1 9802   1.704   2.728  14.696  0.8083 -0.2486  0.6082
  659TMC3    C2 9803   1.750   2.746  14.822 -0.3953  0.6128  0.0715
  659TMC3    C3 9804   1.669   2.775  14.925 -0.0485  0.3863 -0.1899
  659TMC3    C4 9805   1.573   2.757  14.670  0.1032 -0.4332 -0.1217
  659TMC3    C5 9806   1.487   2.775  14.774 -1.1205 -0.4027 -0.3627
  659TMC3    C6 9807   1.533   2.791  14.897  0.6996 -0.1478 -0.0772
  659TMC3     C 9808   1.796   2.763  14.590 -0.4609  0.1192 -0.6802
  659TMC3     O 9809   1.793   2.700  14.486  1.0545 -0.2718 -0.0528
  659TMC3     H 9810   1.855   2.732  14.848 -0.4663  1.0080  0.5792
  659TMC3    H1 9811   1.534   2.756  14.569 -0.3443  2.3266  0.0318
  659TMC3    H2 9812   1.471   2.804  14.984  0.8510 -0.7301  0.1200
  659TMC3    C7 9813   1.348   2.803  14.756 -0.2568 -0.1619  0.4590
  659TMC3    C8 9814   1.711   2.805  15.058 -0.5592  0.6539 -0.8146
  659TMC3    O1 9815   1.297   2.872  14.842  0.7521 -0.0481  0.5902
  659TMC3    O2 9816   1.662   2.901  15.118 -0.3561 -0.4626 -0.5356
  660MPD2     C 9817   0.175   1.326  12.808  0.2134 -0.1558 -0.0434
  660MPD2    C1 9818   0.054   1.356  12.738 -0.2976 -0.4461  0.4805
  660MPD2    C2 9819   4.671   1.328  12.802 -0.9224 -0.0587  0.2953
  660MPD2    C3 9820   4.678   1.274  12.926 -0.1426  0.3136  0.4965
  660MPD2    C4 9821   0.059   1.244  12.992 -0.1135  0.6072  0.7082
  660MPD2    C5 9822   0.172   1.271  12.932 -0.3649  0.3886 -0.2996
  660MPD2     H 9823   4.575   1.347  12.756 -1.0453  2.9549  1.7671
  660MPD2    H1 9824   0.056   1.204  13.093 -0.2176 -2.0009 -0.3159
  660MPD2    H2 9825   0.272   1.345  12.763  0.1771  1.1248  0.4234
  660MPD2    H3 9826   0.263   1.249  12.988 -0.4266 -1.7259 -1.0109
  660MPD2     N 9827   4.561   1.236  12.997 -0.3242 -0.5107  0.7224
  660MPD2    H5 9828   4.580   1.202  13.090  0.2080 -0.4455  0.6330
  660MPD2    N1 9829   0.053   1.426  12.616 -0.3609  0.9660  0.1338
  660MPD2    H7 9830   4.701   1.445  12.571 -1.7743  0.8529  2.8886
  661TMC3    C1 9831   0.131   1.500  12.400  0.0781 -0.3192  1.3386
  661TMC3    C2 9832   0.227   1.465  12.307 -0.3425  0.7102  0.2039
  661TMC3    C3 9833   0.198   1.486  12.174  0.2946 -0.4787 -0.4387
  661TMC3    C4 9834   0.004   1.530  12.363 -0.6239  0.0282 -0.4708
  661TMC3    C5 9835   4.717   1.553  12.226 -0.0033 -0.1428  0.3821
  661TMC3    C6 9836   0.079   1.534  12.131  0.2552 -0.3603 -0.8759
  661TMC3     C 9837   0.162   1.455  12.537  0.1443 -0.4819 -0.3274
  661TMC3     O 9838   0.281   1.438  12.562  0.3600  0.3766 -0.0435
  661TMC3     H 9839   0.324   1.428  12.336 -0.4872  0.6636  0.6242
  661TMC3    H1 9840   4.666   1.560  12.435  0.9075 -0.6942  1.4031
  661TMC3    H2 9841   0.065   1.569  12.030 -0.0998  0.1980 -0.6304
  661TMC3    C7 9842   4.592   1.612  12.184  0.6499 -0.1995  0.4620
  661TMC3    C8 9843   0.303   1.470  12.068 -0.6080  0.6137  0.0230
  661TMC3    O1 9844   4.527   1.689  12.252 -0.2874 -0.1125  0.4657
  661TMC3    O2 9845   0.257   1.477  11.957 -0.2626 -0.6823 -0.2545
  662MPD2     C 9846   0.389   1.367  16.913  0.0031 -0.4936  0.3405
  662MPD2    C1 9847   0.265   1.328  16.867 -0.0388  0.0213 -0.1001
  662MPD2    C2 9848   0.156   1.386  16.919 -0.6124  0.5340 -0.0094
  662MPD2    C3 9849   0.163   1.489  17.010  1.3125 -0.6790 -0.1367
  662MPD2    C4 9850   0.292   1.523  17.052 -0.4725  0.3918 -0.6195
  662MPD2    C5 9851   0.400   1.464  16.999  0.3771  0.6425 -0.4683
  662MPD2     H 9852   0.063   1.337  16.891  0.3026 -1.4051  0.3486
  662MPD2    H1 9853   0.311   1.598  17.127 -0.0123 -0.4346  0.0920
  662MPD2    H2 9854   0.481   1.325  16.874 -1.6875 -3.4239 -0.4809
  662MPD2    H3 9855   0.495   1.496  17.041 -0.5966  1.0613  1.4174
  662MPD2     N 9856   0.035   1.538  17.057  0.2374  0.4183 -0.2314
  662MPD2    H5 9857   4.693   1.499  17.007  1.3747 -0.1171 -1.6160
  662MPD2    N1 9858   0.247   1.216  16.780  0.9294  0.0904  0.1976
  662MPD2    H7 9859   0.151   1.186  16.763  1.4990 -2.2978  1.2483
  663TMC3    C1 9860   0.289   1.018  16.661  0.6493  0.0896  0.5119
  663TMC3    C2 9861   0.154   1.013  16.627 -0.1424 -0.5910 -0.3161
  663TMC3    C3 9862   0.103   0.898  16.585 -0.6296  0.3544 -0.5405
  663TMC3    C4 9863   0.371   0.909  16.647  0.8055 -0.3668  0.4581
  663TMC3    C5 9864   0.303   0.788  16.624  0.5612  0.3021  0.0532
  663TMC3    C6 9865   0.170   0.780  16.595 -0.6547  0.4995 -0.2870
  663TMC3     C 9866   0.341   1.137  16.719 -0.2866  0.7662  0.9863
  663TMC3     O 9867   0.462   1.140  16.732  0.3595 -1.0135  0.3299
  663TMC3     H 9868   0.098   1.101  16.598 -1.4779 -1.1925  0.4491
  663TMC3    H1 9869   0.478   0.915  16.666  0.6144  0.2357  1.3463
  663TMC3    H2 9870   0.126   0.699  16.538  0.3156  0.6292 -1.2103
  663TMC3    C7 9871   0.389   0.673  16.631 -0.2534  0.0265 -0.4343
  663TMC3    C8 9872   4.702   0.891  16.627  0.3057  0.2218  0.8390
  663TMC3    O1 9873   0.498   0.688  16.690 -0.3171 -0.3797 -0.0876
  663TMC3    O2 9874   4.619   0.812  16.586  0.2373 -0.9260 -0.2020
  664MPD2     C 9875   3.312   3.848  17.522 -0.4447 -0.6782 -0.1015
  664MPD2    C1 9876   3.389   3.965  17.507  0.0445 -0.8727 -0.5958
  664MPD2    C2 9877   3.428   4.033  17.617 -0.0535 -0.9459 -0.5147
  664MPD2    C3 9878   3.392   3.994  17.737 -0.0040 -0.4346 -0.2365
  664MPD2    C4 9879   3.333   3.869   0.015  0.0624 -0.3893  1.1617
  664MPD2    C5 9880   3.297   3.801  17.649 -0.7315  0.5933  0.0607
  664MPD2     H 9881   3.477   4.129  17.605 -2.8771  0.6773  0.8715
  664MPD2    H1 9882   3.310   3.833   0.114 -0.2458 -0.1133  1.1898
  664MPD2    H2 9883   3.277   3.790  17.437  2.9252  0.1993 -2.0736
  664MPD2    H3 9884   3.233   3.714  17.649 -0.6929  0.5606 -0.5194
  664MPD2     N 9885   3.438   4.073   0.098  0.0892  0.7732 -0.4591
  664MPD2    H5 9886   3.485   4.161   0.080 -0.2397  0.9728 -0.3363
  664MPD2    N1 9887   3.425   4.017  17.377  0.2578 -0.0639 -0.3513
  664MPD2    H7 9888   3.469   4.108  17.372  1.6732 -0.6204  1.7735
  665TMC3    C1 9889   3.500   4.135   0.321  0.5393  0.5146 -0.0042
  665TMC3    C2 9890   3.548   4.087   0.444 -0.7101  0.9391 -0.3502
  665TMC3    C3 9891   3.632   4.173   0.519 -0.0625 -0.3423  0.3455
  665TMC3    C4 9892   3.537   4.258   0.279 -0.6045 -0.0832  0.0836
  665TMC3    C5 9893   3.621   4.337   0.357  0.1134  0.3948  0.3146
  665TMC3    C6 9894   3.669   4.296   0.477 -0.1473 -0.1852  0.3655
  665TMC3     C 9895   3.434   4.037   0.232 -0.3608 -0.0861  0.5920
  665TMC3     O 9896   3.401   3.930   0.283  0.3695  0.4619  0.1945
  665TMC3     H 9897   3.519   3.991   0.485 -1.8147  1.7208  0.6890
  665TMC3    H1 9898   3.495   4.301   0.189 -2.3218  1.1242  1.4658
  665TMC3    H2 9899   3.732   4.349   0.547 -1.8106 -0.4226  2.0582
  665TMC3    C7 9900   3.606   4.478   0.333  0.1329 -0.1851  0.0832
  665TMC3    C8 9901   3.674   4.135   0.649  0.1632  0.2883 -0.1384
  665TMC3    O1 9902   3.520   4.516   0.256 -0.0659 -0.3207 -0.0976
  665TMC3    O2 9903   3.788   4.168   0.684 -0.6232 -0.2232 -0.8615
  666TMC3    C1 9904   2.620   3.967   9.628  0.0819 -0.0503  0.3228
  666TMC3    C2 9905   2.642   3.949   9.760  0.1566 -0.1270  0.1952
  666TMC3    C3 9906   2.664   4.054   9.844 -0.0243 -0.1335 -0.4312
  666TMC3    C4 9907   2.588   4.095   9.582 -1.0082  0.3080  0.3200
  666TMC3    C5 9908   2.619   4.203   9.663  0.4219 -0.1313  0.4157
  666TMC3    C6 9909   2.666   4.181   9.790  0.8336 -0.2679  0.0310
  666TMC3     C 9910   2.535   3.871   9.565 -0.4696 -0.1584 -0.7324
  666TMC3     O 9911   2.554   3.846   9.447  0.7837  0.1035  0.0808
  666TMC3     H 9912   2.653   3.847   9.795 -1.0801 -0.7593 -1.2415
  666TMC3    H1 9913   2.550   4.098   9.481  0.5318 -1.3706 -0.3172
  666TMC3    H2 9914   2.680   4.259   9.865 -1.3585  1.6739 -1.5771
  666TMC3    C7 9915   2.547   4.325   9.644 -0.6587 -0.5317  0.7495
  666TMC3    C8 9916   2.697   4.022   9.980  0.1247  0.5186  0.1707
  666TMC3    O1 9917   2.510   4.378   9.746 -0.0119  0.2401  0.0412
  666TMC3    O2 9918   2.659   3.917  10.024 -0.0930  0.3184  0.3342
  667MPD2     C 9919   4.282   4.025  14.693  0.2464 -0.0870  0.4249
  667MPD2    C1 9920   4.160   4.083  14.717 -0.1720  0.0483 -0.4417
  667MPD2    C2 9921   4.049   4.016  14.690 -0.0607 -1.0956  0.2960
  667MPD2    C3 9922   4.053   3.887  14.633 -0.3625 -0.1220 -0.0130
  667MPD2    C4 9923   4.178   3.836  14.599 -0.1789 -0.0310  0.0994
  667MPD2    C5 9924   4.294   3.904  14.630 -0.5404  0.4405 -0.4836
  667MPD2     H 9925   3.959   4.070  14.719 -0.5888 -0.9352 -1.6577
  667MPD2    H1 9926   4.187   3.736  14.559 -2.4173  0.6192 -1.9808
  667MPD2    H2 9927   4.375   4.076  14.715 -0.2281  0.2372  1.6328
  667MPD2    H3 9928   4.387   3.850  14.617  0.1230  1.3687  0.3576
  667MPD2     N 9929   3.930   3.811  14.623  0.1515 -0.1222  0.4041
  667MPD2    H5 9930   3.952   3.715  14.598 -0.6870 -0.7328  2.0093
  667MPD2    N1 9931   4.141   4.204  14.786 -0.3240 -0.6662  0.1760
  667MPD2    H7 9932   4.046   4.232  14.811  0.1162 -1.3873  2.6395
  668TMC3    C1 9933   4.190   4.422  14.852  0.6874  0.8858  0.0856
  668TMC3    C2 9934   4.276   4.527  14.848  0.4824  0.5645  0.7048
  668TMC3    C3 9935   4.241   4.632  14.921 -0.3298  0.4811 -0.9372
  668TMC3    C4 9936   4.078   4.411  14.938 -0.6748 -0.1584  0.0533
  668TMC3    C5 9937   4.049   4.521  15.013  0.7203 -0.4981  0.8505
  668TMC3    C6 9938   4.128   4.635  15.003 -0.0115 -0.5429 -0.0077
  668TMC3     C 9939   4.239   4.293  14.803  0.3274  0.6627  0.1353
  668TMC3     O 9940   4.346   4.297  14.740 -0.3482 -0.7500 -0.4196
  668TMC3     H 9941   4.368   4.532  14.791 -0.8984  2.5642 -1.3562
  668TMC3    H1 9942   4.029   4.316  14.950 -0.2429 -0.2010  1.4561
  668TMC3    H2 9943   4.108   4.724  15.062 -1.4068  1.2442 -3.1155
  668TMC3    C7 9944   3.926   4.532  15.096 -0.6930  0.5891 -0.8350
  668TMC3    C8 9945   4.307   0.024  14.911 -0.5052 -0.3302  0.0992
  668TMC3    O1 9946   3.934   4.610  15.194  0.0208  0.4018  0.1244
  668TMC3    O2 9947   4.300   0.103  15.003 -0.3395 -0.6201 -0.3659
  669TMC3    C1 9948   1.947   4.441  14.491  0.3024  0.3425  0.0503
  669TMC3    C2 9949   1.818   4.464  14.443  0.3125 -0.8166  0.4934
  669TMC3    C3 9950   1.806   4.544  14.339  0.1509 -0.0473 -0.5459
  669TMC3    C4 9951   2.055   4.513  14.448  0.0025 -0.0564 -0.0382
  669TMC3    C5 9952   2.035   4.605  14.344  0.4856 -0.7277  0.2908
  669TMC3    C6 9953   1.916   4.615  14.280  0.1368  1.0756  0.3144
  669TMC3     C 9954   1.961   4.340  14.600  0.1866  0.0932 -0.2275
  669TMC3     O 9955   1.881   4.341  14.692  0.7428 -0.4129 -0.1847
  669TMC3     H 9956   1.728   4.416  14.480 -0.5800 -0.3574 -1.0990
  669TMC3    H1 9957   2.151   4.498  14.495  0.6018  1.8534 -0.6464
  669TMC3    H2 9958   1.898   4.692  14.206  2.1967  1.0916 -0.1485
  669TMC3    C7 9959   2.160   4.658  14.292  0.6198  0.1373 -0.1030
  669TMC3    C8 9960   1.668   4.569  14.306 -0.2551 -0.2246 -0.3636
  669TMC3    O1 9961   2.255   4.664  14.366  0.5480  0.0886 -0.1811
  669TMC3    O2 9962   1.635   4.684  14.290  1.2345  0.6430 -0.4551
  670MPD2     C 9963   4.684   1.854  13.270  0.6169  0.6169  0.4659
  670MPD2    C1 9964   0.076   1.908  13.292 -0.2642  0.5904 -0.4864
  670MPD2    C2 9965   0.117   1.930  13.425  0.0101  0.1531 -0.6277
  670MPD2    C3 9966   0.036   1.903  13.534  0.2587  0.1380 -0.2266
  670MPD2    C4 9967   4.646   1.848  13.508  0.3113 -0.3521  0.5173
  670MPD2    C5 9968   4.599   1.831  13.377 -0.1591 -0.4670  0.3238
  670MPD2     H 9969   0.215   1.970  13.450  0.7588 -0.7944 -2.0283
  670MPD2    H1 9970   4.572   1.830  13.586 -1.0966  1.0195 -0.5044
  670MPD2    H2 9971   4.651   1.839  13.167 -1.6533 -1.3264  1.4856
  670MPD2    H3 9972   4.505   1.780  13.359 -1.0787  1.3088  0.0470
  670MPD2     N 9973   0.093   1.921  13.657 -1.0381  0.1195 -0.0754
  670MPD2    H5 9974   0.172   1.984  13.658 -3.7194  3.4786 -0.8198
  670MPD2    N1 9975   0.173   1.952  13.192  0.5433  0.0021  0.6691
  670MPD2    H7 9976   0.259   1.990  13.230  0.3587  1.7966 -0.6700
  671TMC3    C1 9977   0.130   1.896  13.889  0.5397 -0.6487 -0.1315
  671TMC3    C2 9978   0.263   1.886  13.878 -0.4838  0.1956  0.4926
  671TMC3    C3 9979   0.331   1.838  13.986  0.4417 -0.3506  0.7538
  671TMC3    C4 9980   0.059   1.871  14.005 -0.0978 -0.1414 -0.2652
  671TMC3    C5 9981   0.133   1.823  14.110  0.7519 -0.1797 -0.8377
  671TMC3    C6 9982   0.268   1.795  14.102 -0.6040 -0.6275  0.0349
  671TMC3     C 9983   0.049   1.862  13.771 -0.4063 -0.5316 -0.0493
  671TMC3     O 9984   4.697   1.777  13.797 -0.0074  0.5782 -0.0896
  671TMC3     H 9985   0.314   1.904  13.785  1.3505  3.2977  2.1105
  671TMC3    H1 9986   4.688   1.885  14.000 -0.2331 -0.4909  1.7806
  671TMC3    H2 9987   0.326   1.740  14.175 -0.4563 -0.4941  0.0187
  671TMC3    C7 9988   0.059   1.729  14.192 -1.0115  0.0759 -0.1715
  671TMC3    C8 9989   0.455   1.779  13.952  0.1466  0.4925  0.3429
  671TMC3    O1 9990   0.112   1.688  14.294 -0.6326  0.0525  0.4510
  671TMC3    O2 9991   0.461   1.743  13.838 -0.2769  0.0787 -0.2854
  672MPD2     C 9992   0.741   2.931   0.261 -1.0153 -0.5236  0.1541
  672MPD2    C1 9993   0.798   2.819   0.191 -0.3531  0.3921  0.8356
  672MPD2    C2 9994   0.917   2.842   0.121 -0.0011  0.1561  0.6395
  672MPD2    C3 9995   0.975   2.976   0.123  0.3656 -0.1602  0.0528
  672MPD2    C4 9996   0.911   3.079   0.190  0.3532 -0.6134 -0.0138
  672MPD2    C5 9997   0.804   3.054   0.265  0.3239  0.1374 -0.8931
  672MPD2     H 9998   0.972   2.768   0.065 -0.4968 -0.3977  0.8949
  672MPD2    H1 9999   0.945   3.179   0.166 -1.1232 -0.2152 -0.4556
  672MPD2    H210000   0.653   2.930   0.325  0.0059 -0.7931  1.5569
  672MPD2    H310001   0.748   3.133   0.312  0.6444 -0.2903  0.2132
  672MPD2     N10002   1.076   3.012   0.037 -0.8044  0.5997 -0.3679
  672MPD2    H510003   1.098   3.110   0.048  0.6607  0.1645  0.5595
  672MPD2    N110004   0.751   2.684   0.204  0.0955 -0.0286  0.3005
  672MPD2    H710005   0.800   2.609   0.156 -0.3540 -0.6422  0.7966
  673TMC3    C110006   0.583   2.513   0.246 -0.0524  0.5387 -0.6613
  673TMC3    C210007   0.661   2.403   0.257 -0.5111  0.3042 -0.5408
  673TMC3    C310008   0.604   2.282   0.269 -0.0102 -0.1017  0.0744
  673TMC3    C410009   0.446   2.509   0.248 -0.0789 -0.9210  0.6480
  673TMC3    C510010   0.390   2.386   0.259  0.3000  0.5069 -0.1654
  673TMC3    C610011   0.464   2.268   0.267 -0.3341  0.4590 -0.2058
  673TMC3     C10012   0.629   2.652   0.263 -0.0297  0.0838 -0.2206
  673TMC3     O10013   0.552   2.723   0.325 -0.5056 -0.5896  0.3969
  673TMC3     H10014   0.768   2.422   0.266 -0.2030 -0.9444 -1.6768
  673TMC3    H110015   0.388   2.600   0.234  0.5869 -0.6974 -0.6695
  673TMC3    H210016   0.419   2.170   0.271 -0.8694  0.5969 -2.8720
  673TMC3    C710017   0.249   2.373   0.231  0.1499  0.5620 -1.0027
  673TMC3    C810018   0.686   2.167   0.288 -0.0961 -0.8063 -0.2722
  673TMC3    O110019   0.212   2.268   0.181  0.9638  0.2340  0.0770
  673TMC3    O210020   0.628   2.060   0.300 -0.0230 -0.6007  0.1319
  674MPD2     C10021   4.647   2.908  17.500 -0.3571  0.2304 -0.5083
  674MPD2    C110022   4.661   2.773  17.514  1.0537  0.1540 -0.1961
  674MPD2    C210023   4.545   2.693  17.496  0.9214  0.1171  0.8451
  674MPD2    C310024   4.417   2.747  17.494  0.0790 -0.5575 -0.7249
  674MPD2    C410025   4.406   2.880  17.468  0.4461  0.8542 -0.5841
  674MPD2    C510026   4.520   2.956  17.461 -0.2758  0.6763  0.0860
  674MPD2     H10027   4.555   2.588  17.521 -0.2136 -0.2972 -0.4456
  674MPD2    H110028   4.312   2.925  17.440 -0.6285 -1.1419 -0.1680
  674MPD2    H210029   4.733   2.974  17.501 -0.8192  0.8163  0.4014
  674MPD2    H310030   4.504   3.060  17.432 -1.0626  0.3784 -0.5404
  674MPD2     N10031   4.304   2.666  17.514  0.5244 -0.7596 -0.6855
  674MPD2    H510032   4.312   2.565  17.517  1.1125 -0.6593  1.2709
  674MPD2    N110033   0.054   2.718  17.552  0.3550  0.1692 -0.4600
  674MPD2    H710034   0.069   2.621  17.526  1.6847  0.0137  0.9160
  675TMC3    C110035   0.267   2.706  17.648  0.4616 -0.3730  0.3897
  675TMC3    C210036   0.256   2.568  17.642 -0.6187 -0.3650  0.3181
  675TMC3    C310037   0.370   2.495  17.649  0.1520 -0.7959 -0.4639
  675TMC3    C410038   0.388   2.765  17.658  0.2606  0.0602 -0.4561
  675TMC3    C510039   0.501   2.685  17.670 -0.0945 -0.3101  0.3196
  675TMC3    C610040   0.494   2.547  17.664 -0.2341 -0.3626 -0.4491
  675TMC3     C10041   0.162   2.789  17.598  0.7508 -0.1319  0.6102
  675TMC3     O10042   0.178   2.909  17.607  0.2137  0.3823 -0.2803
  675TMC3     H10043   0.160   2.524  17.617 -0.2942 -0.4017 -0.8442
  675TMC3    H110044   0.393   2.873  17.661 -0.5081  0.1150 -1.1575
  675TMC3    H210045   0.578   2.481  17.679 -2.4063 -2.9683  0.1918
  675TMC3    C710046   0.626   2.744  17.625 -0.8413  0.8911 -0.0429
  675TMC3    C810047   0.362   2.368  17.579 -0.3015  0.0983 -0.0445
  675TMC3    O110048   0.718   2.671  17.600 -0.4783 -0.0762  0.6094
  675TMC3    O210049   0.433   2.342  17.482  0.2104 -0.2095  0.0506
  676MPD2     C10050   3.285   0.945  10.763  0.2105  0.0422 -0.1451
  676MPD2    C110051   3.155   0.942  10.729 -0.2045 -0.1426  0.0274
  676MPD2    C210052   3.095   0.819  10.692  0.0636 -0.1556  0.7245
  676MPD2    C310053   3.169   0.704  10.682  0.2158 -0.8706 -0.2025
  676MPD2    C410054   3.301   0.706  10.717 -0.1475 -0.3288  0.2395
  676MPD2    C510055   3.352   0.825  10.759 -0.1513 -0.8285  0.3077
  676MPD2     H10056   2.992   0.816  10.656  0.0708  0.7922  0.6210
  676MPD2    H110057   3.371   0.624  10.710  1.8364  1.4353 -0.6936
  676MPD2    H210058   3.336   1.033  10.801  0.0850 -0.4568  1.1750
  676MPD2    H310059   3.458   0.822  10.781  0.2448  0.0114 -1.4550
  676MPD2     N10060   3.122   0.583  10.625  0.0927  0.3084 -0.1647
  676MPD2    H510061   3.192   0.510  10.620 -0.9003 -0.8361  2.6459
  676MPD2    N110062   3.073   1.057  10.743  0.2683  0.9831  0.9714
  676MPD2    H710063   2.977   1.035  10.717  0.0079 -0.9588  3.6530
  677TMC3    C110064   2.998   1.283  10.778  0.7549  0.3665  0.7037
  677TMC3    C210065   2.899   1.266  10.690  0.1583 -0.1213 -0.2551
  677TMC3    C310066   2.788   1.336  10.710  0.4284  0.4838  0.0926
  677TMC3    C410067   2.991   1.378  10.884 -0.2506  0.3983 -0.2010
  677TMC3    C510068   2.881   1.461  10.884  0.3773 -0.0832 -0.0362
  677TMC3    C610069   2.774   1.441  10.801 -0.0139 -0.2579 -0.3418
  677TMC3     C10070   3.106   1.184  10.793  0.3703 -0.1526 -0.1020
  677TMC3     O10071   3.209   1.222  10.847  0.5506 -0.2153  0.1229
  677TMC3     H10072   2.894   1.189  10.614  1.5717 -0.7635  0.3129
  677TMC3    H110073   3.086   1.410  10.925 -2.4696  3.1785  2.7595
  677TMC3    H210074   2.684   1.500  10.798  1.0078  1.3791  1.6241
  677TMC3    C710075   2.844   1.505  11.017  0.2680 -0.1284  0.1395
  677TMC3    C810076   2.674   1.293  10.637  0.3873 -0.4758  0.2788
  677TMC3    O110077   2.726   1.533  11.023 -0.3227 -0.0296  0.1964
  677TMC3    O210078   2.694   1.245  10.527  0.6084 -0.3036  0.7680
  678MPD2     C10079   0.151   0.495   0.950 -0.0679  0.1909 -0.4352
  678MPD2    C110080   0.107   0.571   0.839 -0.2108  0.1456  0.2646
  678MPD2    C210081   4.720   0.629   0.828  0.2600 -0.3320 -0.4265
  678MPD2    C310082   4.633   0.617   0.934  0.0707 -0.3777  0.0820
  678MPD2    C410083   4.669   0.540   1.042 -0.1819 -0.1324  0.2590
  678MPD2    C510084   0.049   0.465   1.043 -0.4428  0.3591 -0.7500
  678MPD2     H10085   4.697   0.693   0.744  0.6803 -2.1791 -1.9520
  678MPD2    H110086   4.586   0.519   1.108 -0.5679  0.1675 -0.1255
  678MPD2    H210087   0.250   0.454   0.960 -0.5109 -0.4518  1.4078
  678MPD2    H310088   0.066   0.393   1.122 -0.4170 -1.1511 -2.1299
  678MPD2     N10089   4.521   0.694   0.925  0.4729  0.1375 -0.0040
  678MPD2    H510090   4.508   0.718   0.827 -1.2706  0.9214  0.4150
  678MPD2    N110091   0.200   0.590   0.729 -0.1954 -0.1121 -0.2459
  678MPD2    H710092   0.149   0.636   0.654  0.6153  1.0095 -0.1099
  679TMC3    C110093   0.563   0.523   0.439  0.4243 -0.2180 -0.4412
  679TMC3    C210094   0.497   0.490   0.555  0.6538  0.5822  0.5488
  679TMC3    C310095   0.391   0.568   0.586 -0.7205  0.3634 -0.3649
  679TMC3    C410096   0.532   0.632   0.360 -1.0483 -0.2452 -0.0706
  679TMC3    C510097   0.417   0.702   0.396 -0.2635 -0.7705  0.0602
  679TMC3    C610098   0.345   0.674   0.509  0.1947 -0.2760 -0.0284
  679TMC3     C10099   0.604   0.418   0.351  0.6405  0.3475 -0.2332
  679TMC3     O10100   0.600   0.444   0.232 -0.2816  0.0522 -0.0429
  679TMC3     H10101   0.526   0.396   0.600  0.1688 -0.1365 -0.6571
  679TMC3    H110102   0.582   0.648   0.265 -3.4133 -0.5456 -1.3560
  679TMC3    H210103   0.257   0.730   0.540 -0.2364 -1.2131  0.4652
  679TMC3    C710104   0.346   0.778   0.288 -0.0378 -0.3326 -0.0875
  679TMC3    C810105   0.322   0.528   0.705  1.0034  0.0205 -0.0283
  679TMC3    O110106   0.226   0.789   0.290 -0.2738 -0.0781 -0.6741
  679TMC3    O210107   0.389   0.454   0.776  0.3341  0.3867 -0.3504
  680MPD2     C10108   0.046   3.880  13.044  0.3727  0.7439  1.3735
  680MPD2    C110109   0.081   3.814  13.163  0.7020 -0.3774 -0.8803
  680MPD2    C210110   0.047   3.861  13.284  0.3158  0.5923 -0.3868
  680MPD2    C310111   4.720   3.983  13.287 -0.2611 -0.1780  0.5757
  680MPD2    C410112   4.682   4.057  13.175  0.0920  0.0398 -0.1329
  680MPD2    C510113   4.708   3.996  13.049  0.1587 -0.0829 -0.2652
  680MPD2     H10114   0.078   3.810  13.375 -1.9031 -0.8503 -0.4385
  680MPD2    H110115   4.628   4.151  13.176 -0.3524 -0.2151  0.0585
  680MPD2    H210116   0.071   3.838  12.948  1.1869  0.4509  1.7141
  680MPD2    H310117   4.676   4.043  12.957 -1.1446 -0.9666 -0.2690
  680MPD2     N10118   4.719   4.064  13.409 -0.6840 -0.2702 -0.6440
  680MPD2    H510119   4.685   4.159  13.397  0.9923  0.5153  0.7890
  680MPD2    N110120   0.145   3.693  13.145 -0.2215 -0.1879  0.1654
  680MPD2    H710121   0.172   3.679  13.049  1.2873 -2.8197  0.9703
  681TMC3    C110122   0.247   3.485  13.189  0.4010 -0.2643  0.7730
  681TMC3    C210123   0.247   3.378  13.265  0.5361 -0.2065  0.3762
  681TMC3    C310124   0.364   3.308  13.297  0.5452 -0.4149 -0.0224
  681TMC3    C410125   0.365   3.530  13.127 -0.9793 -0.6613  0.1482
  681TMC3    C510126   0.478   3.462  13.161 -0.1142 -0.1066  0.4821
  681TMC3    C610127   0.485   3.345  13.232 -0.3719 -0.2439  0.6585
  681TMC3     C10128   0.158   3.591  13.232 -0.0764  0.1381  0.3051
  681TMC3     O10129   0.113   3.580  13.344 -0.2324 -0.3196  0.2232
  681TMC3     H10130   0.155   3.355  13.319 -0.1009  2.0514  0.2240
  681TMC3    H110131   0.370   3.628  13.082 -2.8123 -0.3758  0.5702
  681TMC3    H210132   0.579   3.311  13.274 -0.9356 -0.6308  1.6251
  681TMC3    C710133   0.613   3.510  13.129  0.2345 -0.3393 -0.0930
  681TMC3    C810134   0.382   3.251  13.430 -0.5773 -0.1724  0.5897
  681TMC3    O110135   0.706   3.473  13.192  0.2647  0.5250 -0.4334
  681TMC3    O210136   0.488   3.198  13.460 -0.0257  0.4642  0.1960
  682MPD2     C10137   2.227   0.409  10.237 -0.6624  0.4667  0.1029
  682MPD2    C110138   2.107   0.352  10.224 -0.5032 -0.2076  0.2685
  682MPD2    C210139   2.019   0.366  10.332 -0.1814 -0.0952  0.3772
  682MPD2    C310140   2.055   0.414  10.456  0.2984  0.3299  0.2448
  682MPD2    C410141   2.181   0.463  10.467  0.4345  0.3104  0.2704
  682MPD2    C510142   2.265   0.461  10.358  0.2671 -0.3041 -0.7793
  682MPD2     H10143   1.919   0.328  10.313 -0.6362  0.8150  0.9582
  682MPD2    H110144   2.222   0.481  10.566 -1.0443 -0.0277  0.9501
  682MPD2    H210145   2.302   0.394  10.160 -0.2147  2.1119  0.2036
  682MPD2    H310146   2.371   0.469  10.380  0.9256 -2.2829 -3.1881
  682MPD2     N10147   1.967   0.426  10.568  0.4875  0.1424 -0.2482
  682MPD2    H510148   2.003   0.468  10.653 -1.8754 -0.5809  1.1194
  682MPD2    N110149   2.064   0.298  10.102 -0.4053 -0.4543 -0.2444
  682MPD2    H710150   1.965   0.274  10.094 -0.0993 -1.1342 -1.8681
  683TMC3    C110151   1.831   0.415  10.938  0.2722  0.1210  0.1578
  683TMC3    C210152   1.698   0.373  10.963 -0.2661 -0.6639 -0.2813
  683TMC3    C310153   1.614   0.338  10.859  0.8316 -1.1777 -0.0679
  683TMC3    C410154   1.876   0.434  10.811  0.0199  0.4067 -0.8973
  683TMC3    C510155   1.786   0.403  10.710  0.1518 -0.2053 -0.4681
  683TMC3    C610156   1.658   0.353  10.725 -0.4618  0.2968  0.2932
  683TMC3     C10157   1.927   0.452  11.041 -0.0224  0.4175 -0.1959
  683TMC3     O10158   2.049   0.441  11.024  0.4470 -0.2759  0.8124
  683TMC3     H10159   1.664   0.347  11.063  0.6537  0.5011  0.3354
  683TMC3    H110160   1.968   0.487  10.792  0.8420 -0.8387 -0.4413
  683TMC3    H210161   1.595   0.346  10.637  1.3694  2.5261 -1.1910
  683TMC3    C710162   1.840   0.384  10.572  0.6744  0.6080  0.0471
  683TMC3    C810163   1.506   0.244  10.863  0.2186 -0.9235  1.2309
  683TMC3    O110164   1.761   0.352  10.487 -0.0833  0.4486  0.0098
  683TMC3    O210165   1.444   0.227  10.759 -0.0866  0.0373  0.3206
  684MPD2     C10166   0.529   4.441  16.254 -0.0434 -0.7470 -0.4935
  684MPD2    C110167   0.461   4.451  16.130  0.2228  0.0288 -0.6061
  684MPD2    C210168   0.412   4.575  16.091  0.4310 -0.0914  0.4363
  684MPD2    C310169   0.452   4.686  16.158 -0.0997 -0.4968  0.5615
  684MPD2    C410170   0.526   4.676  16.272 -0.0382 -0.0176  0.2366
  684MPD2    C510171   0.557   4.554  16.324  0.3600 -0.8151 -0.3393
  684MPD2     H10172   0.345   4.590  16.007  3.0188  1.1759 -1.3971
  684MPD2    H110173   0.543   0.028  16.333 -0.6711  0.6843 -0.6137
  684MPD2    H210174   0.567   4.346  16.291  0.3204 -0.9615 -1.4149
  684MPD2    H310175   0.623   4.556  16.410 -1.9942 -1.2805  1.4986
  684MPD2     N10176   0.431   0.080  16.121 -0.3606 -0.0634  0.0743
  684MPD2    H510177   0.491   0.142  16.175 -0.8655  1.7666 -1.4760
  684MPD2    N110178   0.449   4.344  16.041  0.6478  0.1852  0.0132
  684MPD2    H710179   0.405   4.368  15.953  0.9731 -1.2518 -0.5452
  685TMC3    C110180   0.526   4.158  15.917  0.1272  0.4770  0.4157
  685TMC3    C210181   0.453   4.213  15.813 -0.5671 -0.1194 -0.4978
  685TMC3    C310182   0.500   4.180  15.685 -0.0941 -1.2054 -0.2764
  685TMC3    C410183   0.642   4.095  15.901  0.1150 -0.1266 -0.7161
  685TMC3    C510184   0.702   4.095  15.780 -0.5936 -0.4276  0.7473
  685TMC3    C610185   0.630   4.140  15.672  0.5052  0.6643  0.2068
  685TMC3     C10186   0.519   4.224  16.047 -0.0228 -0.4148 -0.4104
  685TMC3     O10187   0.587   4.182  16.139  0.1083  0.2719  0.2948
  685TMC3     H10188   0.353   4.245  15.839 -0.0656 -0.2133  1.4974
  685TMC3    H110189   0.701   4.075  15.989  0.8025  0.2354 -1.0981
  685TMC3    H210190   0.681   4.136  15.577  3.8177 -0.3324  2.0227
  685TMC3    C710191   0.840   4.123  15.784 -0.3639  0.1130  0.4229
  685TMC3    C810192   0.434   4.223  15.564 -0.0521 -0.7424  0.1843
  685TMC3    O110193   0.896   4.052  15.864  0.8685 -0.3163  0.0107
  685TMC3    O210194   0.487   4.194  15.458  0.4239  0.2988  0.4240
  686MPD2     C10195   1.659   0.355  15.409 -0.1820  0.1608  0.2191
  686MPD2    C110196   1.744   0.246  15.440 -0.2698 -0.1432  1.0818
  686MPD2    C210197   1.830   0.203  15.338  0.0292 -0.1909 -0.4119
  686MPD2    C310198   1.813   0.254  15.215 -0.5940 -0.5161  0.2182
  686MPD2    C410199   1.737   0.370  15.194  0.5124  0.5656  0.5639
  686MPD2    C510200   1.655   0.420  15.290 -0.2642  0.0603  0.2460
  686MPD2     H10201   1.896   0.119  15.354 -2.6085 -1.9889  1.0387
  686MPD2    H110202   1.725   0.420  15.098 -2.5453 -4.2634 -1.5229
  686MPD2    H210203   1.600   0.388  15.494 -0.6903  1.0598 -0.4948
  686MPD2    H310204   1.598   0.513  15.285  1.2727  0.9082 -1.7039
  686MPD2     N10205   1.878   0.192  15.103  0.1768  0.6868  0.2558
  686MPD2    H510206   1.898   0.260  15.031 -1.6002  1.6030  0.6226
  686MPD2    N110207   1.734   0.174  15.559 -0.6355  0.3706 -0.3892
  686MPD2    H710208   1.657   0.202  15.620 -1.1494 -0.3774 -0.6950
  687TMC3    C110209   1.848   4.695  15.160 -0.5073 -0.1587 -0.1927
  687TMC3    C210210   1.715   4.707  15.198 -0.0347 -0.0524 -0.0573
  687TMC3    C310211   1.666   4.614  15.287 -0.3266  0.5050  0.1051
  687TMC3    C410212   1.930   4.590  15.198 -0.7964  0.0128 -0.9395
  687TMC3    C510213   1.874   4.497  15.289  0.0148  0.3461  0.1391
  687TMC3    C610214   1.745   4.504  15.331  0.6507  0.1217  0.9612
  687TMC3     C10215   1.913   0.062  15.084  0.7513  0.1301  0.2839
  687TMC3     O10216   1.987   0.018  15.001 -0.2632  0.2660  0.3351
  687TMC3     H10217   1.659   0.051  15.152 -0.0063  0.7368  1.2700
  687TMC3    H110218   2.036   4.581  15.177 -0.4026 -0.0232  1.1018
  687TMC3    H210219   1.708   4.435  15.406  1.5211 -0.0426  1.2509
  687TMC3    C710220   1.950   4.395  15.354  0.6784 -0.0717  0.6490
  687TMC3    C810221   1.546   4.641  15.363 -0.3524  0.8526  0.4021
  687TMC3    O110222   1.909   4.363  15.467 -0.6547 -0.2402  0.0453
  687TMC3    O210223   1.510   4.553  15.435 -0.3808  0.7070 -0.2018
  688MPD2     C10224   0.847   3.395  16.970  0.3331 -0.1885 -0.2033
  688MPD2    C110225   0.864   3.273  17.022  0.3173 -0.4003  0.4078
  688MPD2    C210226   0.979   3.207  17.001 -0.0389  0.6690  0.4724
  688MPD2    C310227   1.088   3.277  16.951 -0.8244 -0.2418  0.2546
  688MPD2    C410228   1.075   3.403  16.906  0.5373 -0.6906  0.0061
  688MPD2    C510229   0.949   3.454  16.904  0.2729  0.2520  0.0311
  688MPD2     H10230   0.989   3.103  17.032  0.0446  0.4330 -0.3393
  688MPD2    H110231   1.155   3.454  16.853 -0.2879 -1.1026 -1.6185
  688MPD2    H210232   0.747   3.436  16.958 -0.6539 -2.6951 -0.4728
  688MPD2    H310233   0.913   3.544  16.856  0.0754 -1.0754 -2.3494
  688MPD2     N10234   1.219   3.220  16.941 -0.5022 -0.6074  0.0193
  688MPD2    H510235   1.277   3.271  16.875 -0.3385  0.6829  1.1856
  688MPD2    N110236   0.760   3.197  17.082  0.5137  0.6284 -0.0745
  688MPD2    H710237   0.783   3.102  17.111 -0.2689  0.1729 -0.9545
  689TMC3    C110238   0.576   3.166  17.225  0.9804  0.3876 -0.1036
  689TMC3    C210239   0.515   3.233  17.334 -0.6555  0.0513 -0.3904
  689TMC3    C310240   0.433   3.165  17.423 -0.5463  0.1561  0.0293
  689TMC3    C410241   0.547   3.029  17.204 -0.7322  0.6543  0.3367
  689TMC3    C510242   0.458   2.969  17.287 -0.5614  0.3469 -0.7654
  689TMC3    C610243   0.402   3.030  17.401  0.8507  0.9704 -1.0601
  689TMC3     C10244   0.654   3.251  17.145 -0.8086  0.7952  0.0405
  689TMC3     O10245   0.631   3.372  17.161  0.6454 -0.1367 -0.8343
  689TMC3     H10246   0.536   3.337  17.358  1.2840  0.1624 -2.6602
  689TMC3    H110247   0.597   2.979  17.122 -1.4533 -0.2797  0.4656
  689TMC3    H210248   0.331   2.981  17.466  3.2522 -0.3697  0.5525
  689TMC3    C710249   0.399   2.843  17.260  0.1017 -0.1631  0.2698
  689TMC3    C810250   0.434   3.208  17.564 -0.3598  0.4272 -0.0426
  689TMC3    O110251   0.353   2.785  17.357 -0.3098 -0.2989  0.0074
  689TMC3    O210252   0.502   3.309  17.586 -0.1401 -0.3647  0.9705
  690MPD2     C10253   3.138   0.631  15.644 -0.6525 -0.0878  0.4216
  690MPD2    C110254   3.053   0.605  15.535  0.3219  0.1510 -0.5537
  690MPD2    C210255   3.098   0.644  15.415 -0.8567  1.0542 -0.3803
  690MPD2    C310256   3.228   0.697  15.401 -0.1334  0.2731  0.7006
  690MPD2    C410257   3.305   0.716  15.513  0.2751  0.9956  0.4055
  690MPD2    C510258   3.259   0.686  15.637 -0.4602 -0.0782 -0.1670
  690MPD2     H10259   3.041   0.622  15.326  1.3414 -0.3167 -1.4628
  690MPD2    H110260   3.404   0.759  15.518  0.9178 -0.1257 -2.8861
  690MPD2    H210261   3.105   0.612  15.746  0.8374 -3.1324  0.3219
  690MPD2    H310262   3.315   0.720  15.723 -0.7740 -2.2126  0.8819
  690MPD2     N10263   3.276   0.722  15.265 -0.0097 -0.3468 -0.1513
  690MPD2    H510264   3.212   0.695  15.191 -0.9575  2.6455 -0.4018
  690MPD2    N110265   2.920   0.547  15.547 -0.4684 -0.1345 -0.1299
  690MPD2    H710266   2.863   0.538  15.463 -0.5602  0.9583 -0.1870
  691TMC3    C110267   2.787   0.373  15.626 -0.6332  0.0817 -0.4589
  691TMC3    C210268   2.718   0.382  15.512  0.3248  0.2784  0.0368
  691TMC3    C310269   2.671   0.266  15.451  0.5652 -0.6917 -0.2639
  691TMC3    C410270   2.817   0.253  15.689 -0.8721 -0.1688  0.3874
  691TMC3    C510271   2.791   0.139  15.615 -0.4142  0.2050 -0.5798
  691TMC3    C610272   2.713   0.139  15.501 -0.0854  0.5567  0.3466
  691TMC3     C10273   2.877   0.481  15.661  0.4458  0.6562 -0.5902
  691TMC3     O10274   2.917   0.484  15.775  0.7503 -0.2561 -0.6921
  691TMC3     H10275   2.695   0.476  15.463  0.5423 -1.0939 -2.7055
  691TMC3    H110276   2.889   0.249  15.769  0.9910  1.3983 -1.2163
  691TMC3    H210277   2.672   0.055  15.446  0.1932 -0.0759  1.1009
  691TMC3    C710278   2.825   0.008  15.675  0.1664  0.0672 -0.0651
  691TMC3    C810279   2.546   0.261  15.383 -0.0308  0.2904  0.5076
  691TMC3    O110280   2.866   0.008  15.794 -0.4870 -0.2354  0.3318
  691TMC3    O210281   2.519   0.157  15.329  0.3152 -0.1238 -0.3113
  692TMC3    C110282   4.506   1.325  15.488  0.3863  0.4291  1.0876
  692TMC3    C210283   4.631   1.372  15.512 -0.2294  0.2980  0.0210
  692TMC3    C310284   4.730   1.276  15.534 -0.1360  0.3168 -0.6188
  692TMC3    C410285   4.473   1.197  15.506 -0.3465  0.2161  0.6620
  692TMC3    C510286   4.572   1.102  15.525  0.0753 -0.1951  0.0383
  692TMC3    C610287   4.699   1.142  15.552 -0.1295  0.5086  0.1484
  692TMC3     C10288   4.408   1.424  15.504  0.3344  1.0300 -0.1565
  692TMC3     O10289   4.290   1.391  15.503  0.2911 -0.3891  0.2268
  692TMC3     H10290   4.653   1.454  15.445 -1.0345 -0.6530 -1.4281
  692TMC3    H110291   4.374   1.157  15.492 -0.5742  0.3863  1.7989
  692TMC3    H210292   0.046   1.074  15.564 -1.3610 -1.0816 -0.3021
  692TMC3    C710293   4.530   0.963  15.530 -0.2994  0.4269  0.2056
  692TMC3    C810294   0.088   1.307  15.636 -0.4673 -0.1819 -0.8047
  692TMC3    O110295   4.418   0.923  15.508 -0.1481 -0.1546  0.1519
  692TMC3    O210296   0.168   1.223  15.673 -0.6811  0.1573  0.2863
  693MPD2     C10297   3.971   3.879  10.177  0.1624  0.7548 -0.6043
  693MPD2    C110298   3.988   3.913  10.307  0.6533  0.2687 -0.1121
  693MPD2    C210299   4.110   3.864  10.365 -0.0628  0.3858  0.1457
  693MPD2    C310300   4.214   3.807  10.294  0.8185  0.7361 -0.4674
  693MPD2    C410301   4.196   3.800  10.157 -0.0484  0.1617 -0.2232
  693MPD2    C510302   4.076   3.831  10.103  0.1327  0.2612  0.0562
  693MPD2     H10303   4.120   3.869  10.472 -1.9364 -0.9935  0.3784
  693MPD2    H110304   4.266   3.751  10.090  0.2128  1.3733 -0.8397
  693MPD2    H210305   3.876   3.913  10.136  0.8803  1.2022 -1.8865
  693MPD2    H310306   4.077   3.813   9.996  0.5479  0.2211  0.0677
  693MPD2     N10307   4.327   3.767  10.370  0.0735  0.9103 -0.1656
  693MPD2    H510308   4.326   3.778  10.471 -0.3972 -0.9260  0.0241
  693MPD2    N110309   3.889   3.968  10.382  0.4809  0.3749 -0.0596
  693MPD2    H710310   3.796   3.979  10.342  1.3646  1.3739 -1.8239
  694TMC3    C110311   3.789   3.986  10.589 -0.1144  0.3698  0.4335
  694TMC3    C210312   3.662   3.984  10.541  0.6919 -0.1299 -0.8119
  694TMC3    C310313   3.550   3.959  10.621 -0.2707  0.3171  0.3830
  694TMC3    C410314   3.798   3.959  10.721  0.4595  0.4943 -0.7400
  694TMC3    C510315   3.696   3.927  10.803  0.5887  0.6425  0.2730
  694TMC3    C610316   3.568   3.934  10.757 -0.2372  0.3623 -0.5641
  694TMC3     C10317   3.904   4.014  10.510 -0.1306  0.3211 -0.3387
  694TMC3     O10318   4.006   4.062  10.556  0.1547  0.2620  0.1602
  694TMC3     H10319   3.646   4.025  10.441  0.3174 -0.1432 -0.7593
  694TMC3    H110320   3.903   3.945  10.746  0.3901 -0.1433 -0.8182
  694TMC3    H210321   3.484   3.936  10.826  0.1905  1.4958 -0.0734
  694TMC3    C710322   3.738   3.898  10.940 -0.3017 -0.9400 -0.7078
  694TMC3    C810323   3.420   3.938  10.567  0.7811 -0.6018  0.1134
  694TMC3    O110324   3.858   3.913  10.967  0.5315 -0.6117 -0.1173
  694TMC3    O210325   3.333   3.890  10.645 -0.5177  0.8722 -0.2233
  695MPD2     C10326   0.374   1.049  13.266 -0.3995 -0.2236 -0.1389
  695MPD2    C110327   0.372   1.116  13.385  0.0430 -0.0818 -0.8741
  695MPD2    C210328   0.253   1.158  13.436  0.7126 -0.0630  0.7766
  695MPD2    C310329   0.134   1.125  13.376  0.0463 -0.1705 -0.3993
  695MPD2    C410330   0.140   1.047  13.265 -0.1262  0.1756  0.6847
  695MPD2    C510331   0.256   1.009  13.211  0.0375 -0.0682  0.2142
  695MPD2     H10332   0.253   1.219  13.526  0.3765  0.2109  0.5887
  695MPD2    H110333   0.054   1.002  13.217  0.4671 -0.6416  0.3836
  695MPD2    H210334   0.471   1.033  13.222 -0.4865 -1.6068  0.1821
  695MPD2    H310335   0.263   0.953  13.118 -1.6729 -0.6719  0.4501
  695MPD2     N10336   0.018   1.179  13.440 -0.6384 -0.3817  0.2428
  695MPD2    H510337   0.023   1.226  13.530  1.4973 -1.9553  0.9593
  695MPD2    N110338   0.488   1.153  13.448 -0.5320  0.1247 -0.0069
  695MPD2    H710339   0.483   1.216  13.527 -1.2220  1.0152 -0.7582
  696TMC3    C110340   4.533   1.227  13.475 -0.4400  0.9410 -0.2160
  696TMC3    C210341   4.532   1.185  13.604  0.0868 -0.3372  0.2988
  696TMC3    C310342   4.416   1.218  13.672  0.1425  0.2062 -0.1537
  696TMC3    C410343   4.429   1.295  13.413 -0.3932  0.2799 -0.2866
  696TMC3    C510344   4.332   1.340  13.499  0.5961 -0.7078 -0.2871
  696TMC3    C610345   4.322   1.305  13.635  0.0000  0.1463  0.0024
  696TMC3     C10346   4.629   1.176  13.386  0.5280 -0.4042  0.4617
  696TMC3     O10347   4.583   1.141  13.277  1.3416 -0.5827 -0.2648
  696TMC3     H10348   4.591   1.098  13.629 -0.3094 -0.2244  1.6189
  696TMC3    H110349   4.438   1.323  13.309 -0.4684  0.4745 -0.2410
  696TMC3    H210350   4.233   1.332  13.691  0.8788 -0.1065  1.5090
  696TMC3    C710351   4.272   1.469  13.462 -0.1022 -0.0289  0.2089
  696TMC3    C810352   4.435   1.216  13.821 -0.2408 -0.2898  0.0831
  696TMC3    O110353   4.303   1.501  13.347  0.3483 -0.1848 -0.1046
  696TMC3    O210354   4.409   1.116  13.891 -0.5161  0.2618 -0.3963
  697MPD2     C10355   3.730   2.978  15.285 -0.4759  0.5315  0.8620
  697MPD2    C110356   3.811   2.931  15.184 -0.5553 -0.7505 -0.1569
  697MPD2    C210357   3.909   3.016  15.132  0.3168 -0.3013 -0.4728
  697MPD2    C310358   3.923   3.144  15.175 -0.3804  0.4625 -0.4184
  697MPD2    C410359   3.844   3.183  15.280  0.1373 -0.1722  0.5209
  697MPD2    C510360   3.741   3.110  15.324 -0.4573 -0.7479  0.3024
  697MPD2     H10361   3.974   2.974  15.056  0.5293  0.8598 -0.9372
  697MPD2    H110362   3.854   3.284  15.317  2.2495  0.5019 -1.9492
  697MPD2    H210363   3.657   2.921  15.341 -2.5735  0.9580 -1.4170
  697MPD2    H310364   3.682   3.154  15.403  0.2392  1.8305 -0.5988
  697MPD2     N10365   4.030   3.219  15.128  0.0177  0.1019 -0.6110
  697MPD2    H510366   4.058   3.196  15.033 -2.1718  0.8103 -1.4142
  697MPD2    N110367   3.804   2.797  15.138  0.8908  0.1083  0.3452
  697MPD2    H710368   3.867   2.771  15.064  0.5889  2.5212 -0.7518
  698TMC3    C110369   4.193   3.392  15.128  0.2074  0.5816 -0.6148
  698TMC3    C210370   4.279   3.466  15.202  0.2869  0.3307  0.5513
  698TMC3    C310371   4.361   3.541  15.132  0.0347 -0.1869  0.2077
  698TMC3    C410372   4.196   3.384  14.990  0.1511  1.2341  0.1835
  698TMC3    C510373   4.285   3.463  14.926 -0.6092 -0.0675  0.3083
  698TMC3    C610374   4.377   3.538  14.995 -0.6116 -0.4643  0.3766
  698TMC3     C10375   4.097   3.312  15.206 -0.3125 -0.8982  0.6706
  698TMC3     O10376   4.107   3.316  15.327  0.5093  0.0869  0.1123
  698TMC3     H10377   4.261   3.480  15.308  0.3290  0.3744  0.5531
  698TMC3    H110378   4.128   3.333  14.923  0.3898  0.9401  0.1641
  698TMC3    H210379   4.454   3.592  14.940 -0.8827  0.1154  0.5634
  698TMC3    C710380   4.294   3.447  14.783  0.5995 -0.4488 -0.0847
  698TMC3    C810381   4.457   3.613  15.219  0.6371  0.1244 -0.6116
  698TMC3    O110382   4.201   3.393  14.720 -0.0070  0.0513  0.1633
  698TMC3    O210383   4.466   3.583  15.337  0.3642  0.3722 -0.9527
  699TMC3    C110384   4.336   1.233  13.063  0.2187  0.7264  0.1281
  699TMC3    C210385   4.328   1.113  13.129 -0.3508 -0.4301  0.1209
  699TMC3    C310386   4.220   1.091  13.207  0.3105  0.0317 -0.8745
  699TMC3    C410387   4.235   1.328  13.075  0.1198 -0.3317  0.7287
  699TMC3    C510388   4.124   1.297  13.150 -0.8069 -0.0318 -0.2314
  699TMC3    C610389   4.113   1.180  13.216  0.5226 -0.0083  0.7210
  699TMC3     C10390   4.431   1.263  12.956 -0.6421  0.5245  0.3015
  699TMC3     O10391   4.391   1.328  12.859  0.1080 -0.2208 -0.1471
  699TMC3     H10392   4.395   1.034  13.096  1.5508  1.2665 -0.1005
  699TMC3    H110393   4.240   1.422  13.020 -1.0504 -0.2482  0.7570
  699TMC3    H210394   4.032   1.155  13.284  2.6193 -2.4325  2.3456
  699TMC3    C710395   4.057   1.413  13.223  0.1565  0.6337 -0.7938
  699TMC3    C810396   4.220   0.987  13.309 -1.1798 -0.5681 -0.1242
  699TMC3    O110397   3.992   1.379  13.321  0.5344  0.1404  0.1163
  699TMC3    O210398   4.125   0.985  13.385 -0.1297 -0.0169 -0.4259
  700TMC3    C110399   3.703   3.385  16.182 -0.6633  0.2809  0.3041
  700TMC3    C210400   3.738   3.262  16.142 -0.5582 -0.0146  0.4302
  700TMC3    C310401   3.743   3.168  16.237 -0.1885 -0.1142  0.2886
  700TMC3    C410402   3.669   3.409  16.313  0.2355 -0.4492 -0.5214
  700TMC3    C510403   3.684   3.314  16.410 -0.4960 -0.3815  0.3664
  700TMC3    C610404   3.710   3.189  16.368  0.1769  0.4762 -0.1129
  700TMC3     C10405   3.678   3.484  16.072 -0.1566 -0.6807 -0.5766
  700TMC3     O10406   3.673   3.448  15.958  0.4808  0.8621  0.4050
  700TMC3     H10407   3.768   3.241  16.040  1.8273  0.7946  0.9706
  700TMC3    H110408   3.619   3.501  16.341  0.1285 -0.4243 -0.7954
  700TMC3    H210409   3.713   3.110  16.442  1.0598  0.8226  0.2157
  700TMC3    C710410   3.623   3.337  16.539  0.2061  0.1932 -0.3719
  700TMC3    C810411   3.806   3.042  16.191  0.3048  0.2300 -0.0508
  700TMC3    O110412   3.553   3.249  16.585  0.2640 -0.5745  0.4470
  700TMC3    O210413   3.827   3.032  16.073  0.7833  0.4637  0.0845
  701TMC3    C110414   3.247   2.012  15.652  0.2552  1.1915  0.5311
  701TMC3    C210415   3.241   1.929  15.548  0.2144  0.1236  0.2968
  701TMC3    C310416   3.260   1.975  15.422 -0.3916 -0.7179 -0.0941
  701TMC3    C410417   3.270   2.144  15.633  0.4299 -0.2057 -0.4774
  701TMC3    C510418   3.281   2.190  15.507  0.1501  0.1456 -1.0217
  701TMC3    C610419   3.281   2.109  15.396  0.0878 -0.5049 -0.2408
  701TMC3     C10420   3.217   1.971  15.789 -0.3449  0.3377  0.6534
  701TMC3     O10421   3.251   2.048  15.878 -0.2088 -0.2143  0.4716
  701TMC3     H10422   3.233   1.824  15.574  0.0248  0.0176 -0.1987
  701TMC3    H110423   3.257   2.210  15.718 -0.5332 -0.6429 -0.2803
  701TMC3    H210424   3.297   2.169  15.308  2.4960  0.7985  1.0908
  701TMC3    C710425   3.301   2.332  15.482 -0.1663  0.0675  0.1164
  701TMC3    C810426   3.263   1.878  15.313 -0.0238  0.3010  0.4794
  701TMC3    O110427   3.277   2.377  15.372 -0.1944 -0.0306  0.3163
  701TMC3    O210428   3.253   1.759  15.346 -0.0099 -0.0580  0.4482
  702MPD2     C10429   3.226   0.141  10.067  0.7756 -0.6517 -0.0376
  702MPD2    C110430   3.200   0.260  10.120 -0.0145  0.1684 -0.0364
  702MPD2    C210431   3.239   0.372  10.051 -0.0547  0.5463 -0.2236
  702MPD2    C310432   3.299   0.369   9.932 -0.8468  0.5161  1.2009
  702MPD2    C410433   3.323   0.251   9.874  1.4477  0.5990  0.0749
  702MPD2    C510434   3.278   0.143   9.943  0.6308 -0.6346 -0.4492
  702MPD2     H10435   3.209   0.464  10.098  2.6214  1.3338 -0.0415
  702MPD2    H110436   3.371   0.238   9.777  0.2819  2.5119 -0.7733
  702MPD2    H210437   3.197   0.047  10.113  0.3432 -0.8403 -0.6959
  702MPD2    H310438   3.291   0.048   9.891  2.8430 -0.2144 -0.6565
  702MPD2     N10439   3.346   0.485   9.875 -0.4488 -0.5103  0.2513
  702MPD2    H510440   3.321   0.570   9.926  0.9472  0.2752 -0.3561
  702MPD2    N110441   3.132   0.275  10.244 -0.0604  0.1962  0.7225
  702MPD2    H710442   3.131   0.367  10.287 -1.9213  0.0734  0.9330
  703TMC3    C110443   3.446   0.649   9.754 -0.2189  0.3387 -0.5087
  703TMC3    C210444   3.352   0.733   9.818 -0.2078 -0.0161 -0.3953
  703TMC3    C310445   3.407   0.839   9.883 -0.5589 -0.4995  0.3893
  703TMC3    C410446   3.581   0.671   9.745 -0.4648 -0.5415  0.0290
  703TMC3    C510447   3.624   0.785   9.808 -0.1466  0.1677  0.3708
  703TMC3    C610448   3.534   0.870   9.877  0.1489  0.0054 -0.4824
  703TMC3     C10449   3.419   0.502   9.763  0.7453  0.1090 -0.2136
  703TMC3     O10450   3.489   0.429   9.695  0.2408  0.5005 -0.0228
  703TMC3     H10451   3.251   0.706   9.848  0.2995 -2.3024 -0.7614
  703TMC3    H110452   3.650   0.603   9.696  0.5987  0.6919 -0.1887
  703TMC3    H210453   3.582   0.945   9.938  0.2374  0.3538 -0.9789
  703TMC3    C710454   3.757   0.790   9.856  0.0683 -0.2285  0.0025
  703TMC3    C810455   3.369   0.860  10.026 -0.2196 -0.1077 -0.0864
  703TMC3    O110456   3.793   0.904   9.881  0.1174  0.1063  0.3344
  703TMC3    O210457   3.458   0.840  10.110 -0.0547 -0.5129  0.4766
  704TMC3    C110458   0.884   3.098  12.258  0.3593  0.0643 -0.3832
  704TMC3    C210459   0.996   3.096  12.181 -0.1075 -0.4722  0.0121
  704TMC3    C310460   1.103   3.018  12.204  0.6381 -1.1692  0.0754
  704TMC3    C410461   0.877   3.012  12.360  0.5479  0.3458  0.4564
  704TMC3    C510462   0.978   2.923  12.372 -0.2478 -0.7649  0.2566
  704TMC3    C610463   1.096   2.923  12.305  0.5096 -0.7620  0.3874
  704TMC3     C10464   0.765   3.158  12.208  0.1702  0.2411 -0.2402
  704TMC3     O10465   0.670   3.169  12.283  0.1694  0.1882 -0.4090
  704TMC3     H10466   1.004   3.160  12.094  3.4814  0.7025  1.2324
  704TMC3    H110467   0.784   2.994  12.411  0.9855  0.1719  1.1946
  704TMC3    H210468   1.165   2.840  12.316  0.2457 -0.8580  1.2969
  704TMC3    C710469   0.927   2.788  12.389 -0.3487 -0.3892  0.1470
  704TMC3    C810470   1.165   2.964  12.096  1.1569 -0.0432  0.5331
  704TMC3    O110471   0.968   2.714  12.300 -0.8071  0.2084 -0.0519
  704TMC3    O210472   1.106   2.939  11.987  0.2905  0.1126  0.1206
  705MPD2     C10473   0.182   1.006  16.218 -0.1020  0.1381 -0.6655
  705MPD2    C110474   0.184   1.137  16.268 -0.1233  0.5978 -1.3117
  705MPD2    C210475   0.066   1.201  16.295  0.2490 -0.1379 -0.9573
  705MPD2    C310476   4.679   1.139  16.266 -0.4067  0.0328  0.5067
  705MPD2    C410477   4.682   1.004  16.231  0.3138 -0.3133 -0.4383
  705MPD2    C510478   0.065   0.938  16.219  0.3601  0.1053  0.6450
  705MPD2     H10479   0.072   1.306  16.321  3.3470 -0.4758 -0.3235
  705MPD2    H110480   4.591   0.947  16.216  0.7602 -0.6934 -1.6778
  705MPD2    H210481   0.274   0.955  16.190 -1.9200 -3.4775 -0.1047
  705MPD2    H310482   0.072   0.843  16.166 -2.7934  0.5779 -0.6237
  705MPD2     N10483   4.554   1.203  16.267 -0.4511  0.2787  0.3970
  705MPD2    H510484   4.470   1.147  16.253  0.7490 -1.0718 -1.3546
  705MPD2    N110485   0.299   1.208  16.284 -0.1988  0.6661 -0.1158
  705MPD2    H710486   0.291   1.294  16.339 -2.6389  0.3700 -0.0266
  706TMC3    C110487   0.747   1.348  16.189  0.1375 -0.5498 -0.4384
  706TMC3    C210488   0.717   1.479  16.210  0.4219  0.1669  0.5988
  706TMC3    C310489   0.590   1.507  16.254 -0.2977 -0.2441 -0.1036
  706TMC3    C410490   0.655   1.253  16.221 -0.3045 -0.1375  0.4530
  706TMC3    C510491   0.529   1.282  16.265 -0.5557  0.3960  0.4032
  706TMC3    C610492   0.493   1.415  16.284  0.6005  0.3827 -0.2778
  706TMC3     C10493   0.883   1.313  16.160  0.4452 -0.1719 -0.3604
  706TMC3     O10494   0.972   1.366  16.224 -0.3126 -0.6632 -0.5804
  706TMC3     H10495   0.789   1.558  16.192 -0.3700  1.2669  2.2464
  706TMC3    H110496   0.679   1.148  16.211  0.2448 -0.1653  2.0328
  706TMC3    H210497   0.388   1.440  16.292  0.4595 -0.7008  1.1109
  706TMC3    C710498   0.428   1.174  16.238 -0.9822  0.9724 -0.3121
  706TMC3    C810499   0.539   1.639  16.232  0.0437 -0.5445  0.6743
  706TMC3    O110500   0.455   1.081  16.164  0.1352 -0.3902  0.3398
  706TMC3    O210501   0.578   1.706  16.138  0.1110 -0.2131  0.4404
  707TMC3    C110502   3.554   0.671   1.478  0.0917  0.4184  0.1396
  707TMC3    C210503   3.657   0.587   1.521 -0.0728 -0.0614  0.6627
  707TMC3    C310504   3.745   0.642   1.604  0.7554  0.4334 -0.4036
  707TMC3    C410505   3.543   0.799   1.517  0.1778 -0.1776  0.3393
  707TMC3    C510506   3.646   0.851   1.593 -0.9524  0.8302 -0.5768
  707TMC3    C610507   3.745   0.771   1.638  0.3366 -0.9454  0.3687
  707TMC3     C10508   3.432   0.614   1.405  0.1139 -0.4846 -0.1433
  707TMC3     O10509   3.334   0.682   1.403  0.6561  0.0238 -0.2461
  707TMC3     H10510   3.670   0.486   1.483 -2.6115  0.9095 -2.7344
  707TMC3    H110511   3.476   0.856   1.454  1.6818  0.7360 -0.4497
  707TMC3    H210512   3.825   0.813   1.698  0.3481 -0.6769  0.1672
  707TMC3    C710513   3.653   0.987   1.622  0.2725 -0.0981  0.3891
  707TMC3    C810514   3.871   0.582   1.616 -0.5872  1.0227  0.2610
  707TMC3    O110515   3.723   1.023   1.715 -0.0278  0.0964  0.0282
  707TMC3    O210516   3.970   0.656   1.612 -0.1381  0.4195  0.0943
  708MPD2     C10517   3.260   4.367  14.049 -0.1782 -0.1493  0.0554
  708MPD2    C110518   3.182   4.401  14.159 -0.2188 -0.5668  0.7949
  708MPD2    C210519   3.195   4.318  14.273  0.0602  0.3934 -0.7138
  708MPD2    C310520   3.275   4.204  14.275  0.3270  0.7254  0.1354
  708MPD2    C410521   3.343   4.169  14.159  0.5099 -0.4005  0.0068
  708MPD2    C510522   3.335   4.250  14.048  0.0160 -0.9120  0.3471
  708MPD2     H10523   3.131   4.332  14.360  0.6775 -0.9591 -0.0417
  708MPD2    H110524   3.396   4.075  14.158  1.0070 -0.0935 -2.2008
  708MPD2    H210525   3.259   4.418  13.953 -0.5707 -3.6779 -1.8377
  708MPD2    H310526   3.383   4.215  13.957 -1.7966 -1.1929 -0.5049
  708MPD2     N10527   3.290   4.135  14.391 -0.0372 -0.0105 -0.4464
  708MPD2    H510528   3.239   4.167  14.473  1.3337  1.9905 -0.3567
  708MPD2    N110529   3.093   4.509  14.147 -1.1347 -0.3300 -1.2622
  708MPD2    H710530   3.081   4.557  14.058  0.9312  0.1970 -1.2539
  709TMC3    C110531   2.908   4.640  14.223 -0.2972  0.1891  0.1061
  709TMC3    C210532   2.824   4.580  14.133  0.9272 -0.0320 -0.5807
  709TMC3    C310533   2.688   4.583  14.164 -0.5283  0.0622 -0.3321
  709TMC3    C410534   2.857   4.685  14.341  0.6901  0.3567 -0.1065
  709TMC3    C510535   2.726   4.682  14.366 -1.0220 -0.1109 -0.5599
  709TMC3    C610536   2.635   4.630  14.285  0.2883 -0.3777  0.9074
  709TMC3     C10537   3.035   4.577  14.250 -0.7692 -0.7026 -0.1286
  709TMC3     O10538   3.051   4.563  14.370 -0.3737  0.1639  0.0110
  709TMC3     H10539   2.857   4.519  14.050  1.2239 -2.1371  1.0548
  709TMC3    H110540   2.917   0.008  14.408  0.2781 -0.2348  0.7905
  709TMC3    H210541   2.531   4.629  14.316  0.5554  0.0499  1.8154
  709TMC3    C710542   2.712   4.647  14.505 -1.0266  0.0370  1.2031
  709TMC3    C810543   2.596   4.520  14.069  1.2466  0.4811 -0.6449
  709TMC3    O110544   2.605   4.677  14.557 -0.4303  0.4647  0.1432
  709TMC3    O210545   2.502   4.454  14.117 -0.0372 -0.4715  0.1876
  710TMC3    C110546   4.419   1.171  17.556  0.6851  0.2680 -0.2850
  710TMC3    C210547   4.428   1.164  17.419  0.5833 -0.5746 -0.2483
  710TMC3    C310548   4.540   1.106  17.369 -0.4697  0.4207  0.3878
  710TMC3    C410549   4.524   1.130  17.646 -0.0835 -0.2960 -0.6061
  710TMC3    C510550   4.631   1.075  17.579 -0.2016 -0.9768  0.4634
  710TMC3    C610551   4.639   1.064  17.445  0.7673 -0.0135 -0.7254
  710TMC3     C10552   4.303   1.244  17.615  0.5096 -0.4347  0.8868
  710TMC3     O10553   4.217   1.291  17.542 -0.1399 -0.4597  0.3770
  710TMC3     H10554   4.348   1.200  17.354  0.7104 -0.0575 -0.1170
  710TMC3    H110555   4.518   1.124   0.009 -0.9758 -2.9247 -0.7939
  710TMC3    H210556   4.725   1.013  17.404  2.9271 -0.3483  4.1556
  710TMC3    C710557   0.005   1.018  17.657  0.1806 -0.2535  0.0233
  710TMC3    C810558   4.553   1.063  17.231  0.2031  0.6069  0.2922
  710TMC3    O110559   4.708   0.976   0.023  0.8419 -0.0620  0.4293
  710TMC3    O210560   4.630   0.965  17.212  0.1437  0.3534  0.3047
  711TMC3    C110561   4.245   1.717  14.900 -0.0591 -0.0288  0.8130
  711TMC3    C210562   4.258   1.847  14.958 -0.1462 -0.4070 -0.4614
  711TMC3    C310563   4.317   1.851  15.078 -0.3534 -0.2937  0.4458
  711TMC3    C410564   4.276   1.606  14.965  0.2217  0.1896 -0.0205
  711TMC3    C510565   4.341   1.619  15.082  0.4442 -0.0206 -0.2570
  711TMC3    C610566   4.366   1.739  15.143 -1.0417  0.4893 -0.0398
  711TMC3     C10567   4.187   1.696  14.768 -0.1789 -0.7844  0.3497
  711TMC3     O10568   4.098   1.612  14.757 -0.1099  0.0525 -0.3607
  711TMC3     H10569   4.224   1.937  14.908 -0.5278 -0.7768 -0.8707
  711TMC3    H110570   4.251   1.510  14.921 -0.9047  0.8195 -0.7271
  711TMC3    H210571   4.403   1.734  15.244 -4.2821 -1.1819  1.0603
  711TMC3    C710572   4.411   1.508  15.148 -0.7785  0.3163  0.5031
  711TMC3    C810573   4.309   1.979  15.140 -0.5706 -0.1234 -0.4695
  711TMC3    O110574   4.515   1.523  15.207  0.3938  0.5983 -0.1533
  711TMC3    O210575   4.224   2.058  15.101  0.2008 -0.0568  0.5072
  712MPD2     C10576   1.355   2.954  13.769  0.0787 -0.1526  0.5032
  712MPD2    C110577   1.223   2.949  13.741  0.5205  0.1257 -0.3551
  712MPD2    C210578   1.164   3.062  13.698 -0.7575  0.2433  0.5452
  712MPD2    C310579   1.242   3.181  13.680 -0.8585 -0.0697 -0.0646
  712MPD2    C410580   1.367   3.186  13.726 -0.1477  0.3798  0.0963
  712MPD2    C510581   1.424   3.073  13.772 -0.5015 -0.1681  0.3044
  712MPD2     H10582   1.067   3.053  13.652 -0.7968 -1.5278  0.9932
  712MPD2    H110583   1.420   3.281  13.728 -0.8060  0.8010 -2.7996
  712MPD2    H210584   1.411   2.867  13.802 -1.6218 -0.5004  2.4253
  712MPD2    H310585   1.530   3.073  13.797 -0.2900 -1.2274 -0.5455
  712MPD2     N10586   1.193   3.301  13.622 -0.3147 -0.3228  0.6210
  712MPD2    H510587   1.264   3.371  13.639 -2.8163  2.8303 -1.9328
  712MPD2    N110588   1.140   2.836  13.747 -0.3848  0.0448  0.1787
  712MPD2    H710589   1.047   2.847  13.708 -0.3264  0.0831  0.0502
  713TMC3    C110590   1.043   3.439  13.495  0.2815  0.2154 -0.0778
  713TMC3    C210591   1.155   3.507  13.453  0.3137  0.3943  0.3908
  713TMC3    C310592   1.126   3.635  13.404  0.1843 -0.4214 -0.1224
  713TMC3    C410593   0.915   3.485  13.488  0.6033 -0.0438 -0.1030
  713TMC3    C510594   0.893   3.612  13.444  0.7487 -0.1473  0.5112
  713TMC3    C610595   1.004   3.686  13.407  0.2077 -0.1264  0.8431
  713TMC3     C10596   1.066   3.318  13.573  0.6696  0.1286  0.9670
  713TMC3     O10597   0.972   3.243  13.584 -0.6434  0.6311 -0.0146
  713TMC3     H10598   1.257   3.471  13.462  0.6053  1.2369  0.4243
  713TMC3    H110599   0.826   3.430  13.516 -0.8179  1.4957 -1.6670
  713TMC3    H210600   0.995   3.788  13.372 -3.3827 -0.4119  0.9228
  713TMC3    C710601   0.762   3.671  13.450  0.3856  0.3741 -0.7036
  713TMC3    C810602   1.236   3.708  13.350 -1.1575 -0.1143  0.1609
  713TMC3    O110603   0.679   3.618  13.515 -0.2682  0.2958 -0.0043
  713TMC3    O210604   1.207   3.811  13.297 -0.5776  0.3354  0.6714
  714MPD2     C10605   3.882   2.100   1.308  0.5075 -0.1414 -0.3649
  714MPD2    C110606   3.824   2.011   1.222  0.4736 -0.3754 -0.0351
  714MPD2    C210607   3.690   2.031   1.177  0.0944  0.3035  0.4049
  714MPD2    C310608   3.629   2.151   1.215 -0.2799  0.5182 -0.2360
  714MPD2    C410609   3.687   2.236   1.308 -0.2909 -0.5648 -0.2221
  714MPD2    C510610   3.819   2.214   1.348  0.3240 -0.0547 -0.0410
  714MPD2     H10611   3.638   1.966   1.108  1.2298  1.2528 -1.3734
  714MPD2    H110612   3.641   2.331   1.335  0.8331  0.9610 -3.5927
  714MPD2    H210613   3.982   2.090   1.347  0.7618  1.5236 -0.5870
  714MPD2    H310614   3.875   2.276   1.417 -0.2917  0.2548  0.1811
  714MPD2     N10615   3.505   2.181   1.151  0.5281  0.0391 -0.1660
  714MPD2    H510616   3.467   2.115   1.084  0.0305  0.3581 -0.2030
  714MPD2    N110617   3.892   1.891   1.197  0.2446 -0.4113  0.0784
  714MPD2    H710618   3.973   1.879   1.257 -0.1612  2.9470  1.2571
  715TMC3    C110619   3.934   1.655   1.139 -0.1750  0.6292 -0.0568
  715TMC3    C210620   3.916   1.558   1.039 -0.2783 -0.3256 -0.0450
  715TMC3    C310621   4.009   1.462   1.039  0.2033  0.5658  0.5034
  715TMC3    C410622   4.031   1.651   1.233 -0.1427 -0.1360 -0.0805
  715TMC3    C510623   4.111   1.544   1.244  0.4994 -0.1295  0.4920
  715TMC3    C610624   4.111   1.454   1.140 -0.3077  0.6258  0.0355
  715TMC3     C10625   3.850   1.781   1.121  0.5334 -0.2619  0.9240
  715TMC3     O10626   3.743   1.769   1.066 -0.4205 -0.3079 -0.3440
  715TMC3     H10627   3.831   1.566   0.972 -0.0139  0.3244 -0.3015
  715TMC3    H110628   4.034   1.729   1.308  1.1098  0.7341 -1.0299
  715TMC3    H210629   4.169   1.364   1.152  0.1715  0.8781 -0.4371
  715TMC3    C710630   4.216   1.537   1.340 -0.0910  0.2365 -0.0869
  715TMC3    C810631   3.998   1.365   0.933 -0.7883 -0.4354 -0.6579
  715TMC3    O110632   4.317   1.483   1.296 -0.1233 -0.5205  0.3320
  715TMC3    O210633   3.901   1.366   0.861 -0.6750  0.4008  0.1682
  716MPD2     C10634   2.823   4.556   9.841 -0.2319 -0.6490  0.2407
  716MPD2    C110635   2.841   4.530   9.708 -0.2487 -0.4996  0.2494
  716MPD2    C210636   2.940   4.439   9.671 -0.3971  0.1280 -0.3957
  716MPD2    C310637   3.021   4.376   9.766 -0.1529 -0.3826  0.1023
  716MPD2    C410638   3.013   4.418   9.901  0.7570  0.5574 -0.6280
  716MPD2    C510639   2.906   4.497   9.936  0.2942  0.2066 -0.0194
  716MPD2     H10640   2.952   4.418   9.565  0.4643  1.3452 -0.5506
  716MPD2    H110641   3.083   4.388   9.979 -1.5697  0.6851  1.4871
  716MPD2    H210642   2.747   4.621   9.881  1.8705  2.6196 -1.0563
  716MPD2    H310643   2.896   4.534  10.037  0.2250 -2.8070  1.0681
  716MPD2     N10644   3.127   4.294   9.713 -0.4203  0.2850  0.4173
  716MPD2    H510645   3.124   4.276   9.613  1.4254 -1.6485  0.7159
  716MPD2    N110646   2.762   4.601   9.623 -1.1924 -0.2308 -0.8031
  716MPD2    H710647   2.710   4.674   9.670  1.1003  0.6438  0.4017
  717TMC3    C110648   3.301   4.129   9.701  0.2939 -0.0370  0.0722
  717TMC3    C210649   3.296   4.138   9.564 -0.0547  0.2283 -0.1195
  717TMC3    C310650   3.328   4.024   9.491 -1.3744 -0.2816 -0.0232
  717TMC3    C410651   3.326   4.011   9.768 -0.1877 -0.1022 -0.0409
  717TMC3    C510652   3.367   3.908   9.688 -0.1304  0.0817  0.3063
  717TMC3    C610653   3.366   3.909   9.547  0.7311  0.6200  0.1159
  717TMC3     C10654   3.228   4.226   9.783 -0.2502 -0.2153 -0.1981
  717TMC3     O10655   3.241   4.220   9.907 -0.1120 -0.1093  0.0477
  717TMC3     H10656   3.304   4.240   9.526 -2.5721 -0.0797 -1.4333
  717TMC3    H110657   3.319   4.011   9.876 -0.6922  0.4436 -0.0739
  717TMC3    H210658   3.368   3.822   9.482 -1.2585  1.6025 -1.2738
  717TMC3    C710659   3.381   3.768   9.749  0.0386 -0.5290  0.0348
  717TMC3    C810660   3.280   4.035   9.353 -0.4962 -0.2497 -0.1469
  717TMC3    O110661   3.414   3.686   9.669 -0.2359  0.2084 -0.3120
  717TMC3    O210662   3.234   4.145   9.331  0.0980  0.3984 -0.4720
  718MPD2     C10663   2.430   3.659  12.138  0.3187  0.0372 -0.2319
  718MPD2    C110664   2.499   3.544  12.165 -0.5540 -0.4051  0.1491
  718MPD2    C210665   2.469   3.474  12.280  0.4517  0.1594 -0.2545
  718MPD2    C310666   2.389   3.531  12.378  0.9932 -0.8332  0.3263
  718MPD2    C410667   2.337   3.652  12.352  0.6503 -0.4572  0.2942
  718MPD2    C510668   2.352   3.714  12.233  0.2649 -0.0349 -0.6438
  718MPD2     H10669   2.510   3.375  12.298  0.9342  0.3848 -0.1043
  718MPD2    H110670   2.271   3.708  12.418  1.4195 -1.5930  2.0482
  718MPD2    H210671   2.443   3.713  12.045  3.2254 -1.3573 -0.6380
  718MPD2    H310672   2.300   3.807  12.213 -1.7108 -0.9856  0.0186
  718MPD2     N10673   2.357   3.453  12.491  0.0558 -0.1674 -0.5119
  718MPD2    H510674   2.406   3.364  12.491  2.5414  1.1845  0.6529
  718MPD2    N110675   2.569   3.490  12.052  0.2609  0.2535 -1.0823
  718MPD2    H710676   2.603   3.550  11.977  0.4934  1.3481 -0.1012
  719TMC3    C110677   2.724   3.331  11.982 -0.2178  0.0620 -0.5319
  719TMC3    C210678   2.773   3.205  12.016  0.1911 -0.1171  0.3754
  719TMC3    C310679   2.902   3.195  12.059  0.1423  0.3874 -0.5288
  719TMC3    C410680   2.806   3.444  11.967 -0.1630  0.1286 -0.0094
  719TMC3    C510681   2.938   3.418  11.998 -0.8482 -0.5704  0.0673
  719TMC3    C610682   2.987   3.302  12.053 -0.5881 -0.3084  0.9068
  719TMC3     C10683   2.597   3.355  12.048 -0.6515  0.3919 -0.3082
  719TMC3     O10684   2.532   3.258  12.086 -0.3698 -0.3373 -0.4796
  719TMC3     H10685   2.707   3.120  12.008 -0.5420  0.2122  2.7907
  719TMC3    H110686   2.775   3.534  11.917  1.6419 -0.5608 -2.3682
  719TMC3    H210687   3.092   3.274  12.058 -0.3456  0.3591 -0.3713
  719TMC3    C710688   3.029   3.517  11.940  0.1318 -0.0559  0.1570
  719TMC3    C810689   2.936   3.125  12.183 -0.2949 -0.4732 -0.0951
  719TMC3    O110690   3.000   3.571  11.833  0.2889 -0.4244  0.1707
  719TMC3    O210691   3.051   3.093  12.211  0.3579 -0.3559  0.1533
  720MPD2     C10692   0.588   0.350  13.821 -0.1867  0.4590 -0.1453
  720MPD2    C110693   0.692   0.309  13.744  0.5446 -0.2806 -0.3944
  720MPD2    C210694   0.806   0.266  13.800  0.4340  0.1981  0.2350
  720MPD2    C310695   0.817   0.251  13.939 -0.3367  1.3188  0.3103
  720MPD2    C410696   0.709   0.288  14.016 -0.2123  0.2517 -0.0252
  720MPD2    C510697   0.601   0.346  13.953 -0.6725 -0.1326 -0.5373
  720MPD2     H10698   0.893   0.241  13.741  0.6009 -1.1061  1.0341
  720MPD2    H110699   0.692   0.269  14.122  0.1277 -1.0596 -0.1984
  720MPD2    H210700   0.493   0.386  13.783 -0.0125 -0.3991 -1.3549
  720MPD2    H310701   0.507   0.366  14.004  0.6951  0.0490  1.9289
  720MPD2     N10702   0.938   0.206  13.997 -0.2896  0.2589  0.8417
  720MPD2    H510703   1.012   0.191  13.930 -2.3365 -0.0699 -1.3211
  720MPD2    N110704   0.692   0.310  13.603  0.1510 -0.6482  0.0013
  720MPD2    H710705   0.780   0.278  13.564 -1.9587 -2.4855 -3.2752
  721TMC3    C110706   1.101   0.188  14.165 -0.6800 -0.4675 -0.1397
  721TMC3    C210707   1.145   0.207  14.294  0.5126 -0.0150  0.0942
  721TMC3    C310708   1.276   0.186  14.325  0.7565 -0.0811 -0.2929
  721TMC3    C410709   1.191   0.141  14.068 -0.1740 -0.0458 -0.3152
  721TMC3    C510710   1.323   0.133  14.107 -0.3606  0.1191 -0.3458
  721TMC3    C610711   1.372   0.153  14.230  0.3983 -1.3849 -0.2043
  721TMC3     C10712   0.963   0.207  14.134  0.7198 -0.1558 -0.2104
  721TMC3     O10713   0.887   0.223  14.233 -0.5459 -0.5887 -0.1577
  721TMC3     H10714   1.077   0.251  14.366  0.4493 -0.3198  0.2181
  721TMC3    H110715   1.162   0.110  13.968 -1.4579  2.9275 -0.8567
  721TMC3    H210716   1.476   0.129  14.250  0.5059  0.1930  1.1309
  721TMC3    C710717   1.414   0.118  14.003 -0.2326 -0.1870 -0.2048
  721TMC3    C810718   1.327   0.195  14.465  0.5247 -0.5311  0.3566
  721TMC3    O110719   1.394   0.188  13.908  0.4942 -0.7634  0.2851
  721TMC3    O210720   1.443   0.162  14.484 -0.4119  0.1275 -0.2260
  722MPD2     C10721   0.263   3.395  12.795 -0.0165 -0.0607  0.1236
  722MPD2    C110722   0.161   3.490  12.813  0.3786  0.0407  0.0634
  722MPD2    C210723   0.043   3.463  12.887  0.8079  0.6896  0.5696
  722MPD2    C310724   0.052   3.342  12.962  0.2878 -0.5251  0.6382
  722MPD2    C410725   0.152   3.247  12.948  0.9466  0.3237 -0.3495
  722MPD2    C510726   0.250   3.270  12.861 -0.1854  0.1804  0.4037
  722MPD2     H10727   4.706   3.542  12.896 -0.5916 -1.1297  4.7268
  722MPD2    H110728   0.157   3.156  13.007 -0.2410  0.3010 -0.2725
  722MPD2    H210729   0.349   3.415  12.732  0.5149  2.6584  1.6889
  722MPD2    H310730   0.331   3.201  12.842 -0.0039  1.1245 -2.3290
  722MPD2     N10731   4.688   3.312  13.060  0.2511  0.4386  0.1770
  722MPD2    H510732   4.697   3.219  13.099 -4.0776 -0.7392 -1.6375
  722MPD2    N110733   0.174   3.625  12.765 -0.1738  0.5321 -0.2601
  722MPD2    H710734   0.088   3.679  12.766  0.4310  1.4813  2.4256
  723TMC3    C110735   4.545   3.341  13.237  0.3915  0.6231 -0.3445
  723TMC3    C210736   4.515   3.205  13.228  0.0641  0.3544 -0.6621
  723TMC3    C310737   4.496   3.135  13.349  0.1554 -0.2843 -0.2803
  723TMC3    C410738   4.551   3.408  13.359  0.3069  0.0643  0.1236
  723TMC3    C510739   4.537   3.332  13.472  0.0799 -0.2960  0.3373
  723TMC3    C610740   4.517   3.191  13.472  0.0406 -0.0658 -0.4721
  723TMC3     C10741   4.607   3.408  13.123 -0.3362 -0.0309 -0.2224
  723TMC3     O10742   4.607   3.529  13.117  0.1379 -0.4083 -0.4264
  723TMC3     H10743   4.502   3.168  13.128 -3.2884  0.3824 -0.2225
  723TMC3    H110744   4.577   3.513  13.356 -0.0461  0.1569  0.4303
  723TMC3    H210745   4.480   3.144  13.562  0.0140 -1.0397 -0.9943
  723TMC3    C710746   4.565   3.407  13.601  0.1913  0.3619  0.1738
  723TMC3    C810747   4.420   3.017  13.339  0.5571 -0.1367 -0.1387
  723TMC3    O110748   4.587   3.335  13.701 -0.2672 -0.1289 -0.6291
  723TMC3    O210749   4.421   2.936  13.431 -0.0216  1.1219  0.6507
  724TMC3    C110750   0.768   1.736  10.358 -0.5647  0.1187 -0.1417
  724TMC3    C210751   0.675   1.725  10.254 -0.1745  0.2815  0.7378
  724TMC3    C310752   0.685   1.832  10.163  0.5961  0.2164 -0.0354
  724TMC3    C410753   0.846   1.839  10.381  0.5898 -0.0295  0.4053
  724TMC3    C510754   0.830   1.947  10.298  0.0050  0.1798  0.8389
  724TMC3    C610755   0.743   1.950  10.193 -0.6127 -0.4127 -0.7699
  724TMC3     C10756   0.800   1.625  10.443  0.8675 -0.3576  0.3229
  724TMC3     O10757   0.896   1.633  10.512 -0.2107  0.1511 -0.0088
  724TMC3     H10758   0.631   1.634  10.215  1.0219 -0.2487  0.6168
  724TMC3    H110759   0.907   1.846  10.470  0.8328  1.2119  0.1414
  724TMC3    H210760   0.748   2.034  10.126 -0.0943  1.6553  1.8473
  724TMC3    C710761   0.920   2.052  10.306  0.1624 -0.6293 -0.5018
  724TMC3    C810762   0.638   1.808  10.033 -0.2263 -0.0048 -0.2965
  724TMC3    O110763   1.026   2.030  10.368  0.2268  0.0649 -0.2370
  724TMC3    O210764   0.552   1.724  10.008  0.6152  0.3908  0.0652
  725TMC3    C110765   1.386   0.632  12.378  0.1192  0.2107 -0.2443
  725TMC3    C210766   1.263   0.656  12.317 -0.5576  0.1502 -0.3011
  725TMC3    C310767   1.255   0.619  12.185 -0.4116 -0.0827  0.3810
  725TMC3    C410768   1.492   0.582  12.317 -0.0750  0.2136 -0.4761
  725TMC3    C510769   1.488   0.551  12.186  0.5344  0.3931  0.4195
  725TMC3    C610770   1.374   0.573  12.121 -0.0007  0.4985 -0.2198
  725TMC3     C10771   1.419   0.692  12.508  0.1531  0.0073  0.2782
  725TMC3     O10772   1.540   0.701  12.538 -0.6804  0.6082  0.0409
  725TMC3     H10773   1.191   0.726  12.357  0.3229  0.8622  0.0283
  725TMC3    H110774   1.569   0.536  12.378 -0.4745  1.2791  0.8376
  725TMC3    H210775   1.348   0.512  12.035 -1.6773  0.9437 -0.0182
  725TMC3    C710776   1.604   0.491  12.130 -0.2742  0.3411  0.5246
  725TMC3    C810777   1.144   0.663  12.101  0.0790 -0.2079 -0.0045
  725TMC3    O110778   1.691   0.453  12.206  0.4599 -0.1158 -0.3172
  725TMC3    O210779   1.039   0.694  12.154 -0.1066  0.1999  0.5863
  726MPD2     C10780   4.607   1.616  10.503 -0.4157  0.1638 -0.0989
  726MPD2    C110781   4.488   1.644  10.436  0.5167 -0.3758  0.4708
  726MPD2    C210782   4.369   1.585  10.474  0.2869 -0.1031  0.3808
  726MPD2    C310783   4.359   1.514  10.594 -0.3231  0.0437 -0.0696
  726MPD2    C410784   4.478   1.495  10.664  0.1638 -0.0388  0.3801
  726MPD2    C510785   4.601   1.537  10.615 -0.0719 -0.5389 -0.0691
  726MPD2     H10786   4.281   1.605  10.414  0.4818  1.0484  0.4656
  726MPD2    H110787   4.471   1.456  10.765  0.6256 -0.7494  0.1367
  726MPD2    H210788   4.700   1.644  10.455 -0.6937  0.2755 -0.5688
  726MPD2    H310789   4.690   1.525  10.676 -0.2098  1.4379  0.5236
  726MPD2     N10790   4.233   1.469  10.641 -0.4253 -0.1083  0.3057
  726MPD2    H510791   4.244   1.409  10.722 -1.8483  0.1162  0.6606
  726MPD2    N110792   4.475   1.728  10.331  0.0443  0.0906  0.0096
  726MPD2    H710793   4.388   1.718  10.279  0.5530 -0.2618 -0.7753
  727TMC3    C110794   4.519   1.905  10.189 -0.5260  0.1652  0.4211
  727TMC3    C210795   4.535   2.041  10.181  0.2667  0.3441 -0.2821
  727TMC3    C310796   4.431   2.114  10.124 -1.0440  0.0431  0.4876
  727TMC3    C410797   4.423   1.840  10.107  0.3957 -0.0806 -0.0643
  727TMC3    C510798   4.332   1.918  10.041  0.1427 -0.4486 -0.0440
  727TMC3    C610799   4.329   2.054  10.056 -0.5543 -0.0441  0.3956
  727TMC3     C10800   4.562   1.834  10.307 -0.5006  0.5898  0.4278
  727TMC3     O10801   4.647   1.880  10.379 -0.0141 -0.0967  0.5831
  727TMC3     H10802   4.603   2.094  10.247 -0.3257 -0.1573  0.7388
  727TMC3    H110803   4.421   1.733  10.092  2.1747 -0.3334  1.5889
  727TMC3    H210804   4.273   2.118   9.988 -0.0856  0.8175  0.8213
  727TMC3    C710805   4.246   1.863   9.940  0.2389 -0.1469 -0.4364
  727TMC3    C810806   4.451   2.259  10.127 -0.1870 -0.2654 -0.5147
  727TMC3    O110807   4.149   1.935   9.909  0.0975 -0.1986 -0.7115
  727TMC3    O210808   4.561   2.298  10.152 -0.7033  0.2295  0.2536
  728TMC3    C110809   3.434   0.748  15.097 -0.1671  0.5027  0.0317
  728TMC3    C210810   3.564   0.722  15.066  0.1957 -0.4088 -0.3556
  728TMC3    C310811   3.610   0.774  14.950  0.3896  0.1864  0.0294
  728TMC3    C410812   3.348   0.818  15.016  0.0603  0.1231  0.3761
  728TMC3    C510813   3.400   0.877  14.907 -0.4951  0.4282  0.1647
  728TMC3    C610814   3.535   0.862  14.869 -0.1134 -0.1729  0.0046
  728TMC3     C10815   3.410   0.754  15.238  0.4642  0.4081  0.2694
  728TMC3     O10816   3.508   0.740  15.307 -0.3401 -0.7118  0.0607
  728TMC3     H10817   3.618   0.653  15.130 -1.4383 -1.6436 -0.3134
  728TMC3    H110818   3.252   0.854  15.051  0.3403  1.5625 -0.3566
  728TMC3    H210819   3.575   0.904  14.777  0.6451  1.0780  0.9057
  728TMC3    C710820   3.312   0.929  14.807 -0.6542 -0.4085 -0.2610
  728TMC3    C810821   3.691   0.684  14.874 -0.0209 -0.5456  0.2324
  728TMC3    O110822   3.201   0.879  14.811 -0.3697  0.0813  0.2112
  728TMC3    O210823   3.680   0.691  14.753  0.4178 -0.0214 -0.1348
  729MPD2     C10824   0.939   2.208  16.536  1.0321 -0.4614 -0.4066
  729MPD2    C110825   0.950   2.080  16.583 -0.1466 -0.8071 -0.0805
  729MPD2    C210826   0.880   2.054  16.701  0.2821 -0.1655  0.5271
  729MPD2    C310827   0.788   2.143  16.754  0.1558  0.1588 -1.0223
  729MPD2    C410828   0.776   2.269  16.698  0.4942 -0.5496 -0.4151
  729MPD2    C510829   0.856   2.301  16.586  0.0063 -0.5571 -0.4182
  729MPD2     H10830   0.891   1.952  16.736 -0.8988 -0.2272  0.7342
  729MPD2    H110831   0.701   2.344  16.719 -1.7169 -1.6276 -4.4269
  729MPD2    H210832   1.001   2.230  16.450  0.2735  1.8262 -0.3724
  729MPD2    H310833   0.844   2.397  16.537 -0.0393 -0.2250  0.2467
  729MPD2     N10834   0.695   2.105  16.857  0.1542  0.4151  0.1923
  729MPD2    H510835   0.626   2.176  16.881  0.6635  1.0563 -0.2530
  729MPD2    N110836   1.050   1.994  16.527  0.3198 -0.6117  0.3432
  729MPD2    H710837   1.101   2.038  16.451  0.3551 -2.1096 -0.4977
  730TMC3    C110838   0.591   1.995  17.026 -0.1064 -0.8586  0.0851
  730TMC3    C210839   0.649   1.962  17.150  0.3607 -0.2076  0.3029
  730TMC3    C310840   0.608   2.036  17.256 -0.2125 -0.8960  0.2679
  730TMC3    C410841   0.486   2.088  17.015  0.1484 -0.4286 -0.5010
  730TMC3    C510842   0.456   2.165  17.124  0.0334  1.0213  0.3659
  730TMC3    C610843   0.514   2.132  17.248 -0.2437 -0.2784 -0.4405
  730TMC3     C10844   0.687   1.987  16.919 -0.4708 -0.0775 -0.5471
  730TMC3     O10845   0.758   1.887  16.916 -0.5564  0.6367 -0.3627
  730TMC3     H10846   0.725   1.886  17.160  0.6717  0.2916  1.8395
  730TMC3    H110847   0.438   2.115  16.922  1.1359  0.6986 -0.6705
  730TMC3    H210848   0.488   2.198  17.329  0.2301 -0.5372 -0.0821
  730TMC3    C710849   0.506   2.297  17.083 -0.3999 -0.7063 -0.2100
  730TMC3    C810850   0.686   2.030  17.379 -0.1096 -0.2240  0.1353
  730TMC3    O110851   0.542   2.298  16.968 -0.2760 -0.1846 -0.0831
  730TMC3    O210852   0.620   2.000  17.477  0.4596 -0.3332 -0.0208
  731MPD2     C10853   1.597   4.702  12.384 -0.3216 -1.3117  0.1018
  731MPD2    C110854   1.497   4.729  12.287  0.2038 -0.4292  0.3218
  731MPD2    C210855   1.364   4.699  12.318 -0.0322  0.0686  0.4191
  731MPD2    C310856   1.329   4.632  12.430  0.2335  0.9194 -0.2237
  731MPD2    C410857   1.433   4.613  12.522  0.3675  0.1021 -0.5160
  731MPD2    C510858   1.556   4.651  12.501 -0.2284  0.3871 -0.5456
  731MPD2     H10859   1.287   4.708  12.243  1.4488  4.1187 -0.5964
  731MPD2    H110860   1.414   4.582  12.624  1.2833 -1.3838 -0.7947
  731MPD2    H210861   1.700   4.731  12.371 -1.0225  0.6838 -1.0404
  731MPD2    H310862   1.628   4.648  12.582 -0.3686 -3.2542 -0.5580
  731MPD2     N10863   1.194   4.596  12.453  0.1429  0.3528 -0.9298
  731MPD2    H510864   1.115   4.627  12.397 -1.3475 -1.1607  0.3600
  731MPD2    N110865   1.541   0.041  12.160  0.4066 -0.1689 -0.1470
  731MPD2    H710866   1.634   0.079  12.156  0.0628  0.9094  1.9234
  732TMC3    C110867   1.535   0.110  11.941  0.1601 -0.9634  0.7338
  732TMC3    C210868   1.450   0.134  11.836 -0.7313 -0.1220  0.3723
  732TMC3    C310869   1.500   0.125  11.713  1.0633  0.8577  0.4675
  732TMC3    C410870   1.670   0.087  11.926 -0.3769  0.7693  0.2676
  732TMC3    C510871   1.723   0.083  11.801  0.5621  0.7020 -0.0483
  732TMC3    C610872   1.630   0.104  11.692 -0.5137 -0.0981  0.1185
  732TMC3     C10873   1.459   0.059  12.051 -0.1157  0.0586 -0.3431
  732TMC3     O10874   1.341   0.028  12.030  0.3075  0.1628 -0.0976
  732TMC3     H10875   1.345   0.158  11.844 -0.2459  1.6546  1.5014
  732TMC3    H110876   1.738   0.069  12.008  0.4086  1.1383 -0.3053
  732TMC3    H210877   1.662   0.089  11.589 -0.4767  3.9160 -0.4826
  732TMC3    C710878   1.858   0.033  11.781 -0.3901  0.0423  0.2540
  732TMC3    C810879   1.414   0.125  11.593  0.1916 -0.4207 -0.3340
  732TMC3    O110880   1.922   0.008  11.884  0.0162  0.1634 -0.4138
  732TMC3    O210881   1.453   0.176  11.488  0.5445  0.0400  0.0019
  733TMC3    C110882   2.147   3.235  12.823  0.2405  0.3963 -0.1320
  733TMC3    C210883   2.159   3.358  12.761  0.7395  0.7021  0.7149
  733TMC3    C310884   2.273   3.380  12.688 -0.2839  0.3463  0.3809
  733TMC3    C410885   2.240   3.135  12.801 -0.4373 -0.1804 -0.1306
  733TMC3    C510886   2.352   3.162  12.739 -0.0220 -0.2136  0.1844
  733TMC3    C610887   2.380   3.285  12.683  0.4163  0.5417 -0.3439
  733TMC3     C10888   2.021   3.201  12.881  0.2622  0.1323  1.1458
  733TMC3     O10889   1.922   3.265  12.842  0.5360 -0.3131 -0.1757
  733TMC3     H10890   2.089   3.439  12.782  1.7810  1.7385  0.1822
  733TMC3    H110891   2.225   3.039  12.848 -1.5619 -1.1060 -2.3299
  733TMC3    H210892   2.477   3.315  12.648  0.9108 -2.8963 -1.8902
  733TMC3    C710893   2.449   3.053  12.717 -0.0521 -0.4929 -0.7948
  733TMC3    C810894   2.276   3.486  12.597  0.6461  1.3672  0.8639
  733TMC3    O110895   2.470   2.966  12.800  0.2670 -0.2276 -0.1568
  733TMC3    O210896   2.199   3.580  12.603  0.1022 -0.0664  0.0586
  734MPD2     C10897   3.883   0.738  12.169 -0.1806 -0.5242  0.9492
  734MPD2    C110898   3.838   0.658  12.068  0.6543 -0.0970  0.4346
  734MPD2    C210899   3.847   0.697  11.938  0.2659 -0.3741 -0.7392
  734MPD2    C310900   3.895   0.826  11.906 -0.2074 -0.0927  0.6529
  734MPD2    C410901   3.938   0.911  12.006  0.1990 -0.7241 -0.5513
  734MPD2    C510902   3.932   0.869  12.137 -0.2536  0.1106  0.4948
  734MPD2     H10903   3.838   0.630  11.853 -1.3876 -1.5656  0.4037
  734MPD2    H110904   3.960   1.016  11.993 -0.5763 -0.2788  1.5869
  734MPD2    H210905   3.883   0.700  12.270  1.7707  0.6738  1.4200
  734MPD2    H310906   3.984   0.921  12.216 -0.8529  2.5926 -0.7373
  734MPD2     N10907   3.889   0.856  11.766  0.8517 -0.1887 -0.4885
  734MPD2    H510908   3.843   0.780  11.717  0.9626 -0.3197 -0.3903
  734MPD2    N110909   3.791   0.529  12.104  0.9860 -0.1588  0.1952
  734MPD2    H710910   3.815   0.488  12.194  0.3404  2.8842  1.7533
  735TMC3    C110911   3.691   0.322  12.044 -0.4767 -0.2193 -0.4361
  735TMC3    C210912   3.590   0.269  11.969 -0.5893  0.5960  0.6248
  735TMC3    C310913   3.600   0.137  11.929  0.0909  0.6270  0.4142
  735TMC3    C410914   3.800   0.247  12.090  0.4847  0.0927  0.4911
  735TMC3    C510915   3.803   0.118  12.055 -0.2841 -0.2702  0.3901
  735TMC3    C610916   3.707   0.060  11.976 -0.1201  0.0084  0.3371
  735TMC3     C10917   3.706   0.462  12.021  0.1519  0.3935  0.4704
  735TMC3     O10918   3.655   0.500  11.914  0.5443 -0.0838 -0.0215
  735TMC3     H10919   3.502   0.330  11.954 -1.1998 -1.0577 -2.5946
  735TMC3    H110920   3.882   0.294  12.143  1.0417 -1.0396  0.6394
  735TMC3    H210921   3.712   4.695  11.938 -1.7787 -0.7442  2.1362
  735TMC3    C710922   3.931   0.046  12.070 -0.6952 -0.8403 -0.1638
  735TMC3    C810923   3.579   0.124  11.788  0.1327  0.3344  0.7437
  735TMC3    O110924   4.031   0.109  12.109  0.3926 -0.4222 -0.2720
  735TMC3    O210925   3.586   0.015  11.737  0.4465 -0.1430 -0.9896
  736MPD2     C10926   4.013   4.424  12.022 -0.3563  0.0375  0.2979
  736MPD2    C110927   4.039   4.561  12.020  0.2522 -0.9878 -0.7805
  736MPD2    C210928   4.167   4.605  12.004 -0.3617  0.3898 -0.5510
  736MPD2    C310929   4.273   4.523  11.973 -0.2034 -0.6093  0.1104
  736MPD2    C410930   4.249   4.394  11.975 -0.1872  0.1807  1.2762
  736MPD2    C510931   4.120   4.346  12.008 -0.1831 -0.8244  0.0626
  736MPD2     H10932   4.185   4.711  11.986 -0.7945  0.4259 -0.7864
  736MPD2    H110933   4.319   4.317  11.944 -1.1046  0.2342 -0.9305
  736MPD2    H210934   3.920   4.374  12.045  0.2859 -0.4095  1.9364
  736MPD2    H310935   4.108   4.240  12.025  0.9541 -1.0391 -0.4976
  736MPD2     N10936   4.407   4.564  11.938  0.7216  0.2712  0.5404
  736MPD2    H510937   4.478   4.492  11.923 -2.3332 -2.0796 -2.5682
  736MPD2    N110938   3.929   4.647  12.043 -0.1939  0.1797  0.3709
  736MPD2    H710939   3.838   4.604  12.057 -0.7519 -0.3333 -4.8238
  737TMC3    C110940   4.578   4.700  11.844 -0.1076  0.1629  0.2451
  737TMC3    C210941   4.639   0.085  11.850  0.6277  0.7098 -0.5344
  737TMC3    C310942   4.735   0.114  11.757 -0.2152  0.0087 -0.0567
  737TMC3    C410943   4.618   4.605  11.751  0.0253  0.3396  0.1408
  737TMC3    C510944   4.703   4.644  11.655 -0.1093  0.7032  0.3413
  737TMC3    C610945   0.038   0.027  11.655 -0.5217  0.4807 -0.1732
  737TMC3     C10946   4.440   4.693  11.898  0.6641 -0.7685 -0.3653
  737TMC3     O10947   4.378   0.060  11.905  0.0259  0.0685 -0.1458
  737TMC3     H10948   4.606   0.166  11.914  1.3796  1.5861 -1.2653
  737TMC3    H110949   4.584   4.502  11.750 -2.4496  1.1415  3.3053
  737TMC3    H210950   0.111   0.063  11.583  2.6781 -1.6159  2.0490
  737TMC3    C710951   0.026   4.534  11.581 -0.0870 -0.5364  0.1059
  737TMC3    C810952   0.036   0.249  11.740 -0.1026 -0.5445  0.0996
  737TMC3    O110953   0.025   4.419  11.625  0.8668 -0.0543 -0.2205
  737TMC3    O210954   0.059   0.316  11.839  0.2555  0.2771  0.4297
  738MPD2     C10955   4.719   3.739  15.299 -0.1499  0.2833 -0.2849
  738MPD2    C110956   4.655   3.764  15.178 -0.2231 -0.4973 -0.3807
  738MPD2    C210957   4.704   3.852  15.088  0.4150  0.4196  0.1301
  738MPD2    C310958   0.085   3.921  15.117  0.1202 -0.3102  0.3729
  738MPD2    C410959   0.149   3.895  15.235  0.6790 -0.2555 -0.0698
  738MPD2    C510960   0.105   3.796  15.320 -0.2777  1.0300 -1.1361
  738MPD2     H10961   4.648   3.886  15.002 -0.4066  1.9129  1.2372
  738MPD2    H110962   0.244   3.938  15.263  0.3349  0.2663  0.2789
  738MPD2    H210963   4.681   3.664  15.368 -2.0799 -0.8662 -2.6231
  738MPD2    H310964   0.155   3.776  15.414  1.9073  0.7139 -2.3831
  738MPD2     N10965   0.152   3.998  15.021 -0.1378 -0.0130  0.2318
  738MPD2    H510966   0.245   4.027  15.050 -0.8644  3.0649 -0.5195
  738MPD2    N110967   4.531   3.702  15.143  0.2534  0.1963 -0.2305
  738MPD2    H710968   4.502   3.731  15.050  0.2165  1.2053  0.0965
  739TMC3    C110969   0.215   4.093  14.818  0.2318  1.1996  0.9121
  739TMC3    C210970   0.213   4.091  14.679 -0.2575 -0.1703  0.2805
  739TMC3    C310971   0.330   4.107  14.607 -0.4596  0.1663  0.5434
  739TMC3    C410972   0.327   4.134  14.883  0.3513 -0.0307 -0.0388
  739TMC3    C510973   0.437   4.148  14.806  0.2048 -0.0421  0.4041
  739TMC3    C610974   0.450   4.124  14.671 -0.0530  0.0719 -0.0948
  739TMC3     C10975   0.111   4.026  14.888  0.2198 -0.1929  0.6286
  739TMC3     O10976   0.010   3.985  14.830  0.5213 -0.0270 -0.1630
  739TMC3     H10977   0.119   4.085  14.625  0.4688  1.6125 -1.1529
  739TMC3    H110978   0.326   4.162  14.988  1.2019  0.4833 -0.1722
  739TMC3    H210979   0.543   4.163  14.631 -1.2562  0.4579 -2.5449
  739TMC3    C710980   0.563   4.145  14.874  0.0830 -0.4731 -0.4027
  739TMC3    C810981   0.324   4.129  14.455  0.0851 -0.1296 -0.1066
  739TMC3    O110982   0.561   4.169  14.997  0.0702  0.1134  0.1341
  739TMC3    O210983   0.209   4.100  14.416 -0.0717 -0.1663 -0.3521
  740TMC3    C110984   0.680   0.614  14.251 -0.0449 -0.3328 -0.8180
  740TMC3    C210985   0.739   0.584  14.370 -0.5530 -0.3442 -0.9299
  740TMC3    C310986   0.870   0.551  14.376  0.3564  0.6847  0.0442
  740TMC3    C410987   0.755   0.619  14.140 -0.1802 -0.1553 -0.0055
  740TMC3    C510988   0.890   0.587  14.147  0.4406  0.0148 -0.2398
  740TMC3    C610989   0.950   0.568  14.265 -0.5772  0.6121 -0.2830
  740TMC3     C10990   0.549   0.677  14.238 -0.1872  0.1978 -0.0103
  740TMC3     O10991   0.524   0.753  14.144 -0.1568 -0.6707  0.0958
  740TMC3     H10992   0.685   0.574  14.464 -1.4244  0.6099 -1.3284
  740TMC3    H110993   0.715   0.626  14.039  2.8540  0.2171 -1.1864
  740TMC3    H210994   1.052   0.536  14.279 -0.9908 -0.0414  1.2687
  740TMC3    C710995   0.966   0.552  14.028  0.7663 -0.3589  0.5061
  740TMC3    C810996   0.927   0.497  14.500 -0.1079  0.2541 -0.2733
  740TMC3    O110997   1.075   0.498  14.050  0.2247  0.3639 -0.0802
  740TMC3    O210998   1.023   0.420  14.500 -0.0567 -0.1486 -0.2513
  741TMC3    C110999   0.125   0.240  13.780  0.5383 -0.0891 -0.1769
  741TMC3    C211000   0.036   0.203  13.877 -0.1262  0.2717  0.7294
  741TMC3    C311001   0.080   0.122  13.975  0.2490  0.3559 -0.5384
  741TMC3    C411002   0.249   0.180  13.761 -0.4011 -0.9793 -0.3456
  741TMC3    C511003   0.285   0.094  13.858  0.3136 -0.0179  0.4674
  741TMC3    C611004   0.207   0.068  13.966 -0.7416 -0.2850  0.4390
  741TMC3     C11005   0.068   0.328  13.678  0.4497 -0.3059  0.2996
  741TMC3     O11006   4.683   0.344  13.659  0.6011  0.7532  0.6722
  741TMC3     H11007   4.682   0.261  13.886  0.5162  1.2538  0.8498
  741TMC3    H111008   0.323   0.216  13.691 -0.9632  0.1267 -0.3726
  741TMC3    H211009   0.241   4.720  14.025 -2.3722  0.4227  2.3780
  741TMC3    C711010   0.417   0.022  13.849 -0.7649  0.2722  0.3585
  741TMC3    C811011   4.715   0.063  14.059  1.1400  0.4340 -0.3912
  741TMC3    O111012   0.461   4.720  13.742 -0.1587  0.0915 -0.5731
  741TMC3    O211013   4.610   0.120  14.070  0.0752  0.7434 -0.0048
  742TMC3    C111014   0.052   3.406  15.364  0.9185 -0.7496 -0.4494
  742TMC3    C211015   4.709   3.378  15.259  0.1026 -0.5024 -0.0767
  742TMC3    C311016   0.026   3.382  15.134  0.6816 -0.1976 -0.0939
  742TMC3    C411017   0.180   3.446  15.347  0.2320 -0.6564 -0.5033
  742TMC3    C511018   0.237   3.444  15.224 -0.2199 -0.9567  0.0165
  742TMC3    C611019   0.158   3.412  15.119  0.6954  0.6434 -0.3351
  742TMC3     C11020   0.014   3.386  15.504 -0.1616  0.0256 -0.1678
  742TMC3     O11021   0.103   3.351  15.581 -0.2878 -0.3762  0.1804
  742TMC3     H11022   4.609   3.340  15.281  0.8359  0.0770  4.3324
  742TMC3    H111023   0.246   3.477  15.427 -1.7200  0.2078  0.7696
  742TMC3    H211024   0.200   3.405  15.020  0.8207  0.5872 -0.2781
  742TMC3    C711025   0.368   3.386  15.211  0.2247 -0.7568  0.1430
  742TMC3    C811026   4.699   3.333  15.012 -0.3860 -0.6867  0.1333
  742TMC3    O111027   0.372   3.264  15.186 -0.1954  0.5961 -0.2493
  742TMC3    O211028   0.014   3.368  14.907 -0.0544 -0.0919  0.1812
  743MPD2     C11029   4.513   4.463   1.365  0.0446  0.5179 -0.2132
  743MPD2    C111030   4.432   4.441   1.254 -0.0592 -0.0687  0.3583
  743MPD2    C211031   4.499   4.414   1.128  0.1197 -0.1368 -0.3955
  743MPD2    C311032   4.634   4.410   1.111 -0.2047 -0.9933  0.2548
  743MPD2    C411033   4.706   4.433   1.225  0.7160 -0.3986  0.1643
  743MPD2    C511034   4.647   4.449   1.350  0.1460  0.1389 -0.2572
  743MPD2     H11035   4.435   4.383   1.046  0.8132  0.2115 -1.0717
  743MPD2    H111036   0.077   4.436   1.236  0.5948 -0.6886  1.4174
  743MPD2    H211037   4.472   4.489   1.462  0.7803  0.8911  0.0020
  743MPD2    H311038   4.718   4.463   1.430 -0.4223  0.1060  0.2521
  743MPD2     N11039   4.700   4.387   0.984  0.3958 -0.0182  0.4447
  743MPD2    H511040   4.638   4.364   0.907 -1.9439  2.5792  1.5572
  743MPD2    N111041   4.297   4.457   1.277  0.0523 -0.2908  1.1899
  743MPD2    H711042   4.270   4.500   1.364 -1.9406  1.7465 -0.4164
  744TMC3    C111043   4.059   4.463   1.255  0.9674 -0.0478 -0.0887
  744TMC3    C211044   4.054   4.566   1.343 -0.3007 -0.6607 -0.6850
  744TMC3    C311045   3.943   4.569   1.425  0.0588  0.1310 -0.0162
  744TMC3    C411046   3.956   4.379   1.228  1.0497 -0.6144 -0.0558
  744TMC3    C511047   3.843   4.386   1.307 -1.4132  0.7987  0.2751
  744TMC3    C611048   3.837   4.482   1.409 -0.2552  0.4352  0.5622
  744TMC3     C11049   4.190   4.432   1.189  0.0230  0.1471  0.0220
  744TMC3     O11050   4.185   4.385   1.074 -0.3513  0.0991 -0.3557
  744TMC3     H11051   4.139   4.632   1.346 -0.2353 -0.6969 -1.7624
  744TMC3    H111052   3.980   4.304   1.152 -0.6549 -1.7674  0.5508
  744TMC3    H211053   3.746   4.495   1.467 -1.9444  1.3049 -2.2837
  744TMC3    C711054   3.716   4.320   1.256 -0.8060 -0.0801 -0.4116
  744TMC3    C811055   3.918   4.680   1.505 -0.1516  0.1295  0.2697
  744TMC3    O111056   3.626   4.310   1.339 -0.2161 -0.5535  0.3804
  744TMC3    O211057   3.802   4.709   1.523 -0.0314 -0.0245  0.4512
  745TMC3    C111058   1.053   2.638  13.782  0.2407  0.2486 -1.0544
  745TMC3    C211059   0.974   2.635  13.891  0.3518  0.7747  0.6175
  745TMC3    C311060   0.844   2.607  13.882 -0.1501 -0.0333  0.3623
  745TMC3    C411061   0.998   2.626  13.659  0.0104  0.5631 -0.5255
  745TMC3    C511062   0.862   2.601  13.647  0.2305  0.1123 -0.8608
  745TMC3    C611063   0.788   2.586  13.760  0.1716  0.1371  0.2239
  745TMC3     C11064   1.171   2.715  13.795  0.1140 -0.5617 -0.3094
  745TMC3     O11065   1.268   2.677  13.855 -0.0604  0.4065 -0.6349
  745TMC3     H11066   1.018   2.655  13.988  2.4407  0.5683 -0.2727
  745TMC3    H111067   1.052   2.640  13.566 -1.0036  0.1868 -1.1785
  745TMC3    H211068   0.681   2.568  13.751 -0.0107  0.7755  1.2228
  745TMC3    C711069   0.798   2.605  13.520 -0.4367 -0.3199 -0.1930
  745TMC3    C811070   0.759   2.698  13.960 -0.9160 -1.2807 -0.3882
  745TMC3    O111071   0.687   2.552  13.511 -0.2674  0.0899 -0.2598
  745TMC3    O211072   0.643   2.668  13.977  0.0194  0.0553 -0.3521
  746TMC3    C111073   2.961   0.419  10.545 -0.1028  0.2516 -1.1311
  746TMC3    C211074   3.063   0.350  10.488  0.3378 -0.1601  0.5564
  746TMC3    C311075   3.034   0.216  10.451 -0.2890  0.5094 -0.3602
  746TMC3    C411076   2.842   0.363  10.583  0.0788 -0.2620  0.0283
  746TMC3    C511077   2.817   0.230  10.548  0.3188  0.0675 -0.1192
  746TMC3    C611078   2.910   0.155  10.483  0.7698  0.0323 -1.4794
  746TMC3     C11079   2.990   0.553  10.595 -0.5289  0.3179 -0.0590
  746TMC3     O11080   2.894   0.626  10.588 -0.1174 -0.2602  0.0700
  746TMC3     H11081   3.159   0.390  10.459 -0.1844  0.3138 -0.5278
  746TMC3    H111082   2.770   0.435  10.622  0.9488 -0.3495  1.8096
  746TMC3    H211083   2.889   0.054  10.451 -1.7304  0.5195 -1.3404
  746TMC3    C711084   2.686   0.172  10.569  0.3650  0.0413 -0.7391
  746TMC3    C811085   3.079   0.170  10.325 -0.1285  0.5180 -0.3851
  746TMC3    O111086   2.648   0.074  10.508 -0.3427 -0.7178 -0.5541
  746TMC3    O211087   3.068   0.049  10.303  0.6072 -0.4827  0.3301
  747TMC3    C111088   0.269   0.091  10.625 -1.1354 -0.1278  0.3888
  747TMC3    C211089   0.213   4.713  10.675 -0.0846 -0.3853  0.1759
  747TMC3    C311090   0.236   4.685  10.807 -0.0123 -0.1437 -0.0427
  747TMC3    C411091   0.340   0.186  10.698  0.4719  0.8626  0.7414
  747TMC3    C511092   0.354   0.148  10.833  0.0113 -0.0587 -0.8239
  747TMC3    C611093   0.303   0.033  10.896  0.5092  0.6074  0.0798
  747TMC3     C11094   0.241   0.127  10.489 -0.4569 -0.3101  0.0465
  747TMC3     O11095   0.215   0.241  10.458  0.0476  0.5801  0.2360
  747TMC3     H11096   0.143   4.651  10.620 -2.1038  0.1846  2.0790
  747TMC3    H111097   0.377   0.277  10.651 -1.7889  1.2431 -0.3088
  747TMC3    H211098   0.337   0.003  10.994  0.6989 -1.4023 -0.6130
  747TMC3    C711099   0.451   0.220  10.914 -0.1005 -0.4761 -0.3775
  747TMC3    C811100   0.181   4.565  10.865 -0.3112  0.3374 -0.2482
  747TMC3    O111101   0.461   0.179  11.030 -0.1667 -0.1404 -0.2729
  747TMC3    O211102   0.153   4.467  10.795  0.4396  0.0468 -0.2793
  748MPD2     C11103   2.726   0.428   0.766 -0.2077  0.3579 -0.8681
  748MPD2    C111104   2.671   0.517   0.851 -0.4207  0.0113 -0.3184
  748MPD2    C211105   2.759   0.589   0.930  0.7021  0.3933  0.8464
  748MPD2    C311106   2.891   0.586   0.913 -0.3644  0.7803  0.0345
  748MPD2    C411107   2.946   0.509   0.814  0.0281 -0.0651  0.0220
  748MPD2    C511108   2.857   0.424   0.748 -0.0571  0.4563 -0.2399
  748MPD2     H11109   2.713   0.655   1.003 -0.8188  0.7656 -0.4438
  748MPD2    H111110   3.051   0.510   0.787 -0.1555 -0.4991 -0.7178
  748MPD2    H211111   2.665   0.360   0.709 -1.9451 -1.1683  2.7939
  748MPD2    H311112   2.904   0.354   0.679 -1.0619 -0.9925  0.5519
  748MPD2     N11113   2.979   0.664   0.997 -0.3249  0.3402 -0.0271
  748MPD2    H511114   2.934   0.705   1.078  0.1798 -0.9612  0.9051
  748MPD2    N111115   2.531   0.523   0.855  0.5643  0.7515 -0.5572
  748MPD2    H711116   2.482   0.463   0.790  0.1852 -0.2386  0.6493
  749TMC3    C111117   3.158   0.804   1.064  0.0969 -0.0170  0.4997
  749TMC3    C211118   3.292   0.809   1.100 -0.5196 -0.8797  0.0207
  749TMC3    C311119   3.350   0.930   1.141 -0.2991 -0.0975 -0.4778
  749TMC3    C411120   3.082   0.918   1.066  0.2554 -0.7806  0.7958
  749TMC3    C511121   3.143   1.026   1.109  0.5733  0.2353  0.3245
  749TMC3    C611122   3.273   1.040   1.152 -0.8822 -0.1000  0.0127
  749TMC3     C11123   3.114   0.694   0.978  0.1640  0.1569 -1.0454
  749TMC3     O11124   3.194   0.658   0.893  0.0561  0.1241  0.2699
  749TMC3     H11125   3.354   0.720   1.095  1.9797  0.9880 -1.9545
  749TMC3    H111126   2.980   0.908   1.029 -0.2036 -0.7193  2.0480
  749TMC3    H211127   3.321   1.132   1.183 -0.3389 -0.3845  0.0207
  749TMC3    C711128   3.086   1.152   1.067  0.1655  0.4116  0.5485
  749TMC3    C811129   3.488   0.941   1.183 -0.7443  0.3457  1.1653
  749TMC3    O111130   3.170   1.238   1.064 -0.1756 -0.2686  0.0920
  749TMC3    O211131   3.516   1.022   1.268  0.2889  0.5874  0.0321
  750MPD2     C11132   3.289   1.675  11.148  0.6365  0.3134  0.7365
  750MPD2    C111133   3.189   1.700  11.069 -0.3447 -0.7401 -0.5301
  750MPD2    C211134   3.195   1.689  10.933 -0.8063 -0.0881  0.1966
  750MPD2    C311135   3.302   1.622  10.875  0.0503 -0.0913  0.3012
  750MPD2    C411136   3.406   1.599  10.959  0.7187  0.7508  0.6737
  750MPD2    C511137   3.402   1.631  11.092  0.2700 -0.2715  0.1005
  750MPD2     H11138   3.113   1.720  10.868 -0.0654  2.3753  0.4212
  750MPD2    H111139   3.498   1.551  10.928  0.3267 -0.3073  1.1598
  750MPD2    H211140   3.281   1.692  11.255 -2.7055  2.2720  0.1808
  750MPD2    H311141   3.491   1.614  11.152 -0.7341 -3.0491  0.8367
  750MPD2     N11142   3.301   1.587  10.739 -0.1730 -1.1147 -0.0365
  750MPD2    H511143   3.373   1.526  10.702  0.2426 -0.4865 -0.2468
  750MPD2    N111144   3.090   1.774  11.134  0.1721 -0.0648  0.6128
  750MPD2    H711145   3.111   1.805  11.228 -0.6982 -0.7060  1.0198
  751TMC3    C111146   3.184   1.562  10.531  0.0187 -0.3863  0.3612
  751TMC3    C211147   3.059   1.583  10.485  0.4493 -0.4297  1.3220
  751TMC3    C311148   3.007   1.490  10.399 -0.5968  0.3950 -0.6830
  751TMC3    C411149   3.267   1.458  10.491  0.3847  0.1041 -0.1625
  751TMC3    C511150   3.216   1.381  10.390 -0.2683  0.3642  0.0133
  751TMC3    C611151   3.085   1.391  10.349  0.1964  0.1897 -0.6965
  751TMC3     C11152   3.217   1.642  10.647  0.5319  0.1077  0.1743
  751TMC3     O11153   3.160   1.748  10.655 -0.3951 -0.5783 -0.1779
  751TMC3     H11154   3.007   1.674  10.514 -1.1705 -1.4734  1.6926
  751TMC3    H111155   3.366   1.446  10.533  0.4918 -1.0249 -0.7310
  751TMC3    H211156   3.036   1.322  10.281  0.1403 -0.4125 -0.0406
  751TMC3    C711157   3.308   1.315  10.294  0.5652 -0.0927 -0.2435
  751TMC3    C811158   2.866   1.490  10.356 -0.9589  0.0637 -0.3223
  751TMC3    O111159   3.432   1.305  10.321  0.5249 -0.5508 -0.6563
  751TMC3    O211160   2.843   1.407  10.270  0.3254  0.0813 -0.3300
  752TMC3    C111161   1.579   1.236  17.203  0.1523 -0.8118  0.2043
  752TMC3    C211162   1.613   1.108  17.235 -0.4374  0.0731  0.5612
  752TMC3    C311163   1.538   1.040  17.318  0.4333 -0.2090 -0.1825
  752TMC3    C411164   1.453   1.288  17.226 -0.0000  0.1224  1.1434
  752TMC3    C511165   1.374   1.216  17.309 -0.4543  0.0805 -0.2336
  752TMC3    C611166   1.421   1.098  17.364  0.1360 -0.6485  0.2458
  752TMC3     C11167   1.675   1.309  17.126 -0.4754  0.1063 -0.9768
  752TMC3     O11168   1.792   1.268  17.114  0.5442  0.1102 -0.0918
  752TMC3     H11169   1.713   1.084  17.201 -1.0049 -1.0506 -0.3241
  752TMC3    H111170   1.433   1.393  17.209  0.1831  0.1586  1.1523
  752TMC3    H211171   1.370   1.028  17.429 -0.3748 -0.5212 -0.0172
  752TMC3    C711172   1.268   1.274  17.386 -0.1853  0.8565 -0.5370
  752TMC3    C811173   1.595   0.913  17.363  0.5927  0.8672 -0.7729
  752TMC3    O111174   1.242   1.222  17.496 -0.5799 -0.1684  0.1440
  752TMC3    O211175   1.666   0.844  17.293 -0.3221  0.0086  0.4412
  753TMC3    C111176   3.463   2.979  13.412 -0.0354  1.0135 -0.4086
  753TMC3    C211177   3.570   2.974  13.499  0.2049 -0.1458 -0.1510
  753TMC3    C311178   3.645   2.858  13.494  0.2299 -0.8504  0.4752
  753TMC3    C411179   3.424   2.867  13.334  0.1333 -0.0163 -0.3465
  753TMC3    C511180   3.506   2.759  13.339 -0.2893 -0.3073 -0.1527
  753TMC3    C611181   3.622   2.746  13.414  0.1477 -0.0643  0.5897
  753TMC3     C11182   3.401   3.111  13.398 -0.0696 -0.2983  0.3887
  753TMC3     O11183   3.404   3.171  13.504 -0.4209 -0.3230 -0.6040
  753TMC3     H11184   3.591   3.060  13.562  4.5155 -1.1538 -0.2102
  753TMC3    H111185   3.331   2.873  13.278 -1.0149 -1.2409  1.4088
  753TMC3    H211186   3.693   2.664  13.419 -1.3831 -1.4804 -0.6205
  753TMC3    C711187   3.468   2.651  13.240 -0.0660 -0.0040 -0.9703
  753TMC3    C811188   3.781   2.866  13.549  0.1540 -0.4114 -0.0071
  753TMC3    O111189   3.383   2.671  13.153  0.3473  0.1777  0.4585
  753TMC3    O211190   3.836   2.762  13.583 -0.5306 -0.2441 -0.0360
  754MPD2     C11191   2.364   1.178  12.537 -0.3284  0.0094 -0.5342
  754MPD2    C111192   2.291   1.068  12.585  0.1343  0.0251  0.3365
  754MPD2    C211193   2.201   1.080  12.694 -0.3617 -0.6655 -0.6682
  754MPD2    C311194   2.194   1.202  12.751 -0.0250 -0.3069  0.0020
  754MPD2    C411195   2.280   1.304  12.720 -0.1948 -0.5501  0.4601
  754MPD2    C511196   2.361   1.291  12.613 -0.2967 -0.6505  0.9355
  754MPD2     H11197   2.134   1.000  12.721 -0.8947 -1.1851 -3.5582
  754MPD2    H111198   2.289   1.390  12.785 -1.5559  0.3287 -0.5159
  754MPD2    H211199   2.426   1.175  12.449  0.8737  0.3189  0.2985
  754MPD2    H311200   2.432   1.365  12.579 -2.5885  1.3063  0.4242
  754MPD2     N11201   2.099   1.233  12.851  0.0337  0.0094  0.1450
  754MPD2    H511202   2.096   1.331  12.876  0.6032  0.0667  0.0112
  754MPD2    N111203   2.300   0.946  12.507  0.4856 -0.2773 -0.2369
  754MPD2    H711204   2.335   0.962  12.413  0.2808  0.3202 -0.2098
  755MPD2     C11205   1.849   1.976  12.903  0.2074 -0.4244  0.2776
  755MPD2    C111206   1.725   1.912  12.913 -0.2716  0.1715  0.1884
  755MPD2    C211207   1.724   1.800  12.985  0.5926 -0.1408 -0.1383
  755MPD2    C311208   1.842   1.735  13.029  0.2154  0.2861  0.9200
  755MPD2    C411209   1.965   1.792  13.001 -0.0098  0.3034  0.2520
  755MPD2    C511210   1.965   1.919  12.950 -0.3901 -0.0399  0.7306
  755MPD2     H11211   1.626   1.767  13.017  0.7593  0.8001  1.3535
  755MPD2    H111212   2.065   1.752  13.014 -0.9105 -1.7328  0.7571
  755MPD2    H211213   1.857   2.073  12.855  0.1366 -0.8852 -0.6542
  755MPD2    H311214   2.059   1.973  12.952 -1.4290  1.8701 -1.5446
  755MPD2     N11215   1.844   1.603  13.068  0.1728  0.3501 -0.1554
  755MPD2    H511216   1.934   1.557  13.073 -0.9978 -1.9342 -0.5144
  755MPD2    N111217   1.606   1.966  12.866 -0.1898  0.0370 -0.3062
  755MPD2    H711218   1.521   1.911  12.878  0.1505  0.3651  3.4849
  756MPD2     C11219   2.247   2.257   9.267  0.3961  0.6692  0.2353
  756MPD2    C111220   2.286   2.127   9.258  0.0829  0.0083 -0.1962
  756MPD2    C211221   2.353   2.087   9.150 -0.3362 -0.4690 -0.3940
  756MPD2    C311222   2.370   2.178   9.042 -0.5274 -0.0033  1.0253
  756MPD2    C411223   2.333   2.307   9.058  0.4379  0.3355  0.0603
  756MPD2    C511224   2.271   2.347   9.171  0.4815  0.0950 -0.1101
  756MPD2     H11225   2.380   1.982   9.146 -1.0894 -0.6360 -1.1181
  756MPD2    H111226   2.350   2.385   8.985  2.0268 -0.9940 -0.9726
  756MPD2    H211227   2.187   2.304   9.344 -0.6400 -0.0846 -0.1173
  756MPD2    H311228   2.240   2.450   9.179 -1.1166 -0.4587  0.7805
  756MPD2     N11229   2.433   2.129   8.926 -0.8330  0.2587  0.5278
  756MPD2    H511230   2.442   2.028   8.928  2.7657  0.5330 -0.0565
  756MPD2    N111231   2.262   2.037   9.360 -1.0386  0.2570  0.0900
  756MPD2    H711232   2.297   1.944   9.343 -1.2832  0.5477 -2.0758
  757MPD2     C11233   2.781   1.384   9.015 -0.4168  0.2422 -0.2925
  757MPD2    C111234   2.667   1.449   9.048  0.4065  0.3100  0.0853
  757MPD2    C211235   2.633   1.566   8.979 -0.6937  0.6199 -0.0770
  757MPD2    C311236   2.714   1.614   8.875  0.8076 -0.3345 -0.5034
  757MPD2    C411237   2.827   1.545   8.841  0.3612  0.2083  1.2207
  757MPD2    C511238   2.865   1.436   8.911 -0.0409  0.1456  0.1104
  757MPD2     H11239   2.542   1.621   8.999 -1.2523  0.4229 -2.1251
  757MPD2    H111240   2.908   1.588   8.783  0.8192 -0.7130  1.1816
  757MPD2    H211241   2.802   1.294   9.071 -0.2796  0.7974  0.5554
  757MPD2    H311242   2.958   1.385   8.890  0.3556  0.0201  2.1691
  757MPD2     N11243   2.682   1.737   8.806 -0.9148  0.1010 -0.2041
  757MPD2    H511244   2.597   1.778   8.844 -0.9446 -1.3138  1.2371
  757MPD2    N111245   2.582   1.387   9.149  0.3381 -0.7306 -0.6685
  757MPD2    H711246   2.611   1.294   9.178 -3.1051 -1.7940 -0.6257
  758MPD2     C11247   2.280   1.002  15.755  0.0754  0.3437 -0.3246
  758MPD2    C111248   2.376   0.907  15.793  0.0525 -0.3748  0.1710
  758MPD2    C211249   2.413   0.912  15.926  0.3673 -0.1094 -0.1414
  758MPD2    C311250   2.374   1.014  16.014  0.2424  0.5820 -0.2890
  758MPD2    C411251   2.277   1.100  15.975 -0.5074 -0.2136  0.1618
  758MPD2    C511252   2.238   1.100  15.847 -0.1695 -0.0833 -0.2616
  758MPD2     H11253   2.480   0.834  15.960  1.5194  0.4449 -1.1905
  758MPD2    H111254   2.228   1.161  16.050  0.1985 -1.4796  1.6592
  758MPD2    H211255   2.249   1.013  15.652  1.2134  0.5551 -0.6446
  758MPD2    H311256   2.171   1.172  15.800 -1.4116  0.1219  1.8037
  758MPD2     N11257   2.423   1.025  16.144  0.1173  0.5408  0.8006
  758MPD2    H511258   2.386   1.102  16.200 -1.0243  0.3840  0.2641
  758MPD2    N111259   2.414   0.815  15.698 -0.4073  0.6832 -0.1175
  758MPD2    H711260   2.357   0.813  15.614 -1.1859 -0.5527  0.4439
  759MPD2     C11261   1.369   4.314  10.071  0.6263 -0.1655 -0.9857
  759MPD2    C111262   1.482   4.237  10.100  0.6001  0.4029  0.5530
  759MPD2    C211263   1.568   4.196  10.005 -0.3826  0.1520 -0.7428
  759MPD2    C311264   1.537   4.220   9.870 -0.5228 -0.1889  0.2114
  759MPD2    C411265   1.420   4.293   9.838  0.7095  0.5818  0.5311
  759MPD2    C511266   1.339   4.334   9.940 -0.2051 -0.7710 -0.1099
  759MPD2     H11267   1.652   4.135  10.038 -1.0839 -0.5964 -0.3310
  759MPD2    H111268   1.384   4.319   9.739 -1.4157 -0.7988  0.9401
  759MPD2    H211269   1.302   4.357  10.145  1.3852 -1.7260  0.5948
  759MPD2    H311270   1.256   4.393   9.903  0.9109  0.4572 -0.6743
  759MPD2     N11271   1.641   4.182   9.775 -0.0750 -0.1070  0.6842
  759MPD2    H511272   1.709   4.120   9.817 -0.6805 -1.8849 -0.9438
  759MPD2    N111273   1.505   4.182  10.231 -0.0318  0.6680  0.2186
  759MPD2    H711274   1.595   4.137  10.249 -0.9735 -0.7370  1.4079
  760MPD2     C11275   1.213   1.921  11.734 -0.1752  0.7994  0.1606
  760MPD2    C111276   1.333   1.911  11.672  0.1335  0.2478 -0.1124
  760MPD2    C211277   1.369   1.785  11.621  0.3007 -0.5805  0.3060
  760MPD2    C311278   1.291   1.674  11.639 -0.1378 -0.1375 -0.0209
  760MPD2    C411279   1.167   1.686  11.709  0.8465 -0.4709 -0.5104
  760MPD2    C511280   1.135   1.808  11.760 -0.5440  0.3934  0.2033
  760MPD2     H11281   1.466   1.772  11.575 -0.5331 -1.0158 -1.3437
  760MPD2    H111282   1.108   1.597  11.728 -1.0257  0.6491 -1.0113
  760MPD2    H211283   1.192   2.016  11.782 -0.3279  0.0639  1.5512
  760MPD2    H311284   1.034   1.818  11.798 -1.7516 -2.9211 -2.1946
  760MPD2     N11285   1.336   1.553  11.586  0.0141  0.0868 -0.0381
  760MPD2    H511286   1.426   1.554  11.541 -0.0731  0.7366 -0.1917
  760MPD2    N111287   1.427   2.017  11.659 -0.5669  0.7608  0.1080
  760MPD2    H711288   1.517   1.990  11.619  0.2879  2.4714  0.8700
  761MPD2     C11289   2.405   1.674  10.287 -0.3104 -0.3112  0.6435
  761MPD2    C111290   2.492   1.615  10.207  0.4101  0.1009  0.1542
  761MPD2    C211291   2.619   1.592  10.248 -0.5230 -0.8903  0.3798
  761MPD2    C311292   2.654   1.606  10.381 -0.3405 -0.3399  0.5594
  761MPD2    C411293   2.562   1.665  10.467  0.2985 -0.3214  0.2977
  761MPD2    C511294   2.433   1.689  10.421 -0.2504 -0.2936 -1.0447
  761MPD2     H11295   2.693   1.566  10.173 -1.8824 -0.4153 -1.1259
  761MPD2    H111296   2.584   1.680  10.572 -3.6868  1.1092  0.9463
  761MPD2    H211297   2.301   1.691  10.262  0.0977  0.8305 -0.2781
  761MPD2    H311298   2.351   1.736  10.475  2.4163  2.3159  0.7340
  761MPD2     N11299   2.788   1.578  10.421  0.3170  0.4825 -0.4076
  761MPD2    H511300   2.818   1.617  10.510 -2.9731  1.0815  0.4636
  761MPD2    N111301   2.450   1.588  10.080  0.2076 -0.7590 -0.1335
  761MPD2    H711302   2.352   1.602  10.059  0.3236 -0.8356 -0.7266
  762MPD2     C11303   3.030   1.004  10.380  0.1450 -0.4940  0.0680
  762MPD2    C111304   2.975   1.016  10.258 -0.7285 -0.1649 -0.0400
  762MPD2    C211305   3.044   0.969  10.151  0.2312 -0.2754  0.5276
  762MPD2    C311306   3.179   0.930  10.157 -1.2544 -0.3541 -0.3126
  762MPD2    C411307   3.248   0.942  10.274 -0.0498 -0.5861  0.2562
  762MPD2    C511308   3.170   0.983  10.382  0.1009  0.6129 -0.2190
  762MPD2     H11309   2.998   0.968  10.053 -0.0287 -0.1462  0.6481
  762MPD2    H111310   3.356   0.926  10.278 -0.1943 -1.8929 -1.0903
  762MPD2    H211311   2.977   1.029  10.471  0.3531  0.6099 -0.1153
  762MPD2    H311312   3.215   0.991  10.480  1.9813  1.3718 -1.1497
  762MPD2     N11313   3.237   0.905  10.033  0.0945  0.7937 -0.3108
  762MPD2    H511314   3.183   0.911   9.947  0.2406 -0.8436 -0.5248
  762MPD2    N111315   2.848   1.084  10.248  0.3210  0.5872 -0.7927
  762MPD2    H711316   2.797   1.100  10.334  0.7595  4.0137 -1.1646
  763MPD2     C11317   4.430   1.250  15.875  0.3150 -0.2470 -0.5019
  763MPD2    C111318   4.314   1.329  15.865 -0.3308 -0.8795 -0.0173
  763MPD2    C211319   4.313   1.457  15.926 -0.0808 -0.1480  0.2211
  763MPD2    C311320   4.429   1.506  15.986 -0.6166  0.8871 -0.1745
  763MPD2    C411321   4.541   1.426  15.998  0.4411 -0.0434  0.3592
  763MPD2    C511322   4.539   1.301  15.940 -1.0479  0.1689  1.0678
  763MPD2     H11323   4.218   1.510  15.921  1.3272  2.6470  2.8068
  763MPD2    H111324   4.629   1.460  16.053  0.0025  0.0459  1.0044
  763MPD2    H211325   4.442   1.151  15.833 -1.0471 -1.3946  1.8483
  763MPD2    H311326   4.626   1.236  15.941 -1.4391 -0.4618 -3.4043
  763MPD2     N11327   4.443   1.635  16.040 -0.8054  0.0314 -0.1823
  763MPD2    H511328   4.538   1.652  16.071 -0.7095  0.4337 -0.6887
  763MPD2    N111329   4.206   1.288  15.781 -0.2416  0.0161  0.1886
  763MPD2    H711330   4.141   1.364  15.761  0.5649  0.8693  0.7735
  764MPD2     C11331   2.766   2.932  17.255  0.2515 -0.1697  0.8131
  764MPD2    C111332   2.668   2.838  17.240 -0.2868 -0.3295 -0.2332
  764MPD2    C211333   2.620   2.767  17.349 -1.2145  0.1654 -0.1669
  764MPD2    C311334   2.675   2.786  17.472  0.9103  0.2469  0.5843
  764MPD2    C411335   2.770   2.881  17.487 -0.3283 -0.5316 -0.3559
  764MPD2    C511336   2.825   2.951  17.376  0.0770  0.2283 -0.2166
  764MPD2     H11337   2.540   2.694  17.340  1.4490 -2.7408 -0.4069
  764MPD2    H111338   2.815   2.921  17.577 -1.2872  0.4436 -0.3167
  764MPD2    H211339   2.791   3.005  17.178  2.3255  1.0605  2.6303
  764MPD2    H311340   2.898   3.030  17.382  1.3854 -0.9115 -1.1759
  764MPD2     N11341   2.624   2.711  17.582 -0.8186 -0.6126  0.4990
  764MPD2    H511342   2.572   2.630  17.549  0.4652 -0.8134 -1.0044
  764MPD2    N111343   2.606   2.798  17.120 -0.3774 -0.0024  0.2738
  764MPD2    H711344   2.539   2.722  17.120 -0.3200 -0.0554 -1.5696
  765MPD2     C11345   2.108   0.485  15.232  0.3840 -0.0659 -0.2030
  765MPD2    C111346   2.170   0.572  15.319  0.3593 -0.1604  0.2679
  765MPD2    C211347   2.287   0.531  15.382 -0.9625 -0.5254 -0.0863
  765MPD2    C311348   2.343   0.406  15.352 -0.1985  0.0724  0.5892
  765MPD2    C411349   2.275   0.320  15.266  0.6471  0.4419  0.5156
  765MPD2    C511350   2.160   0.363  15.200 -0.0275 -0.2513  0.4355
  765MPD2     H11351   2.330   0.598  15.456 -0.0261 -1.1208 -0.0922
  765MPD2    H111352   2.309   0.222  15.235  1.2744 -0.2467  3.3842
  765MPD2    H211353   2.012   0.508  15.189  1.7113  1.3166 -2.4091
  765MPD2    H311354   2.119   0.302  15.120  1.5690  0.5783 -1.0298
  765MPD2     N11355   2.470   0.376  15.406  0.2123 -0.5611  0.0859
  765MPD2    H511356   2.499   0.449  15.471  2.2704 -0.3824 -1.0310
  765MPD2    N111357   2.103   0.691  15.351  0.0425 -0.5199 -0.0442
  765MPD2    H711358   2.007   0.706  15.324 -0.2754 -1.3003  0.6609
  766MPD2     C11359   1.564   0.809  15.078  0.2654 -0.5335 -0.1590
  766MPD2    C111360   1.698   0.779  15.100  0.2688 -0.0107  0.1964
  766MPD2    C211361   1.749   0.678  15.027  0.6448 -0.0461  0.4552
  766MPD2    C311362   1.683   0.614  14.925  0.4273  0.4013  0.0025
  766MPD2    C411363   1.552   0.638  14.908 -0.1878 -0.0083  0.6452
  766MPD2    C511364   1.489   0.732  14.989  0.0985 -0.8105  0.7370
  766MPD2     H11365   1.856   0.667  15.042  1.1696 -0.0319 -3.1623
  766MPD2    H111366   1.498   0.590  14.827  1.4319 -1.2627  0.3160
  766MPD2    H211367   1.503   0.881  15.132 -2.2195 -2.5280 -0.3106
  766MPD2    H311368   1.389   0.763  14.962  0.6251 -2.1088 -2.7076
  766MPD2     N11369   1.753   0.543  14.826 -0.5253 -0.4052 -0.1545
  766MPD2    H511370   1.706   0.519  14.739 -0.4887 -0.6671 -0.1018
  766MPD2    N111371   1.776   0.834  15.212  0.9864  0.1119 -0.0801
  766MPD2    H711372   1.877   0.819  15.213  1.4025  2.9865  0.7102
  767MPD2     C11373   1.385   0.799  14.686  0.4732  0.2559 -0.4081
  767MPD2    C111374   1.508   0.816  14.632  0.3011 -0.0888 -0.8352
  767MPD2    C211375   1.547   0.741  14.525  0.4618 -0.0038  0.7517
  767MPD2    C311376   1.450   0.671  14.457  0.7985 -0.1199  0.4625
  767MPD2    C411377   1.320   0.658  14.509  0.2042  0.3718 -0.1296
  767MPD2    C511378   1.290   0.723  14.619 -0.1625  0.5649 -0.4983
  767MPD2     H11379   1.646   0.753  14.482  0.2716 -0.0646  0.3002
  767MPD2    H111380   1.236   0.611  14.461  0.6468 -0.5841  0.0169
  767MPD2    H211381   1.360   0.840  14.783 -1.6506 -1.0302 -0.4071
  767MPD2    H311382   1.202   0.697  14.676 -0.4824 -0.5769 -1.5193
  767MPD2     N11383   1.485   0.616  14.332 -0.1188  0.1946 -0.1694
  767MPD2    H511384   1.584   0.625  14.311 -0.0816 -1.5566 -0.8077
  767MPD2    N111385   1.589   0.906  14.705  0.6874  0.0364 -0.8162
  767MPD2    H711386   1.549   0.936  14.793  1.4895  0.3403 -0.5512
  768MPD2     C11387   2.428   4.435  10.170  0.6789 -0.1536  0.0637
  768MPD2    C111388   2.384   4.420  10.290 -0.2876 -0.3548  0.1832
  768MPD2    C211389   2.462   4.397  10.400  0.2827  0.6409 -0.0738
  768MPD2    C311390   2.598   4.420  10.381  0.4641  0.2258 -0.0540
  768MPD2    C411391   2.648   4.448  10.252  0.1564  0.8388  0.7941
  768MPD2    C511392   2.561   4.441  10.144 -0.1169 -0.1499  0.2264
  768MPD2     H11393   2.432   4.380  10.503 -2.1286 -0.8582 -1.0299
  768MPD2    H111394   2.754   4.451  10.233 -0.0799  0.3278 -0.6493
  768MPD2    H211395   2.371   4.455  10.080 -0.6402 -2.1317  0.4659
  768MPD2    H311396   2.601   4.442  10.043  1.0358 -0.5895  0.6797
  768MPD2     N11397   2.696   4.426  10.475  0.1509 -0.2421  0.0850
  768MPD2    H511398   2.786   4.455  10.438 -0.1096  0.2932 -0.1275
  768MPD2    N111399   2.248   4.425  10.321  0.0601 -0.0624 -0.5886
  768MPD2    H711400   2.223   4.411  10.419 -0.5101 -1.4257 -0.9329
  769MPD2     C11401   3.289   1.742  14.825 -0.2265 -0.0437  0.8000
  769MPD2    C111402   3.284   1.878  14.830 -0.0200  0.1380  0.0798
  769MPD2    C211403   3.291   1.938  14.956 -0.1098  0.0273  0.0043
  769MPD2    C311404   3.298   1.864  15.073 -0.3882 -0.1650 -0.0046
  769MPD2    C411405   3.312   1.726  15.066  0.1641  0.2354 -0.6053
  769MPD2    C511406   3.306   1.669  14.941  0.3286 -0.4380  0.1220
  769MPD2     H11407   3.275   2.045  14.966  0.2473  0.2194 -1.4811
  769MPD2    H111408   3.326   1.666  15.155  0.7065 -0.1337 -0.9382
  769MPD2    H211409   3.279   1.695  14.728 -2.6830 -1.4204  1.7128
  769MPD2    H311410   3.327   1.563  14.928  0.3890 -0.3995 -0.0818
  769MPD2     N11411   3.276   1.940  15.191  0.0480 -0.3168  0.0356
  769MPD2    H511412   3.278   2.042  15.188 -1.9518 -0.2561  0.6646
  769MPD2    N111413   3.243   1.942  14.709  0.4465  0.3379  0.3973
  769MPD2    H711414   3.219   1.886  14.627 -0.1175 -0.9382  1.4393
  770MPD2     C11415   2.584   1.577  14.756  0.1220 -0.0154 -0.1841
  770MPD2    C111416   2.722   1.569  14.763  0.1496  0.1644 -0.4984
  770MPD2    C211417   2.792   1.685  14.745 -0.0203  0.1599  0.0261
  770MPD2    C311418   2.726   1.799  14.705 -0.2490 -0.8294  0.1237
  770MPD2    C411419   2.591   1.809  14.731 -1.0091 -0.3886  0.2459
  770MPD2    C511420   2.516   1.698  14.751  0.5583  0.2470  0.7129
  770MPD2     H11421   2.900   1.684  14.736  0.1151  1.5020  1.4721
  770MPD2    H111422   2.542   1.904  14.712  0.4527 -0.2861 -3.0242
  770MPD2    H211423   2.530   1.483  14.762 -0.5230  0.2198 -2.2732
  770MPD2    H311424   2.408   1.699  14.762  0.9366  1.9351  4.3599
  770MPD2     N11425   2.813   1.911  14.660  0.3491 -0.0618 -0.2755
  770MPD2    H511426   2.914   1.909  14.659  0.2965 -2.6872 -0.1363
  770MPD2    N111427   2.777   1.449  14.801  0.3233  0.7551 -0.4409
  770MPD2    H711428   2.710   1.376  14.825  0.4946  0.3603 -1.1608
  771MPD2     C11429   3.892   0.158  13.922 -0.2888 -0.2114 -0.3699
  771MPD2    C111430   4.023   0.194  13.940 -0.0936  0.3669 -0.5572
  771MPD2    C211431   4.124   0.104  13.917 -0.2435 -0.2608  0.2619
  771MPD2    C311432   4.101   4.711  13.879 -0.1025  0.4991 -0.0679
  771MPD2    C411433   3.969   4.671  13.858  0.3556 -0.6264 -0.0897
  771MPD2    C511434   3.867   0.030  13.880  0.0897  0.4158 -0.5638
  771MPD2     H11435   4.227   0.134  13.928  0.4549 -2.1405 -0.9985
  771MPD2    H111436   3.954   4.576  13.810 -0.7085 -1.1110  1.1936
  771MPD2    H211437   3.804   0.219  13.942 -1.5901 -2.6101  1.2687
  771MPD2    H311438   3.765   4.731  13.868 -0.0406 -0.7005  4.0027
  771MPD2     N11439   4.209   4.623  13.861  0.5834 -0.3092 -0.4940
  771MPD2    H511440   4.294   4.676  13.849 -0.0445  0.5814 -0.9847
  771MPD2    N111441   4.061   0.321  13.993  0.2414 -0.3614  0.1323
  771MPD2    H711442   4.162   0.329  14.003  0.2155 -0.4709  0.4863
  772MPD2     C11443   3.728   1.015  14.291  0.1186  0.3380 -0.1024
  772MPD2    C111444   3.709   0.929  14.188  0.1317 -0.4366  0.2444
  772MPD2    C211445   3.580   0.910  14.143  0.4787  0.1325  0.3213
  772MPD2    C311446   3.467   0.978  14.197  0.5656 -0.3330  0.6603
  772MPD2    C411447   3.491   1.065  14.303 -0.1322  0.1191  0.9530
  772MPD2    C511448   3.617   1.075  14.344  0.1909 -0.6092  0.2773
  772MPD2     H11449   3.557   0.846  14.058  0.0577  0.2631  0.3365
  772MPD2    H111450   3.412   1.114  14.359 -0.7427 -0.0662  0.2554
  772MPD2    H211451   3.828   1.040  14.323 -0.1559  1.0202  0.2144
  772MPD2    H311452   3.633   1.140  14.430  1.4845 -1.5876  0.7744
  772MPD2     N11453   3.332   0.959  14.153  0.1300 -0.2301 -0.0208
  772MPD2    H511454   3.268   1.002  14.219  1.2836  2.0195 -0.3597
  772MPD2    N111455   3.812   0.859  14.117 -0.2871 -0.1166  0.1278
  772MPD2    H711456   3.780   0.781  14.061 -1.2156  1.7097 -1.8746
  773MPD2     C11457   2.842   1.886   0.133  0.4703  0.5273  0.1952
  773MPD2    C111458   2.807   1.755   0.130  0.7710  0.1911 -0.3076
  773MPD2    C211459   2.867   1.661   0.207  0.2098  0.5956  0.1987
  773MPD2    C311460   2.967   1.697   0.293 -0.4979 -0.3170  0.6887
  773MPD2    C411461   3.009   1.829   0.298  0.6272  0.7561 -0.3313
  773MPD2    C511462   2.951   1.921   0.215  0.3413  0.3279 -0.4721
  773MPD2     H11463   2.838   1.557   0.207  0.3622  0.5608  1.3632
  773MPD2    H111464   3.095   1.862   0.356 -0.7546  1.8636  1.0948
  773MPD2    H211465   2.788   1.961   0.076  1.2208 -0.5217 -1.8914
  773MPD2    H311466   2.985   2.024   0.210 -0.6289  0.6770 -0.0531
  773MPD2     N11467   3.025   1.582   0.357  0.4677  0.0896 -0.1006
  773MPD2    H511468   2.985   1.490   0.341  0.9856 -0.4378  1.6087
  773MPD2    N111469   2.697   1.707   0.052  0.1437 -0.1799 -0.3545
  773MPD2    H711470   2.665   1.613   0.074 -1.0483  0.7675  1.9822
  774MPD2     C11471   1.651   0.545  13.255 -0.4430  0.4504  0.0120
  774MPD2    C111472   1.773   0.586  13.316  0.3866 -0.4574  1.2989
  774MPD2    C211473   1.855   0.657  13.236  0.7808 -0.5641 -0.2556
  774MPD2    C311474   1.817   0.689  13.105  0.5603 -0.5170  0.0896
  774MPD2    C411475   1.699   0.649  13.050  0.4863  0.3144  0.3684
  774MPD2    C511476   1.615   0.576  13.126  0.0204 -0.3862  0.0887
  774MPD2     H11477   1.956   0.684  13.268  0.3661 -1.4266  1.7449
  774MPD2    H111478   1.676   0.668  12.946 -0.1439 -1.5510  0.1745
  774MPD2    H211479   1.579   0.484  13.309 -0.1898  0.9326  0.9052
  774MPD2    H311480   1.527   0.532  13.080  0.7809 -1.1641 -0.6315
  774MPD2     N11481   1.925   0.747  13.032 -0.4566  1.0420 -0.6126
  774MPD2    H511482   2.011   0.766  13.082 -2.0673  0.1886  2.4618
  774MPD2    N111483   1.798   0.558  13.453  0.2687  0.3051  0.2612
  774MPD2    H711484   1.741   0.485  13.494 -1.8103  1.9664  0.3585
  775MPD2     C11485   3.620   1.737  15.386  0.2571  0.5843 -0.1401
  775MPD2    C111486   3.607   1.847  15.463 -0.0073  0.0616  0.0828
  775MPD2    C211487   3.606   1.970  15.405 -0.3004 -0.0104  0.3705
  775MPD2    C311488   3.639   1.984  15.270  0.0191 -0.2393  0.2672
  775MPD2    C411489   3.647   1.869  15.195  0.4045 -0.4366  0.2431
  775MPD2    C511490   3.647   1.748  15.257 -0.0270 -0.1555 -0.3610
  775MPD2     H11491   3.577   2.061  15.455  0.1257 -0.4789  1.4672
  775MPD2    H111492   3.658   1.867  15.087  0.6193  0.3031  0.2497
  775MPD2    H211493   3.607   1.637  15.425  0.3039  1.0131  0.9832
  775MPD2    H311494   3.655   1.654  15.202  0.3159 -0.8483  0.8754
  775MPD2     N11495   3.653   2.104  15.203  0.0448 -0.1555  0.3190
  775MPD2    H511496   3.687   2.099  15.107 -0.6478  0.4629  0.0380
  775MPD2    N111497   3.575   1.826  15.600  0.1586  0.0315  0.3470
  775MPD2    H711498   3.570   1.732  15.639 -2.0352 -0.2701 -0.6600
  776MPD2     C11499   3.252   2.264  11.460  0.0700 -0.3630 -1.0791
  776MPD2    C111500   3.116   2.290  11.441 -0.1967 -0.8029 -0.0910
  776MPD2    C211501   3.075   2.419  11.460 -0.6343  0.2622  0.1837
  776MPD2    C311502   3.168   2.519  11.494 -0.5120 -0.1882 -0.5280
  776MPD2    C411503   3.299   2.486  11.523 -0.5072  0.3248  0.5702
  776MPD2    C511504   3.342   2.356  11.498 -0.0563  0.5584 -0.4496
  776MPD2     H11505   2.972   2.437  11.434 -1.4151 -2.1373  1.6781
  776MPD2    H111506   3.362   2.569  11.552  0.3570 -0.2633  0.3753
  776MPD2    H211507   3.295   2.168  11.435 -0.9124 -1.2424  0.6303
  776MPD2    H311508   3.448   2.337  11.512 -0.2556 -0.5510 -0.4939
  776MPD2     N11509   3.135   2.658  11.505 -0.3474 -0.2001  0.9566
  776MPD2    H511510   3.204   2.718  11.548 -0.6081  1.8028 -1.4155
  776MPD2    N111511   3.041   2.180  11.401  0.1496 -0.1589  0.5569
  776MPD2    H711512   3.100   2.099  11.389  0.7559  0.0649  2.0748
  777MPD2     C11513   3.646   0.212   0.515 -0.0870  0.2744  0.0787
  777MPD2    C111514   3.773   0.158   0.525 -0.0259  0.5289 -0.2373
  777MPD2    C211515   3.789   0.025   0.478 -0.3248 -0.1462 -0.4864
  777MPD2    C311516   3.683   4.696   0.416  0.0857  0.9905  0.0286
  777MPD2    C411517   3.566   0.026   0.395 -1.5108  0.1261 -0.1608
  777MPD2    C511518   3.547   0.150   0.451  0.1272  0.3350 -0.1148
  777MPD2     H11519   3.872   4.697   0.503 -1.2478 -1.2496 -0.2720
  777MPD2    H111520   3.481   4.720   0.342 -1.3011 -0.1259 -0.2951
  777MPD2    H211521   3.620   0.302   0.569  0.9668 -0.2631  1.5038
  777MPD2    H311522   3.449   0.197   0.458 -0.3695 -0.9596  1.4992
  777MPD2     N11523   3.693   4.556   0.398 -0.3540 -0.1229  0.1543
  777MPD2    H511524   3.774   4.505   0.431 -0.0651  1.0356  1.2445
  777MPD2    N111525   3.869   0.227   0.594 -0.2362 -0.0464  0.7371
  777MPD2    H711526   3.842   0.319   0.626 -1.1885 -0.8202  2.1875
  778MPD2     C11527   4.372   0.290  14.794  0.0799 -0.1201 -0.4519
  778MPD2    C111528   4.413   0.171  14.745  0.4200  0.3461 -0.1154
  778MPD2    C211529   4.491   0.179  14.632 -0.4694 -0.0038  1.0950
  778MPD2    C311530   4.539   0.297  14.576 -0.4474 -0.0280  0.8918
  778MPD2    C411531   4.503   0.412  14.633  0.2244 -0.1961  0.6712
  778MPD2    C511532   4.417   0.408  14.745 -0.3844  0.8278 -0.4247
  778MPD2     H11533   4.523   0.089  14.579 -0.0119 -0.7365  2.6064
  778MPD2    H111534   4.544   0.503  14.590 -0.2093  0.0397  0.7538
  778MPD2    H211535   4.303   0.302  14.876  0.1866  0.4819 -0.4515
  778MPD2    H311536   4.392   0.503  14.791  0.7595  0.9666 -0.1049
  778MPD2     N11537   4.616   0.282  14.458 -0.4923 -0.1859 -0.1651
  778MPD2    H511538   4.672   0.199  14.448 -0.4693 -0.3178  1.1579
  778MPD2    N111539   4.372   0.044  14.790 -0.2258 -0.0286  0.0670
  778MPD2    H711540   4.375   4.705  14.723 -0.8326 -0.0119  0.0201
  779MPD2     C11541   3.709   3.966  13.894 -0.3268  0.2539 -0.0437
  779MPD2    C111542   3.839   3.964  13.949 -0.6409  0.0083  0.4372
  779MPD2    C211543   3.872   4.081  14.021 -0.1433 -0.7707  0.1922
  779MPD2    C311544   3.800   4.197  14.024  0.1092  0.0112 -0.3092
  779MPD2    C411545   3.674   4.198  13.967  0.6613  0.4121 -0.1417
  779MPD2    C511546   3.632   4.079  13.909 -0.4243  0.2279 -0.2178
  779MPD2     H11547   3.968   4.082  14.071  0.5647  2.7015 -1.2361
  779MPD2    H111548   3.604   4.281  13.967 -0.3099 -0.3823 -3.5109
  779MPD2    H211549   3.665   3.885  13.837 -0.3043 -1.5183  2.4693
  779MPD2    H311550   3.538   4.077  13.855 -1.3604 -1.5060  1.5104
  779MPD2     N11551   3.857   4.313  14.081 -0.1612 -0.0514 -0.1735
  779MPD2    H511552   3.949   4.296  14.120 -1.9202 -1.5640  3.3429
  779MPD2    N111553   3.916   3.845  13.937  0.1367  0.1294 -0.1005
  779MPD2    H711554   3.871   3.755  13.922  0.3472 -0.3429  1.9752
  780MPD2     C11555   4.101   3.915   0.596  0.0915  0.5737 -0.2576
  780MPD2    C111556   3.974   3.873   0.570  0.1843 -0.2517 -0.1957
  780MPD2    C211557   3.950   3.849   0.434 -0.0050 -0.5836 -0.1682
  780MPD2    C311558   4.036   3.874   0.331  0.0432  0.0563  0.6849
  780MPD2    C411559   4.160   3.930   0.365  0.0687  0.4709 -0.7242
  780MPD2    C511560   4.195   3.936   0.494  0.1213  0.4853 -0.1493
  780MPD2     H11561   3.855   3.802   0.412  0.5104 -1.9684  0.5623
  780MPD2    H111562   4.221   3.958   0.279  0.1802  2.3265 -0.0392
  780MPD2    H211563   4.133   3.936   0.697 -3.8056 -0.0655  1.1403
  780MPD2    H311564   4.293   3.973   0.521 -0.3879  0.4063  1.8000
  780MPD2     N11565   3.980   3.857   0.200 -0.4802 -1.1985  0.1112
  780MPD2    H511566   3.883   3.828   0.200 -1.2049  1.2756  1.6035
  780MPD2    N111567   3.883   3.836   0.674 -0.6797  0.1674 -1.2289
  780MPD2    H711568   3.921   3.845   0.768  1.1891  0.3849 -2.0024
  781MPD2     C11569   0.378   0.773  11.740 -0.1964 -0.2954 -0.2409
  781MPD2    C111570   0.467   0.710  11.825  0.3516  0.6793  0.5484
  781MPD2    C211571   0.578   0.646  11.780 -0.5405 -0.2945  0.6329
  781MPD2    C311572   0.603   0.636  11.644 -0.0203 -0.5320  0.0707
  781MPD2    C411573   0.507   0.688  11.555 -0.1364  0.8491 -0.7375
  781MPD2    C511574   0.403   0.769  11.607 -0.4646 -0.1226 -0.0873
  781MPD2     H11575   0.642   0.604  11.857 -0.1120  0.3663  0.6355
  781MPD2    H111576   0.524   0.683  11.448  0.6872  1.2568 -0.6195
  781MPD2    H211577   0.284   0.816  11.772 -0.2285  0.9324 -1.9951
  781MPD2    H311578   0.328   0.807  11.539  0.4181  2.5249  0.4264
  781MPD2     N11579   0.714   0.566  11.598  0.1033  0.1464  0.0289
  781MPD2    H511580   0.723   0.552  11.498  1.9421 -0.1053  0.2282
  781MPD2    N111581   0.431   0.709  11.963 -0.4193  0.1477 -0.5747
  781MPD2    H711582   0.502   0.682  12.030 -2.1946 -0.3569  1.1104
  782MPD2     C11583   3.554   1.631  10.049 -0.5776 -0.0341  0.2041
  782MPD2    C111584   3.692   1.611  10.052  0.3057 -0.2743 -0.3026
  782MPD2    C211585   3.752   1.595  10.178  0.4148  0.6973 -0.1330
  782MPD2    C311586   3.679   1.588  10.292 -0.4556  0.3952 -0.6610
  782MPD2    C411587   3.543   1.613  10.287  0.3926  0.3329 -0.3080
  782MPD2    C511588   3.489   1.647  10.168  0.4997 -0.3648 -0.2301
  782MPD2     H11589   3.858   1.577  10.188  0.2882  0.5837  1.1092
  782MPD2    H111590   3.476   1.613  10.372  1.2662  1.2960  0.3714
  782MPD2    H211591   3.498   1.647   9.957 -1.7115 -0.4277  0.8213
  782MPD2    H311592   3.389   1.688  10.176 -0.5454 -2.3618 -2.9521
  782MPD2     N11593   3.745   1.536  10.404  0.5182  0.2626  0.0917
  782MPD2    H511594   3.844   1.514  10.400  0.5537  0.2810  0.8810
  782MPD2    N111595   3.760   1.598   9.931 -0.2055 -0.3315  0.0014
  782MPD2    H711596   3.713   1.615   9.843 -2.2247 -0.4195  1.0733
  783MPD2     C11597   3.194   1.216   9.955  0.8905 -0.1607  0.1662
  783MPD2    C111598   3.290   1.245  10.054 -0.9144 -1.1965  0.1134
  783MPD2    C211599   3.426   1.242  10.017  0.1358 -0.9570 -0.2043
  783MPD2    C311600   3.461   1.227   9.886 -0.3831 -0.2438  0.2249
  783MPD2    C411601   3.360   1.188   9.786  0.4644  0.4727  0.3785
  783MPD2    C511602   3.230   1.190   9.824 -0.6015 -0.0328  0.2549
  783MPD2     H11603   3.494   1.284  10.090 -0.9274  0.3955  0.0139
  783MPD2    H111604   3.385   1.157   9.686 -0.0242 -1.3266  0.8270
  783MPD2    H211605   3.088   1.220   9.976  0.9734  0.0504  0.5567
  783MPD2    H311606   3.151   1.164   9.754 -0.2238  0.1613 -0.2499
  783MPD2     N11607   3.595   1.249   9.858  0.2339 -0.2764  0.1489
  783MPD2    H511608   3.664   1.271   9.930  0.3731  0.6224 -0.2527
  783MPD2    N111609   3.244   1.279  10.179  0.5719  0.9670 -0.6882
  783MPD2    H711610   3.144   1.270  10.192  0.9801 -1.0101  0.9942
  784MPD2     C11611   1.127   1.918   0.362  0.5061 -0.0351 -0.0591
  784MPD2    C111612   1.148   2.042   0.312 -0.0643 -0.5592  0.3413
  784MPD2    C211613   1.047   2.139   0.295  0.3629 -0.4278  0.2654
  784MPD2    C311614   0.917   2.098   0.319 -0.6992 -0.0116  0.6296
  784MPD2    C411615   0.902   1.971   0.368 -0.3048 -0.1729 -0.1848
  784MPD2    C511616   1.005   1.892   0.404  0.0505  0.3188  0.3383
  784MPD2     H11617   1.067   2.238   0.257 -0.8951 -0.3077 -0.1056
  784MPD2    H111618   0.802   1.946   0.403 -1.1529  0.1561 -2.4053
  784MPD2    H211619   1.206   1.846   0.378  0.0803 -0.5654 -0.3409
  784MPD2    H311620   0.986   1.804   0.465  0.0801 -0.5736 -0.9514
  784MPD2     N11621   0.818   2.193   0.279  0.4960  0.3063  0.2189
  784MPD2    H511622   0.845   2.280   0.233 -0.8603  0.2667 -0.6454
  784MPD2    N111623   1.283   2.086   0.280  0.1112  0.2722 -0.7804
  784MPD2    H711624   1.294   2.170   0.224  0.6363  1.3328  0.9069
  785MPD2     C11625   1.067   4.429  10.292  0.5865  0.5095 -0.5372
  785MPD2    C111626   1.094   4.544  10.226 -0.4250  0.0780 -0.6745
  785MPD2    C211627   0.996   4.608  10.165 -0.0184 -0.7933 -0.4843
  785MPD2    C311628   0.873   4.554  10.149  0.4056 -0.1763 -0.1839
  785MPD2    C411629   0.847   4.429  10.204  0.1040  0.0677 -0.8347
  785MPD2    C511630   0.946   4.376  10.282 -0.8539  0.0168  0.5850
  785MPD2     H11631   1.010   4.706  10.119  0.9744  1.3225  4.3515
  785MPD2    H111632   0.751   4.380  10.190  0.8921 -1.5925 -0.4916
  785MPD2    H211633   1.145   4.378  10.347 -1.4469 -3.5675 -1.4183
  785MPD2    H311634   0.934   4.282  10.335  1.3386 -0.5396  0.0565
  785MPD2     N11635   0.779   4.630  10.075  0.7522  0.2024 -0.2143
  785MPD2    H511636   0.807   4.725  10.053 -1.0289  1.0082  0.9801
  785MPD2    N111637   1.221   4.603  10.252 -0.0534  0.4051  0.1956
  785MPD2    H711638   1.272   4.559  10.328 -2.7346 -1.8047  0.7158
  786MPD2     C11639   4.364   3.055  14.749 -0.2284  0.3470 -0.7078
  786MPD2    C111640   4.486   3.102  14.717 -0.5389 -0.0252 -0.5190
  786MPD2    C211641   4.556   3.174  14.810 -0.7299 -0.4049  0.0743
  786MPD2    C311642   4.515   3.187  14.942 -0.1644 -0.3887  0.0823
  786MPD2    C411643   4.397   3.125  14.971  0.3552 -0.9336 -0.0259
  786MPD2    C511644   4.321   3.060  14.880  0.5101  0.4994 -0.7759
  786MPD2     H11645   4.659   3.202  14.790 -0.4147 -1.9477 -0.4067
  786MPD2    H111646   4.351   3.141  15.068 -1.1177 -1.6416 -0.6174
  786MPD2    H211647   4.291   3.019  14.677 -0.8106  1.2451 -0.5638
  786MPD2    H311648   4.222   3.021  14.900  1.2315 -2.4325 -2.8516
  786MPD2     N11649   4.591   3.255  15.043  0.1062 -0.4017 -0.4643
  786MPD2    H511650   4.563   3.251  15.141  0.1760  0.2120 -0.4180
  786MPD2    N111651   4.554   3.076  14.591  0.3038  0.2221  0.1095
  786MPD2    H711652   4.650   3.110  14.582  0.5028 -0.8072 -1.6265
  787MPD2     C11653   0.192   2.679  14.906 -0.2252 -0.1346  0.0195
  787MPD2    C111654   0.178   2.617  14.778  0.9841 -0.0548 -0.4600
  787MPD2    C211655   0.224   2.487  14.760 -0.2218  0.4323  0.4843
  787MPD2    C311656   0.281   2.406  14.859 -0.8247  0.3141  0.5517
  787MPD2    C411657   0.287   2.466  14.984 -0.3407 -0.3498  0.0265
  787MPD2    C511658   0.242   2.595  15.007  0.0253 -0.1564 -0.3811
  787MPD2     H11659   0.224   2.438  14.664  0.3754 -1.4044  1.4241
  787MPD2    H111660   0.334   2.417  15.068 -0.4832 -0.6822 -0.0866
  787MPD2    H211661   0.164   2.782  14.924  0.4950 -0.0896  0.9183
  787MPD2    H311662   0.246   2.629  15.110 -1.8449 -0.6278 -0.1399
  787MPD2     N11663   0.331   2.278  14.827 -0.1812 -0.2727 -0.6304
  787MPD2    H511664   0.309   2.244  14.733  0.7973  0.8514 -1.2663
  787MPD2    N111665   0.122   2.691  14.673 -0.3030  0.0512 -0.7861
  787MPD2    H711666   0.106   2.789  14.693  0.3250  0.0714 -0.3927
  788MPD2     C11667   1.656   1.466   0.808 -0.0509 -0.4970 -0.1752
  788MPD2    C111668   1.705   1.391   0.702  0.1612  0.4886 -0.0200
  788MPD2    C211669   1.780   1.454   0.601  0.3881  0.4903  0.0974
  788MPD2    C311670   1.810   1.587   0.608 -0.0150  0.0857 -0.1395
  788MPD2    C411671   1.781   1.653   0.725 -0.7767  0.2881 -0.0565
  788MPD2    C511672   1.704   1.598   0.824 -0.0236  0.4016  0.3396
  788MPD2     H11673   1.806   1.398   0.512  1.4165 -0.1169  0.7854
  788MPD2    H111674   1.813   1.756   0.739  2.9469 -1.2087  2.3820
  788MPD2    H211675   1.596   1.423   0.888 -0.4200  0.7381  0.1997
  788MPD2    H311676   1.684   1.656   0.913  0.7506  0.6303  0.3708
  788MPD2     N11677   1.869   1.655   0.501 -0.0977 -0.3498  0.4418
  788MPD2    H511678   1.843   1.751   0.486  2.6629  0.1040 -1.4394
  788MPD2    N111679   1.680   1.253   0.687 -0.3297 -0.3869 -0.7227
  788MPD2    H711680   1.740   1.202   0.622  1.1293  0.6368 -0.1726
  789MPD2     C11681   2.345   0.702  16.445  0.2467 -0.0241 -0.1707
  789MPD2    C111682   2.283   0.772  16.349 -0.4967 -0.3424 -0.4646
  789MPD2    C211683   2.206   0.884  16.386 -0.7551  0.4120 -0.9187
  789MPD2    C311684   2.192   0.923  16.514 -0.6464 -0.5423 -0.6629
  789MPD2    C411685   2.269   0.862  16.614  0.0431 -0.3648 -0.2221
  789MPD2    C511686   2.347   0.755  16.572 -0.7266  0.1826 -0.4688
  789MPD2     H11687   2.138   0.924  16.312  0.7978  0.7638 -2.1477
  789MPD2    H111688   2.268   0.895  16.717  1.5928 -2.0135  0.3318
  789MPD2    H211689   2.421   0.628  16.421 -1.6830 -2.3474  0.8654
  789MPD2    H311690   2.414   0.716  16.648  0.3120  3.3955  0.2769
  789MPD2     N11691   2.101   1.027  16.554  0.3667 -0.1065  1.0011
  789MPD2    H511692   2.067   1.033  16.649  0.0369 -1.4965  0.9694
  789MPD2    N111693   2.274   0.723  16.219 -0.0774  0.2809  0.9050
  789MPD2    H711694   2.232   0.789  16.153 -0.0531  1.3754  1.9720
  790MPD2     C11695   3.026   2.942  13.472 -0.1912  0.5049  0.2369
  790MPD2    C111696   3.061   2.813  13.452 -0.1804 -0.2211  0.4733
  790MPD2    C211697   3.058   2.759  13.327 -1.0419  0.2741 -0.1281
  790MPD2    C311698   3.010   2.831  13.220  0.2938 -0.4927  0.1026
  790MPD2    C411699   2.976   2.964  13.238 -0.0834  1.1735 -0.0402
  790MPD2    C511700   2.983   3.020  13.367  0.1551  0.6819 -0.0567
  790MPD2     H11701   3.079   2.655  13.305  0.9917  0.7897 -0.6165
  790MPD2    H111702   2.932   3.021  13.157 -1.1979  0.8565  0.3518
  790MPD2    H211703   3.033   2.983  13.573 -0.3742 -0.1875  0.5271
  790MPD2    H311704   2.952   3.122  13.389  0.8703  0.7899  0.4573
  790MPD2     N11705   2.994   2.756  13.096 -0.0198  0.3266 -0.0537
  790MPD2    H511706   3.027   2.661  13.099  0.7055  0.5026 -2.3494
  790MPD2    N111707   3.107   2.748  13.567 -0.6752 -0.4811 -0.1024
  790MPD2    H711708   3.096   2.794  13.657  2.6418 -0.8281  0.4650
  791MPD2     C11709   2.370   2.435  12.971  0.3761 -0.4799  1.0308
  791MPD2    C111710   2.433   2.443  12.847 -0.2365 -0.3039  0.3004
  791MPD2    C211711   2.367   2.393  12.739  0.0612  0.1925  0.0960
  791MPD2    C311712   2.249   2.328  12.749 -0.2541  0.4697  0.0036
  791MPD2    C411713   2.189   2.323  12.872  0.3622 -0.0213  0.1169
  791MPD2    C511714   2.250   2.372  12.985 -0.5508 -1.2338 -0.4246
  791MPD2     H11715   2.415   2.419  12.645 -2.3121 -2.0786 -1.7332
  791MPD2    H111716   2.104   2.260  12.894  0.4431 -0.1275  0.1277
  791MPD2    H211717   2.413   2.470  13.065  1.7395  1.7384 -0.4179
  791MPD2    H311718   2.194   2.369  13.078 -1.7382  1.2651 -1.0576
  791MPD2     N11719   2.187   2.281  12.631 -0.6076 -0.4850 -0.4691
  791MPD2    H511720   2.251   2.269  12.553 -0.1015  0.6598 -0.2257
  791MPD2    N111721   2.561   2.509  12.840  0.9346  0.5946  0.4913
  791MPD2    H711722   2.587   2.548  12.930  1.3022  1.9011 -0.1828
  792MPD2     C11723   3.344   2.181  11.066 -0.0654  0.0218 -0.3210
  792MPD2    C111724   3.236   2.259  11.036  1.0982 -0.0366 -0.0208
  792MPD2    C211725   3.146   2.218  10.937 -0.2364 -0.3359 -0.2506
  792MPD2    C311726   3.162   2.096  10.867 -0.5446  0.6458 -0.1356
  792MPD2    C411727   3.276   2.028  10.901  0.0927  0.0950  0.4068
  792MPD2    C511728   3.367   2.068  10.990  0.0860  0.0085  0.3607
  792MPD2     H11729   3.068   2.286  10.906  1.1702  1.2784 -0.2619
  792MPD2    H111730   3.289   1.928  10.862  1.0415  0.2312  0.3914
  792MPD2    H211731   3.411   2.219  11.142  1.2703 -0.7466 -1.1234
  792MPD2    H311732   3.459   2.013  11.006 -0.8029 -1.7244 -0.4381
  792MPD2     N11733   3.088   2.040  10.761 -0.7077 -0.0037 -0.0538
  792MPD2    H511734   3.119   1.955  10.715 -1.9779 -0.3305 -0.3078
  792MPD2    N111735   3.220   2.381  11.101 -0.6071 -0.0476 -0.0914
  792MPD2    H711736   3.305   2.430  11.124  0.2490 -0.9863 -1.2665
  793MPD2     C11737   2.129   2.012  10.200  0.9158 -0.5454 -0.3982
  793MPD2    C111738   2.240   1.980  10.120 -0.6246 -0.3194 -0.2194
  793MPD2    C211739   2.364   1.992  10.179  0.0767  0.1770 -0.2119
  793MPD2    C311740   2.382   2.026  10.310 -0.0427 -0.8417 -0.3998
  793MPD2    C411741   2.273   2.051  10.383 -0.4116  0.5350 -0.5162
  793MPD2    C511742   2.149   2.049  10.330 -0.1061 -0.1716 -0.5793
  793MPD2     H11743   2.450   1.979  10.115 -0.3034  3.0558 -1.2936
  793MPD2    H111744   2.274   2.085  10.486  0.1140  1.0133 -0.6767
  793MPD2    H211745   2.028   2.023  10.163  1.3357 -1.6787 -1.8944
  793MPD2    H311746   2.063   2.083  10.387 -1.3934  1.5593 -3.5327
  793MPD2     N11747   2.523   2.019  10.349  0.1481 -0.0853  0.1776
  793MPD2    H511748   2.588   2.001  10.274  1.9866 -1.3887  2.0593
  793MPD2    N111749   2.236   1.942   9.984 -0.6002  0.0317  0.0697
  793MPD2    H711750   2.324   1.919   9.940  1.1408  0.6168  3.2486
  794MPD2     C11751   2.631   1.271  17.142  0.1314  0.0672 -0.1019
  794MPD2    C111752   2.567   1.395  17.168 -0.1090  0.1458 -0.3344
  794MPD2    C211753   2.509   1.470  17.068 -0.3148 -0.6322 -0.0735
  794MPD2    C311754   2.534   1.443  16.937  1.0570 -0.5570  0.1971
  794MPD2    C411755   2.596   1.321  16.906 -0.2242 -0.2138 -0.1686
  794MPD2    C511756   2.640   1.240  17.008  0.2527 -0.5349 -0.0373
  794MPD2     H11757   2.465   1.561  17.106  1.6136 -0.2386  1.2227
  794MPD2    H111758   2.614   1.282  16.807 -1.8763 -0.1885 -0.4836
  794MPD2    H211759   2.678   1.209  17.217  1.0489 -0.0082 -0.7359
  794MPD2    H311760   2.679   1.143  16.979  0.1860 -0.8394  0.8941
  794MPD2     N11761   2.500   1.532  16.833 -0.1230  0.6932 -0.6944
  794MPD2    H511762   2.521   1.507  16.736 -1.5305  1.2434 -1.1366
  794MPD2    N111763   2.541   1.460  17.292  0.8392  0.2180  0.1249
  794MPD2    H711764   2.489   1.548  17.294 -2.9605 -2.0225 -0.6186
  795MPD2     C11765   0.379   3.947  13.280 -0.2648 -0.1255  0.8217
  795MPD2    C111766   0.479   3.946  13.188 -0.0306 -0.1936  0.7677
  795MPD2    C211767   0.603   3.885  13.208  0.6212 -0.2854  0.0196
  795MPD2    C311768   0.619   3.829  13.333 -0.3468 -1.0431 -0.7548
  795MPD2    C411769   0.513   3.827  13.427 -0.7883 -0.0064  0.8879
  795MPD2    C511770   0.394   3.889  13.401 -0.4731  0.1784  0.2937
  795MPD2     H11771   0.688   3.906  13.144  1.4007 -0.5684  0.9675
  795MPD2    H111772   0.511   3.786  13.528 -3.0731 -0.6216  0.5835
  795MPD2    H211773   0.280   3.980  13.251  0.5812  1.6102 -0.0614
  795MPD2    H311774   0.311   3.874  13.470 -0.1318  0.6343  0.8011
  795MPD2     N11775   0.743   3.773  13.362 -0.6763  0.8626  0.1752
  795MPD2    H511776   0.819   3.783  13.296  2.2498 -0.5692  3.3197
  795MPD2    N111777   0.462   3.988  13.056 -0.0939 -0.2011 -0.3730
  795MPD2    H711778   0.536   3.982  12.987  0.9642 -1.3763  0.8415
  796MPD2     C11779   4.608   0.479  15.687 -0.3173  0.3987  0.8555
  796MPD2    C111780   4.720   0.547  15.719 -0.2246  0.5457 -0.1516
  796MPD2    C211781   4.722   0.687  15.692 -0.6588  0.0656  0.2396
  796MPD2    C311782   4.620   0.744  15.619  0.7984 -0.4501  0.6986
  796MPD2    C411783   4.518   0.671  15.586  0.1438  0.5074 -0.0374
  796MPD2    C511784   4.508   0.541  15.624  0.3811 -0.2075 -0.3306
  796MPD2     H11785   0.062   0.754  15.729  1.7995 -1.9581 -1.1586
  796MPD2    H111786   4.432   0.708  15.532 -0.1195  2.5760  1.8051
  796MPD2    H211787   4.596   0.374  15.710  1.3608  0.2177  0.9163
  796MPD2    H311788   4.410   0.494  15.614  1.2638 -2.2068  0.4153
  796MPD2     N11789   4.633   0.882  15.585 -0.0114 -0.9841 -0.3481
  796MPD2    H511790   4.718   0.930  15.614  0.6462 -2.9050  0.9647
  796MPD2    N111791   0.086   0.479  15.790 -0.1264  0.5777  1.0175
  796MPD2    H711792   0.077   0.378  15.802 -1.3466  0.6704  0.8051
  797MPD2     C11793   1.703   0.254  16.426  0.4767 -0.3897 -0.2168
  797MPD2    C111794   1.706   0.332  16.538  0.2629  0.0742  0.0721
  797MPD2    C211795   1.653   0.461  16.533  0.5802 -0.1706  0.2285
  797MPD2    C311796   1.599   0.511  16.420  0.2891  0.7269 -0.2548
  797MPD2    C411797   1.625   0.438  16.306 -0.0262 -0.1077  0.9431
  797MPD2    C511798   1.668   0.313  16.306 -0.6885  0.4596 -0.0081
  797MPD2     H11799   1.649   0.512  16.629 -1.0756 -1.7727  1.0117
  797MPD2    H111800   1.598   0.494  16.217  3.5343 -2.7162 -1.7397
  797MPD2    H211801   1.740   0.153  16.416  2.2627  0.2929 -0.5675
  797MPD2    H311802   1.665   0.252  16.216  0.0009 -0.0369  0.3054
  797MPD2     N11803   1.533   0.633  16.410 -1.3286 -0.3981 -0.1055
  797MPD2    H511804   1.510   0.672  16.319 -0.0743 -1.5294 -0.9006
  797MPD2    N111805   1.753   0.277  16.660 -0.4164 -0.1404  0.0291
  797MPD2    H711806   1.752   0.338  16.741  0.2697 -0.6547  0.4300
  798MPD2     C11807   1.260   0.645  17.056  0.3680 -0.1927 -0.3554
  798MPD2    C111808   1.326   0.632  16.938  0.3170  0.2962 -0.2842
  798MPD2    C211809   1.437   0.549  16.932  0.2380 -0.5369  0.3319
  798MPD2    C311810   1.488   0.488  17.042  0.0249 -0.0130 -0.4509
  798MPD2    C411811   1.428   0.511  17.165  0.4051 -0.1288 -0.1957
  798MPD2    C511812   1.317   0.588  17.174  0.3771  0.3194  0.1225
  798MPD2     H11813   1.477   0.523  16.834  1.7515  1.2394  0.4709
  798MPD2    H111814   1.469   0.455  17.248  1.3622 -0.6703 -1.0244
  798MPD2    H211815   1.184   0.722  17.063  1.4060  0.9144 -1.1120
  798MPD2    H311816   1.279   0.603  17.274 -1.1607 -0.2808 -0.3634
  798MPD2     N11817   1.593   0.397  17.020 -0.8424  0.2406 -0.0248
  798MPD2    H511818   1.630   0.401  16.925 -0.0945  1.4814  0.3206
  798MPD2    N111819   1.297   0.699  16.815 -0.2220  0.3108 -0.3438
  798MPD2    H711820   1.366   0.678  16.743 -0.2506  0.6704 -0.4792
  799MPD2     C11821   4.655   2.245  14.796  0.6527 -0.5993 -0.1649
  799MPD2    C111822   4.643   2.116  14.748 -0.1505  0.1152 -0.8497
  799MPD2    C211823   4.614   2.108  14.617 -0.4675 -0.2170 -0.0093
  799MPD2    C311824   4.603   2.220  14.525  0.3152  0.1538 -0.5133
  799MPD2    C411825   4.618   2.343  14.578 -0.6782 -0.0188  0.0157
  799MPD2    C511826   4.641   2.354  14.713  0.4389  0.1052  0.4788
  799MPD2     H11827   4.610   2.012  14.567 -1.5185 -0.5898  0.8069
  799MPD2    H111828   4.623   2.425  14.507  0.2913  0.4923  0.6881
  799MPD2    H211829   4.671   2.261  14.902 -0.6782 -0.2034 -0.0214
  799MPD2    H311830   4.655   2.455  14.750  0.7175 -0.4019  1.7508
  799MPD2     N11831   4.600   2.203  14.383 -0.0349 -0.2195  0.6550
  799MPD2    H511832   4.583   2.289  14.332  1.1313  0.0910  0.7889
  799MPD2    N111833   4.659   2.000  14.832 -0.5158  0.5134 -0.0977
  799MPD2    H711834   4.706   2.012  14.921  2.0932 -1.0191 -1.2848
  800MPD2     C11835   0.689   3.192  14.058  0.0292 -0.1099  0.8913
  800MPD2    C111836   0.814   3.173  14.014 -0.2080 -0.6434  0.5932
  800MPD2    C211837   0.865   3.045  13.999  0.2662 -0.4406  0.2498
  800MPD2    C311838   0.774   2.938  14.012 -0.7490 -0.3788 -0.6507
  800MPD2    C411839   0.643   2.959  14.051 -0.5107  0.2334  0.6915
  800MPD2    C511840   0.606   3.089  14.084 -0.2415 -0.3878  0.4369
  800MPD2     H11841   0.968   3.020  13.975  0.4633  0.4884  0.1602
  800MPD2    H111842   0.565   2.884  14.049  1.5130 -1.8442 -0.5616
  800MPD2    H211843   0.667   3.298  14.070  0.4321  0.2867 -1.8571
  800MPD2    H311844   0.500   3.112  14.091  0.0718  1.3339 -0.5367
  800MPD2     N11845   0.829   2.811  13.990  0.4821 -0.2702  0.0606
  800MPD2    H511846   0.927   2.806  13.964  0.5133  1.4920 -0.1296
  800MPD2    N111847   0.889   3.284  13.975 -0.3512  0.6032 -0.3416
  800MPD2    H711848   0.840   3.373  13.975 -0.6779  0.4206 -0.1141
  801MPD2     C11849   0.735   3.921  13.683 -0.7129 -0.3499  0.3831
  801MPD2    C111850   0.726   3.822  13.779  0.4479  0.5067 -0.4210
  801MPD2    C211851   0.622   3.813  13.861 -0.1447  0.5101  0.1839
  801MPD2    C311852   0.523   3.905  13.857 -0.0307 -0.0299  0.1950
  801MPD2    C411853   0.527   4.006  13.769  0.5946 -0.1668 -0.3080
  801MPD2    C511854   0.631   4.012  13.681  0.2786  0.4179  0.2941
  801MPD2     H11855   0.615   3.739  13.940  0.6062  1.7921  1.4299
  801MPD2    H111856   0.458   4.088  13.777 -2.2507 -2.4545 -1.6003
  801MPD2    H211857   0.825   3.936  13.625 -0.1510 -2.0814  0.8240
  801MPD2    H311858   0.632   4.096  13.613 -0.4099  0.0265 -0.2041
  801MPD2     N11859   0.418   3.908  13.946 -0.2749  0.4543 -0.1958
  801MPD2    H511860   0.329   3.946  13.916  0.3556 -0.6785 -3.4243
  801MPD2    N111861   0.828   3.731  13.810 -0.6614  0.8316 -0.1208
  801MPD2    H711862   0.813   3.660  13.881 -1.3984  0.3710 -0.7369
  802MPD2     C11863   4.350   4.470  17.084 -0.3224  0.2319  0.3211
  802MPD2    C111864   4.438   4.476  17.196  0.1289  0.3137 -0.6361
  802MPD2    C211865   4.489   4.360  17.239 -0.0427  0.6596  0.0769
  802MPD2    C311866   4.459   4.249  17.173 -0.5832  0.0011 -0.0739
  802MPD2    C411867   4.362   4.241  17.075 -0.6821 -1.0740  0.3515
  802MPD2    C511868   4.310   4.356  17.024 -0.6380  0.4245  0.5194
  802MPD2     H11869   4.565   4.359  17.317 -1.3088  0.9919  1.3129
  802MPD2    H111870   4.333   4.155  17.016 -1.6516  0.1211 -0.9213
  802MPD2    H211871   4.306   4.561  17.044  0.6585  0.9347  0.8207
  802MPD2    H311872   4.252   4.360  16.933  0.8400  1.0152 -0.4018
  802MPD2     N11873   4.540   4.140  17.212 -0.6593  0.2382 -0.5892
  802MPD2    H511874   4.627   4.166  17.258 -2.5577  3.8485  1.0122
  802MPD2    N111875   4.471   4.585  17.271  0.5853 -0.2286  0.4548
  802MPD2    H711876   4.533   4.572  17.350 -2.3096 -0.2459  2.7387
  803MPD2     C11877   0.832   2.296  11.624  0.3517  0.1849 -0.1341
  803MPD2    C111878   0.956   2.284  11.691  0.4186  0.9028 -0.4290
  803MPD2    C211879   0.968   2.210  11.811 -0.3010 -0.2168  0.2656
  803MPD2    C311880   0.856   2.166  11.877  0.2904 -0.5665 -0.0143
  803MPD2    C411881   0.732   2.174  11.809  0.3310 -0.0778 -0.0712
  803MPD2    C511882   0.725   2.233  11.683 -0.2187  0.0689 -0.6364
  803MPD2     H11883   1.065   2.209  11.859 -0.0366  2.2721 -0.2205
  803MPD2    H111884   0.642   2.130  11.850  0.3430  2.3144  2.5450
  803MPD2    H211885   0.814   2.364  11.542  1.7798  2.7073  1.6212
  803MPD2    H311886   0.626   2.251  11.642 -0.8465  2.1270  1.7482
  803MPD2     N11887   0.857   2.116  12.008 -0.5961  0.4506 -0.0387
  803MPD2    H511888   0.772   2.094  12.059  0.2958  0.7238  1.5622
  803MPD2    N111889   1.074   2.343  11.638 -0.6110 -0.2619  0.2113
  803MPD2    H711890   1.157   2.318  11.691 -0.4485 -2.0861 -0.9134
  804MPD2     C11891   0.675   3.777  16.705  0.1122  0.3978  0.2488
  804MPD2    C111892   0.674   3.725  16.832 -0.1303 -0.0363 -0.0300
  804MPD2    C211893   0.759   3.773  16.930  0.6427  0.4782  0.6076
  804MPD2    C311894   0.852   3.867  16.898 -0.4216 -0.6773 -0.9796
  804MPD2    C411895   0.859   3.918  16.769 -0.4568 -0.4026 -0.5798
  804MPD2    C511896   0.763   3.876  16.678  0.2020  0.4327  0.5438
  804MPD2     H11897   0.746   3.735  17.031 -1.9162 -2.4034 -0.8028
  804MPD2    H111898   0.927   3.994  16.733  0.2811 -0.1549  1.3345
  804MPD2    H211899   0.610   3.744  16.625  1.7379 -0.7298 -0.6058
  804MPD2    H311900   0.768   3.908  16.574 -0.1565  1.6713  0.9086
  804MPD2     N11901   0.942   3.907  16.997  0.4779 -0.5453  0.0477
  804MPD2    H511902   0.927   3.880  17.094 -1.3334 -1.3436 -0.4333
  804MPD2    N111903   0.589   3.623  16.880 -0.1342  0.8508 -0.3350
  804MPD2    H711904   0.596   3.603  16.980  2.3512 -2.0187 -1.0695
  805MPD2     C11905   4.303   2.198  15.335  0.0093 -0.0554  0.2997
  805MPD2    C111906   4.410   2.107  15.318  0.2270 -0.3291 -0.6440
  805MPD2    C211907   4.510   2.107  15.409  0.2214  0.0283 -0.4304
  805MPD2    C311908   4.515   2.205  15.504 -0.1645 -0.1716  0.7081
  805MPD2    C411909   4.421   2.307  15.521  0.4179 -0.1651 -0.0628
  805MPD2    C511910   4.314   2.299  15.434 -0.0499 -0.0023  0.0300
  805MPD2     H11911   4.594   2.039  15.402 -2.2817 -3.1256  0.5932
  805MPD2    H111912   4.422   2.385  15.595  1.3462  0.5869 -0.8591
  805MPD2    H211913   4.215   2.188  15.272 -0.4724  1.3258  0.7428
  805MPD2    H311914   4.237   2.373  15.452 -0.6269 -0.2828 -1.2405
  805MPD2     N11915   4.623   2.193  15.591  0.6794  0.2411  0.7433
  805MPD2    H511916   4.696   2.131  15.558 -0.9864 -1.5247  0.3662
  805MPD2    N111917   4.400   1.995  15.239  0.1916  0.7978 -0.0527
  805MPD2    H711918   4.467   1.919  15.247 -2.2187 -1.4278 -1.0430
  806MPD2     C11919   0.107   1.920  17.508  0.2115  0.5354  0.2078
  806MPD2    C111920   0.075   1.975  17.628  0.4370  0.3985 -0.8256
  806MPD2    C211921   0.129   2.096  17.670 -0.0886  0.0975  0.0616
  806MPD2    C311922   0.210   2.167  17.584 -0.5601 -0.3179  0.0478
  806MPD2    C411923   0.227   2.120  17.455  0.3221  0.5634  0.4061
  806MPD2    C511924   0.182   1.998  17.417  0.2356  0.3377 -0.3088
  806MPD2     H11925   0.121   2.130   0.028 -2.9087 -1.7667  0.4484
  806MPD2    H111926   0.275   2.181  17.379  2.3950 -0.8158  0.6186
  806MPD2    H211927   0.076   1.823  17.470  2.1754 -0.5410  1.3584
  806MPD2    H311928   0.195   1.968  17.314  0.0031 -1.0061  0.0535
  806MPD2     N11929   0.261   2.290  17.630  0.2511 -0.5165  0.4470
  806MPD2    H511930   0.236   2.326  17.721 -1.7718  0.8608 -0.6478
  806MPD2    N111931   4.722   1.899  17.708 -0.1425  0.0903  0.6240
  806MPD2    H711932   4.713   1.804  17.672  1.2044 -0.1555  0.9469
  807MPD2     C11933   0.133   1.295   0.189  0.1455  0.1156 -0.8839
  807MPD2    C111934   0.054   1.340   0.290  0.0624  0.3396  0.6716
  807MPD2    C211935   0.076   1.291   0.415  0.5808 -0.2438  0.3050
  807MPD2    C311936   0.174   1.200   0.446 -0.9274  0.5916  0.4137
  807MPD2    C411937   0.248   1.152   0.339  0.3581  0.2839 -0.4394
  807MPD2    C511938   0.235   1.208   0.214 -0.5331  0.0512  0.2700
  807MPD2     H11939   0.020   1.325   0.501  0.1912 -1.6609  0.5995
  807MPD2    H111940   0.315   1.067   0.341 -0.5090 -0.2988  3.9787
  807MPD2    H211941   0.126   1.339   0.090 -3.0280  1.2499 -0.1544
  807MPD2    H311942   0.301   1.184   0.131  0.0675 -2.0659  1.3710
  807MPD2     N11943   0.190   1.147   0.575 -0.3970 -0.2360 -0.0518
  807MPD2    H511944   0.131   1.189   0.645  0.1849 -0.4422  0.5641
  807MPD2    N111945   4.685   1.432   0.274 -0.1697  0.3883 -0.3700
  807MPD2    H711946   4.640   1.463   0.359 -2.6842  0.1053 -1.6014
  808MPD2     C11947   1.068   2.824   9.998 -0.0669 -0.2452  1.1378
  808MPD2    C111948   0.937   2.875   9.975 -1.3057  0.1960 -0.0699
  808MPD2    C211949   0.895   2.969  10.061 -0.0052 -0.6986  0.2903
  808MPD2    C311950   0.977   3.017  10.161 -0.5092 -0.2474  0.9302
  808MPD2    C411951   1.106   2.967  10.179 -0.1391 -0.0751 -0.6108
  808MPD2    C511952   1.148   2.866  10.101  0.4481 -0.2869 -0.5344
  808MPD2     H11953   0.797   3.015  10.050  0.3893  0.3298  1.1471
  808MPD2    H111954   1.167   2.998  10.263  1.1282  2.3376 -2.4507
  808MPD2    H211955   1.110   2.746   9.935 -0.1994  0.2591  0.4242
  808MPD2    H311956   1.246   2.821  10.112  0.7592  0.5333  0.0646
  808MPD2     N11957   0.934   3.116  10.257 -0.0525  0.8850 -0.1886
  808MPD2    H511958   1.005   3.147  10.323 -1.6599 -0.7581  2.3074
  808MPD2    N111959   0.856   2.829   9.867  0.3659  1.0123 -0.6755
  808MPD2    H711960   0.763   2.869   9.869  0.0056  0.1927 -0.7734
  809MPD2     C11961   0.711   4.077  10.121  0.0280  0.0240 -0.4212
  809MPD2    C111962   0.764   3.959  10.068 -0.2118 -0.0330 -0.1543
  809MPD2    C211963   0.744   3.843  10.131  0.1000  0.0287 -0.3076
  809MPD2    C311964   0.665   3.831  10.239 -0.0672  0.2635  0.4946
  809MPD2    C411965   0.603   3.947  10.288  1.2462  0.3426 -0.7278
  809MPD2    C511966   0.626   4.073  10.231 -0.6609 -0.2033 -0.0024
  809MPD2     H11967   0.798   3.761  10.085  1.3497  0.8356 -0.2777
  809MPD2    H111968   0.520   3.935  10.357  2.1957  0.9414  0.5120
  809MPD2    H211969   0.720   4.170  10.067  0.2473 -0.2892 -0.9227
  809MPD2    H311970   0.567   4.156  10.267 -1.1305  0.0737 -1.4064
  809MPD2     N11971   0.645   3.710  10.313  0.8939  0.3981 -0.8151
  809MPD2    H511972   0.578   3.717  10.389  1.8711 -2.3169  0.3050
  809MPD2    N111973   0.844   3.956   9.948  0.1609 -0.3150  0.4014
  809MPD2    H711974   0.887   3.866   9.929 -1.3555 -1.4286  2.2543
  810MPD2     C11975   0.538   2.422  10.041  1.0597 -0.5641  0.5590
  810MPD2    C111976   0.409   2.404   9.994 -0.5102 -0.1493 -0.0119
  810MPD2    C211977   0.330   2.507   9.960 -0.1073  0.4152 -0.4074
  810MPD2    C311978   0.371   2.634   9.986 -0.3608 -0.3728 -0.5166
  810MPD2    C411979   0.503   2.649  10.041 -0.0550 -0.9262  0.3747
  810MPD2    C511980   0.581   2.545  10.065  0.1355  0.2136  0.0131
  810MPD2     H11981   0.229   2.489   9.924 -0.1590  0.7413 -0.4223
  810MPD2    H111982   0.550   2.743  10.065 -0.5803 -0.7080  0.5346
  810MPD2    H211983   0.604   2.342  10.075  1.8633  0.3035  1.0312
  810MPD2    H311984   0.681   2.554  10.107  0.3976 -1.7719 -0.1924
  810MPD2     N11985   0.270   2.734   9.966 -0.4277  0.3651 -0.4311
  810MPD2    H511986   0.181   2.703   9.930 -2.0800  4.0088  0.5613
  810MPD2    N111987   0.362   2.273   9.972 -0.0974 -0.3320 -0.4934
  810MPD2    H711988   0.270   2.260   9.929 -0.4014 -0.6764  0.2488
  811MPD2     C11989   4.430   2.089   9.715  0.7242  0.3131 -0.1934
  811MPD2    C111990   4.548   2.162   9.734 -0.1810 -0.2530 -0.5365
  811MPD2    C211991   4.537   2.296   9.741  0.3948  0.7352 -0.0472
  811MPD2    C311992   4.422   2.361   9.745  0.1083  1.0972 -0.6532
  811MPD2    C411993   4.302   2.296   9.721  0.0537  0.0022 -0.0193
  811MPD2    C511994   4.311   2.159   9.707 -0.1491  0.8252  0.3919
  811MPD2     H11995   4.629   2.350   9.763  0.9039 -0.2192  0.1617
  811MPD2    H111996   4.204   2.341   9.726 -0.1559 -0.1682 -2.4281
  811MPD2    H211997   4.428   1.980   9.711 -2.8197  0.3754 -0.4329
  811MPD2    H311998   4.224   2.096   9.691  0.2148  1.1676 -2.8257
  811MPD2     N11999   4.430   2.502   9.767 -0.3008  0.8212  0.4449
  811MPD2    H512000   4.521   2.542   9.787  1.2603 -2.2068 -0.6162
  811MPD2    N112001   4.663   2.081   9.760 -0.3439 -0.5058  0.3864
  811MPD2    H712002   4.651   1.980   9.752 -0.5945 -0.5012  0.7190
  812MPD2     C12003   3.927   2.376  11.909 -0.0601 -0.5269  0.0584
  812MPD2    C112004   3.886   2.460  12.012  0.0532  0.0615 -0.5723
  812MPD2    C212005   3.864   2.410  12.141  0.3125 -0.4752  0.0039
  812MPD2    C312006   3.885   2.279  12.163  0.5223  0.7487 -0.0185
  812MPD2    C412007   3.937   2.194  12.064  0.3135  0.3238  0.4203
  812MPD2    C512008   3.948   2.243  11.933 -1.0558 -0.3470 -0.2311
  812MPD2     H12009   3.823   2.478  12.215 -0.7844 -2.1887  0.9708
  812MPD2    H112010   3.964   2.089  12.074  0.1699  0.2157 -0.3970
  812MPD2    H212011   3.945   2.410  11.808  0.7160  1.6361  0.9209
  812MPD2    H312012   3.986   2.181  11.852 -0.5164 -1.1597  0.6530
  812MPD2     N12013   3.870   2.238  12.299  0.3418  0.5286 -0.1569
  812MPD2    H512014   3.836   2.305  12.367 -1.2985 -1.3243  0.8349
  812MPD2    N112015   3.876   2.595  11.977 -0.5571 -0.1319 -0.0353
  812MPD2    H712016   3.901   2.629  11.885 -1.1426 -1.7188 -0.7735
  813MPD2     C12017   3.078   4.633  12.736 -0.3391  0.4581  0.2169
  813MPD2    C112018   2.949   4.607  12.775  0.0313 -0.1856 -0.2446
  813MPD2    C212019   2.857   4.553  12.687  0.0690 -0.3018 -0.5055
  813MPD2    C312020   2.896   4.522  12.556  1.0139 -0.1344 -0.0226
  813MPD2    C412021   3.026   4.538  12.522  0.2984  0.2163 -0.1493
  813MPD2    C512022   3.116   4.584  12.614 -0.2649  0.2512 -0.2025
  813MPD2     H12023   2.753   4.539  12.716 -0.4303  0.6096 -1.8500
  813MPD2    H112024   3.060   4.504  12.425 -0.6071 -1.7005  0.2094
  813MPD2    H212025   3.162   4.659  12.800 -0.7084 -1.5285  1.5023
  813MPD2    H312026   3.218   4.596  12.580  0.6893 -0.5346  2.3911
  813MPD2     N12027   2.801   4.489  12.464 -0.3942  0.0531 -0.2463
  813MPD2    H512028   2.705   4.487  12.494 -1.0498  0.7533 -2.2562
  813MPD2    N112029   2.909   4.648  12.905 -0.7524 -0.3367  0.4588
  813MPD2    H712030   2.968   4.721  12.943 -1.6292  0.6094 -0.0018
  814MPD2     C12031   2.962   1.113  11.859  0.3146  0.0721 -0.0461
  814MPD2    C112032   3.071   1.145  11.788  0.6844 -0.3440  0.0665
  814MPD2    C212033   3.181   1.192  11.857  0.4629 -0.7832  0.4170
  814MPD2    C312034   3.185   1.214  11.992  0.1852 -1.0782 -0.1913
  814MPD2    C412035   3.080   1.171  12.067 -0.3489 -0.4534 -0.2314
  814MPD2    C512036   2.976   1.124  11.998 -0.6010  0.1199 -0.3303
  814MPD2     H12037   3.270   1.212  11.798 -0.4908  1.5575 -0.2084
  814MPD2    H112038   3.080   1.160  12.175  0.6425  0.8292 -0.1051
  814MPD2    H212039   2.881   1.057  11.814 -0.6770  2.5044 -1.3006
  814MPD2    H312040   2.898   1.067  12.047 -0.9909  1.4795  0.6466
  814MPD2     N12041   3.289   1.267  12.073  0.4228 -0.0637  0.4569
  814MPD2    H512042   3.290   1.249  12.172 -1.1916 -2.8778 -0.0536
  814MPD2    N112043   3.075   1.152  11.650  0.0948 -0.2093 -0.0167
  814MPD2    H712044   3.165   1.173  11.609  1.3590  1.3926  3.6241
  815MPD2     C12045   4.175   4.163  11.189  0.6692 -0.3702 -0.1176
  815MPD2    C112046   4.135   4.044  11.243 -0.4105  0.5161  0.2348
  815MPD2    C212047   4.017   4.038  11.320  0.0071  0.3675  0.3722
  815MPD2    C312048   3.941   4.145  11.338 -0.3402  0.5940  0.3615
  815MPD2    C412049   3.987   4.266  11.293  0.2432  0.4601 -0.1337
  815MPD2    C512050   4.107   4.276  11.225 -0.0845 -0.0543 -0.2245
  815MPD2     H12051   3.985   3.938  11.346  1.7353 -0.8492 -2.1655
  815MPD2    H112052   3.935   4.356  11.324  3.1530  2.3392 -0.7247
  815MPD2    H212053   4.257   4.171  11.119 -0.6483  1.4588 -1.4808
  815MPD2    H312054   4.141   4.370  11.183  0.1998  1.0200  2.4246
  815MPD2     N12055   3.824   4.117  11.402  0.1134  0.5693  0.0645
  815MPD2    H512056   3.810   4.022  11.434  3.9669  0.4467  1.4301
  815MPD2    N112057   4.207   3.927  11.203  0.0252  0.4150 -0.4776
  815MPD2    H712058   4.269   3.937  11.124  0.1943 -0.6690 -0.4819
  816MPD2     C12059   3.899   2.748  16.411  0.3430 -0.0861  0.5412
  816MPD2    C112060   3.894   2.827  16.292  0.1718  0.4732  0.2300
  816MPD2    C212061   3.956   2.775  16.179  0.0635 -0.5398  0.4444
  816MPD2    C312062   4.028   2.656  16.186  0.1261 -0.1720  0.1932
  816MPD2    C412063   4.028   2.584  16.301  0.2048 -0.0648  0.2955
  816MPD2    C512064   3.958   2.625  16.418  0.2534 -0.4439 -0.6052
  816MPD2     H12065   3.951   2.833  16.088 -2.4170 -0.6603  0.4943
  816MPD2    H112066   4.085   2.492  16.312 -0.6208 -0.5776  0.2156
  816MPD2    H212067   3.851   2.780  16.503  2.3343 -0.6564  1.7906
  816MPD2    H312068   3.954   2.574  16.513 -4.3322 -0.7375 -0.9876
  816MPD2     N12069   4.111   2.626  16.074  0.9212  0.6275 -0.2611
  816MPD2    H512070   4.096   2.686  15.994  1.2760  1.6461  0.4370
  816MPD2    N112071   3.832   2.952  16.294  0.3366 -0.4431  0.6284
  816MPD2    H712072   3.796   2.984  16.383  0.4140 -1.7446  1.1198
  817MPD2     C12073   3.143   4.681   9.601  0.0744 -0.7031  0.8397
  817MPD2    C112074   3.149   4.668   9.464  0.2178 -0.2158  0.0574
  817MPD2    C212075   3.076   0.009   9.381 -0.0215  0.1949 -0.1497
  817MPD2    C312076   2.990   0.105   9.437  0.0987  0.5783 -0.4143
  817MPD2    C412077   2.986   0.119   9.570  0.2135  0.0143  0.0990
  817MPD2    C512078   3.058   0.035   9.652 -1.0301  0.3999 -0.0887
  817MPD2     H12079   3.067   4.715   9.278 -0.2293 -0.8107  0.1679
  817MPD2    H112080   2.914   0.186   9.618 -0.0112  0.2051 -0.5059
  817MPD2    H212081   3.199   4.622   9.673  0.6194 -0.0699  0.9361
  817MPD2    H312082   3.048   0.048   9.759  1.5630 -0.9984  0.3188
  817MPD2     N12083   2.917   0.174   9.341 -0.1631  0.1450 -0.8465
  817MPD2    H512084   2.946   0.143   9.249  1.2272  0.0108 -0.3684
  817MPD2    N112085   3.231   4.581   9.396 -0.1022  0.2330  0.3761
  817MPD2    H712086   3.236   4.590   9.296 -0.6183 -3.0205  0.0587
  818MPD2     C12087   2.202   4.597   9.378 -0.3689  0.0738  0.9455
  818MPD2    C112088   2.240   4.605   9.512  0.2057  0.4326  1.0047
  818MPD2    C212089   2.341   4.522   9.567 -0.6171 -0.2777 -0.3007
  818MPD2    C312090   2.407   4.438   9.481  0.4413 -0.0491  0.0392
  818MPD2    C412091   2.384   4.446   9.345  0.2753 -0.4366  0.5268
  818MPD2    C512092   2.281   4.521   9.292  0.0291  0.3025 -0.1014
  818MPD2     H12093   2.364   4.524   9.673 -2.1969 -0.7013  0.0436
  818MPD2    H112094   2.441   4.369   9.294  0.0162  1.7781 -3.0408
  818MPD2    H212095   2.134   4.670   9.335 -0.0641  0.6656  1.4734
  818MPD2    H312096   2.246   4.524   9.190 -1.0975 -0.0213  0.2756
  818MPD2     N12097   2.507   4.344   9.520  0.4877 -0.0732  0.1341
  818MPD2    H512098   2.554   4.289   9.448  3.2684  3.1806 -0.5802
  818MPD2    N112099   2.174   4.693   9.600  0.0453  0.5186  0.0089
  818MPD2    H712100   2.194   4.686   9.699  2.8035 -1.3967 -0.6793
  819MPD2     C12101   0.454   1.540  15.669 -0.0771  0.6515  0.1866
  819MPD2    C112102   0.539   1.466  15.589  0.0360  0.1959 -0.0785
  819MPD2    C212103   0.671   1.460  15.631 -0.2840  0.4329  0.0512
  819MPD2    C312104   0.723   1.545  15.736  0.1735  0.0204  0.2570
  819MPD2    C412105   0.637   1.622  15.808  0.0124 -0.7058  0.2554
  819MPD2    C512106   0.507   1.610  15.776 -0.7900 -0.8923 -0.7778
  819MPD2     H12107   0.744   1.412  15.567 -0.7690  0.1307 -0.2776
  819MPD2    H112108   0.659   1.651  15.910 -0.6307 -1.2860  0.5629
  819MPD2    H212109   0.346   1.535  15.660  0.2067 -1.1638 -2.4783
  819MPD2    H312110   0.436   1.667  15.835 -0.9629 -1.2477 -0.6382
  819MPD2     N12111   0.861   1.534  15.763 -0.5066  0.0179  0.5052
  819MPD2    H512112   0.913   1.466  15.708  1.1048  1.3560  0.3625
  819MPD2    N112113   0.475   1.399  15.482  0.2892  0.5168 -0.3851
  819MPD2    H712114   0.379   1.426  15.466  0.3079 -0.0195 -1.4151
  820MPD2     C12115   4.346   1.159  15.159  0.0997 -0.1508  0.0058
  820MPD2    C112116   4.419   1.266  15.144  0.0593  0.1938 -0.3121
  820MPD2    C212117   4.556   1.257  15.155 -0.2940  0.3129  0.2465
  820MPD2    C312118   4.615   1.137  15.180  0.3433 -0.1316 -0.1439
  820MPD2    C412119   4.545   1.028  15.183 -0.0151  0.1630  0.7234
  820MPD2    C512120   4.407   1.036  15.177  0.3648  0.0022 -0.6849
  820MPD2     H12121   4.620   1.341  15.132  1.2839 -0.8743  0.3055
  820MPD2    H112122   4.594   0.937  15.214  1.4481  0.3030 -1.1867
  820MPD2    H212123   4.238   1.162  15.146  0.0646 -2.8589 -0.2643
  820MPD2    H312124   4.348   0.945  15.181 -0.7882  0.7780  0.0624
  820MPD2     N12125   0.020   1.114  15.184  0.3227 -0.8798 -0.2672
  820MPD2    H512126   0.064   1.024  15.201 -1.5628 -2.0479 -1.5661
  820MPD2    N112127   4.359   1.388  15.115  0.1510  0.0599  0.3540
  820MPD2    H712128   4.266   1.382  15.075  0.3157  0.1819 -0.0442
  821MPD2     C12129   0.719   2.632  13.230  0.6120 -0.5972  0.0634
  821MPD2    C112130   0.823   2.707  13.294 -0.6247  0.2226 -0.5189
  821MPD2    C212131   0.892   2.805  13.223  0.2874 -0.2905  0.1113
  821MPD2    C312132   0.855   2.833  13.092  0.3746  0.2329 -0.1790
  821MPD2    C412133   0.747   2.774  13.041  0.0513  0.3782 -0.1885
  821MPD2    C512134   0.679   2.672  13.105  0.1087  0.1374 -0.3178
  821MPD2     H12135   0.975   2.854  13.272 -0.8865 -0.1263  1.9415
  821MPD2    H112136   0.726   2.785  12.936 -1.8866  0.1732  0.1767
  821MPD2    H212137   0.671   2.550  13.282  2.4507 -0.5441  1.8606
  821MPD2    H312138   0.599   2.619  13.055 -0.3159  0.1830  0.3096
  821MPD2     N12139   0.933   2.916  13.010 -0.3132 -0.4508 -0.5477
  821MPD2    H512140   0.905   2.951  12.919  0.0511 -0.8511 -0.8154
  821MPD2    N112141   0.861   2.682  13.425  0.3245  0.1489  0.1704
  821MPD2    H712142   0.930   2.741  13.470  0.1108  0.8315 -0.4011
  822MPD2     C12143   1.566   3.156  15.610  0.0909  0.1174  0.0656
  822MPD2    C112144   1.489   3.110  15.721 -0.9206 -0.1052 -0.3742
  822MPD2    C212145   1.420   3.205  15.793  0.0037  0.2834 -0.2540
  822MPD2    C312146   1.422   3.339  15.767 -0.1252  1.0534 -0.5081
  822MPD2    C412147   1.503   3.382  15.662  0.4837 -0.2665  0.4553
  822MPD2    C512148   1.566   3.289  15.585 -0.2772 -0.3432  0.0721
  822MPD2     H12149   1.358   3.171  15.876 -0.5468  0.4086 -0.6182
  822MPD2    H112150   1.514   3.486  15.637  1.6097 -0.4818  0.0620
  822MPD2    H212151   1.635   3.088  15.562  1.5448  0.4368  1.7175
  822MPD2    H312152   1.631   3.327  15.507 -0.1458  0.5248  0.6116
  822MPD2     N12153   1.325   3.423  15.832 -0.2144  0.4216  0.1327
  822MPD2    H512154   1.277   3.379  15.910 -0.0202  0.6102  0.3607
  822MPD2    N112155   1.495   2.978  15.771 -0.6087 -0.9019  0.2763
  822MPD2    H712156   1.430   2.968  15.849 -0.8661  1.1479  0.3242
  823MPD2     C12157   0.908   3.516  16.524 -0.2436  0.5229  0.3236
  823MPD2    C112158   1.007   3.447  16.451 -0.3072 -0.4102 -0.3028
  823MPD2    C212159   1.030   3.314  16.479 -0.1609  0.2946 -0.1623
  823MPD2    C312160   0.955   3.249  16.572  0.4259 -0.0661 -0.3202
  823MPD2    C412161   0.852   3.315  16.638  0.0732 -0.0478  0.5468
  823MPD2    C512162   0.837   3.447  16.619 -0.0117 -0.4817 -0.1690
  823MPD2     H12163   1.105   3.261  16.421 -1.8201 -0.9590 -1.1734
  823MPD2    H112164   0.799   3.265  16.718 -0.7884  0.7741  0.4963
  823MPD2    H212165   0.882   3.618  16.499 -2.2958 -0.2484 -0.6716
  823MPD2    H312166   0.755   3.485  16.678 -0.1922 -1.9048  0.5057
  823MPD2     N12167   0.990   3.117  16.621  0.2161  0.1548  0.9230
  823MPD2    H512168   0.919   3.080  16.684 -0.8674 -0.2246 -0.5179
  823MPD2    N112169   1.087   3.517  16.355 -0.1574  0.1905 -0.1607
  823MPD2    H712170   1.083   3.618  16.356  0.5011  0.1864  1.5962
  824MPD2     C12171   1.536   2.170  15.562  0.4592  0.0486 -0.2617
  824MPD2    C112172   1.629   2.272  15.572 -0.2047  0.8735  0.5054
  824MPD2    C212173   1.737   2.258  15.494  0.4054 -0.2974  0.1302
  824MPD2    C312174   1.756   2.148  15.409 -0.1285 -0.1886 -0.0882
  824MPD2    C412175   1.667   2.044  15.410 -1.0753  0.0422  0.1899
  824MPD2    C512176   1.554   2.057  15.489  0.5553 -0.4776  0.1161
  824MPD2     H12177   1.810   2.336  15.476 -2.3932  2.0986 -0.7911
  824MPD2    H112178   1.675   1.959  15.343 -0.8515 -1.3829  2.0388
  824MPD2    H212179   1.436   2.176  15.604  1.7806  2.9443  2.4812
  824MPD2    H312180   1.471   1.987  15.485  1.8893 -1.9758 -1.4743
  824MPD2     N12181   1.875   2.143  15.331  0.2833  0.1931  0.0299
  824MPD2    H512182   1.942   2.213  15.359  0.2041 -0.1651  1.0933
  824MPD2    N112183   1.603   2.393  15.649 -0.6478 -0.2220 -0.0268
  824MPD2    H712184   1.667   2.472  15.641 -0.6350 -0.6196 -3.6755
  825MPD2     C12185   2.128   2.600  14.896  0.3424 -0.7023  0.7075
  825MPD2    C112186   2.222   2.512  14.927  0.1921  0.3413 -0.5350
  825MPD2    C212187   2.355   2.543  14.911 -0.1875 -0.4755 -0.0962
  825MPD2    C312188   2.390   2.667  14.859 -0.3649 -0.1779  0.1329
  825MPD2    C412189   2.290   2.755  14.830 -0.3562 -0.2682  0.5112
  825MPD2    C512190   2.156   2.727  14.848  0.1142  0.0042  0.4638
  825MPD2     H12191   2.431   2.479  14.955  1.4279  1.8053  0.4476
  825MPD2    H112192   2.305   2.855  14.790  2.8929 -0.6799  0.7475
  825MPD2    H212193   2.024   2.581  14.916  0.4414  0.0566  1.9325
  825MPD2    H312194   2.076   2.797  14.827  1.2536  0.9591 -0.6965
  825MPD2     N12195   2.521   2.720  14.844 -0.4239  0.3641  0.1027
  825MPD2    H512196   2.534   2.815  14.811 -0.5253  0.1531 -0.5394
  825MPD2    N112197   2.175   2.392  14.985  0.3817  0.8088 -0.1235
  825MPD2    H712198   2.076   2.379  14.998  0.5243  1.4946  1.6253
  826MPD2     C12199   1.541   1.807  13.273 -0.1579  0.4186 -0.4700
  826MPD2    C112200   1.651   1.871  13.328  0.6378  0.2251  0.1267
  826MPD2    C212201   1.625   1.998  13.377 -1.2521 -0.3350 -0.1516
  826MPD2    C312202   1.504   2.054  13.381  0.3942 -0.4548 -0.3817
  826MPD2    C412203   1.397   1.989  13.326  0.1371 -0.1210  0.3784
  826MPD2    C512204   1.419   1.865  13.267 -0.5803  0.3489  0.8035
  826MPD2     H12205   1.709   2.042  13.430 -2.1406  1.8339 -0.5263
  826MPD2    H112206   1.297   2.031  13.332  0.4394  0.5593  0.7461
  826MPD2    H212207   1.544   1.710  13.224 -1.0048  0.1089  0.0920
  826MPD2    H312208   1.333   1.814  13.226 -0.0113  0.7383 -0.9100
  826MPD2     N12209   1.498   2.184  13.426  0.5771 -0.2218  0.2495
  826MPD2    H512210   1.590   2.225  13.440  1.5577 -2.0131 -1.0325
  826MPD2    N112211   1.779   1.809  13.342 -0.6109 -0.1602 -0.0499
  826MPD2    H712212   1.774   1.710  13.319  0.1208 -0.1669 -0.1834
  827MPD2     C12213   2.655   3.590   9.884 -0.1249 -0.3652 -0.2557
  827MPD2    C112214   2.605   3.510   9.994  0.1504 -0.3915 -0.0596
  827MPD2    C212215   2.521   3.403   9.959  0.0605 -0.0700  0.2405
  827MPD2    C312216   2.490   3.371   9.826  0.8368  0.6543 -0.4400
  827MPD2    C412217   2.549   3.444   9.726  0.1305  0.4469 -0.1515
  827MPD2    C512218   2.631   3.545   9.758  0.0550 -0.1130  0.2020
  827MPD2     H12219   2.463   3.341  10.027  1.7085  0.7666  2.3775
  827MPD2    H112220   2.526   3.426   9.621  1.2054  1.5724 -0.5771
  827MPD2    H212221   2.711   3.681   9.904 -1.1586  0.3146 -0.4532
  827MPD2    H312222   2.669   3.616   9.685  1.0216 -1.5166 -0.6492
  827MPD2     N12223   2.398   3.264   9.802 -0.0800 -0.3322  0.0458
  827MPD2    H512224   2.353   3.238   9.889 -1.1393 -0.3703 -0.5108
  827MPD2    N112225   2.647   3.539  10.121  0.0674  0.1847 -0.5174
  827MPD2    H712226   2.705   3.621  10.124  0.9240 -0.4551  0.2508
  828MPD2     C12227   1.405   3.286  12.285 -0.4461  0.1801  0.4392
  828MPD2    C112228   1.313   3.318  12.185  0.2427 -0.3496  0.1728
  828MPD2    C212229   1.350   3.294  12.058  0.2802  0.4886  0.3298
  828MPD2    C312230   1.476   3.249  12.016  0.6359  0.7466 -0.0083
  828MPD2    C412231   1.570   3.244  12.118 -0.2786  0.3472  0.3107
  828MPD2    C512232   1.539   3.262  12.245  0.1290 -0.9943 -0.0162
  828MPD2     H12233   1.274   3.309  11.982 -1.0307 -0.9311  1.3771
  828MPD2    H112234   1.672   3.223  12.089  0.3211  0.6470  2.2170
  828MPD2    H212235   1.385   3.303  12.390  3.5537  0.5067  1.1456
  828MPD2    H312236   1.609   3.261  12.328 -0.1513  0.5999  0.2382
  828MPD2     N12237   1.527   3.207  11.894 -0.2827  0.7623 -0.2242
  828MPD2    H512238   1.625   3.178  11.896 -0.9266 -1.4547 -1.1972
  828MPD2    N112239   1.182   3.368  12.206  0.1562 -0.2382 -0.3401
  828MPD2    H712240   1.118   3.386  12.129 -0.9834  1.6676  1.0639
  829MPD2     C12241   0.660   3.634  11.589  0.1485 -0.4004 -1.0236
  829MPD2    C112242   0.562   3.616  11.686  0.6564  0.1719  0.2825
  829MPD2    C212243   0.612   3.610  11.818 -0.0154 -0.2105 -0.8243
  829MPD2    C312244   0.745   3.622  11.854  0.6759  0.0636 -0.6371
  829MPD2    C412245   0.834   3.633  11.752  0.4310 -0.1838  0.4445
  829MPD2    C512246   0.791   3.648  11.623 -0.5145 -0.5082 -0.4215
  829MPD2     H12247   0.543   3.593  11.899  1.7292 -1.5422  0.3780
  829MPD2    H112248   0.940   3.628  11.770  0.9437  1.0143 -2.2533
  829MPD2    H212249   0.642   3.617  11.483 -0.6763  0.7290 -1.0574
  829MPD2    H312250   0.863   3.661  11.542  1.1348 -0.3371  1.0695
  829MPD2     N12251   0.796   3.608  11.984  0.0376  0.2488 -0.0626
  829MPD2    H512252   0.896   3.625  11.991  0.1629 -1.3070  1.7942
  829MPD2    N112253   0.432   3.597  11.638  0.2934 -0.0221  0.2065
  829MPD2    H712254   0.419   3.607  11.538  0.0695 -2.5553 -0.0260
  830MPD2     C12255   1.687   1.496  15.540  0.3768 -0.4659  0.1890
  830MPD2    C112256   1.560   1.534  15.506 -0.8704  0.0362  0.5696
  830MPD2    C212257   1.541   1.604  15.386 -0.5793  0.5183  0.2216
  830MPD2    C312258   1.649   1.647  15.312  0.3142  0.0498  0.2446
  830MPD2    C412259   1.776   1.616  15.356  0.0391 -0.1915 -0.2384
  830MPD2    C512260   1.788   1.536  15.463 -0.1820  0.1667 -1.0020
  830MPD2     H12261   1.441   1.635  15.359 -0.8255  0.4807  1.0861
  830MPD2    H112262   1.856   1.667  15.304 -0.0081  1.3790  1.2528
  830MPD2    H212263   1.713   1.428  15.621 -1.3354  0.3103  1.3879
  830MPD2    H312264   1.890   1.509  15.488 -0.6155 -1.2956 -0.8626
  830MPD2     N12265   1.639   1.729  15.196 -0.3498 -0.6091  0.1555
  830MPD2    H512266   1.728   1.766  15.165 -0.0724 -1.1286  0.3212
  830MPD2    N112267   1.461   1.509  15.603  0.0057  0.0441 -0.1022
  830MPD2    H712268   1.489   1.463  15.689  3.1941  1.9594 -0.1406
  831MPD2     C12269   1.614   3.412  16.202 -0.5881 -0.1691  0.2460
  831MPD2    C112270   1.623   3.303  16.110  0.7216 -0.6449  0.6222
  831MPD2    C212271   1.520   3.207  16.113 -0.5365  0.4039  0.0543
  831MPD2    C312272   1.418   3.218  16.205 -0.2702  0.1821  0.5504
  831MPD2    C412273   1.409   3.324  16.288  0.6910 -0.2564  0.6679
  831MPD2    C512274   1.508   3.417  16.293  0.7960  0.0974 -0.3426
  831MPD2     H12275   1.524   3.119  16.050 -1.1228  0.5768 -0.2203
  831MPD2    H112276   1.328   3.326  16.360 -0.1414  1.6124 -0.3223
  831MPD2    H212277   1.688   3.491  16.203 -2.3450  1.4817  0.3601
  831MPD2    H312278   1.511   3.493  16.371 -0.7814  0.4501 -0.6388
  831MPD2     N12279   1.316   3.119  16.217 -0.3775 -0.5548 -0.1838
  831MPD2    H512280   1.258   3.119  16.300  1.0172  0.7169  0.7711
  831MPD2    N112281   1.735   3.293  16.025  0.1723 -0.5111 -0.2241
  831MPD2    H712282   1.799   3.371  16.018  0.7345 -1.1339 -2.1489
  832MPD2     C12283   4.457   4.112  16.762  0.5665 -0.0838  0.6428
  832MPD2    C112284   4.452   4.244  16.734 -0.6524 -0.1660  0.6616
  832MPD2    C212285   4.343   4.289  16.657  0.6836  0.2114  0.2998
  832MPD2    C312286   4.249   4.194  16.596 -0.5796 -0.3261 -0.4524
  832MPD2    C412287   4.253   4.060  16.640  0.0483 -0.6525 -0.0126
  832MPD2    C512288   4.355   4.025  16.734 -0.2941  0.5746 -1.2308
  832MPD2     H12289   4.353   4.386  16.608 -0.0994  0.9169  1.5579
  832MPD2    H112290   4.181   3.988  16.601 -1.5117  1.3073 -0.7231
  832MPD2    H212291   4.542   4.076  16.819  0.5700 -1.8510 -0.4587
  832MPD2    H312292   4.373   3.919  16.749 -0.4462  0.7814  0.3782
  832MPD2     N12293   4.143   4.240  16.508  0.3340  0.1247 -0.1747
  832MPD2    H512294   4.085   4.165  16.471  1.7551 -0.0260 -2.0982
  832MPD2    N112295   4.556   4.319  16.779  0.5982 -0.6382  0.2442
  832MPD2    H712296   4.626   4.280  16.842  0.4586 -0.3786  0.5607
  833MPD2     C12297   1.954   1.234  12.369 -0.2878  0.1589  0.5963
  833MPD2    C112298   1.815   1.221  12.349 -0.8782  0.1274 -0.2789
  833MPD2    C212299   1.772   1.114  12.273  0.5767  0.7390 -0.4992
  833MPD2    C312300   1.857   1.013  12.233 -0.7700  0.0766  0.2207
  833MPD2    C412301   1.992   1.019  12.274 -0.0252 -0.0187  0.2038
  833MPD2    C512302   2.035   1.124  12.347 -0.7683  0.0812 -0.2172
  833MPD2     H12303   1.667   1.102  12.248  0.5705  0.6258 -0.4201
  833MPD2    H112304   2.068   0.947  12.245  0.4391 -0.5498  2.7329
  833MPD2    H212305   1.994   1.324  12.416 -1.7864  0.2822  1.6144
  833MPD2    H312306   2.143   1.130  12.357 -0.9135 -0.1834  1.4776
  833MPD2     N12307   1.819   0.905  12.150  0.0360  0.4862  0.9767
  833MPD2    H512308   1.887   0.857  12.093 -0.6349 -1.1795  1.5967
  833MPD2    N112309   1.728   1.335  12.375  0.4925 -0.6942  0.1456
  833MPD2    H712310   1.768   1.427  12.388  0.1269 -0.8243  2.1950
  834MPD2     C12311   2.049   0.498  11.302 -0.2551  0.2604 -0.0346
  834MPD2    C112312   1.918   0.530  11.281 -0.1500 -0.1555  0.2204
  834MPD2    C212313   1.841   0.608  11.370 -0.1243 -0.5819  0.4101
  834MPD2    C312314   1.901   0.650  11.484 -0.3644  0.0245 -0.1542
  834MPD2    C412315   2.041   0.626  11.500  0.5354 -0.2192  0.1793
  834MPD2    C512316   2.112   0.559  11.404 -0.2058 -0.2731  0.1522
  834MPD2     H12317   1.739   0.638  11.348 -0.3553 -2.5649 -1.2524
  834MPD2    H112318   2.096   0.662  11.586 -0.4991  1.6051  0.0908
  834MPD2    H212319   2.112   0.435  11.240 -1.6423 -1.9854  0.8178
  834MPD2    H312320   2.218   0.542  11.419  0.1936  1.6603 -0.4544
  834MPD2     N12321   1.825   0.715  11.581  0.0033  0.2012 -0.0606
  834MPD2    H512322   1.726   0.718  11.561  0.0842 -1.6475 -0.6847
  834MPD2    N112323   1.861   0.497  11.156 -0.1319  0.2905  0.2032
  834MPD2    H712324   1.763   0.521  11.145 -0.5189 -1.2402  0.3592
  835MPD2     C12325   1.834   3.041  11.169  0.1794  0.0296 -0.2034
  835MPD2    C112326   1.779   3.141  11.250 -0.4273  0.7824  0.2081
  835MPD2    C212327   1.843   3.186  11.369  0.1273  0.7665  0.6120
  835MPD2    C312328   1.971   3.129  11.391 -0.2030  0.7770 -0.2759
  835MPD2    C412329   2.021   3.029  11.319 -0.1649 -0.1504  0.2961
  835MPD2    C512330   1.948   2.980  11.210  0.2757  0.6366 -1.3306
  835MPD2     H12331   1.796   3.275  11.409  2.5972  1.8859  0.9956
  835MPD2    H112332   2.117   2.984  11.343 -0.2598 -0.0621  0.8456
  835MPD2    H212333   1.777   2.995  11.089 -1.4135 -1.2653  1.6927
  835MPD2    H312334   1.997   2.906  11.148  0.5070  0.8560 -1.4084
  835MPD2     N12335   2.053   3.160  11.499 -0.0277 -0.1067 -0.4028
  835MPD2    H512336   2.147   3.121  11.492  0.7664  1.9616 -1.2335
  835MPD2    N112337   1.664   3.210  11.218 -1.1270  0.2251 -1.0136
  835MPD2    H712338   1.618   3.271  11.285  0.2545 -1.5892  1.6065
  836MPD2     C12339   2.035   3.411  12.301 -0.6610 -0.4019 -0.4057
  836MPD2    C112340   1.999   3.454  12.181  0.6175 -0.5997 -0.1625
  836MPD2    C212341   1.873   3.511  12.158  0.6217  0.4740 -0.6518
  836MPD2    C312342   1.782   3.525  12.263 -0.6598  0.2497  0.1788
  836MPD2    C412343   1.812   3.448  12.375  0.2317  0.6109  0.4955
  836MPD2    C512344   1.935   3.396  12.393 -0.2640  0.8385  0.4700
  836MPD2     H12345   1.838   3.556  12.066  0.3255  1.2319 -0.1660
  836MPD2    H112346   1.735   3.439  12.451 -0.9666 -5.3147 -1.4527
  836MPD2    H212347   2.133   3.373  12.328 -0.0417  0.5829 -1.2675
  836MPD2    H312348   1.965   3.340  12.481 -1.4576  1.4377  1.2509
  836MPD2     N12349   1.656   3.586  12.250  0.0940 -0.1334  0.5023
  836MPD2    H512350   1.606   3.583  12.338 -0.9506 -0.4925 -0.0990
  836MPD2    N112351   2.100   3.433  12.084 -0.4890 -0.4438  0.5544
  836MPD2    H712352   2.187   3.388  12.113  0.6582  1.0373 -0.5601
  837MPD2     C12353   0.159   3.094   9.685 -0.2213 -0.4244  0.3807
  837MPD2    C112354   0.040   3.156   9.706  0.1036 -0.2494  0.1042
  837MPD2    C212355   0.026   3.287   9.716  0.1905 -0.4072  0.4689
  837MPD2    C312356   0.137   3.370   9.721 -0.3153  0.2794 -0.7562
  837MPD2    C412357   0.262   3.314   9.704 -0.4559  0.3209  0.1796
  837MPD2    C512358   0.268   3.176   9.689 -0.2525  0.3706  0.4808
  837MPD2     H12359   4.660   3.316   9.737  0.0265 -0.2939 -0.5258
  837MPD2    H112360   0.353   3.370   9.720  0.6948 -1.6964  0.7236
  837MPD2    H212361   0.172   2.994   9.647 -1.7298  0.0526 -1.3888
  837MPD2    H312362   0.369   3.140   9.678 -0.4729 -0.0594 -0.1306
  837MPD2     N12363   0.115   3.503   9.770 -0.4511 -0.2446  0.7665
  837MPD2    H512364   0.019   3.519   9.798 -0.2334  1.5447  0.5106
  837MPD2    N112365   4.657   3.083   9.695  0.0465  0.1529 -0.1009
  837MPD2    H712366   4.572   3.139   9.691  1.3779  2.3425  2.1607
  838MPD2     C12367   3.292   2.002  11.954  0.2113  0.5405  0.7068
  838MPD2    C112368   3.245   1.881  11.929 -0.3413  0.0152 -0.3162
  838MPD2    C212369   3.116   1.855  11.969 -0.3572 -0.0764  0.5817
  838MPD2    C312370   3.034   1.947  12.035  0.8247  0.6365 -0.2785
  838MPD2    C412371   3.078   2.072  12.044  0.0579 -0.3181 -0.0053
  838MPD2    C512372   3.209   2.094  12.017 -0.1464 -0.0949  0.0342
  838MPD2     H12373   3.090   1.752  11.949 -1.0172  0.3485 -0.7380
  838MPD2    H112374   3.024   2.155  12.088 -1.9518 -0.1396 -2.7893
  838MPD2    H212375   3.394   2.035  11.939 -0.2606  0.3705 -2.8803
  838MPD2    H312376   3.247   2.196  12.022  1.2907 -0.5096 -2.1987
  838MPD2     N12377   2.920   1.901  12.102 -0.0027  0.0182 -0.8318
  838MPD2    H512378   2.905   1.801  12.092 -1.5343  0.0252  1.3720
  838MPD2    N112379   3.315   1.790  11.849  0.5796 -0.0621 -0.5002
  838MPD2    H712380   3.268   1.702  11.831  2.1079 -0.5238 -2.2921
  839MPD2     C12381   2.793   1.528  11.315 -0.0123  0.6595  0.2976
  839MPD2    C112382   2.916   1.497  11.257  0.4475  0.0000 -0.9658
  839MPD2    C212383   3.023   1.470  11.339  0.2616 -0.5187 -0.6514
  839MPD2    C312384   3.016   1.489  11.475 -0.6487 -0.2466 -0.7396
  839MPD2    C412385   2.894   1.521  11.534 -0.1969 -0.7692 -0.3137
  839MPD2    C512386   2.784   1.534  11.455  0.7249 -0.3801  0.8701
  839MPD2     H12387   3.117   1.446  11.291  1.4490 -0.1933  1.5721
  839MPD2    H112388   2.886   1.541  11.640  0.3200 -1.5850 -0.1213
  839MPD2    H212389   2.708   1.558  11.255 -0.9478  3.7015  3.0869
  839MPD2    H312390   2.682   1.542  11.489  0.4832  0.1865  0.0233
  839MPD2     N12391   3.134   1.487  11.562 -0.6265 -0.2635 -0.4044
  839MPD2    H512392   3.132   1.519  11.658 -1.8044 -0.6183 -0.3152
  839MPD2    N112393   2.935   1.473  11.118 -0.6377  0.1685  0.0200
  839MPD2    H712394   3.021   1.427  11.092 -1.7781 -0.2643 -3.0279
  840MPD2     C12395   3.066   3.941  10.201 -0.8568  0.6167 -0.0052
  840MPD2    C112396   3.072   3.874  10.319 -0.5723  0.3800  0.4222
  840MPD2    C212397   3.186   3.885  10.391  0.0826  0.2624 -0.1086
  840MPD2    C312398   3.292   3.966  10.355  0.5257  0.1975  0.3463
  840MPD2    C412399   3.292   4.018  10.226  0.6254 -0.1241 -0.3233
  840MPD2    C512400   3.178   4.004  10.153 -0.2134  0.5035  0.6249
  840MPD2     H12401   3.175   3.838  10.487 -0.5765  2.2835  0.8112
  840MPD2    H112402   3.379   4.072  10.190  2.1243 -1.3316  1.4654
  840MPD2    H212403   2.971   3.933  10.148  0.8974  1.1687 -3.2748
  840MPD2    H312404   3.175   4.052  10.056 -1.9129  0.8078  0.8380
  840MPD2     N12405   3.403   3.984  10.436  0.0148 -0.3407  0.7997
  840MPD2    H512406   3.478   4.039  10.395  1.4966 -1.9052  1.4625
  840MPD2    N112407   2.956   3.797  10.356 -0.0390  0.2577  0.3517
  840MPD2    H712408   2.879   3.796  10.290 -0.0691  4.5287  0.3368
  841MPD2     C12409   3.481   3.024  14.218  0.7592  0.1109 -0.4475
  841MPD2    C112410   3.377   3.107  14.228 -0.4597  0.2186  0.4757
  841MPD2    C212411   3.396   3.236  14.280 -0.0991 -0.1479 -0.1974
  841MPD2    C312412   3.520   3.275  14.322  0.4576 -0.4420  0.0836
  841MPD2    C412413   3.620   3.188  14.305 -0.2110 -0.4899  0.1897
  841MPD2    C512414   3.606   3.069  14.245 -0.5191  0.6169  0.1655
  841MPD2     H12415   3.318   3.311  14.279  0.7203  0.7254  1.2044
  841MPD2    H112416   3.724   3.210  14.325 -0.5874 -0.2039  1.7887
  841MPD2    H212417   3.457   2.925  14.181 -3.3302  0.4776  1.1767
  841MPD2    H312418   3.696   3.010  14.236 -0.2434  0.9859  0.5032
  841MPD2     N12419   3.533   3.397  14.395  0.2821  0.5614 -0.1317
  841MPD2    H512420   3.448   3.439  14.431 -0.3769  1.0709 -2.2680
  841MPD2    N112421   3.251   3.048  14.196 -0.6688 -0.0937  0.1730
  841MPD2    H712422   3.253   2.946  14.200  0.4278 -0.1205 -0.9866
  842MPD2     C12423   3.169   4.174  16.487  0.6165 -0.3877 -0.4276
  842MPD2    C112424   3.267   4.275  16.511  1.1334  0.2510  0.2991
  842MPD2    C212425   3.392   4.263  16.573  0.4698  0.1612 -0.4055
  842MPD2    C312426   3.425   4.144  16.630 -0.1847  1.2129  0.5603
  842MPD2    C412427   3.335   4.042  16.607  0.1020 -0.4447  0.4121
  842MPD2    C512428   3.219   4.057  16.537 -0.6062 -0.3541 -0.0388
  842MPD2     H12429   3.455   4.347  16.601  0.3648  0.7305 -1.8612
  842MPD2    H112430   3.354   3.939  16.635 -0.1125 -0.9197 -1.1838
  842MPD2    H212431   3.077   4.197  16.433  0.4342 -0.4502 -0.1397
  842MPD2    H312432   3.159   3.968  16.523 -0.7833 -0.1629 -0.5072
  842MPD2     N12433   3.529   4.137  16.731  0.7991  0.0731 -0.0716
  842MPD2    H512434   3.577   4.224  16.753  2.9269 -1.0004 -0.3877
  842MPD2    N112435   3.217   4.400  16.472  0.0255 -0.2310  0.1843
  842MPD2    H712436   3.128   4.400  16.422  0.0018 -0.8285  0.2265
  843MPD2     C12437   0.656   0.478  17.584  0.6833 -0.8137  0.5439
  843MPD2    C112438   0.672   0.606  17.522  0.7337 -0.2570  0.3958
  843MPD2    C212439   0.754   0.701  17.576 -0.0612 -0.3873  0.0013
  843MPD2    C312440   0.825   0.671  17.697  0.5135  0.5345 -0.4947
  843MPD2    C412441   0.812   0.545   0.005  0.1915 -0.3942  0.6510
  843MPD2    C512442   0.725   0.449  17.702 -0.0380  0.5321  0.4545
  843MPD2     H12443   0.775   0.793  17.523  1.3043 -1.0217 -0.5560
  843MPD2    H112444   0.855   0.528   0.103  3.0567 -0.5543 -0.6363
  843MPD2    H212445   0.591   0.403  17.540 -0.2943 -0.0088  0.6042
  843MPD2    H312446   0.717   0.357   0.014  0.6143  1.0991  1.4685
  843MPD2     N12447   0.909   0.766   0.022  0.5770  0.5794 -0.3257
  843MPD2    H512448   0.954   0.746   0.111 -3.1199 -3.9351  0.5066
  843MPD2    N112449   0.600   0.613  17.398 -0.5714  0.3174  0.2267
  843MPD2    H712450   0.542   0.533  17.376  1.6251 -1.1200 -0.2360
  844MPD2     C12451   4.200   3.585  16.199 -0.4321  0.2227  0.0766
  844MPD2    C112452   4.196   3.684  16.098  0.0406 -0.2134  0.0365
  844MPD2    C212453   4.251   3.807  16.123  0.5713  0.0426  0.6422
  844MPD2    C312454   4.309   3.833  16.245 -0.0201 -0.0104 -0.1976
  844MPD2    C412455   4.313   3.734  16.341 -0.0711 -1.2286  0.4524
  844MPD2    C512456   4.258   3.608  16.321 -0.6758 -0.4368 -0.0380
  844MPD2     H12457   4.257   3.880  16.044 -2.4584 -1.3231 -0.8612
  844MPD2    H112458   4.362   3.753  16.436 -1.2509  3.3209  0.1413
  844MPD2    H212459   4.140   3.495  16.197  1.0571 -0.7346 -1.2129
  844MPD2    H312460   4.260   3.529  16.395 -1.1256 -0.4320 -0.0166
  844MPD2     N12461   4.368   3.959  16.271 -0.5122  0.4387 -0.2644
  844MPD2    H512462   4.420   3.963  16.358  1.3252  2.2953 -1.4580
  844MPD2    N112463   4.119   3.656  15.980  0.2695 -1.1223  0.2243
  844MPD2    H712464   4.108   3.728  15.909  0.1244 -0.0140  1.3795
  845MPD2     C12465   4.328   0.298  16.430  0.1054  0.4152 -0.1281
  845MPD2    C112466   4.382   0.228  16.537 -0.3669 -0.2394 -0.5496
  845MPD2    C212467   4.423   0.098  16.515  0.2337  0.5483  0.0018
  845MPD2    C312468   4.409   0.038  16.394 -0.0967 -0.5682  0.4177
  845MPD2    C412469   4.346   0.105  16.290  0.2020 -0.1954 -0.9102
  845MPD2    C512470   4.313   0.234  16.307 -1.2614  0.0484  0.4031
  845MPD2     H12471   4.467   0.026  16.583  2.0258  0.7247 -0.9902
  845MPD2    H112472   4.321   0.062  16.193 -1.5755 -2.6206  0.6264
  845MPD2    H212473   4.312   0.404  16.442  1.2968  0.4737  0.8656
  845MPD2    H312474   4.259   0.284  16.228 -0.3022  0.1978 -0.1587
  845MPD2     N12475   4.438   4.637  16.385 -0.5659 -0.2786 -0.1183
  845MPD2    H512476   4.468   4.589  16.470 -0.7098  2.6025  1.5598
  845MPD2    N112477   4.385   0.288  16.664 -0.1712 -0.2188 -0.1118
  845MPD2    H712478   4.355   0.384  16.667 -1.8765 -0.7088 -1.4153
  846MPD2     C12479   1.084   0.443  13.530 -0.0443  0.2817 -0.5007
  846MPD2    C112480   0.989   0.541  13.536  0.1000 -0.1743  0.0737
  846MPD2    C212481   0.935   0.587  13.656  0.5226  0.5739  0.7803
  846MPD2    C312482   0.978   0.537  13.780 -0.2999  0.1597 -0.4242
  846MPD2    C412483   1.076   0.441  13.771  0.2353 -0.5381 -0.0490
  846MPD2    C512484   1.128   0.400  13.649  0.2917  0.0386 -1.0006
  846MPD2     H12485   0.852   0.656  13.647  1.8250  1.8600 -1.2956
  846MPD2    H112486   1.104   0.379  13.855  1.0108 -0.0224  0.0723
  846MPD2    H212487   1.121   0.397  13.440  1.0422  1.6774 -0.7582
  846MPD2    H312488   1.201   0.320  13.651 -0.0481 -0.2462 -0.2410
  846MPD2     N12489   0.920   0.586  13.903  0.0688  0.6604  0.1106
  846MPD2    H512490   0.837   0.645  13.900 -0.6725 -0.3481  0.5616
  846MPD2    N112491   0.946   0.609  13.418  0.0412  0.2993  0.4665
  846MPD2    H712492   0.872   0.678  13.430  0.0560  0.6657 -1.5770
  847MPD2     C12493   1.211   1.620  13.866  0.0936  0.4038 -0.7993
  847MPD2    C112494   1.228   1.734  13.946  0.0303 -0.4100  0.7900
  847MPD2    C212495   1.334   1.735  14.033 -0.6780  0.8464 -0.5702
  847MPD2    C312496   1.414   1.627  14.048  0.0654 -0.4840  0.6170
  847MPD2    C412497   1.389   1.510  13.985 -0.8807  0.2753 -0.4058
  847MPD2    C512498   1.297   1.514  13.885  0.0795  0.1976 -0.0796
  847MPD2     H12499   1.349   1.825  14.091  0.1792  0.2699  0.1076
  847MPD2    H112500   1.450   1.420  13.990 -1.1660  0.0118 -1.5100
  847MPD2    H212501   1.136   1.611  13.788 -0.7853 -0.4877  0.1646
  847MPD2    H312502   1.288   1.429  13.819  1.1158 -0.1293  0.2039
  847MPD2     N12503   1.503   1.648  14.159 -0.1499  0.5177 -0.2834
  847MPD2    H512504   1.508   1.740  14.201  0.1144 -0.2888  1.4981
  847MPD2    N112505   1.142   1.839  13.945  0.1269 -0.3916 -0.1793
  847MPD2    H712506   1.134   1.878  14.039 -0.4731  0.3159 -0.5257
  848MPD2     C12507   4.038   4.733  15.822 -0.2764 -0.2046  0.1704
  848MPD2    C112508   4.020   0.019  15.955 -0.2852 -0.0197  0.0158
  848MPD2    C212509   4.006   0.154  16.007  0.3220  0.0007 -0.0762
  848MPD2    C312510   3.982   0.255  15.916  1.0239  0.1420  0.1011
  848MPD2    C412511   3.976   0.224  15.780  0.0741 -0.0542  0.6826
  848MPD2    C512512   4.014   0.100  15.736 -0.8390 -0.4620 -0.0638
  848MPD2     H12513   4.009   0.180  16.112  1.0230  2.4173 -0.6976
  848MPD2    H112514   3.960   0.305  15.710  0.5782 -0.9553 -0.4813
  848MPD2    H212515   4.037   4.634  15.778 -1.7945 -0.7498  1.4647
  848MPD2    H312516   4.017   0.091  15.628 -1.4203 -2.9037  0.1298
  848MPD2     N12517   3.947   0.388  15.958  0.2769 -0.2876 -0.0654
  848MPD2    H512518   3.907   0.455  15.893 -1.5504 -1.6860 -0.4082
  848MPD2    N112519   4.013   4.649  16.049 -0.0168 -0.3459  0.1419
  848MPD2    H712520   4.042   4.667  16.145  1.9392 -0.7938 -0.3604
  849MPD2     C12521   2.775   4.550  14.789  0.4423 -0.4240  0.6886
  849MPD2    C112522   2.851   4.525  14.679  0.3584  0.4198 -0.0761
  849MPD2    C212523   2.961   4.444  14.688 -0.7209 -0.2239 -0.6935
  849MPD2    C312524   2.979   4.369  14.806 -0.4254 -0.1722 -0.0633
  849MPD2    C412525   2.909   4.404  14.922  0.1790 -0.3558  0.0559
  849MPD2    C512526   2.801   4.491  14.913 -0.1202 -0.1357 -0.1186
  849MPD2     H12527   3.016   4.425  14.597 -3.1590  1.0047 -2.4378
  849MPD2    H112528   2.927   4.351  15.015  0.3575  1.5516  1.1006
  849MPD2    H212529   2.680   4.599  14.775  0.3325 -0.0684  2.6117
  849MPD2    H312530   2.732   4.497  14.996  1.1511  1.7076  0.8071
  849MPD2     N12531   3.084   4.268  14.813 -0.0173 -0.5391 -0.0066
  849MPD2    H512532   3.112   4.224  14.900  3.8378 -1.2574 -1.6485
  849MPD2    N112533   2.822   4.582  14.551  0.3946  0.2186  0.1469
  849MPD2    H712534   2.888   4.558  14.477 -0.6675 -0.3369 -0.6196
  850MPD2     C12535   0.903   2.754  14.518 -0.5312  0.4809 -0.6674
  850MPD2    C112536   0.930   2.809  14.642 -0.9982 -0.0292  0.2249
  850MPD2    C212537   1.065   2.814  14.676 -0.5301  0.4455  0.0258
  850MPD2    C312538   1.162   2.764  14.598  0.2606  0.0586 -0.0968
  850MPD2    C412539   1.128   2.720  14.471 -0.2625  0.8637 -0.9985
  850MPD2    C512540   1.001   2.714  14.426  0.1383 -0.2372 -0.8744
  850MPD2     H12541   1.095   2.873  14.761 -0.2731  0.7422 -0.2714
  850MPD2    H112542   1.191   2.691  14.388  1.0066  1.4157 -0.2265
  850MPD2    H212543   0.800   2.750  14.486 -0.8025 -0.9253  0.4001
  850MPD2    H312544   0.980   2.676  14.327 -0.3249 -0.3705 -0.7234
  850MPD2     N12545   1.294   2.756  14.638  0.2750  0.1409  0.1988
  850MPD2    H512546   1.357   2.708  14.575  0.2005  0.9562 -0.5008
  850MPD2    N112547   0.816   2.866  14.710  0.4593  0.2030 -0.2573
  850MPD2    H712548   0.729   2.876  14.657  1.0691  0.0710 -1.2816
  851MPD2     C12549   1.471   2.659  15.235  0.0987  0.0256  0.6573
  851MPD2    C112550   1.357   2.620  15.169 -0.1838  0.2958 -0.6715
  851MPD2    C212551   1.351   2.489  15.105  0.1623  1.0798 -0.4256
  851MPD2    C312552   1.464   2.409  15.110  0.1778  0.0925 -0.4340
  851MPD2    C412553   1.572   2.447  15.180 -0.3910 -0.6580 -0.7574
  851MPD2    C512554   1.578   2.566  15.241  0.0829  0.5208 -0.4904
  851MPD2     H12555   1.263   2.459  15.049  0.5574 -3.5242  1.4255
  851MPD2    H112556   1.663   2.388  15.186 -0.6911 -1.0445  0.0124
  851MPD2    H212557   1.485   2.754  15.285  0.9203  0.0712  0.3449
  851MPD2    H312558   1.668   2.595  15.294 -0.0471  1.1911 -0.6291
  851MPD2     N12559   1.457   2.289  15.039 -0.1541  0.1315 -0.7396
  851MPD2    H512560   1.368   2.263  14.998 -0.6454  1.8984 -0.8019
  851MPD2    N112561   1.247   2.707  15.165  0.3133  0.5842  0.3351
  851MPD2    H712562   1.273   2.801  15.191  1.7104  0.0750  0.7840
  852MPD2     C12563   0.628   0.450   9.620  0.0115  0.2355  0.0564
  852MPD2    C112564   0.688   0.475   9.743  0.0318 -0.1382 -0.1959
  852MPD2    C212565   0.795   0.560   9.752 -0.3625  0.6008 -0.4625
  852MPD2    C312566   0.831   0.645   9.651  0.5314 -0.5021  0.1840
  852MPD2    C412567   0.773   0.635   9.532 -0.4897 -0.0927 -0.0316
  852MPD2    C512568   0.677   0.528   9.517  0.6045 -0.1225  0.1767
  852MPD2     H12569   0.851   0.573   9.844 -1.7157  2.4148  0.1300
  852MPD2    H112570   0.800   0.685   9.441 -0.9820  0.9332  0.3896
  852MPD2    H212571   0.565   0.364   9.598  2.9006 -1.8628 -0.0529
  852MPD2    H312572   0.627   0.507   9.423 -1.4655  1.5498  0.8989
  852MPD2     N12573   0.942   0.734   9.682  0.4084 -0.0588  0.2570
  852MPD2    H512574   0.982   0.731   9.776  0.4722  0.0037  0.2322
  852MPD2    N112575   0.670   0.388   9.858  0.1712 -0.3939 -0.0476
  852MPD2    H712576   0.728   0.407   9.940  1.2105  0.0656 -0.8866
  853MPD2     C12577   2.964   0.777  11.708  0.2167  0.0971 -0.1486
  853MPD2    C112578   2.827   0.807  11.694 -0.1695  0.2311  0.1765
  853MPD2    C212579   2.781   0.825  11.567  0.0964 -0.8674 -0.1215
  853MPD2    C312580   2.867   0.796  11.459  0.1132 -0.7051  0.7710
  853MPD2    C412581   3.000   0.767  11.480 -0.3092  0.7763 -0.4379
  853MPD2    C512582   3.044   0.756  11.608 -0.6172  0.6680  0.1894
  853MPD2     H12583   2.681   0.857  11.542  0.0443  0.2051  1.4279
  853MPD2    H112584   3.076   0.736  11.409  1.3186 -1.5555  2.3659
  853MPD2    H212585   2.997   0.766  11.811  3.6476 -1.7791 -1.4452
  853MPD2    H312586   3.147   0.725  11.625 -0.7782  0.7962  1.3929
  853MPD2     N12587   2.827   0.786  11.327 -0.2814 -0.1242  0.4748
  853MPD2    H512588   2.897   0.745  11.265  0.5808 -0.0762  1.4163
  853MPD2    N112589   2.745   0.814  11.809 -0.2666  0.5451 -0.6234
  853MPD2    H712590   2.780   0.790  11.901  3.8364  0.6596 -2.1825
  854MPD2     C12591   4.296   4.618  12.323 -0.2689 -0.0496 -0.0584
  854MPD2    C112592   4.313   4.733  12.403  0.3620 -0.1818 -0.3421
  854MPD2    C212593   4.418   0.005  12.489 -0.3668  0.3726 -0.5247
  854MPD2    C312594   4.520   4.646  12.474  0.5395  0.2010 -0.3869
  854MPD2    C412595   4.504   4.540  12.389  0.2237  0.0225 -0.0140
  854MPD2    C512596   4.389   4.520  12.321 -0.4909 -0.9804  0.6522
  854MPD2     H12597   4.437   0.094  12.549  0.2397  0.6793 -1.1652
  854MPD2    H112598   4.580   4.463  12.381  0.3230 -0.0291  1.3365
  854MPD2    H212599   4.215   4.606  12.251  0.1902 -1.3843 -0.3628
  854MPD2    H312600   4.385   4.436  12.252  1.9787 -1.8654  1.5795
  854MPD2     N12601   4.638   4.655  12.556  0.4133  0.0447 -0.5572
  854MPD2    H512602   4.701   4.576  12.550 -1.0292 -1.2650  1.7230
  854MPD2    N112603   4.236   0.113  12.378 -0.1168  0.0445  0.1933
  854MPD2    H712604   4.172   0.113  12.299  0.8274  1.1170 -0.5709
  855MPD2     C12605   4.673   0.025  13.508  0.1676  0.7306 -0.3727
  855MPD2    C112606   0.010   4.654  13.459  0.2714  0.0016  0.9937
  855MPD2    C212607   0.067   4.655  13.330 -0.3034 -0.0339 -0.2718
  855MPD2    C312608   0.043   0.029  13.243  0.6732 -0.7069 -0.3002
  855MPD2    C412609   4.698   0.130  13.294  0.7430 -0.1066 -0.1363
  855MPD2    C512610   4.656   0.126  13.423  0.0403 -0.0635 -0.2552
  855MPD2     H12611   0.112   4.560  13.303  2.6978  1.7936 -1.6674
  855MPD2    H112612   4.670   0.221  13.243  0.4300  0.0782  0.3676
  855MPD2    H212613   4.623   0.018  13.603 -0.6243 -1.7505 -0.9530
  855MPD2    H312614   4.614   0.218  13.463  1.9031  0.5089  0.3733
  855MPD2     N12615   0.085   0.036  13.109  0.1716  0.4886 -0.4575
  855MPD2    H512616   0.061   0.120  13.057  1.2848  0.9968 -0.1505
  855MPD2    N112617   0.024   4.535  13.532  0.7308  0.4694  0.2395
  855MPD2    H712618   0.079   4.466  13.483  0.9553  1.7140 -1.2532
  856MPD2     C12619   1.800   1.032  13.338 -0.2536  0.4021  0.2829
  856MPD2    C112620   1.866   1.154  13.351 -0.4930 -0.4533  0.7961
  856MPD2    C212621   1.791   1.266  13.385  1.1685 -0.3837 -0.2470
  856MPD2    C312622   1.655   1.258  13.415  0.5831  0.2271 -0.5384
  856MPD2    C412623   1.599   1.130  13.416  0.6130  0.2138  0.1951
  856MPD2    C512624   1.669   1.019  13.374  0.0898 -0.1505  0.1263
  856MPD2     H12625   1.845   1.361  13.382  0.8533 -0.2322 -0.9912
  856MPD2    H112626   1.500   1.113  13.456  1.0699  0.1019  1.2777
  856MPD2    H212627   1.853   0.947  13.297 -1.0148 -0.0706  0.2742
  856MPD2    H312628   1.616   0.925  13.377 -1.4978  0.7762  0.9429
  856MPD2     N12629   1.586   1.372  13.454  0.3238  0.7401  0.1026
  856MPD2    H512630   1.494   1.350  13.491  0.5590  3.7297  2.4168
  856MPD2    N112631   2.005   1.167  13.338  0.2418 -0.5376 -0.2456
  856MPD2    H712632   2.040   1.261  13.349 -0.1923 -0.4440  0.3558
  857MPD2     C12633   4.119   2.698  13.085 -0.3888  0.4830  0.5229
  857MPD2    C112634   4.150   2.799  12.994 -0.5220 -0.0834 -0.7012
  857MPD2    C212635   4.233   2.899  13.044  0.3923  0.1170  0.1790
  857MPD2    C312636   4.277   2.898  13.175  0.4163  0.6795 -0.5676
  857MPD2    C412637   4.238   2.797  13.257  0.2128 -0.1020  0.1671
  857MPD2    C512638   4.160   2.698  13.207 -0.1938 -0.5452  0.5052
  857MPD2     H12639   4.274   2.973  12.976 -0.0750 -0.0156 -0.2470
  857MPD2    H112640   4.272   2.787  13.359 -1.7987  2.2392  1.0534
  857MPD2    H212641   4.062   2.613  13.048  1.6567 -1.8471  2.7210
  857MPD2    H312642   4.132   2.613  13.269  1.4502 -0.1721  1.7515
  857MPD2     N12643   4.363   3.003  13.212 -0.2561  0.4068  0.6105
  857MPD2    H512644   4.378   3.078  13.145  0.5524 -1.0648 -0.8479
  857MPD2    N112645   4.103   2.797  12.866 -0.2369  0.2172  0.1630
  857MPD2    H712646   4.033   2.728  12.843 -0.7650  0.3085  1.5221
  858MPD2     C12647   4.714   2.315  16.478  0.3879  0.0571 -0.0357
  858MPD2    C112648   4.629   2.218  16.486  0.3173 -0.1402 -0.1981
  858MPD2    C212649   4.562   2.189  16.610 -0.1442 -0.0687  0.3038
  858MPD2    C312650   4.584   2.274  16.719 -0.3922  0.0316 -0.6308
  858MPD2    C412651   4.665   2.380  16.705 -0.0429 -1.1973  0.3086
  858MPD2    C512652   4.731   2.396  16.586 -0.3028 -0.3085  0.0382
  858MPD2     H12653   4.502   2.101  16.630  0.3112 -0.4363  0.0477
  858MPD2    H112654   4.680   2.449  16.787  0.9235 -1.8955  0.7123
  858MPD2    H212655   0.049   2.324  16.397  1.8922 -2.2058  1.0403
  858MPD2    H312656   0.073   2.471  16.575 -0.3529  0.2826  3.7694
  858MPD2     N12657   4.511   2.261  16.840  0.0175 -0.3410 -0.4204
  858MPD2    H512658   4.524   2.333  16.910  2.6125 -0.6069 -0.6487
  858MPD2    N112659   4.617   2.133  16.377 -0.2285 -0.4615  0.0481
  858MPD2    H712660   4.667   2.155  16.291 -0.1067 -2.4893 -0.3957
  859MPD2     C12661   3.116   4.407  15.587 -0.1387  0.4280 -0.1482
  859MPD2    C112662   3.114   4.346  15.466  0.9805  0.3681  0.0843
  859MPD2    C212663   3.091   4.212  15.449 -0.6551 -0.0778  0.6565
  859MPD2    C312664   3.057   4.133  15.561  0.4043  0.1314  0.0286
  859MPD2    C412665   3.053   4.197  15.682 -0.1810 -0.3141 -0.0915
  859MPD2    C512666   3.087   4.327  15.697 -0.2342 -0.2780 -0.2885
  859MPD2     H12667   3.088   4.171  15.348 -0.9630 -1.6486  1.2978
  859MPD2    H112668   3.017   4.152  15.774 -0.2847  1.3971  0.7003
  859MPD2    H212669   3.141   4.509  15.612 -0.8051  0.5647 -0.0429
  859MPD2    H312670   3.085   4.371  15.796  1.0002  1.7046 -1.1291
  859MPD2     N12671   3.027   3.997  15.560  0.2195 -0.0234  0.0641
  859MPD2    H512672   3.005   3.955  15.649  0.4645 -1.9346 -0.7803
  859MPD2    N112673   3.156   4.441  15.364 -0.4037 -0.4225  0.1822
  859MPD2    H712674   3.185   4.536  15.384 -1.2649 -0.4030  1.3454
  860MPD2     C12675   1.183   0.040  11.402  0.4248  0.5839 -0.2238
  860MPD2    C112676   1.186   0.035  11.545  0.6691 -0.5586 -0.1530
  860MPD2    C212677   1.074   0.003  11.611  0.8831  0.4444  0.3308
  860MPD2    C312678   0.957   4.721  11.541 -0.4333 -0.2640  1.1261
  860MPD2    C412679   0.951   4.736  11.404 -1.1177  0.3264 -0.0580
  860MPD2    C512680   1.067   0.035  11.336  0.8469 -0.3131 -0.2203
  860MPD2     H12681   1.073   0.004  11.719  0.6834 -1.6857  0.3401
  860MPD2    H112682   0.862   4.718  11.344  1.2057 -1.6977 -2.9324
  860MPD2    H212683   1.268   0.065  11.339  1.4232 -0.6398  0.6425
  860MPD2    H312684   1.070   0.042  11.228 -0.3840 -0.8649 -0.2971
  860MPD2     N12685   0.849   4.678  11.621 -0.5345  0.0437 -0.0782
  860MPD2    H512686   0.867   4.669  11.720 -2.2179  0.9070  0.2949
  860MPD2    N112687   1.301   0.051  11.628 -0.0772 -0.2663 -0.0579
  860MPD2    H712688   1.301   0.014  11.723 -3.6353 -2.0275 -0.7407
  861MPD2     C12689   4.161   2.452  10.672 -0.7723 -0.0152  0.5355
  861MPD2    C112690   4.092   2.513  10.776 -0.1849 -0.1253 -0.2965
  861MPD2    C212691   3.973   2.588  10.746 -0.4128 -1.0661  0.0632
  861MPD2    C312692   3.926   2.588  10.616  0.0449  0.5118  0.0694
  861MPD2    C412693   3.995   2.519  10.517  0.5773  0.2088 -0.1077
  861MPD2    C512694   4.107   2.449  10.550  0.1711 -0.2675 -0.0297
  861MPD2     H12695   3.926   2.648  10.823  1.0501  0.8467 -0.5347
  861MPD2    H112696   3.962   2.521  10.414  1.2496  1.1610 -0.3097
  861MPD2    H212697   4.261   2.413  10.687 -0.7921 -1.3439 -2.6904
  861MPD2    H312698   4.160   2.402  10.468 -0.8455  0.2274 -0.9569
  861MPD2     N12699   3.817   2.669  10.568  0.4049 -0.4694 -0.3374
  861MPD2    H512700   3.813   2.674  10.466 -2.1454 -0.1283 -0.2344
  861MPD2    N112701   4.141   2.520  10.908 -0.3783 -0.0041  0.2893
  861MPD2    H712702   4.082   2.575  10.970 -0.8420  0.7787 -0.8578
  862MPD2     C12703   3.365   2.841  10.030  0.5359  0.0045  0.1803
  862MPD2    C112704   3.409   2.762  10.130  0.6308 -0.0878 -1.0827
  862MPD2    C212705   3.395   2.621  10.124  0.6595  0.0244 -1.0242
  862MPD2    C312706   3.330   2.568  10.017  0.1749 -0.2909 -0.6005
  862MPD2    C412707   3.284   2.655   9.918 -0.6466  0.1730 -0.6603
  862MPD2    C512708   3.303   2.789   9.926 -0.4229  0.2076  0.2862
  862MPD2     H12709   3.435   2.549  10.195  0.6448  0.7339 -0.2997
  862MPD2    H112710   3.233   2.625   9.827 -1.6847  0.6060 -0.2308
  862MPD2    H212711   3.364   2.949  10.025  1.3887 -0.0008 -0.1851
  862MPD2    H312712   3.263   2.857   9.851 -2.5007 -1.2722  0.0500
  862MPD2     N12713   3.306   2.432  10.009 -0.1223 -0.3914  0.4199
  862MPD2    H512714   3.348   2.378  10.085 -0.9458 -0.4138  0.8586
  862MPD2    N112715   3.476   2.811  10.246  0.9101 -0.3284  0.4254
  862MPD2    H712716   3.485   2.745  10.323 -1.3912  0.0249  0.9717
  863MPD2     C12717   2.701   0.519  16.724  0.2567 -0.4729 -0.2659
  863MPD2    C112718   2.771   0.638  16.718 -0.3353 -0.6841  0.0603
  863MPD2    C212719   2.873   0.667  16.815 -0.0975  0.0801 -0.2123
  863MPD2    C312720   2.895   0.580  16.922 -1.0165  0.0730  0.5017
  863MPD2    C412721   2.830   0.461  16.918  0.0207 -0.8612 -0.1782
  863MPD2    C512722   2.751   0.425  16.812 -0.1009 -0.4468 -0.4263
  863MPD2     H12723   2.925   0.761  16.813 -0.8338  0.4660 -1.6514
  863MPD2    H112724   2.833   0.383  16.994  2.5492  0.1617  0.7668
  863MPD2    H212725   2.636   0.473  16.651  0.5866  0.2462 -1.0226
  863MPD2    H312726   2.696   0.332  16.806  0.7636 -1.0189  0.5110
  863MPD2     N12727   2.982   0.607  17.027 -0.3009 -0.0128  0.5919
  863MPD2    H512728   2.992   0.538  17.100  0.5631 -1.7337 -1.1487
  863MPD2    N112729   2.736   0.731  16.614 -0.4374 -0.0522  0.2040
  863MPD2    H712730   2.667   0.700  16.546 -0.6705 -0.3750  0.5854
  864MPD2     C12731   3.094   1.931  17.081 -0.6483  0.5867 -0.2787
  864MPD2    C112732   3.203   1.863  17.028  0.4898 -0.4738 -0.0568
  864MPD2    C212733   3.302   1.946  16.972 -0.2913  0.6206  1.0529
  864MPD2    C312734   3.301   2.088  16.988 -0.0716  0.8800 -0.0060
  864MPD2    C412735   3.197   2.150  17.044  0.3013 -0.3093 -0.4605
  864MPD2    C512736   3.095   2.070  17.085 -0.3970  1.0837 -0.7936
  864MPD2     H12737   3.390   1.892  16.937 -0.5581  1.4127 -0.8469
  864MPD2    H112738   3.191   2.258  17.056  2.4112 -0.3663  1.0589
  864MPD2    H212739   3.005   1.882  17.120 -0.3331  0.5073  0.3403
  864MPD2    H312740   3.016   2.127  17.132 -2.7551 -1.7491 -1.3990
  864MPD2     N12741   3.399   2.168  16.935 -0.9345  0.4141 -0.1533
  864MPD2    H512742   3.406   2.266  16.959  1.3603 -0.0529  1.1039
  864MPD2    N112743   3.196   1.720  17.017 -0.5305  0.5335  0.1056
  864MPD2    H712744   3.117   1.669  17.055 -0.2542  0.4576  0.5714
  865MPD2     C12745   3.556   2.386  16.129  0.1196 -0.2668  0.0977
  865MPD2    C112746   3.571   2.270  16.194  0.6608 -0.3167  0.0346
  865MPD2    C212747   3.578   2.276  16.328 -0.1390 -1.0831 -0.4604
  865MPD2    C312748   3.563   2.392  16.402  0.5767 -0.0542  0.0161
  865MPD2    C412749   3.552   2.512  16.336 -0.9257  0.0999 -0.0443
  865MPD2    C512750   3.553   2.502  16.195 -0.6252 -0.7816  0.0885
  865MPD2     H12751   3.578   2.190  16.394  0.5134 -2.2142 -1.9709
  865MPD2    H112752   3.539   2.607  16.386 -0.0844  0.4480 -0.4781
  865MPD2    H212753   3.545   2.390  16.021  5.1938 -0.5239 -0.4566
  865MPD2    H312754   3.548   2.586  16.127  1.5386  0.0986  1.0385
  865MPD2     N12755   3.572   2.388  16.538  0.0805 -0.0671 -0.3912
  865MPD2    H512756   3.594   2.297  16.579  1.6387  0.1248 -0.8079
  865MPD2    N112757   3.560   2.154  16.113  0.0466  0.0360  0.4960
  865MPD2    H712758   3.571   2.170  16.013 -2.2731 -1.4621 -0.0025
  866MPD2     C12759   0.120   3.074  10.392  0.6031 -0.2203  0.1630
  866MPD2    C112760   0.072   2.942  10.405 -0.4124  0.6911  0.2425
  866MPD2    C212761   4.677   2.914  10.444 -0.2828  0.2683 -0.4482
  866MPD2    C312762   4.592   3.017  10.480  0.3472 -0.2054 -0.7731
  866MPD2    C412763   4.642   3.144  10.475 -0.3807  0.2288 -0.5558
  866MPD2    C512764   0.033   3.172  10.432  0.3276  0.3060  0.1623
  866MPD2     H12765   4.642   2.812  10.436  1.2992 -0.1630 -1.8780
  866MPD2    H112766   4.585   3.227  10.516  1.4798  0.5975  1.2783
  866MPD2    H212767   0.224   3.100  10.382  1.0481 -2.0071  0.0536
  866MPD2    H312768   0.069   3.274  10.442 -2.4337  1.1916  1.0495
  866MPD2     N12769   4.459   2.998  10.520 -0.4756  0.9635 -0.0433
  866MPD2    H512770   4.401   3.082  10.523 -1.8103  0.0355  0.3760
  866MPD2    N112771   0.170   2.850  10.366 -0.1308 -0.1490  0.2154
  866MPD2    H712772   0.263   2.885  10.344 -0.6414  0.8876 -0.2798
  867MPD2     C12773   1.976   2.271  16.550 -0.5338  0.5566  0.0555
  867MPD2    C112774   2.095   2.233  16.618 -0.1088  0.3038 -0.1332
  867MPD2    C212775   2.186   2.327  16.654  0.3716  0.4000 -0.0205
  867MPD2    C312776   2.169   2.457  16.606 -0.3698  0.0359  0.6298
  867MPD2    C412777   2.061   2.492  16.536 -0.6026  0.6139  0.1269
  867MPD2    C512778   1.959   2.400  16.513  0.3276  0.1176  0.3643
  867MPD2     H12779   2.276   2.292  16.702  1.6384  1.7109 -1.4621
  867MPD2    H112780   2.053   2.593  16.497  0.5883  0.5095 -0.4027
  867MPD2    H212781   1.906   2.197  16.513  0.1898 -1.1580  2.0876
  867MPD2    H312782   1.880   2.423  16.442  0.1701  1.8734  1.1015
  867MPD2     N12783   2.272   2.553  16.637  0.1553  0.9186  0.0413
  867MPD2    H512784   2.267   2.646  16.597 -2.5119  1.3425  1.3668
  867MPD2    N112785   2.106   2.091  16.635 -0.2732  0.2767 -0.3211
  867MPD2    H712786   2.024   2.037  16.610 -1.3830  0.5137  2.7842
  868MPD2     C12787   4.033   1.752  13.098  0.0340  0.2054  0.5114
  868MPD2    C112788   4.005   1.652  13.183 -0.1855 -0.1218  0.4549
  868MPD2    C212789   3.936   1.673  13.300 -0.6065  0.0176  0.8708
  868MPD2    C312790   3.890   1.798  13.329  0.6315 -0.0656  0.0387
  868MPD2    C412791   3.905   1.897  13.235  0.5624 -0.6284  0.3008
  868MPD2    C512792   3.977   1.870  13.119 -0.4840  0.3625 -0.4415
  868MPD2     H12793   3.922   1.602  13.380  1.2464 -1.0503  0.2476
  868MPD2    H112794   3.861   1.995  13.245  1.7924 -0.0772  0.2716
  868MPD2    H212795   4.092   1.731  13.010  0.6479 -0.3247  1.0474
  868MPD2    H312796   3.974   1.943  13.039  1.0226 -3.6156 -4.0590
  868MPD2     N12797   3.833   1.815  13.457 -0.0269  0.4036  0.3086
  868MPD2    H512798   3.849   1.740  13.523  3.3705  2.4344  1.8261
  868MPD2    N112799   4.066   1.529  13.153  0.6332  0.0940  0.2481
  868MPD2    H712800   4.111   1.516  13.062 -1.9885 -1.1902 -0.8737
  869MPD2     C12801   0.130   4.016   0.185 -0.8284 -0.2765  0.2051
  869MPD2    C112802   0.110   4.023   0.051 -0.5497  0.3006  0.2752
  869MPD2    C212803   0.180   4.125  17.725 -0.2829  0.4211 -0.2126
  869MPD2    C312804   0.253   4.218   0.058 -0.8146  0.4486 -0.3544
  869MPD2    C412805   0.263   4.211   0.193 -0.0458  0.8713 -0.4058
  869MPD2    C512806   0.204   4.099   0.255 -0.4734 -0.3703 -0.1342
  869MPD2     H12807   0.158   4.140  17.619 -0.6957 -0.6608 -0.2744
  869MPD2    H112808   0.306   4.287   0.258  0.2189  1.6467 -1.4939
  869MPD2    H212809   0.074   3.943   0.241 -0.6816  0.4870  1.3391
  869MPD2    H312810   0.210   4.081   0.361 -3.2688  0.9514  0.2463
  869MPD2     N12811   0.318   4.330  17.742  0.6027  0.5481  0.6963
  869MPD2    H512812   0.369   4.391   0.059  1.3967  1.4283 -0.8119
  869MPD2    N112813   0.027   3.925  17.740 -0.1573  0.0385  0.3766
  869MPD2    H712814   0.002   3.848   0.057 -1.9753  0.2431 -0.1022
  870MPD2     C12815   1.076   3.439   0.742 -0.3037  0.2669 -0.1028
  870MPD2    C112816   0.978   3.341   0.726  0.2050  0.8587 -0.8870
  870MPD2    C212817   0.845   3.370   0.755 -0.3174  0.3609  0.2212
  870MPD2    C312818   0.814   3.482   0.828 -0.3184 -0.5549  0.1080
  870MPD2    C412819   0.912   3.583   0.843  0.0766  0.3017  0.1817
  870MPD2    C512820   1.039   3.562   0.789  0.5917 -0.2930  0.4960
  870MPD2     H12821   0.774   3.294   0.725  3.4869 -3.2719  0.4025
  870MPD2    H112822   0.907   3.678   0.894  0.2782  1.1166 -1.3116
  870MPD2    H212823   1.179   3.416   0.716  0.3187  1.8050  0.9754
  870MPD2    H312824   1.106   3.646   0.804  0.6278 -0.2281 -0.0343
  870MPD2     N12825   0.681   3.501   0.877  0.5106 -0.2331  0.5624
  870MPD2    H512826   0.617   3.424   0.858  0.2600  0.1683 -0.2189
  870MPD2    N112827   1.012   3.229   0.650  0.0430  0.4242  0.2120
  870MPD2    H712828   1.110   3.211   0.634  0.3413  0.9000  1.5671
  871MPD2     C12829   1.133   2.495  16.241 -0.0925 -0.2405  0.8676
  871MPD2    C112830   1.177   2.475  16.376  0.2477 -0.1446 -0.2766
  871MPD2    C212831   1.258   2.362  16.402  0.5623 -0.3113  0.0114
  871MPD2    C312832   1.286   2.266  16.298  0.2649 -0.1971 -0.0273
  871MPD2    C412833   1.232   2.288  16.172  0.4644 -0.3065  0.2626
  871MPD2    C512834   1.163   2.405  16.142  0.2056 -0.1234  0.2373
  871MPD2     H12835   1.303   2.346  16.499  1.7719 -1.4395 -0.7283
  871MPD2    H112836   1.243   2.218  16.090 -1.3984 -0.6501  0.3087
  871MPD2    H212837   1.076   2.584  16.217 -1.2155 -0.9090  1.0877
  871MPD2    H312838   1.117   2.420  16.045  0.0409  0.2333  0.3708
  871MPD2     N12839   1.344   2.144  16.338 -0.2590  0.4034 -0.4203
  871MPD2    H512840   1.353   2.120  16.436 -1.8224  0.2437 -0.3007
  871MPD2    N112841   1.150   2.576  16.474  0.0665  0.7939 -0.0318
  871MPD2    H712842   1.098   2.658  16.446  0.3397  1.8872  2.6267
  872MPD2     C12843   1.847   4.675  13.821  0.2233 -0.8883  0.1675
  872MPD2    C112844   1.792   0.059  13.806 -0.6203 -0.0176  0.2311
  872MPD2    C212845   1.667   0.083  13.863 -0.1473  0.6265 -0.1530
  872MPD2    C312846   1.613   4.730  13.955 -0.4403 -0.4152 -0.2315
  872MPD2    C412847   1.672   4.607  13.960 -0.4557 -0.3728 -0.5149
  872MPD2    C512848   1.786   4.573  13.888 -0.7008 -0.1190  0.2489
  872MPD2     H12849   1.616   0.175  13.837 -0.8560  0.3108  0.1087
  872MPD2    H112850   1.631   4.524  14.017  1.5256 -0.0689  1.3450
  872MPD2    H212851   1.941   4.651  13.772  0.6430  0.9393  0.0700
  872MPD2    H312852   1.815   4.469  13.885 -0.4149 -0.0150 -0.8723
  872MPD2     N12853   1.501   0.015  14.030  0.4018 -0.1643  0.2864
  872MPD2    H512854   1.485   4.692  14.110 -2.4921 -0.5752 -0.5675
  872MPD2    N112855   1.850   0.164  13.736 -0.0680  0.5224 -0.6443
  872MPD2    H712856   1.796   0.250  13.727 -1.5675 -0.4390 -0.8899
  873MPD2     C12857   3.755   0.603   0.570 -0.2622  0.0411  0.0589
  873MPD2    C112858   3.889   0.608   0.569 -0.1192  0.3709 -0.1105
  873MPD2    C212859   3.956   0.549   0.458 -0.2232 -0.2056 -0.4358
  873MPD2    C312860   3.880   0.486   0.360 -0.1557 -0.1030 -0.8607
  873MPD2    C412861   3.747   0.487   0.359 -0.6533 -0.0968 -0.2450
  873MPD2    C512862   3.681   0.544   0.465 -0.3487  0.1827  0.0109
  873MPD2     H12863   4.063   0.540   0.444 -0.0886 -1.4904  1.3930
  873MPD2    H112864   3.698   0.419   0.291  0.0595 -0.1154 -0.7445
  873MPD2    H212865   3.694   0.644   0.650 -0.2760 -1.5873  0.8705
  873MPD2    H312866   3.576   0.528   0.488 -0.3186  0.2130  0.1713
  873MPD2     N12867   3.945   0.415   0.253  0.2329  0.0703 -0.8868
  873MPD2    H512868   3.884   0.385   0.178  0.8252 -0.7416 -1.0321
  873MPD2    N112869   3.958   0.681   0.672  0.5994 -0.5987 -0.1229
  873MPD2    H712870   3.900   0.720   0.745 -1.6880  0.3753 -2.4691
  874MPD2     C12871   3.116   0.490  16.087 -0.5586  0.5829  0.0685
  874MPD2    C112872   3.209   0.406  16.149  0.3096 -0.4795 -0.0758
  874MPD2    C212873   3.338   0.449  16.144  0.1898  0.4184  0.0199
  874MPD2    C312874   3.382   0.554  16.069  0.9929 -0.4008 -0.7708
  874MPD2    C412875   3.290   0.638  16.010 -0.0679 -0.4564 -0.0567
  874MPD2    C512876   3.157   0.602  16.023 -0.0377 -0.0618  0.4330
  874MPD2     H12877   3.413   0.387  16.192  0.4637 -0.7119 -1.8832
  874MPD2    H112878   3.320   0.723  15.950  1.4141  0.4845  1.9998
  874MPD2    H212879   3.012   0.459  16.075 -1.1958  2.1368  1.4769
  874MPD2    H312880   3.075   0.644  15.965 -0.4940 -2.3780 -0.6183
  874MPD2     N12881   3.520   0.567  16.064 -0.7114 -0.2035  0.6269
  874MPD2    H512882   3.581   0.494  16.098 -3.2017 -1.8428  1.5739
  874MPD2    N112883   3.160   0.286  16.209  0.2716  0.5454 -0.3404
  874MPD2    H712884   3.062   0.264  16.192  0.1889  0.0313  0.8564
  875MPD2     C12885   4.545   3.455  14.339  0.6241 -0.6009  1.1929
  875MPD2    C112886   4.412   3.478  14.362  0.7133  0.6247  0.1048
  875MPD2    C212887   4.364   3.468  14.494 -0.6313 -0.6817  0.3773
  875MPD2    C312888   4.455   3.445  14.597 -0.1629 -0.7094  0.2286
  875MPD2    C412889   4.592   3.430  14.570  0.5030 -0.1839 -0.1879
  875MPD2    C512890   4.634   3.433  14.442  0.4588  0.3244 -0.4619
  875MPD2     H12891   4.258   3.491  14.507 -0.5498 -0.6562  1.0068
  875MPD2    H112892   4.660   3.418  14.654 -1.5537  1.6515  1.7604
  875MPD2    H212893   4.588   3.478  14.242  0.2223  0.5437  1.2871
  875MPD2    H312894   0.004   3.418  14.434  0.6119  1.5420 -0.5907
  875MPD2     N12895   4.423   3.457  14.732  0.5500  0.3021  0.5221
  875MPD2    H512896   4.502   3.459  14.795  1.0023 -4.2093  0.0796
  875MPD2    N112897   4.327   3.517  14.254 -0.4370  0.0563  0.4258
  875MPD2    H712898   4.231   3.550  14.265 -1.4488 -2.5586 -0.6222
  876MPD2     C12899   3.003   4.560  16.062 -0.0501  0.1851  0.0487
  876MPD2    C112900   3.136   4.572  16.040 -0.7170 -0.6816  0.4579
  876MPD2    C212901   3.212   4.456  16.077  0.1959 -0.1518 -0.1527
  876MPD2    C312902   3.153   4.335  16.103 -0.0166  0.6933  0.4275
  876MPD2    C412903   3.020   4.329  16.121 -0.2884  0.2007  0.0476
  876MPD2    C512904   2.945   4.443  16.103  0.1048 -0.6091  0.1439
  876MPD2     H12905   3.319   4.456  16.056  0.4951  0.5303  1.3528
  876MPD2    H112906   2.973   4.237  16.152  0.0351  0.0221  0.0008
  876MPD2    H212907   2.935   4.643  16.053  0.4747  0.5252 -0.7310
  876MPD2    H312908   2.837   4.444  16.109  0.0977  1.0314 -0.1521
  876MPD2     N12909   3.246   4.232  16.108  0.5350  0.0065 -0.5753
  876MPD2    H512910   3.343   4.252  16.085 -0.0493  2.0905 -1.2339
  876MPD2    N112911   3.184   4.693  15.980  0.3738  0.4121 -0.0091
  876MPD2    H712912   3.116   0.027  15.952  1.1145  0.8199 -0.7931
  877MPD2     C12913   3.092   0.320  15.349 -0.0545 -0.5867 -0.0890
  877MPD2    C112914   3.229   0.326  15.381  0.4234  0.4899 -0.6824
  877MPD2    C212915   3.319   0.348  15.276 -0.7085 -0.1658 -0.0983
  877MPD2    C312916   3.276   0.349  15.146 -0.3140  0.0668 -0.1900
  877MPD2    C412917   3.146   0.344  15.123 -0.2076  0.1592 -0.1666
  877MPD2    C512918   3.058   0.329  15.223  0.1376 -0.4145  0.4975
  877MPD2     H12919   3.420   0.377  15.303 -0.9923  1.0118 -0.3230
  877MPD2    H112920   3.120   0.335  15.018 -0.1878  0.1050 -0.1668
  877MPD2    H212921   3.019   0.325  15.428  0.3671 -0.0114  0.2620
  877MPD2    H312922   2.954   0.319  15.192  0.5977  1.5298 -1.6643
  877MPD2     N12923   3.362   0.365  15.035  0.6241  0.5257 -1.0420
  877MPD2    H512924   3.314   0.339  14.950  1.1019  2.9068 -2.0381
  877MPD2    N112925   3.274   0.336  15.515  0.3135 -0.5878 -0.3342
  877MPD2    H712926   3.370   0.363  15.529 -0.1200  0.6566  0.2728
  878MPD2     C12927   2.477   4.415  13.580  0.8415  0.7210  0.1157
  878MPD2    C112928   2.571   4.520  13.580  0.3620  0.2194 -0.5278
  878MPD2    C212929   2.627   4.560  13.701  0.0266  0.7835  0.8521
  878MPD2    C312930   2.585   4.497  13.818  0.1410  0.1783 -0.7459
  878MPD2    C412931   2.492   4.395  13.820 -0.1824 -0.6526  0.4079
  878MPD2    C512932   2.439   4.357  13.699 -0.0260 -0.2576 -0.5855
  878MPD2     H12933   2.699   4.641  13.707 -0.4427  1.2035  0.7756
  878MPD2    H112934   2.479   4.336  13.910  0.6596 -1.8695 -0.2659
  878MPD2    H212935   2.422   4.380  13.494  1.6764  0.7782 -0.4344
  878MPD2    H312936   2.377   4.268  13.693 -1.9245  1.3726 -5.1763
  878MPD2     N12937   2.640   4.547  13.940 -0.6099 -0.1648  0.4415
  878MPD2    H512938   2.708   4.622  13.939 -0.6655 -0.1177 -0.4741
  878MPD2    N112939   2.602   4.585  13.458  0.6337  0.2420  0.6814
  878MPD2    H712940   2.565   4.546  13.371 -1.2690 -0.0091  1.5936
  879MPD2     C12941   3.338   0.441  17.478  0.0428 -0.7251 -1.4712
  879MPD2    C112942   3.383   0.525  17.380 -0.0992 -0.7667 -0.7955
  879MPD2    C212943   3.339   0.502  17.252 -0.0146 -0.3993 -0.1102
  879MPD2    C312944   3.268   0.392  17.216  0.4313 -0.3716 -0.1856
  879MPD2    C412945   3.220   0.311  17.313  0.1929 -0.6013 -0.8995
  879MPD2    C512946   3.262   0.330  17.443 -0.7557 -1.4302  0.1205
  879MPD2     H12947   3.384   0.565  17.175  0.5312  0.2134  0.7017
  879MPD2    H112948   3.155   0.227  17.296 -0.6612 -0.4936  1.7763
  879MPD2    H212949   3.359   0.456  17.583  1.4511 -2.5729 -1.4956
  879MPD2    H312950   3.235   0.258  17.520 -0.5315 -2.8949 -1.1722
  879MPD2     N12951   3.229   0.363  17.084  0.2199  0.0047  0.5797
  879MPD2    H512952   3.155   0.295  17.075 -0.3862  1.0484 -2.1672
  879MPD2    N112953   3.458   0.639  17.421 -0.1183 -0.1915  0.5349
  879MPD2    H712954   3.477   0.655  17.520  2.5366  2.5688 -0.4449
  880MPD2     C12955   4.568   2.631   0.057  0.0081  0.3367  0.1143
  880MPD2    C112956   4.644   2.720   0.130  0.4683  0.0301 -0.4740
  880MPD2    C212957   0.022   2.668   0.187  0.4094  0.0017  0.1141
  880MPD2    C312958   0.064   2.533   0.171  0.4576 -0.8074 -0.1901
  880MPD2    C412959   4.711   2.446   0.109  0.8219 -0.0870 -0.2529
  880MPD2    C512960   4.601   2.497   0.042  1.0404  0.5266 -0.5654
  880MPD2     H12961   0.089   2.739   0.235  0.0221 -0.3730  1.2185
  880MPD2    H112962   4.728   2.339   0.114 -2.9458 -0.5795  1.9178
  880MPD2    H212963   4.482   2.663  17.744  1.0764 -0.3046 -1.8280
  880MPD2    H312964   4.534   2.430  17.735  0.5753  0.5930 -0.0597
  880MPD2     N12965   0.187   2.494   0.236 -0.3772 -0.6220 -0.0959
  880MPD2    H512966   0.221   2.573   0.290 -3.5697  1.1603 -0.7171
  880MPD2    N112967   4.608   2.862   0.121 -0.1250  0.0906  0.0305
  880MPD2    H712968   4.535   2.894   0.057  0.1675  0.7666  0.0325
  881MPD2     C12969   0.287   3.668  17.400 -0.0712 -0.0577 -0.3485
  881MPD2    C112970   0.240   3.542  17.360 -0.3877 -0.0688  0.3270
  881MPD2    C212971   0.178   3.464  17.454 -0.5781  0.2075  0.6457
  881MPD2    C312972   0.140   3.517  17.579 -0.1029 -0.2807  0.4107
  881MPD2    C412973   0.179   3.644  17.609  0.4367  0.7211 -0.0895
  881MPD2    C512974   0.257   3.716  17.528  0.3259 -0.5310 -0.4815
  881MPD2     H12975   0.144   3.365  17.425  0.2303 -0.0291  0.5088
  881MPD2    H112976   0.162   3.687  17.707 -0.8505 -1.5879  0.7074
  881MPD2    H212977   0.335   3.742  17.337  0.4999 -1.2866 -1.3393
  881MPD2    H312978   0.286   3.818  17.548  2.1768 -0.6688 -2.5593
  881MPD2     N12979   0.062   3.447  17.670 -0.1044  0.1890  0.6701
  881MPD2    H512980   0.034   3.498   0.009  1.6123  0.8928  0.8290
  881MPD2    N112981   0.275   3.499  17.229 -0.3858 -0.2326 -0.4793
  881MPD2    H712982   0.339   3.563  17.183 -0.3198 -0.0882 -0.1873
  882MPD2     C12983   3.422   0.012  14.341 -0.2977 -0.3278 -0.9523
  882MPD2    C112984   3.401   0.139  14.393 -0.7013  0.1950 -0.2599
  882MPD2    C212985   3.320   0.227  14.323 -0.2152  0.2116  0.5805
  882MPD2    C312986   3.265   0.185  14.201 -0.1987 -0.0594 -0.3675
  882MPD2    C412987   3.288   0.055  14.150 -0.0433  0.3463  0.4655
  882MPD2    C512988   3.373   4.702  14.220 -0.3719  0.0776 -0.0435
  882MPD2     H12989   3.305   0.324  14.369 -0.8058 -0.2602  1.3987
  882MPD2    H112990   3.238   0.017  14.062  0.9907 -0.6177  0.2938
  882MPD2    H212991   3.496   4.688  14.392 -1.4803 -1.8903 -1.0863
  882MPD2    H312992   3.396   4.605  14.178 -1.2398  0.3464 -1.1462
  882MPD2     N12993   3.176   0.258  14.126  0.0904  0.5070  0.2252
  882MPD2    H512994   3.148   0.214  14.039  0.5120 -1.9386  1.3308
  882MPD2    N112995   3.463   0.166  14.517 -0.3004  0.6485 -0.1432
  882MPD2    H712996   3.507   0.088  14.565 -2.5181 -2.3497 -2.9348
  883MPD2     C12997   0.675   4.534  15.898  0.1641 -0.0393 -0.2289
  883MPD2    C112998   0.672   4.666  15.852  0.5215  0.0631  0.2592
  883MPD2    C212999   0.769   0.016  15.894 -0.7204 -0.2820 -1.2250
  883MPD2    C313000   0.875   4.703  15.975 -0.1217 -0.2146  0.0593
  883MPD2    C413001   0.884   4.570  16.010  0.1256  0.2366 -0.2153
  883MPD2    C513002   0.781   4.487  15.976  0.1095  0.3292  0.0827
  883MPD2     H13003   0.770   0.121  15.867 -0.5429  0.0358 -0.0017
  883MPD2    H113004   0.970   4.531  16.064 -0.6839 -1.9047 -0.4602
  883MPD2    H213005   0.599   4.462  15.871 -0.0312 -0.1561  0.6350
  883MPD2    H313006   0.797   4.385  16.010  2.3751  0.5018 -0.4533
  883MPD2     N13007   0.989   0.045  16.000  0.5210 -0.1023  0.0253
  883MPD2    H513008   0.971   0.136  15.958 -0.1803 -0.0238  0.5110
  883MPD2    N113009   0.570   4.714  15.763  0.0651 -0.0055 -0.7240
  883MPD2    H713010   0.574   0.076  15.740 -2.4991  0.6763  1.6692
  884MPD2     C13011   2.555   0.811  14.997 -0.0488  0.0627  0.0102
  884MPD2    C113012   2.540   0.929  14.929  0.3822 -0.3524  0.4542
  884MPD2    C213013   2.414   0.989  14.926  0.7902 -0.1830 -0.3474
  884MPD2    C313014   2.301   0.921  14.968  0.2217 -0.3807  0.1699
  884MPD2    C413015   2.309   0.804  15.035 -0.9822  0.1534  0.1485
  884MPD2    C513016   2.438   0.758  15.055 -0.2734  0.9073 -0.0611
  884MPD2     H13017   2.393   1.083  14.876  1.7123  0.4641  0.4595
  884MPD2    H113018   2.232   0.750  15.089  1.4027 -0.6049  2.7409
  884MPD2    H213019   2.648   0.759  15.019  1.6443  2.4506 -1.6413
  884MPD2    H313020   2.450   0.668  15.113  0.2738 -0.4281 -2.2421
  884MPD2     N13021   2.176   0.988  14.946  0.7652 -0.0955  0.0171
  884MPD2    H513022   2.181   1.077  14.897  0.2187 -0.4219 -0.6351
  884MPD2    N113023   2.659   1.004  14.895 -0.3079 -0.2586  0.5139
  884MPD2    H713024   2.650   1.095  14.850 -0.6737 -0.2383  0.6212
  885MPD2     C13025   0.479   1.641  17.634 -0.1396  0.1049 -0.2239
  885MPD2    C113026   0.564   1.534  17.643 -0.5020  0.2910 -0.7888
  885MPD2    C213027   0.636   1.487  17.534  0.1816 -0.2391  0.2679
  885MPD2    C313028   0.622   1.560  17.421 -0.8114  0.5124 -0.1202
  885MPD2    C413029   0.529   1.665  17.408 -0.0211 -0.7085 -0.3631
  885MPD2    C513030   0.468   1.712  17.519  0.7943 -1.0562 -0.2634
  885MPD2     H13031   0.710   1.409  17.540 -2.1498 -2.5708 -1.1972
  885MPD2    H113032   0.520   1.724  17.318  2.2502  3.5655  2.2071
  885MPD2    H213033   0.415   1.672  17.715  0.4567 -1.9961  1.0511
  885MPD2    H313034   0.415   1.806  17.510  0.6567 -1.0482  0.6417
  885MPD2     N13035   0.710   1.528  17.311  0.0019  0.4504 -0.5748
  885MPD2    H513036   0.772   1.449  17.324 -0.1417  0.6069  1.0451
  885MPD2    N113037   0.559   1.461   0.022  0.0552  0.0412  0.5450
  885MPD2    H713038   0.503   1.500   0.098 -0.8838  1.9853 -1.1209
  886MPD2     C13039   2.651   4.157  14.731  0.2400 -0.2580 -0.1189
  886MPD2    C113040   2.587   4.189  14.846 -0.2883 -0.0990 -0.0400
  886MPD2    C213041   2.504   4.305  14.847  0.5124 -0.2798 -0.2852
  886MPD2    C313042   2.491   4.379  14.733  0.4479  0.4003  0.3391
  886MPD2    C413043   2.553   4.341  14.617 -0.0776 -0.0688  0.0478
  886MPD2    C513044   2.630   4.229  14.620 -0.6085 -0.4293 -0.1365
  886MPD2     H13045   2.449   4.326  14.938  0.9457  2.2083 -0.6016
  886MPD2    H113046   2.550   4.393  14.522 -0.2905  1.7624  1.0575
  886MPD2    H213047   2.729   4.081  14.729  1.4562  1.0590 -2.3027
  886MPD2    H313048   2.686   4.194  14.534 -0.2431 -2.8785  1.1217
  886MPD2     N13049   2.424   4.505  14.726  0.1850 -0.2697  0.3490
  886MPD2    H513050   2.461   4.565  14.653  0.7740 -0.3252  0.5989
  886MPD2    N113051   2.594   4.111  14.965  0.5500  0.0768 -0.2659
  886MPD2    H713052   2.561   4.169  15.042 -2.4356 -1.1225 -0.6501
  887MPD2     C13053   2.738   4.243  15.708 -0.0807 -0.2333 -0.0023
  887MPD2    C113054   2.719   4.279  15.570 -0.2279  0.0189 -0.9130
  887MPD2    C213055   2.737   4.413  15.532  0.3364  0.1991 -0.1385
  887MPD2    C313056   2.775   4.505  15.630  0.1156  0.4636 -0.6114
  887MPD2    C413057   2.783   4.465  15.761 -0.0536  0.9374 -0.7998
  887MPD2    C513058   2.761   4.339  15.800  0.2524 -0.6501 -0.3034
  887MPD2     H13059   2.712   4.447  15.432 -1.2497 -2.5387 -0.6762
  887MPD2    H113060   2.801   4.537  15.840 -0.4109 -1.3758  1.3790
  887MPD2    H213061   2.706   4.143  15.734 -0.3437 -0.6842 -2.0220
  887MPD2    H313062   2.764   4.303  15.902 -0.8953  0.4622  0.1267
  887MPD2     N13063   2.795   4.639  15.593  0.0187  0.1860 -0.1323
  887MPD2    H513064   2.776   4.659  15.496  1.0242 -0.5746 -0.4909
  887MPD2    N113065   2.702   4.186  15.469 -0.2714 -0.0401 -0.1826
  887MPD2    H713066   2.706   4.230  15.378  3.1920  1.9177  0.9078
  888MPD2     C13067   4.572   4.332  14.947 -0.1768 -0.1408  0.6164
  888MPD2    C113068   4.537   4.398  15.062 -0.8557 -0.6415  0.3748
  888MPD2    C213069   4.567   4.533  15.068 -0.2294 -0.0048 -0.1673
  888MPD2    C313070   4.633   4.593  14.970  0.0209 -0.3688 -0.0991
  888MPD2    C413071   4.653   4.521  14.851  0.8614 -0.6039 -0.2542
  888MPD2    C513072   4.625   4.391  14.843  0.0662 -0.3018  0.5318
  888MPD2     H13073   4.538   4.594  15.152  0.2715  1.7053 -1.2448
  888MPD2    H113074   4.704   4.567  14.767  2.1714 -1.2760  0.1664
  888MPD2    H213075   4.559   4.224  14.945  0.0055 -0.1519  0.0620
  888MPD2    H313076   4.643   4.338  14.750 -0.0634  2.8372 -1.2633
  888MPD2     N13077   4.658   4.730  14.981  0.4327 -0.1425 -0.1980
  888MPD2    H513078   4.624   0.044  15.062 -0.7470  2.4061 -2.2613
  888MPD2    N113079   4.451   4.336  15.156 -0.5203 -0.6863 -0.0946
  888MPD2    H713080   4.435   4.392  15.239  0.4576 -0.3707 -0.1174
  889MPD2     C13081   4.599   3.592  13.814  0.6073 -0.4381  0.0166
  889MPD2    C113082   4.534   3.618  13.696 -0.1125 -0.5331  0.0175
  889MPD2    C213083   4.510   3.751  13.669  0.0258  0.8710  0.1191
  889MPD2    C313084   4.497   3.845  13.771 -0.2989 -0.4218 -0.3841
  889MPD2    C413085   4.554   3.807  13.890 -0.4359 -0.6828 -0.3057
  889MPD2    C513086   4.604   3.683  13.915 -0.3045 -0.2358  0.2764
  889MPD2     H13087   4.484   3.775  13.567 -3.2826 -1.3864  0.4475
  889MPD2    H113088   4.564   3.873  13.976 -0.7328 -0.5100 -0.4068
  889MPD2    H213089   4.627   3.492  13.847 -1.6805 -0.5019  1.6908
  889MPD2    H313090   4.626   3.666  14.020  0.2714  0.1859  0.2277
  889MPD2     N13091   4.443   3.973  13.744  0.7048  0.1439  0.0101
  889MPD2    H513092   4.412   3.994  13.650  1.5322  2.5693  0.2887
  889MPD2    N113093   4.535   3.536  13.584  0.0163 -0.1329  0.1159
  889MPD2    H713094   4.490   3.562  13.496 -0.3946  1.6093  0.8439
  890MPD2     C13095   3.169   1.259  14.447 -0.2078 -0.5425  0.5788
  890MPD2    C113096   3.288   1.304  14.496  0.0163 -0.4829  1.0005
  890MPD2    C213097   3.349   1.238  14.601 -0.0377  0.0698 -0.0990
  890MPD2    C313098   3.295   1.115  14.639  0.1874  0.2337  0.3511
  890MPD2    C413099   3.179   1.067  14.584  0.0436  1.0140  0.2892
  890MPD2    C513100   3.112   1.144  14.487 -0.4111  0.7545  0.6969
  890MPD2     H13101   3.440   1.272  14.649  0.8406 -0.4745 -1.3734
  890MPD2    H113102   3.125   0.977  14.612  1.1150 -0.1598 -1.3942
  890MPD2    H213103   3.114   1.314  14.371  1.8211  1.1204  0.3256
  890MPD2    H313104   3.020   1.118  14.437  1.4797 -1.1376 -1.8657
  890MPD2     N13105   3.362   1.044  14.745 -0.0628 -0.3165 -0.5678
  890MPD2    H513106   3.454   1.079  14.772  0.2470 -2.9804  1.7486
  890MPD2    N113107   3.338   1.423  14.437 -0.5085  0.3530 -0.2005
  890MPD2    H713108   3.279   1.481  14.378 -1.7035  0.0331  0.6621
  891MPD2     C13109   1.953   4.256  16.294  0.8460  0.0938 -0.2952
  891MPD2    C113110   1.856   4.238  16.391 -0.3354 -0.0979 -0.3955
  891MPD2    C213111   1.880   4.159  16.503  0.1702 -0.3036  0.1961
  891MPD2    C313112   2.002   4.104  16.526 -0.3062  1.0094  0.2218
  891MPD2    C413113   2.104   4.130  16.439  0.2266 -0.1942 -0.7420
  891MPD2    C513114   2.072   4.197  16.326 -0.5782  0.0884 -0.9743
  891MPD2     H13115   1.813   4.165  16.588 -1.1805 -0.0147 -0.8955
  891MPD2    H113116   2.202   4.086  16.451  0.1658 -0.0016  0.4287
  891MPD2    H213117   1.943   4.305  16.198  2.9971 -1.0641 -1.1105
  891MPD2    H313118   2.138   4.207  16.240  0.0032  0.5517 -0.4674
  891MPD2     N13119   2.014   4.022  16.641  0.0520  0.3346  0.8577
  891MPD2    H513120   1.935   4.025  16.704 -1.9896  1.4957 -1.7268
  891MPD2    N113121   1.732   4.297  16.359 -0.6782  0.2294 -0.5527
  891MPD2    H713122   1.727   4.369  16.289  2.3415  0.5063 -0.5131
  892MPD2     C13123   2.586   0.595  14.745  0.1838  0.8975  0.1353
  892MPD2    C113124   2.523   0.600  14.619  0.0385  0.0781 -0.2708
  892MPD2    C213125   2.591   0.611  14.501 -0.5560 -0.4073  0.1718
  892MPD2    C313126   2.729   0.605  14.489  0.1653 -0.0348 -0.4290
  892MPD2    C413127   2.787   0.583  14.611 -0.1460  0.2441  0.6193
  892MPD2    C513128   2.723   0.584  14.734  0.1889  0.2057  0.6021
  892MPD2     H13129   2.530   0.616  14.412  0.8458 -0.1661 -0.7708
  892MPD2    H113130   2.895   0.569  14.608 -0.1005  0.8459 -0.8044
  892MPD2    H213131   2.537   0.578  14.840  1.3900  0.2062  0.6356
  892MPD2    H313132   2.786   0.573  14.822 -0.2230 -0.3933  0.8155
  892MPD2     N13133   2.794   0.577  14.364 -0.8700 -0.2980  0.1437
  892MPD2    H513134   2.890   0.547  14.348 -0.8586 -1.0227  1.5805
  892MPD2    N113135   2.384   0.582  14.611 -0.1095 -0.2289 -0.3583
  892MPD2    H713136   2.348   0.602  14.518  2.2838 -3.0037 -1.8987
  893MPD2     C13137   4.331   4.130   1.405 -0.0638  0.8031 -0.3273
  893MPD2    C113138   4.276   4.074   1.294 -0.2540 -1.2287 -0.3183
  893MPD2    C213139   4.144   4.038   1.301  0.8268  0.1182 -0.8405
  893MPD2    C313140   4.065   4.064   1.413  0.2958  0.0619 -0.3066
  893MPD2    C413141   4.121   4.130   1.515 -0.0974  1.2559 -0.1215
  893MPD2    C513142   4.251   4.167   1.509 -0.5399 -0.0391  0.1232
  893MPD2     H13143   4.088   3.991   1.221 -0.6444  0.6535 -0.1180
  893MPD2    H113144   4.070   4.145   1.609 -0.5060 -1.2082  0.0444
  893MPD2    H213145   4.435   4.159   1.399 -0.0863  0.8422 -0.5495
  893MPD2    H313146   4.310   4.207   1.591  0.2695 -2.7083  0.8422
  893MPD2     N13147   3.928   4.027   1.429  0.2374 -0.0181 -0.6126
  893MPD2    H513148   3.881   4.053   1.515  2.0293 -0.4641  0.4923
  893MPD2    N113149   4.366   4.038   1.188  1.0131  0.4778  0.4675
  893MPD2    H713150   4.464   4.062   1.193  0.8853  0.1738  4.7505
  894MPD2     C13151   2.916   1.565   1.136  0.2342 -1.0323 -0.1856
  894MPD2    C113152   2.839   1.672   1.096  0.5196 -1.5588  0.9168
  894MPD2    C213153   2.893   1.794   1.077 -0.7958 -0.0375  0.3964
  894MPD2    C313154   3.033   1.810   1.080 -0.0283 -0.9476  0.1159
  894MPD2    C413155   3.107   1.707   1.123  0.2514 -0.4263 -0.3450
  894MPD2    C513156   3.048   1.583   1.152 -0.1372 -0.5180  0.2648
  894MPD2     H13157   2.822   1.867   1.040 -0.2976  1.3921  2.2407
  894MPD2    H113158   3.213   1.722   1.105  0.3469  2.3109  2.4143
  894MPD2    H213159   2.876   1.465   1.145 -2.4340  0.0411  0.0500
  894MPD2    H313160   3.106   1.495   1.178  0.1953 -0.3499  0.0857
  894MPD2     N13161   3.101   1.932   1.047  0.0015 -0.5455  0.1246
  894MPD2    H513162   3.202   1.927   1.059 -0.0217  0.9054  0.9315
  894MPD2    N113163   2.704   1.659   1.066 -0.5490 -0.0014 -0.4738
  894MPD2    H713164   2.661   1.743   1.029  1.7551  1.4373  0.1287
  895MPD2     C13165   1.184   0.124  13.434 -0.5957  0.3038  0.1964
  895MPD2    C113166   1.184   4.722  13.439  0.3855 -0.1987  0.6467
  895MPD2    C213167   1.294   4.649  13.392 -0.0760  0.1515 -0.6127
  895MPD2    C313168   1.409   4.713  13.342  0.0591  0.5583  0.6326
  895MPD2    C413169   1.400   0.112  13.337  0.5126 -0.0762 -0.2869
  895MPD2    C513170   1.295   0.185  13.391  0.2871  1.2119 -0.1947
  895MPD2     H13171   1.278   4.543  13.374 -2.4115  0.1592  1.5143
  895MPD2    H113172   1.482   0.170  13.295  0.0072  1.3190  0.6326
  895MPD2    H213173   1.090   0.177  13.445 -0.1456  0.9712  0.8259
  895MPD2    H313174   1.289   0.293  13.384  0.8248  1.2186 -0.5128
  895MPD2     N13175   1.504   4.643  13.267 -0.2266 -0.4987  0.2695
  895MPD2    H513176   1.558   4.700  13.202 -0.7097 -0.6140 -0.2187
  895MPD2    N113177   1.062   4.656  13.468  0.4169 -0.1583  0.2460
  895MPD2    H713178   1.054   4.555  13.454  3.7819 -0.6795  2.1313
  896MPD2     C13179   0.026   1.922   0.982 -0.1790  0.7025 -0.0637
  896MPD2    C113180   4.716   1.971   0.864 -0.6737  1.2124  0.3195
  896MPD2    C213181   4.586   2.011   0.841  0.5236 -0.2601 -0.1167
  896MPD2    C313182   4.498   2.000   0.942  0.0158  0.6054 -0.1745
  896MPD2    C413183   4.542   1.950   1.064  0.1672 -0.2630  0.0522
  896MPD2    C513184   4.668   1.896   1.075 -0.7317 -0.2614 -0.4360
  896MPD2     H13185   4.549   2.040   0.743 -0.2047 -1.0417 -0.0676
  896MPD2    H113186   4.480   1.949   1.153 -1.2450 -1.2729 -0.9538
  896MPD2    H213187   0.130   1.895   0.996  0.1419  1.4753 -0.9784
  896MPD2    H313188   4.690   1.845   1.168  2.7797  3.4714  0.8001
  896MPD2     N13189   4.361   2.032   0.922  1.0127 -0.8279 -0.4385
  896MPD2    H513190   4.339   2.043   0.823  2.2910  3.0363 -0.2728
  896MPD2    N113191   0.063   2.010   0.756 -0.0265 -0.8023 -0.4743
  896MPD2    H713192   0.015   2.070   0.689  0.7835 -1.3727 -1.5582
  897MPD2     C13193   0.454   3.702  10.004  0.8594 -0.0153  0.2590
  897MPD2    C113194   0.386   3.818  10.038  0.3747  0.1666  0.3699
  897MPD2    C213195   0.309   3.829  10.160 -0.2790  0.4552 -0.1950
  897MPD2    C313196   0.280   3.710  10.227 -0.4209  0.2444  0.1906
  897MPD2    C413197   0.331   3.593  10.180  0.8742 -0.3177 -0.3589
  897MPD2    C513198   0.417   3.584  10.072  0.5583 -0.1597  1.0867
  897MPD2     H13199   0.251   3.917  10.183  0.0423  0.8248 -0.7912
  897MPD2    H113200   0.295   3.500  10.222  2.3638 -0.2051  1.1656
  897MPD2    H213201   0.525   3.696   9.922  1.4004 -1.0808  0.7950
  897MPD2    H313202   0.471   3.492  10.052 -0.6019 -0.5898 -0.0350
  897MPD2     N13203   0.191   3.716  10.334 -0.2175  0.4695 -0.2755
  897MPD2    H513204   0.149   3.806  10.352 -1.1580  0.0390 -0.3528
  897MPD2    N113205   0.400   3.936   9.956 -0.2432  0.3942  1.0462
  897MPD2    H713206   0.445   3.924   9.866 -0.3658 -1.4097  1.2322
  898MPD2     C13207   2.454   4.108   0.232  0.5617 -0.0300 -0.0652
  898MPD2    C113208   2.541   4.140   0.129 -0.3188  0.3234 -0.2839
  898MPD2    C213209   2.498   4.239   0.040 -0.1506 -0.8880 -0.7804
  898MPD2    C313210   2.388   4.319   0.060 -0.2562  0.5090  0.2883
  898MPD2    C413211   2.313   4.289   0.169  0.2531 -1.1142  0.4647
  898MPD2    C513212   2.340   4.180   0.251  0.2092  0.4499  0.1305
  898MPD2     H13213   2.553   4.265  17.696 -0.7413  1.3341 -0.4975
  898MPD2    H113214   2.227   4.352   0.188  0.3394  0.0568 -3.1059
  898MPD2    H213215   2.483   4.038   0.309  0.2048 -0.6727 -0.5169
  898MPD2    H313216   2.285   4.149   0.340 -0.7177  2.7185  0.3287
  898MPD2     N13217   2.367   4.427  17.720  0.4682 -0.0469  0.7161
  898MPD2    H513218   2.423   4.418  17.636 -0.3136  2.3704 -0.0672
  898MPD2    N113219   2.669   4.080   0.117 -0.3973 -0.4483  0.5003
  898MPD2    H713220   2.723   4.102   0.034 -1.3138  0.6654  0.2056
  899MPD2     C13221   2.926   0.361  17.605 -0.0869 -0.1155  0.3736
  899MPD2    C113222   2.969   0.491  17.625 -0.0818 -0.2279 -0.3545
  899MPD2    C213223   2.966   0.542   0.007 -0.5654  0.0936 -1.0564
  899MPD2    C313224   2.911   0.469   0.109 -0.1889  0.5168 -0.0007
  899MPD2    C413225   2.870   0.341   0.086 -0.9682 -0.5015  0.6238
  899MPD2    C513226   2.879   0.286  17.708 -0.5419 -0.1880 -0.5057
  899MPD2     H13227   2.998   0.644   0.026 -0.0497 -0.3700  0.5546
  899MPD2    H113228   2.812   0.282   0.156 -2.4772  0.2152 -0.0264
  899MPD2    H213229   2.926   0.314  17.508 -2.5306  3.6420 -1.4208
  899MPD2    H313230   2.841   0.185  17.696 -1.8640  0.1096  1.2107
  899MPD2     N13231   2.890   0.532   0.235 -0.4566  0.0857  0.2791
  899MPD2    H513232   2.944   0.613   0.262  0.5331 -0.3582 -0.3509
  899MPD2    N113233   3.015   0.566  17.509  0.1250 -0.4636 -0.0485
  899MPD2    H713234   3.009   0.523  17.417  0.0929 -1.2239  0.3131
  900MPD2     C13235   2.887   2.559  12.195 -0.0802  0.3734 -0.3912
  900MPD2    C113236   2.803   2.482  12.265 -0.7437 -0.1704 -0.2656
  900MPD2    C213237   2.680   2.536  12.308  0.3136  0.1000 -0.3858
  900MPD2    C313238   2.647   2.659  12.266  0.4354  0.3350  0.0724
  900MPD2    C413239   2.741   2.740  12.198  0.6105 -0.0313 -0.3724
  900MPD2    C513240   2.863   2.692  12.172  0.2455  0.3820  0.3260
  900MPD2     H13241   2.622   2.470  12.371  0.1997 -1.8106 -2.5380
  900MPD2    H113242   2.731   2.843  12.166 -0.3152 -0.6737 -2.1953
  900MPD2    H213243   2.976   2.513  12.154  1.2608  1.8708  0.8116
  900MPD2    H313244   2.936   2.752  12.121 -1.7857  1.5784 -1.1673
  900MPD2     N13245   2.522   2.721  12.301  0.0489 -0.9956  0.4511
  900MPD2    H513246   2.501   2.819  12.289  1.2774 -0.8027 -0.0665
  900MPD2    N113247   2.841   2.352  12.292 -0.0955  0.4382  0.0887
  900MPD2    H713248   2.940   2.340  12.269 -0.1621 -0.4892  0.2828
  901MPD2     C13249   2.726   1.653  13.118 -0.0981 -0.6160 -0.6746
  901MPD2    C113250   2.735   1.585  12.998 -0.0087  0.2063 -0.2168
  901MPD2    C213251   2.761   1.665  12.888 -0.0310  0.6348  0.3118
  901MPD2    C313252   2.774   1.802  12.897  0.3378  0.7988  0.2101
  901MPD2    C413253   2.760   1.865  13.021 -0.5518  0.1620  0.2163
  901MPD2    C513254   2.738   1.784  13.130 -0.1979 -0.8015 -0.2061
  901MPD2     H13255   2.783   1.618  12.793  2.8235  3.2710 -0.3334
  901MPD2    H113256   2.784   1.970  13.039  1.0384 -0.2686  0.5849
  901MPD2    H213257   2.704   1.597  13.208 -0.1017  0.3383 -0.0889
  901MPD2    H313258   2.734   1.829  13.229 -0.5633  2.2350 -1.5841
  901MPD2     N13259   2.811   1.876  12.782  0.4236  0.7552  0.1954
  901MPD2    H513260   2.843   1.825  12.700 -2.7191 -1.6042  0.4415
  901MPD2    N113261   2.719   1.444  12.985 -0.2266 -0.1207 -0.0686
  901MPD2    H713262   2.726   1.394  13.073 -3.0619  2.2018  1.4885
  902MPD2     C13263   1.697   0.452  11.772  0.4658 -0.1803  0.0008
  902MPD2    C113264   1.726   0.459  11.907 -1.0317 -0.4938 -0.2982
  902MPD2    C213265   1.845   0.425  11.962 -0.4560 -0.4861  0.3064
  902MPD2    C313266   1.940   0.374  11.879 -0.2000 -0.1208 -0.2451
  902MPD2    C413267   1.914   0.372  11.743  0.3110  0.1201 -0.4519
  902MPD2    C513268   1.794   0.412  11.686  0.1696  0.1392  0.3621
  902MPD2     H13269   1.861   0.427  12.069 -0.1034  0.9514  0.2258
  902MPD2    H113270   1.987   0.336  11.672  0.6725 -1.1778  0.5718
  902MPD2    H213271   1.602   0.483  11.730  0.2801 -1.7092 -0.6978
  902MPD2    H313272   1.777   0.418  11.580 -0.2504 -3.5631  0.2097
  902MPD2     N13273   2.064   0.322  11.917  0.3022  0.2340  0.4899
  902MPD2    H513274   2.127   0.306  11.838  0.5377  0.6786  0.5852
  902MPD2    N113275   1.609   0.487  11.989  0.0456 -0.0801  0.0494
  902MPD2    H713276   1.528   0.523  11.940 -0.0341  0.1300  0.3331
  903MPD2     C13277   2.291   0.108  11.512 -0.1190  0.1650 -0.0315
  903MPD2    C113278   2.270   0.045  11.632 -0.6221  0.0751 -0.0121
  903MPD2    C213279   2.144   0.030  11.682  0.5016 -0.1337 -0.1636
  903MPD2    C313280   2.034   0.071  11.607 -0.3202  0.7326 -0.4938
  903MPD2    C413281   2.055   0.120  11.483  0.9358 -0.3983 -0.1239
  903MPD2    C513282   2.185   0.145  11.435 -0.1839  0.7435  0.5815
  903MPD2     H13283   2.127   4.710  11.773 -1.2379  0.6223 -0.0227
  903MPD2    H113284   1.980   0.153  11.412  1.2621  1.2002  0.2847
  903MPD2    H213285   2.394   0.116  11.480 -0.1730  2.7200  0.4093
  903MPD2    H313286   2.205   0.179  11.334  1.4024  0.5289  0.8349
  903MPD2     N13287   1.898   0.054  11.645  0.1095  0.0673  0.0040
  903MPD2    H513288   1.829   0.086  11.579 -0.8141 -0.7707  0.5707
  903MPD2    N113289   2.378   4.725  11.698  0.0211  0.7380 -0.0671
  903MPD2    H713290   2.462   4.714  11.642 -0.1484  1.4530 -0.4498
  904MPD2     C13291   1.774   3.848  13.755 -0.3607  0.5603  0.0364
  904MPD2    C113292   1.729   3.937  13.660  0.2816  0.0887  0.0420
  904MPD2    C213293   1.817   4.003  13.574 -0.4778  0.3023  0.3756
  904MPD2    C313294   1.952   3.980  13.581  0.0824 -0.3044  0.4642
  904MPD2    C413295   1.997   3.899  13.684 -0.3343  0.1250 -0.2256
  904MPD2    C513296   1.911   3.830  13.772 -0.3931  0.7852 -0.3803
  904MPD2     H13297   1.785   4.070  13.495  0.1777 -2.2388 -2.0592
  904MPD2    H113298   2.099   3.876  13.712 -0.2426  0.2306 -0.4707
  904MPD2    H213299   1.716   3.799  13.833 -2.8822  1.0584 -1.5477
  904MPD2    H313300   1.939   3.766  13.855 -0.5627  0.4785 -0.5582
  904MPD2     N13301   2.031   4.047  13.485 -0.3081 -0.1737 -0.5332
  904MPD2    H513302   1.985   4.100  13.412  0.5407  0.6492 -0.4630
  904MPD2    N113303   1.592   3.960  13.633  0.4055 -0.3117  0.3074
  904MPD2    H713304   1.562   4.016  13.554 -0.5775 -1.3966 -0.0846
  905MPD2     C13305   1.075   4.427  13.214 -0.5115 -0.2627 -0.4779
  905MPD2    C113306   1.173   4.330  13.227  0.5190  0.1725 -0.3077
  905MPD2    C213307   1.266   4.333  13.122 -0.1871 -0.1244 -0.0121
  905MPD2    C313308   1.246   4.413  13.004  1.3176 -0.5325  0.4601
  905MPD2    C413309   1.137   4.487  12.990  0.2210  0.3040 -0.1179
  905MPD2    C513310   1.058   4.504  13.102  0.0333 -0.6572 -0.1594
  905MPD2     H13311   1.348   4.262  13.129  0.6744  0.7185 -1.5448
  905MPD2    H113312   1.136   4.544  12.897  0.4955  1.5632  0.6463
  905MPD2    H213313   1.004   4.451  13.292  0.1667 -0.4327  0.1960
  905MPD2    H313314   0.970   4.563  13.079  0.5976  0.0111 -0.6247
  905MPD2     N13315   1.323   4.404  12.886  0.5183 -0.8538  0.1996
  905MPD2    H513316   1.281   4.439  12.800  1.9224 -1.5419 -0.7575
  905MPD2    N113317   1.187   4.255  13.350 -0.3739  0.2936 -0.4995
  905MPD2    H713318   1.104   4.261  13.408  0.1662  2.4234  0.0653
  906MPD2     C13319   3.760   3.799  11.219  0.1758  0.3196 -0.1618
  906MPD2    C113320   3.645   3.803  11.147  0.2026  0.2842  0.2647
  906MPD2    C213321   3.533   3.750  11.211 -0.3576 -0.4702  0.2757
  906MPD2    C313322   3.533   3.705  11.336 -0.1653 -0.6642  0.7654
  906MPD2    C413323   3.657   3.685  11.399 -0.4028  0.2206 -0.8013
  906MPD2    C513324   3.767   3.744  11.344 -0.1859  0.5522  1.1917
  906MPD2     H13325   3.442   3.768  11.155 -1.8561 -1.5286  2.3681
  906MPD2    H113326   3.646   3.648  11.500 -2.1177 -0.7867 -1.3527
  906MPD2    H213327   3.854   3.832  11.177  0.4605 -1.4555 -0.8970
  906MPD2    H313328   3.859   3.733  11.400 -1.1610 -1.8678  2.3236
  906MPD2     N13329   3.411   3.679  11.411 -1.4654 -0.1811 -0.1526
  906MPD2    H513330   3.420   3.628  11.498  0.4537 -0.0445 -0.2773
  906MPD2    N113331   3.631   3.852  11.015  0.1184  0.4036 -0.1115
  906MPD2    H713332   3.538   3.852  10.976  0.0843  2.0354 -0.0547
  907MPD2     C13333   2.999   2.928  15.415  0.5127  0.3789  0.6220
  907MPD2    C113334   2.979   2.812  15.346  0.6466 -0.5772 -0.3600
  907MPD2    C213335   2.958   2.699  15.417  0.5061  0.4398 -0.2696
  907MPD2    C313336   2.966   2.690  15.556  0.3981  0.0440  1.2504
  907MPD2    C413337   2.984   2.812  15.619 -0.1983 -0.4213 -0.5253
  907MPD2    C513338   2.998   2.928  15.549  0.9129  0.3387 -0.1490
  907MPD2     H13339   2.943   2.609  15.358 -1.3299 -0.2073  1.2027
  907MPD2    H113340   2.989   2.812  15.727 -0.7190  1.1545 -0.5064
  907MPD2    H213341   3.004   3.028  15.373 -1.2645 -0.2695 -1.0923
  907MPD2    H313342   3.011   3.024  15.598 -0.3212 -0.1245  1.0723
  907MPD2     N13343   2.932   2.567  15.628  0.0706 -0.3198 -0.3531
  907MPD2    H513344   2.926   2.486  15.568 -0.0837  0.0141 -0.7837
  907MPD2    N113345   2.977   2.793  15.203 -0.0414 -0.1275 -0.2878
  907MPD2    H713346   2.972   2.698  15.166 -0.2809 -0.3267  0.2503
  908MPD2     C13347   0.992   3.962   9.374 -0.5686  0.3735  0.1561
  908MPD2    C113348   0.926   3.876   9.466 -0.4355 -0.1279 -0.3293
  908MPD2    C213349   0.819   3.921   9.540 -0.0789  0.9762 -0.9535
  908MPD2    C313350   0.772   4.050   9.530  0.9883 -0.2590 -0.3911
  908MPD2    C413351   0.844   4.132   9.443 -0.3812  0.0265 -0.2253
  908MPD2    C513352   0.950   4.091   9.369 -0.5762 -0.3763  0.3762
  908MPD2     H13353   0.771   3.851   9.608  0.4273  1.8079  0.2613
  908MPD2    H113354   0.806   4.230   9.418 -1.7052 -1.0268 -2.2899
  908MPD2    H213355   1.077   3.926   9.317 -0.0931 -1.0914  1.7788
  908MPD2    H313356   1.003   4.167   9.313  0.2537 -1.9396 -0.9503
  908MPD2     N13357   0.670   4.096   9.611 -0.6264  0.0958  0.1870
  908MPD2    H513358   0.629   4.029   9.675  0.5399 -2.7660 -2.0639
  908MPD2    N113359   0.973   3.745   9.462  0.6252 -0.2985 -0.2501
  908MPD2    H713360   1.047   3.730   9.393  2.0907  0.8116  1.0582
  909MPD2     C13361   0.653   1.842  11.918  0.1661 -0.1628  0.2831
  909MPD2    C113362   0.573   1.863  11.812 -0.5542  0.3575  0.2130
  909MPD2    C213363   0.445   1.911  11.834 -0.2589 -0.7068  0.6961
  909MPD2    C313364   0.395   1.914  11.961 -0.2729  0.1203  0.1740
  909MPD2    C413365   0.471   1.880  12.070  0.1600  0.4356  0.0103
  909MPD2    C513366   0.604   1.856  12.050 -0.1608 -0.1259  0.2322
  909MPD2     H13367   0.384   1.926  11.746  2.8440  1.1529 -1.1383
  909MPD2    H113368   0.451   1.877  12.176 -3.3965 -0.6372 -0.6881
  909MPD2    H213369   0.757   1.812  11.914  0.0526 -0.5169 -0.0227
  909MPD2    H313370   0.667   1.842  12.137  1.5534 -1.4731 -1.2411
  909MPD2     N13371   0.256   1.938  11.980  0.5937  0.6292 -0.3060
  909MPD2    H513372   0.208   1.962  11.894  0.8065 -1.2908 -0.9435
  909MPD2    N113373   0.620   1.861  11.678  0.5688 -0.2424 -0.9500
  909MPD2    H713374   0.552   1.908  11.618 -0.4939 -0.6660 -0.0882
  910MPD2     C13375   2.199   3.708  15.943  0.2992 -0.0608  0.4636
  910MPD2    C113376   2.184   3.627  15.834  0.0326 -0.1041  0.8884
  910MPD2    C213377   2.120   3.681  15.722  0.5409  0.0200  0.4349
  910MPD2    C313378   2.081   3.814  15.711 -0.1396  0.2244  0.3741
  910MPD2    C413379   2.086   3.894  15.824  0.5430 -0.2009  0.4935
  910MPD2    C513380   2.142   3.838  15.942  0.0648  0.0254  0.7327
  910MPD2     H13381   2.120   3.617  15.634  2.7775 -1.6495  1.6422
  910MPD2    H113382   2.049   3.995  15.825  1.0423  0.0007 -1.7375
  910MPD2    H213383   2.262   3.669  16.022 -0.3395  2.3205  2.1732
  910MPD2    H313384   2.162   3.911  16.019 -0.1878 -0.7161  1.4949
  910MPD2     N13385   2.044   3.880  15.592 -0.3728  0.1789  0.6930
  910MPD2    H513386   2.001   3.971  15.603 -1.3784 -0.4013  1.4770
  910MPD2    N113387   2.231   3.489  15.827  0.1040  0.0936  0.1880
  910MPD2    H713388   2.228   3.447  15.735 -0.3899 -0.5301  0.4816
  911MPD2     C13389   4.640   3.875  15.975  0.5531  0.5297  1.0849
  911MPD2    C113390   4.710   3.988  16.016 -0.1242  0.4923 -0.1860
  911MPD2    C213391   4.658   4.117  15.991  0.0394 -0.2825 -0.0732
  911MPD2    C313392   4.540   4.135  15.922  0.0613  0.1110  0.3562
  911MPD2    C413393   4.473   4.026  15.882  0.2763  0.1452 -0.4998
  911MPD2    C513394   4.519   3.901  15.908 -0.1575 -0.6216  0.0884
  911MPD2     H13395   4.713   4.204  16.023  0.8604 -0.0236 -2.1837
  911MPD2    H113396   4.378   4.034  15.830 -1.0969  0.5657  2.0391
  911MPD2    H213397   4.678   3.776  15.995 -0.2127  0.1473  0.6732
  911MPD2    H313398   4.466   3.821  15.858  0.1078  1.3364 -3.3389
  911MPD2     N13399   4.476   4.254  15.893 -0.6421 -0.9088  0.1088
  911MPD2    H513400   4.381   4.241  15.860 -1.6352  0.4283  2.4027
  911MPD2    N113401   0.090   3.965  16.084  0.4236  0.0101  0.1830
  911MPD2    H713402   0.116   3.868  16.101  3.4526  0.7696 -0.2180
  912MPD2     C13403   3.980   4.220  15.383 -0.3552 -0.6627  0.2844
  912MPD2    C113404   4.034   4.200  15.508 -0.2345  0.0314 -0.3747
  912MPD2    C213405   4.013   4.081  15.579  0.2702  0.3763 -0.0952
  912MPD2    C313406   3.939   3.976  15.529 -0.0951 -0.0242  0.1920
  912MPD2    C413407   3.884   4.007  15.416 -0.1984  0.1291 -0.0452
  912MPD2    C513408   3.900   4.118  15.344 -0.6249 -0.4642 -0.2369
  912MPD2     H13409   4.046   4.060  15.680 -2.5151 -1.4161  0.4325
  912MPD2    H113410   3.814   3.937  15.372 -1.3972 -0.0888  2.1671
  912MPD2    H213411   3.984   4.313  15.327  0.1366  0.9548  3.0092
  912MPD2    H313412   3.835   4.125  15.257  0.3448  0.0750 -0.9192
  912MPD2     N13413   3.919   3.859  15.602  1.1482  0.1922 -0.0553
  912MPD2    H513414   3.972   3.862  15.689 -1.3406 -1.0076  1.4827
  912MPD2    N113415   4.105   4.307  15.568 -0.2576  0.1361  0.0771
  912MPD2    H713416   4.095   4.388  15.509  0.3434 -0.3633 -0.7075
  913MPD2     C13417   4.358   0.409   9.785  0.1730  0.0669  0.6215
  913MPD2    C113418   4.462   0.415   9.879 -0.3641  0.1117  0.0397
  913MPD2    C213419   4.551   0.519   9.866  0.3132 -0.3956  0.5299
  913MPD2    C313420   4.542   0.618   9.766  0.0333  0.8752  0.8698
  913MPD2    C413421   4.446   0.595   9.667 -0.6840  0.7720  0.4180
  913MPD2    C513422   4.356   0.492   9.674 -0.6538  0.0011  0.4568
  913MPD2     H13423   4.631   0.533   9.938 -0.4013 -1.2668  1.4933
  913MPD2    H113424   4.440   0.654   9.576 -0.3904 -0.6152 -0.4968
  913MPD2    H213425   4.294   0.321   9.782 -1.6893  1.4508 -0.5737
  913MPD2    H313426   4.287   0.483   9.591  1.2808  0.7741 -1.2596
  913MPD2     N13427   4.644   0.717   9.758 -0.3561  0.4476 -1.0795
  913MPD2    H513428   4.657   0.755   9.664 -0.2296 -0.4329 -1.4193
  913MPD2    N113429   4.468   0.308   9.978 -0.3659  0.0043  0.1128
  913MPD2    H713430   4.410   0.225   9.965  0.0450 -0.3794  0.7027
  914MPD2     C13431   2.667   1.191  12.157  0.1997 -0.1285  0.2234
  914MPD2    C113432   2.672   1.299  12.246  0.3566 -0.2965 -0.2042
  914MPD2    C213433   2.682   1.279  12.378  0.1063  1.0907 -0.4156
  914MPD2    C313434   2.692   1.144  12.422  0.0843 -0.0714  0.5168
  914MPD2    C413435   2.709   1.039  12.335  0.1947 -0.5985 -0.5035
  914MPD2    C513436   2.688   1.063  12.202 -0.0187  0.2714 -0.1179
  914MPD2     H13437   2.665   1.354  12.454 -0.0236 -2.4090  2.9966
  914MPD2    H113438   2.727   0.938  12.371  0.5701 -0.2003  0.4205
  914MPD2    H213439   2.644   1.200  12.052 -0.9600 -0.3218  0.4586
  914MPD2    H313440   2.705   0.988  12.126  0.6686  0.1169  0.1832
  914MPD2     N13441   2.692   1.132  12.560  0.0113 -0.1247  0.5312
  914MPD2    H513442   2.708   1.213  12.619  1.6923 -0.1266  0.0911
  914MPD2    N113443   2.647   1.428  12.197  0.1448 -0.3321  0.2184
  914MPD2    H713444   2.605   1.436  12.104  1.0179 -1.2376 -0.2448
  915MPD2     C13445   1.244   1.171  15.826 -0.1535  0.5433  0.1461
  915MPD2    C113446   1.128   1.186  15.754 -0.1018  0.4235  0.2772
  915MPD2    C213447   1.011   1.208  15.828  0.1825 -0.8211  0.1831
  915MPD2    C313448   1.013   1.239  15.961  0.1709  0.1535 -0.4884
  915MPD2    C413449   1.136   1.226  16.023  0.2259 -0.0886  0.3827
  915MPD2    C513450   1.247   1.214  15.952  0.7094  0.4936 -0.5715
  915MPD2     H13451   0.917   1.199  15.775  0.8000 -1.3893 -0.8082
  915MPD2    H113452   1.146   1.250  16.128  1.8704  0.8457  0.0179
  915MPD2    H213453   1.336   1.144  15.776 -0.6545  1.9129 -1.5162
  915MPD2    H313454   1.340   1.209  16.007 -0.7052 -0.9751  1.7075
  915MPD2     N13455   0.890   1.267  16.025 -0.5366  0.1384 -0.5578
  915MPD2    H513456   0.801   1.263  15.976 -0.1763 -0.4412 -1.1680
  915MPD2    N113457   1.136   1.184  15.612  0.3981  0.8346  0.1156
  915MPD2    H713458   1.220   1.149  15.567 -0.9794 -2.6627  0.2506
  916MPD2     C13459   3.406   3.893  15.505  0.0698  0.1563 -0.2550
  916MPD2    C113460   3.367   3.803  15.601  0.2002  0.4395 -0.0886
  916MPD2    C213461   3.365   3.663  15.563  0.3915  1.0729 -0.2266
  916MPD2    C313462   3.408   3.622  15.435 -0.3742  0.3307  0.4569
  916MPD2    C413463   3.446   3.716  15.339  0.3266  0.2190 -0.7198
  916MPD2    C513464   3.450   3.846  15.383 -0.2550  0.5186 -0.5875
  916MPD2     H13465   3.344   3.589  15.639 -1.0945  1.6406 -0.0777
  916MPD2    H113466   3.475   3.693  15.237  1.5217  0.0061 -0.3372
  916MPD2    H213467   3.411   4.000  15.521 -0.0611  0.2592 -0.8914
  916MPD2    H313468   3.488   3.920  15.314  0.3700  1.7681  1.1206
  916MPD2     N13469   3.404   3.482  15.405 -0.3243  0.2481  0.4260
  916MPD2    H513470   3.364   3.419  15.474  1.1761 -0.0755  1.0168
  916MPD2    N113471   3.341   3.852  15.730  0.1597 -0.5173 -0.5424
  916MPD2    H713472   3.351   3.952  15.737 -1.1133 -0.4710  0.6020
  917MPD2     C13473   4.556   1.575  11.152  0.6952  0.4427  0.0753
  917MPD2    C113474   4.427   1.542  11.129 -0.5176  0.1157  0.0575
  917MPD2    C213475   4.364   1.603  11.019  0.2623  0.5392 -0.0121
  917MPD2    C313476   4.429   1.692  10.941 -0.2018 -0.3188  0.4117
  917MPD2    C413477   4.567   1.715  10.962  0.0028 -0.0315  0.0218
  917MPD2    C513478   4.625   1.659  11.070  0.3604 -0.5551  0.9651
  917MPD2     H13479   4.256   1.591  11.012  0.2732 -0.0096  0.7728
  917MPD2    H113480   4.630   1.773  10.896 -0.2059 -0.1937 -0.3182
  917MPD2    H213481   4.606   1.534  11.240  2.9130  2.1078 -0.4123
  917MPD2    H313482   4.731   1.678  11.083  0.5234 -1.5687  1.1508
  917MPD2     N13483   4.374   1.766  10.827 -0.5337 -0.6878 -0.4310
  917MPD2    H513484   4.437   1.820  10.768 -1.3457  0.6770 -0.0347
  917MPD2    N113485   4.363   1.461  11.218 -0.2789 -0.4655  0.4814
  917MPD2    H713486   4.408   1.445  11.308  0.7193 -0.2410  0.0195
  918MPD2     C13487   4.373   1.724  12.015 -0.0192  0.0210 -0.0014
  918MPD2    C113488   4.441   1.606  11.984 -0.3027  0.0529 -0.3294
  918MPD2    C213489   4.408   1.534  11.867  0.0091 -0.5373 -0.5172
  918MPD2    C313490   4.294   1.569  11.801 -0.1738  0.4380  0.9865
  918MPD2    C413491   4.217   1.671  11.847 -0.1000 -0.1584 -0.3453
  918MPD2    C513492   4.261   1.758  11.944 -0.5243 -0.0105  1.2063
  918MPD2     H13493   4.457   1.441  11.839  0.3904 -1.1994  2.3308
  918MPD2    H113494   4.130   1.702  11.791 -1.0145 -0.0524  1.1445
  918MPD2    H213495   4.388   1.792  12.098  0.4934 -0.0994  0.0044
  918MPD2    H313496   4.201   1.846  11.962  0.4354  1.3423 -2.2743
  918MPD2     N13497   4.251   1.488  11.696  0.5599 -0.0602 -0.1187
  918MPD2    H513498   4.304   1.415  11.650 -0.8003 -0.7827 -0.5294
  918MPD2    N113499   4.550   1.559  12.064  0.5308 -0.4045 -0.4972
  918MPD2    H713500   4.593   1.477  12.021  0.6249 -0.7705  0.2970
  919MPD2     C13501   0.062   0.520  11.614  0.6343 -0.2947 -0.1481
  919MPD2    C113502   0.022   0.402  11.548  0.0616  0.1422  0.1977
  919MPD2    C213503   4.723   0.409  11.414  0.7024  0.0019  0.3581
  919MPD2    C313504   4.708   0.533  11.354 -0.5132 -0.4980  0.6641
  919MPD2    C413505   0.016   0.646  11.417  0.6753 -0.1835 -1.1123
  919MPD2    C513506   0.072   0.636  11.540  0.3438 -0.8442  0.1658
  919MPD2     H13507   4.701   0.315  11.364 -1.4145  2.4277 -3.3063
  919MPD2    H113508   0.025   0.744  11.372  0.7264  0.8916  1.2403
  919MPD2    H213509   0.110   0.515  11.711 -1.7296 -3.2121  0.8635
  919MPD2    H313510   0.105   0.731  11.580  0.2379 -1.5988  2.0254
  919MPD2     N13511   4.653   0.554  11.227  0.6453 -0.1003  0.2099
  919MPD2    H513512   4.637   0.651  11.201 -0.7960  0.1424  2.0025
  919MPD2    N113513   0.011   0.277  11.613 -0.7617  0.2913 -0.1234
  919MPD2    H713514   4.724   0.197  11.554  2.9511 -0.2817 -0.8783
  920MPD2     C13515   0.088   1.002  10.369 -0.4605  0.1335  0.6576
  920MPD2    C113516   4.708   0.940  10.339 -0.1318  0.0310 -0.7242
  920MPD2    C213517   4.649   0.856  10.437 -0.0339  0.4263 -0.5804
  920MPD2    C313518   4.717   0.828  10.557 -0.1256 -0.3171 -0.0533
  920MPD2    C413519   0.105   0.881  10.579 -0.1408 -0.4601 -0.6322
  920MPD2    C513520   0.156   0.971  10.484  0.4294  0.3590  0.8639
  920MPD2     H13521   4.551   0.816  10.417 -0.1668 -0.1023  1.1609
  920MPD2    H113522   0.157   0.858  10.671 -0.0760  0.0024 -0.5538
  920MPD2    H213523   0.128   1.078  10.303 -2.0624 -0.3662 -0.9098
  920MPD2    H313524   0.254   1.012  10.507  1.3314 -2.3144  1.8943
  920MPD2     N13525   4.646   0.745  10.655 -0.1732  0.0304  0.2042
  920MPD2    H513526   4.575   0.682  10.618  2.5534 -1.1975 -2.9966
  920MPD2    N113527   4.637   0.967  10.219  0.2056 -0.3740 -0.1323
  920MPD2    H713528   4.558   0.906  10.203  0.8209 -0.9328 -0.9974
  921MPD2     C13529   0.924   4.307  16.679 -0.4527 -0.0879 -0.2319
  921MPD2    C113530   0.945   4.291  16.543  0.3246  0.3750  0.0313
  921MPD2    C213531   0.841   4.229  16.470 -0.5166 -0.3959  0.2448
  921MPD2    C313532   0.720   4.192  16.525  0.7637 -0.1277 -0.2928
  921MPD2    C413533   0.699   4.217  16.660 -0.7137  0.3774  0.6078
  921MPD2    C513534   0.803   4.274  16.726  0.9239 -0.6678 -0.3639
  921MPD2     H13535   0.850   4.225  16.362  1.0787 -1.2708  0.4104
  921MPD2    H113536   0.615   4.184  16.721  1.0799 -2.9692  1.2651
  921MPD2    H213537   0.980   4.353  16.760  1.7323 -2.5369 -0.3466
  921MPD2    H313538   0.783   4.292  16.831  0.2333 -0.4826 -0.5252
  921MPD2     N13539   0.615   4.133  16.446 -0.1440 -0.8080 -0.3350
  921MPD2    H513540   0.617   4.134  16.344  2.0514 -0.2605 -0.2873
  921MPD2    N113541   1.063   4.323  16.477  0.1660 -0.2934 -0.2089
  921MPD2    H713542   1.079   4.301  16.380  0.3763  1.6869 -0.6150
  922MPD2     C13543   1.112   2.059  17.663  0.0446 -0.2619  0.2533
  922MPD2    C113544   1.138   2.133  17.542 -0.4348  0.1023 -0.6463
  922MPD2    C213545   1.040   2.123  17.440  0.0678 -0.3986  0.2512
  922MPD2    C313546   0.915   2.067  17.461  0.1370  0.1062 -0.2164
  922MPD2    C413547   0.894   1.993  17.578 -0.3412  0.2885 -0.2832
  922MPD2    C513548   0.994   1.990  17.671 -0.0423 -0.3811 -0.3839
  922MPD2     H13549   1.056   2.171  17.344  0.7275 -0.0737  0.5221
  922MPD2    H113550   0.805   1.937  17.606 -1.1716  2.2543  1.0516
  922MPD2    H213551   1.188   2.041  17.738 -1.1813 -3.9500  0.6240
  922MPD2    H313552   0.975   1.931   0.015 -1.5309 -0.8021 -0.9933
  922MPD2     N13553   0.817   2.074  17.360 -0.1091 -0.0949 -0.0610
  922MPD2    H513554   0.835   2.126  17.275  2.9911 -2.6719 -0.9465
  922MPD2    N113555   1.255   2.209  17.512 -0.5451 -0.2805  0.2224
  922MPD2    H713556   1.254   2.254  17.421  1.6601 -0.7756 -0.0298
  923MPD2     C13557   3.186   3.888   8.883 -1.4320 -0.2620  0.0493
  923MPD2    C113558   3.130   3.988   8.948  0.2346  0.2962 -0.0543
  923MPD2    C213559   3.174   4.011   9.079  0.2024 -0.4540  0.0480
  923MPD2    C313560   3.279   3.930   9.130  0.8159  0.2087 -0.0519
  923MPD2    C413561   3.330   3.823   9.058 -0.2373 -0.2576 -0.8653
  923MPD2    C513562   3.285   3.810   8.932  0.6890 -0.4018 -0.3410
  923MPD2     H13563   3.129   4.091   9.136  1.3520 -0.2536  0.6823
  923MPD2    H113564   3.411   3.756   9.084  1.9423  2.4471 -0.6635
  923MPD2    H213565   3.163   3.876   8.778 -3.9284 -0.2688  0.5988
  923MPD2    H313566   3.339   3.742   8.866 -3.9171 -0.7128 -3.7666
  923MPD2     N13567   3.326   3.940   9.262 -0.4904  0.4976  0.0112
  923MPD2    H513568   3.391   3.867   9.291 -0.8275  0.1421 -0.1167
  923MPD2    N113569   3.011   4.054   8.896 -0.3063 -0.1835 -0.3109
  923MPD2    H713570   2.979   4.026   8.804  0.4442 -0.2664 -0.5462
  924MPD2     C13571   2.395   1.809  15.808  0.6199 -0.1271  0.0460
  924MPD2    C113572   2.426   1.882  15.918 -0.3791  0.1350  0.6656
  924MPD2    C213573   2.544   1.951  15.926  0.7282  0.2116 -0.0051
  924MPD2    C313574   2.635   1.953  15.820 -0.9028 -0.4187 -0.2273
  924MPD2    C413575   2.612   1.871  15.710 -0.1739  0.1558 -0.0578
  924MPD2    C513576   2.497   1.800  15.713  0.0452 -0.3267 -0.1964
  924MPD2     H13577   2.569   2.007  16.015 -1.0782  0.7635  0.1461
  924MPD2    H113578   2.671   1.876  15.619  1.3080  1.8189  1.0151
  924MPD2    H213579   2.305   1.750  15.795  1.4120 -1.0607 -1.2153
  924MPD2    H313580   2.467   1.751  15.621 -0.9036 -1.8633  0.9230
  924MPD2     N13581   2.751   2.041  15.837 -0.0404 -0.0642  0.0440
  924MPD2    H513582   2.782   2.065  15.931  0.4707  0.2223 -0.2003
  924MPD2    N113583   2.344   1.881  16.031 -0.2938  0.3139  0.1922
  924MPD2    H713584   2.384   1.931  16.110 -1.0374 -0.2603  0.9392
  925MPD2     C13585   1.364   0.185  14.742 -0.8889  0.4275 -0.8978
  925MPD2    C113586   1.282   0.277  14.689 -0.5128  0.6826 -0.5798
  925MPD2    C213587   1.237   0.391  14.757 -0.0559  0.4201 -0.0338
  925MPD2    C313588   1.281   0.403  14.889  0.9451 -0.3082 -0.4941
  925MPD2    C413589   1.374   0.319  14.944 -0.5523 -0.1559  0.8415
  925MPD2    C513590   1.406   0.203  14.871 -0.0330 -0.0787 -0.3252
  925MPD2     H13591   1.159   0.455  14.717 -0.6689 -1.6080 -2.0584
  925MPD2    H113592   1.398   0.326  15.049  0.5902  1.3279  0.4881
  925MPD2    H213593   1.401   0.095  14.694 -0.0904  1.0479 -1.4491
  925MPD2    H313594   1.475   0.134  14.916  1.9995  2.1385 -0.0397
  925MPD2     N13595   1.221   0.498  14.976  0.5873  0.0218  0.5220
  925MPD2    H513596   1.261   0.494  15.069  0.3004  3.2624  0.8083
  925MPD2    N113597   1.243   0.254  14.555 -0.4016  0.3526  0.0198
  925MPD2    H713598   1.163   0.305  14.520 -1.3550 -0.5979  0.8072
  926MPD2     C13599   0.834   3.657  13.024 -0.8944  0.0491 -0.0683
  926MPD2    C113600   0.720   3.637  12.948  0.2688 -0.1654 -0.0387
  926MPD2    C213601   0.719   3.673  12.816  0.3342 -0.2780  0.6506
  926MPD2    C313602   0.830   3.722  12.755  0.1796 -0.4178 -0.0707
  926MPD2    C413603   0.941   3.739  12.830 -0.5428 -0.4947  0.2532
  926MPD2    C513604   0.941   3.712  12.965  0.7912 -0.5526 -0.9046
  926MPD2     H13605   0.628   3.658  12.758  0.5901 -1.1141  0.4662
  926MPD2    H113606   1.026   3.781  12.777 -1.0088  0.1798  0.0323
  926MPD2    H213607   0.860   3.626  13.124 -2.0711 -1.9570 -0.3764
  926MPD2    H313608   1.028   3.735  13.026 -0.2132 -0.2238  0.4120
  926MPD2     N13609   0.837   3.764  12.617  1.1575 -0.2565 -0.1580
  926MPD2    H513610   0.931   3.794  12.593  0.8061 -0.6639 -2.0195
  926MPD2    N113611   0.604   3.575  13.009 -0.0379 -0.3307 -0.1208
  926MPD2    H713612   0.520   3.569  12.954  0.4428  1.3129 -1.0335
  927MPD2     C13613   4.354   1.109  16.932  0.0572 -0.4706  0.2341
  927MPD2    C113614   4.471   1.092  17.003  0.3210  0.2054 -0.2375
  927MPD2    C213615   4.585   1.047  16.934 -0.4651 -0.1213  0.5300
  927MPD2    C313616   4.579   1.004  16.803  0.4900  0.9197  0.0752
  927MPD2    C413617   4.458   1.013  16.737  0.5106 -0.1930  0.4342
  927MPD2    C513618   4.348   1.066  16.802 -0.1400  0.6453  0.0121
  927MPD2     H13619   4.676   1.026  16.990  0.9508 -0.1946 -1.8053
  927MPD2    H113620   4.441   0.976  16.637  1.7021 -0.1555  0.2138
  927MPD2    H213621   4.266   1.151  16.979  0.3166 -0.6689  0.8999
  927MPD2    H313622   4.254   1.060  16.749 -0.1731 -0.3965  0.1970
  927MPD2     N13623   4.696   0.944  16.750 -0.3623  0.7461  0.1434
  927MPD2    H513624   0.046   0.944  16.804 -0.8883 -3.0668  0.9770
  927MPD2    N113625   4.469   1.125  17.140  0.7139 -0.2383 -0.2015
  927MPD2    H713626   4.403   1.194  17.174  0.8179 -0.2300 -0.0161
  928MPD2     C13627   3.544   4.109   1.142 -0.2907  0.0613  0.0847
  928MPD2    C113628   3.638   4.175   1.077  0.2629 -0.0169  0.2564
  928MPD2    C213629   3.653   4.151   0.942  0.3477  0.0509 -0.1500
  928MPD2    C313630   3.566   4.081   0.862 -0.8721  0.2025  0.5645
  928MPD2    C413631   3.462   4.022   0.932 -0.0592 -0.4597  0.1909
  928MPD2    C513632   3.457   4.031   1.066  0.1955  0.4991  0.3612
  928MPD2     H13633   3.735   4.210   0.903  1.2475  0.3832  2.2248
  928MPD2    H113634   3.392   3.953   0.887 -0.9867  0.0432  0.8366
  928MPD2    H213635   3.528   4.119   1.249 -1.0670  0.4661 -0.0674
  928MPD2    H313636   3.381   3.986   1.129  0.7438  0.3289  0.9113
  928MPD2     N13637   3.577   4.072   0.723 -0.0234  0.2864 -0.0128
  928MPD2    H513638   3.492   4.043   0.677  0.3998 -0.9841  0.0171
  928MPD2    N113639   3.731   4.267   1.129  0.7273  0.5316 -0.2910
  928MPD2    H713640   3.814   4.278   1.073 -0.9942  2.1117 -2.5523
  929MPD2     C13641   2.862   4.144  10.443  0.1293  0.2268 -0.1920
  929MPD2    C113642   2.754   4.065  10.409 -0.2121 -0.2685 -0.1668
  929MPD2    C213643   2.731   4.050  10.272  0.2159  0.2677  0.5649
  929MPD2    C313644   2.801   4.125  10.177 -0.7413  0.2664  0.5610
  929MPD2    C413645   2.906   4.212  10.217 -0.0144 -0.9008 -0.2455
  929MPD2    C513646   2.932   4.218  10.354 -0.8086 -0.2676 -0.3416
  929MPD2     H13647   2.649   3.983  10.247  0.5385 -0.2757  0.9487
  929MPD2    H113648   2.951   4.276  10.142 -0.0544 -1.7794 -1.0164
  929MPD2    H213649   2.894   4.161  10.546  2.1319  1.0464 -0.9443
  929MPD2    H313650   3.008   4.287  10.390  1.8831 -2.1544 -2.3669
  929MPD2     N13651   2.781   4.111  10.039 -0.3904  0.2373  0.8853
  929MPD2    H513652   2.833   4.161   9.967  1.6193 -1.0214  1.4569
  929MPD2    N113653   2.687   3.997  10.509 -0.2024 -0.6058 -0.1175
  929MPD2    H713654   2.724   4.025  10.600 -0.4327 -0.5111 -0.0528
  930MPD2     C13655   4.661   1.453  14.219  0.6482  0.3566  0.4146
  930MPD2    C113656   4.668   1.531  14.106 -0.2937  0.1493 -0.4577
  930MPD2    C213657   4.608   1.488  13.991  0.3930  0.0551 -0.3603
  930MPD2    C313658   4.542   1.370  13.978  1.2793  0.1194  0.3081
  930MPD2    C413659   4.537   1.291  14.096 -0.3291  0.3960  0.8030
  930MPD2    C513660   4.592   1.331  14.213 -0.3100 -0.4469 -0.6209
  930MPD2     H13661   4.616   1.548  13.901  1.9378  1.7338  0.9022
  930MPD2    H113662   4.491   1.193  14.102  1.2909 -0.3643  0.6372
  930MPD2    H213663   4.722   1.484  14.304  0.2427  0.3655  0.7015
  930MPD2    H313664   4.584   1.263  14.298 -0.4241  0.7451  0.3254
  930MPD2     N13665   4.501   1.332  13.851  0.2649 -0.1476 -0.4070
  930MPD2    H513666   4.513   1.405  13.782  1.7194 -1.0764 -1.1157
  930MPD2    N113667   4.725   1.659  14.101 -0.1518  0.4656  0.1472
  930MPD2    H713668   4.718   1.703  14.010  1.9705 -1.1242 -0.7794
  931MPD2     C13669   0.356   1.023  17.583  0.3035 -0.4637 -0.9329
  931MPD2    C113670   0.244   0.993  17.657  0.4270 -0.1942 -0.4871
  931MPD2    C213671   0.267   0.919   0.028  0.2379  0.7535  0.2482
  931MPD2    C313672   0.392   0.877   0.072 -0.2126 -1.3706  0.7772
  931MPD2    C413673   0.499   0.906  17.736  0.3635  0.2738 -0.3421
  931MPD2    C513674   0.481   0.965  17.613  0.1646 -0.3676  0.3700
  931MPD2     H13675   0.187   0.909   0.101 -0.5366  0.7803 -0.5941
  931MPD2    H113676   0.601   0.873   0.002 -1.3975 -4.5768  1.4849
  931MPD2    H213677   0.360   1.081  17.491 -0.6369 -0.6237 -1.0776
  931MPD2    H313678   0.565   0.975  17.546  0.5427 -1.8301  0.6495
  931MPD2     N13679   0.427   0.816   0.190  0.5023  0.1643  0.0072
  931MPD2    H513680   0.526   0.794   0.201  0.0014 -1.2074  1.7601
  931MPD2    N113681   0.122   1.037  17.595  0.2820  0.0678 -0.0898
  931MPD2    H713682   0.126   1.083  17.505  2.4017 -1.0508 -0.5640
  932MPD2     C13683   1.313   0.014  10.903 -0.1984 -0.3440 -0.4686
  932MPD2    C113684   1.408   0.054  10.996  0.1334 -0.9150 -0.2087
  932MPD2    C213685   1.419   4.716  11.109  0.7669  0.1517  0.4753
  932MPD2    C313686   1.326   4.609  11.138 -0.1313 -0.8178  0.2140
  932MPD2    C413687   1.235   4.572  11.040 -0.5117  0.1634 -0.7785
  932MPD2    C513688   1.239   4.634  10.920  0.6948 -0.4988 -0.0371
  932MPD2     H13689   1.501   0.007  11.173 -0.1144  0.0845  1.6412
  932MPD2    H113690   1.174   4.483  11.055 -0.0995 -0.2879 -1.7549
  932MPD2    H213691   1.312   0.068  10.809 -0.1986  2.1907  0.9945
  932MPD2    H313692   1.176   4.603  10.838  0.8563 -0.7489 -0.0671
  932MPD2     N13693   1.324   4.540  11.258  0.1063  0.4202  0.0242
  932MPD2    H513694   1.258   4.465  11.277 -0.1155  0.3972 -0.8167
  932MPD2    N113695   1.492   0.171  10.977  0.2426 -0.2733  0.0460
  932MPD2    H713696   1.564   0.192  11.045 -1.3442  0.4114  1.4969
  933MPD2     C13697   4.174   0.175   1.618  0.2832  0.8680 -0.3563
  933MPD2    C113698   4.048   0.138   1.581 -0.0591 -0.0970  0.7899
  933MPD2    C213699   3.944   0.233   1.588 -0.7714  0.5887 -0.2695
  933MPD2    C313700   3.974   0.360   1.627  0.2749  0.3637  0.0022
  933MPD2    C413701   4.101   0.393   1.663  0.5129  0.2342  0.6343
  933MPD2    C513702   4.203   0.301   1.652  0.0234  0.3584  0.3470
  933MPD2     H13703   3.849   0.204   1.545 -0.7959  0.0319  0.1638
  933MPD2    H113704   4.131   0.492   1.696 -0.9313  0.0271  2.5577
  933MPD2    H213705   4.255   0.104   1.610 -1.7774 -1.5406 -0.1041
  933MPD2    H313706   4.303   0.336   1.677  1.0763 -1.5201 -1.1955
  933MPD2     N13707   3.867   0.448   1.618 -0.2483  0.5827 -0.2767
  933MPD2    H513708   3.772   0.411   1.617  0.5833 -1.5952  0.3098
  933MPD2    N113709   4.031   0.013   1.532  0.4387 -0.3112  0.0343
  933MPD2    H713710   4.116   4.695   1.520 -0.7860 -1.8786 -1.5025
  934MPD2     C13711   4.399   1.661   1.794 -0.4501 -0.1876 -0.5638
  934MPD2    C113712   4.461   1.597   1.688  0.0241  0.9573 -0.5007
  934MPD2    C213713   4.386   1.574   1.577 -0.2724  0.8311  0.3018
  934MPD2    C313714   4.255   1.617   1.569  0.0056  0.1272 -0.3197
  934MPD2    C413715   4.194   1.663   1.680  0.1821 -0.4089  0.4361
  934MPD2    C513716   4.265   1.674   1.792  0.3874 -0.3460  0.5189
  934MPD2     H13717   4.434   1.531   1.490 -1.9200 -0.1019 -0.1523
  934MPD2    H113718   4.093   1.700   1.694 -0.0615 -0.2037 -1.8546
  934MPD2    H213719   4.453   1.684   1.885 -1.8010  1.0445 -0.0817
  934MPD2    H313720   4.214   1.717   1.878  0.2175  1.1329 -0.3244
  934MPD2     N13721   4.177   1.606   1.452  0.0509  0.1783  0.0840
  934MPD2    H513722   4.082   1.642   1.457 -0.7018 -1.5114 -2.2310
  934MPD2    N113723   4.592   1.548   1.686 -0.9126 -0.0844 -0.3428
  934MPD2    H713724   4.610   1.491   1.604 -0.6755 -3.1686  1.8190
  935MPD2     C13725   4.219   1.024   0.635 -0.1250  0.5225 -0.1033
  935MPD2    C113726   4.087   1.049   0.647  0.1359 -0.0867  0.4572
  935MPD2    C213727   4.041   1.131   0.745  0.0976 -0.4427  0.1084
  935MPD2    C313728   4.133   1.189   0.831 -0.2014 -0.5012  0.7506
  935MPD2    C413729   4.261   1.144   0.834 -0.6681  0.1466  0.4371
  935MPD2    C513730   4.311   1.080   0.725  0.7364 -0.5970  0.9570
  935MPD2     H13731   3.939   1.169   0.748 -0.0509 -0.8502  0.2025
  935MPD2    H113732   4.331   1.174   0.911 -0.4479  0.2666  0.1938
  935MPD2    H213733   4.255   0.970   0.548  0.0780  0.4099  0.0519
  935MPD2    H313734   4.419   1.069   0.716  0.4119 -1.3977 -2.0939
  935MPD2     N13735   4.112   1.290   0.918  0.1832  0.0127  0.1768
  935MPD2    H513736   4.191   1.326   0.971 -1.5167  1.1905  1.8963
  935MPD2    N113737   3.988   1.004   0.558 -0.0169 -0.3165 -0.1554
  935MPD2    H713738   3.891   1.020   0.583  0.1448  2.4431 -1.3128
  936MPD2     C13739   2.721   2.952  12.621  0.3647  0.8021 -0.1726
  936MPD2    C113740   2.634   3.033  12.554 -0.3497  0.0767 -0.3351
  936MPD2    C213741   2.668   3.078  12.429 -0.4570 -0.2874 -0.6687
  936MPD2    C313742   2.798   3.063  12.384 -0.4958  0.2798 -0.0407
  936MPD2    C413743   2.891   2.992  12.458 -0.3577  0.2670 -0.6513
  936MPD2    C513744   2.846   2.929  12.571  0.8229 -0.1640 -0.3318
  936MPD2     H13745   2.589   3.126  12.372  0.9975  2.2413 -0.5800
  936MPD2    H113746   2.992   2.990  12.419  0.0333  0.0706  0.3770
  936MPD2    H213747   2.700   2.910  12.719 -0.1645 -0.1338 -0.6913
  936MPD2    H313748   2.914   2.868  12.630 -0.7008 -1.2939  0.2485
  936MPD2     N13749   2.821   3.122  12.264  0.4506  0.8180  0.6089
  936MPD2    H513750   2.742   3.178  12.231  0.5622 -1.0520 -2.8331
  936MPD2    N113751   2.506   3.074  12.599 -0.0123 -0.0012 -0.5495
  936MPD2    H713752   2.457   3.140  12.539 -0.9345  0.5965  0.8346
  937MPD2     C13753   0.126   4.374  11.331  0.4450  0.0148  0.3652
  937MPD2    C113754   0.064   4.495  11.331 -0.2515  0.1450 -0.0106
  937MPD2    C213755   0.067   4.564  11.217 -0.0665 -0.3103  0.2363
  937MPD2    C313756   0.122   4.506  11.106  0.3638  0.3323  0.3860
  937MPD2    C413757   0.168   4.380  11.096 -0.4568 -0.1081  0.7218
  937MPD2    C513758   0.170   4.312  11.214 -0.0713 -0.3011  0.0588
  937MPD2     H13759   0.039   4.669  11.214 -0.4449 -0.4240 -0.1952
  937MPD2    H113760   0.198   4.332  11.004  0.4169  0.4557  0.7140
  937MPD2    H213761   0.133   4.315  11.422 -2.2905  1.1887  1.3251
  937MPD2    H313762   0.203   4.209  11.213 -0.2068 -0.3601  1.5412
  937MPD2     N13763   0.145   4.597  10.993  0.3754 -0.7257 -0.1114
  937MPD2    H513764   0.112   4.692  11.006  0.6446 -0.4029 -1.7772
  937MPD2    N113765   0.040   4.573  11.450 -0.3097  0.3335 -0.3145
  937MPD2    H713766   0.007   4.667  11.432 -1.6774  0.2036  1.4521
  938MPD2     C13767   2.757   1.418   0.766  0.0205 -0.0387  0.4112
  938MPD2    C113768   2.879   1.455   0.808 -0.6331  0.5801 -0.0918
  938MPD2    C213769   2.945   1.368   0.899 -0.4356 -0.3227  0.1163
  938MPD2    C313770   2.892   1.251   0.940  0.3869 -0.7101  0.6424
  938MPD2    C413771   2.769   1.219   0.891  0.9089 -0.9087 -0.2154
  938MPD2    C513772   2.705   1.304   0.806  0.2261 -0.5454  0.2269
  938MPD2     H13773   3.047   1.388   0.928 -0.6341  1.3612 -0.3467
  938MPD2    H113774   2.726   1.125   0.924 -2.7944  0.3483 -1.4364
  938MPD2    H213775   2.690   1.484   0.712  2.1132  0.2674 -1.8115
  938MPD2    H313776   2.601   1.290   0.778 -0.5972  3.5058  1.2437
  938MPD2     N13777   2.954   1.154   1.022 -0.2065  0.4655  0.3350
  938MPD2    H513778   2.888   1.080   1.044 -0.6473  1.0716  1.0732
  938MPD2    N113779   2.938   1.583   0.785 -0.1227  0.0987 -0.8066
  938MPD2    H713780   3.020   1.602   0.843  0.8070 -1.5137 -1.5812
  939MPD2     C13781   4.296   2.368   0.689 -0.0792  0.0880 -0.1853
  939MPD2    C113782   4.176   2.424   0.711  0.1501  0.0982  0.5276
  939MPD2    C213783   4.068   2.396   0.630  0.1215  0.7300 -1.0454
  939MPD2    C313784   4.081   2.303   0.531 -0.4081 -0.1993  0.6182
  939MPD2    C413785   4.199   2.230   0.515 -0.3129  0.0480 -0.1190
  939MPD2    C513786   4.309   2.268   0.593 -0.4860  0.7270 -0.2005
  939MPD2     H13787   3.980   2.456   0.651 -1.4219 -1.5749 -0.9084
  939MPD2    H113788   4.210   2.146   0.447  0.0222  1.1915 -1.4844
  939MPD2    H213789   4.381   2.409   0.743 -0.9967  0.4719  0.9909
  939MPD2    H313790   4.403   2.215   0.583 -1.0082 -0.2078 -0.1826
  939MPD2     N13791   3.961   2.279   0.460 -0.8173  0.3195 -0.1325
  939MPD2    H513792   3.882   2.339   0.476 -1.4714 -0.6670  0.3243
  939MPD2    N113793   4.163   2.519   0.817 -0.2105 -0.7514 -0.5389
  939MPD2    H713794   4.234   2.511   0.890 -1.9247 -1.7484  1.0238
  940MPD2     C13795   2.900   3.402  12.751 -0.2324  0.4524  0.1610
  940MPD2    C113796   2.911   3.277  12.806  0.5568  0.6423 -0.0205
  940MPD2    C213797   3.015   3.190  12.767 -0.7786 -0.5401 -0.1231
  940MPD2    C313798   3.104   3.229  12.668 -0.3623 -0.0011  0.4327
  940MPD2    C413799   3.088   3.353  12.613 -0.6481  0.0691  0.3206
  940MPD2    C513800   2.989   3.438  12.648  0.2109 -0.4833  0.4420
  940MPD2     H13801   3.021   3.097  12.823  1.5049 -0.7821 -0.7824
  940MPD2    H113802   3.157   3.393  12.539 -1.6535  1.7584  0.3057
  940MPD2    H213803   2.828   3.476  12.783 -0.1331  1.8383 -2.8887
  940MPD2    H313804   2.981   3.535  12.600 -2.0360 -0.9302 -0.0912
  940MPD2     N13805   3.210   3.148  12.620 -0.1034  0.6240 -0.6146
  940MPD2    H513806   3.267   3.192  12.548 -2.5582  3.2002 -0.9866
  940MPD2    N113807   2.825   3.222  12.900 -0.4095 -0.1193  0.1113
  940MPD2    H713808   2.842   3.124  12.920  0.6353  0.3926  1.7506
  941MPD2     C13809   1.633   2.585   9.652 -0.6840 -0.5920  0.3629
  941MPD2    C113810   1.725   2.506   9.718  0.1124  0.3565 -0.3909
  941MPD2    C213811   1.731   2.370   9.704  0.3411 -0.0057  1.1355
  941MPD2    C313812   1.653   2.306   9.616  0.3098  0.6255  0.7910
  941MPD2    C413813   1.558   2.382   9.551  0.4697 -0.5077 -0.1219
  941MPD2    C513814   1.546   2.517   9.565 -0.5912 -0.4253  0.4160
  941MPD2     H13815   1.802   2.320   9.770 -0.7727 -2.0995  0.7159
  941MPD2    H113816   1.500   2.344   9.468 -0.3037  1.5469 -0.5086
  941MPD2    H213817   1.629   2.693   9.665  0.7809 -0.5664  0.5462
  941MPD2    H313818   1.475   2.577   9.509  1.3657 -0.2147 -1.8479
  941MPD2     N13819   1.642   2.170   9.602 -0.3056 -0.8012 -0.9293
  941MPD2    H513820   1.577   2.147   9.527 -1.9235 -0.6450  0.4429
  941MPD2    N113821   1.804   2.562   9.815  0.0104 -0.2113  0.0261
  941MPD2    H713822   1.841   2.508   9.893  2.7552  2.6243  0.6544
  942MPD2     C13823   2.368   3.986   8.518  0.2300 -0.1111  0.2290
  942MPD2    C113824   2.331   3.977   8.651  0.1063 -0.7359  0.2357
  942MPD2    C213825   2.414   3.922   8.745  0.6121 -0.1875 -0.3515
  942MPD2    C313826   2.543   3.890   8.705  0.0440  0.0241  0.1680
  942MPD2    C413827   2.572   3.883   8.570 -0.1923 -0.9502 -0.1261
  942MPD2    C513828   2.486   3.934   8.473  0.6142  0.7082 -0.6589
  942MPD2     H13829   2.376   3.916   8.846 -3.1665 -1.1944 -1.8470
  942MPD2    H113830   2.675   3.869   8.539 -0.3911 -1.8944 -0.3592
  942MPD2    H213831   2.292   4.018   8.448 -0.7786 -0.9131  0.9713
  942MPD2    H313832   2.514   3.942   8.369 -1.1998 -2.7856 -1.3977
  942MPD2     N13833   2.651   3.864   8.791 -0.3229 -0.0918  0.4741
  942MPD2    H513834   2.744   3.854   8.750  0.5013 -0.5695  2.4773
  942MPD2    N113835   2.219   4.037   8.702  0.0729  0.0068 -0.2030
  942MPD2    H713836   2.201   4.025   8.802  0.1049 -0.0060 -0.1990
  943MPD2     C13837   0.984   1.782   9.773 -0.0654  0.2856 -0.1879
  943MPD2    C113838   1.074   1.762   9.880  0.5038 -0.5654  0.0745
  943MPD2    C213839   1.182   1.847   9.905  0.5148  0.6679  0.2281
  943MPD2    C313840   1.195   1.958   9.817 -0.0320  0.4384  0.9622
  943MPD2    C413841   1.104   1.972   9.711  1.4327 -0.2990 -0.0985
  943MPD2    C513842   1.000   1.882   9.684 -0.3254  0.7590  0.1145
  943MPD2     H13843   1.258   1.823   9.978 -3.0630 -1.8210  3.0931
  943MPD2    H113844   1.092   2.061   9.650 -2.1615 -1.0248 -0.4495
  943MPD2    H213845   0.896   1.721   9.758 -0.2001  0.7187 -1.1645
  943MPD2    H313846   0.925   1.910   9.611  0.6996  1.7453 -0.5500
  943MPD2     N13847   1.295   2.055   9.829  0.6517 -0.3735  0.2388
  943MPD2    H513848   1.295   2.134   9.765  3.2233 -0.1778  0.4936
  943MPD2    N113849   1.051   1.652   9.969 -0.1606 -0.4617  0.4944
  943MPD2    H713850   0.985   1.586   9.930  0.8534 -1.4841  0.5089
  944MPD2     C13851   0.769   0.862  10.863  0.5052 -0.1442 -0.5508
  944MPD2    C113852   0.878   0.942  10.884  0.2553 -0.4643  0.8308
  944MPD2    C213853   0.862   1.044  10.985 -0.2814  0.6721 -0.4230
  944MPD2    C313854   0.746   1.059  11.052 -0.4266  0.1527  0.0781
  944MPD2    C413855   0.638   0.982  11.025  0.0386  0.1613 -0.2641
  944MPD2    C513856   0.650   0.879  10.931  0.0536  0.0016 -0.4915
  944MPD2     H13857   0.937   1.121  10.997  0.0690  0.1867  0.5295
  944MPD2    H113858   0.542   0.993  11.073 -0.3902  1.9766 -1.5295
  944MPD2    H213859   0.774   0.785  10.787  0.0224 -1.4641  0.7568
  944MPD2    H313860   0.570   0.810  10.907  0.3450 -0.5791  0.1971
  944MPD2     N13861   0.741   1.181  11.128 -0.0787  0.4793  0.3373
  944MPD2    H513862   0.825   1.238  11.123  0.2092 -0.0431 -1.0964
  944MPD2    N113863   0.989   0.934  10.796  0.0866  0.1291  0.2036
  944MPD2    H713864   0.982   0.882  10.709 -1.2573  2.4134 -1.0680
    1TMC1    C113865   3.847   2.444  14.206  0.5668  0.4487  0.2182
    1TMC1    C213866   3.853   2.401  14.336 -0.6299 -0.7196  0.0109
    1TMC1    C313867   3.782   2.282  14.357 -0.2644 -0.0223 -0.2716
    1TMC1    C413868   3.783   2.381  14.107  0.1843  0.5819  0.0833
    1TMC1    C513869   3.736   2.250  14.127 -0.3235 -0.4655 -0.2700
    1TMC1    C613870   3.726   2.209  14.258  0.1101 -0.2528 -0.2847
    1TMC1     C13871   3.900   2.583  14.185  0.2492 -0.4365 -0.1843
    1TMC1     O13872   3.977   2.617  14.279  0.1518 -0.4145 -0.3376
    1TMC1     H13873   3.896   2.459  14.416 -2.5504 -1.5613  1.6556
    1TMC1    H113874   3.808   2.415  14.007  3.0283 -0.4545  0.4198
    1TMC1    H213875   3.680   2.114  14.278 -1.3615  0.1398 -1.8017
    1TMC1    C713876   3.644   2.179  14.031 -0.0101  0.0248 -0.2779
    1TMC1    C813877   3.751   2.232  14.489  0.8343  0.2621 -0.2756
    1TMC1    O113878   3.539   2.142  14.071 -0.5391  0.3634 -0.8669
    1TMC1    O213879   3.729   2.114  14.508  0.2895  0.6272  0.2004
    1TMC1    O313880   3.671   2.231  13.910  0.2235 -0.0896 -0.2681
    1TMC1    H313881   3.769   2.221  13.906  0.3636  1.0428  0.2371
    1TMC1    O513882   3.667   2.327  14.528 -0.4686  0.9966 -0.1717
    1TMC1    H513883   3.678   2.420  14.497 -0.0496  1.2371  0.6910
    2MPD2     C13884   3.880   3.058  13.986 -0.5756  0.2379 -0.4449
    2MPD2    C113885   3.766   2.989  13.946  0.2346 -0.0122  0.4473
    2MPD2    C213886   3.762   2.849  13.977  0.0643  0.2976  0.6487
    2MPD2    C313887   3.853   2.790  14.062  0.4349  0.2016 -0.1087
    2MPD2    C413888   3.959   2.865  14.109 -0.3194  0.1288  0.5839
    2MPD2    C513889   3.965   2.999  14.073 -0.0338 -0.9519  0.4383
    2MPD2     H13890   3.676   2.796  13.939 -0.5169  1.3652  0.4630
    2MPD2    H113891   4.039   2.828  14.171  0.5701  0.3376 -0.4279
    2MPD2    H213892   3.889   3.163  13.961  0.1397  0.6151  1.4132
    2MPD2    H313893   4.053   3.051  14.109 -0.1407  0.3099 -1.1147
    2MPD2     N13894   3.834   2.654  14.093 -0.8298  0.1363  0.3500
    2MPD2    H513895   3.755   2.613  14.043  0.1480 -2.3660  0.8448
    2MPD2    N113896   3.667   3.057  13.876  0.0631  0.2819  0.0548
    2MPD2    H713897   3.687   3.155  13.856 -1.4472  0.1171 -2.2452
    3TMC2    C113898   3.448   3.102  13.817  0.8422 -0.3004 -0.2059
    3TMC2    C213899   3.332   3.049  13.773 -0.3676 -0.2874  0.8259
    3TMC2    C313900   3.218   3.128  13.792  0.8473 -0.0842  0.0907
    3TMC2    C413901   3.451   3.221  13.888 -0.3757 -0.1106  0.1116
    3TMC2    C513902   3.338   3.289  13.917  0.5615  0.3607  0.0752
    3TMC2    C613903   3.219   3.248  13.864  0.6336 -0.0943  0.4189
    3TMC2     C13904   3.544   3.001  13.853  0.5717  0.0995 -0.3200
    3TMC2     O13905   3.504   2.888  13.838  0.4920  0.0993 -1.1803
    3TMC2     H13906   3.327   2.955  13.719  1.5455  0.4758 -0.6925
    3TMC2    H113907   3.536   3.247  13.949  0.4904  0.1282 -1.2110
    3TMC2    H213908   3.127   3.305  13.876  0.3152 -0.2646 -1.2037
    3TMC2    C713909   3.358   3.432  13.943 -0.2974  0.2693 -0.6027
    3TMC2    C813910   3.098   3.056  13.820 -0.5902  0.7177  0.2562
    3TMC2    O113911   3.456   3.487  13.889 -0.0030  0.7177 -0.3054
    3TMC2    O213912   3.092   2.934  13.828 -0.1114  0.0004  0.5905
    3TMC2    O513913   2.997   3.138  13.773 -0.2826  0.0832  0.4615
    3TMC2    H513914   3.018   3.215  13.716  0.6088  0.3224  1.1190
    4TMC2    C113915   2.618   3.827  14.431  0.0549  0.0963  0.4681
    4TMC2    C213916   2.572   3.767  14.551 -0.3428 -0.4890  0.2891
    4TMC2    C313917   2.654   3.672  14.603  0.0309 -0.2943  0.5652
    4TMC2    C413918   2.739   3.801  14.371 -0.3623  0.0503  0.0294
    4TMC2    C513919   2.816   3.703  14.432  0.3077 -0.2266  0.1667
    4TMC2    C613920   2.775   3.640  14.542 -0.4345 -0.0799  0.4994
    4TMC2     C13921   2.510   3.896  14.352 -0.1395 -0.0002  0.1026
    4TMC2     O13922   2.408   3.929  14.414 -0.5838  0.2955 -0.0626
    4TMC2     H13923   2.470   3.782  14.586  1.4261  2.4820  4.1363
    4TMC2    H113924   2.779   3.856  14.287  1.3228  0.3502  1.0109
    4TMC2    H213925   2.846   3.580  14.597 -0.1801 -0.5969 -0.3953
    4TMC2    C713926   2.956   3.679  14.396  0.7827  0.0094  0.2172
    4TMC2    C813927   2.598   3.582  14.701  0.2272 -0.0317 -0.1542
    4TMC2    O113928   2.995   3.566  14.421 -0.1748  0.7394  0.2045
    4TMC2    O213929   2.481   3.579  14.729 -0.2849  0.0406 -0.0456
    4TMC2    O513930   2.694   3.547  14.788  0.9309 -0.3480  0.6471
    4TMC2    H513931   2.765   3.614  14.774  1.0906 -0.3479  1.4413
    5MPD2     C13932   2.304   4.012  13.893 -0.1003  0.2555 -0.7566
    5MPD2    C113933   2.424   3.951  13.879 -0.0930 -0.3032  1.0265
    5MPD2    C213934   2.494   3.905  13.983  0.5513  0.3969  0.8568
    5MPD2    C313935   2.457   3.925  14.115 -0.1708  0.6578 -0.3301
    5MPD2    C413936   2.338   3.983  14.137 -0.2034  0.3388  0.0692
    5MPD2    C513937   2.261   4.021  14.026 -0.1600  0.5127  0.8558
    5MPD2     H13938   2.589   3.854  13.967  0.2966 -0.7504  3.0434
    5MPD2    H113939   2.301   4.008  14.236 -4.0184  0.0585 -1.2614
    5MPD2    H213940   2.239   4.059  13.820 -0.6746  0.1012 -0.3442
    5MPD2    H313941   2.168   4.073  14.045 -1.5173 -1.3819 -0.5758
    5MPD2     N13942   2.537   3.886  14.218  0.3427  0.3782 -0.8430
    5MPD2    H513943   2.630   3.859  14.187  0.3919  0.5582 -0.8561
    5MPD2    N113944   2.469   3.927  13.746  0.0481 -0.0841 -0.1561
    5MPD2    H713945   2.395   3.940  13.677 -0.0827  0.6956  0.1376
    6MPD1     C13946   2.292   4.290  11.888  0.1560  0.2011 -0.0440
    6MPD1    C113947   2.414   4.240  11.910  0.5027  0.0182 -0.1205
    6MPD1    C213948   2.454   4.199  12.037 -0.3635 -0.1418  0.1455
    6MPD1    C313949   2.349   4.162  12.120  0.8251  0.0618 -0.4166
    6MPD1    C413950   2.220   4.199  12.093  0.0687 -0.6669 -0.1357
    6MPD1    C513951   2.194   4.275  11.985 -0.2671  0.7235 -0.2129
    6MPD1     H13952   2.558   4.174  12.055 -0.1611 -0.6272 -1.7132
    6MPD1    H113953   2.141   4.174  12.163 -0.9353 -3.6334 -2.3434
    6MPD1    H213954   2.263   4.335  11.794 -0.2125 -1.8160 -0.8842
    6MPD1    H313955   2.096   4.314  11.957 -1.5284 -1.8175  0.6495
    6MPD1     N13956   2.369   4.098  12.246 -0.0874  0.2327 -0.3812
    6MPD1    H513957   2.284   4.067  12.292  1.1486  0.0454  1.8119
    6MPD1    N113958   2.510   4.276  11.810  0.4371 -0.0757  0.5413
    6MPD1    H613959   2.576   4.199  11.801  2.2066  1.7141 -1.5878
    6MPD1    H713960   2.468   4.310  11.724  2.4112 -2.7373 -1.4629
    7MPD2     C13961   2.094   3.925  12.965  0.7349  0.5793 -0.1815
    7MPD2    C113962   2.231   3.899  12.948  0.2984 -0.2786  0.0998
    7MPD2    C213963   2.301   3.854  13.054 -0.3077 -0.2061  0.0631
    7MPD2    C313964   2.237   3.833  13.178  0.6047  0.9091  0.2064
    7MPD2    C413965   2.105   3.868  13.202  0.5072  0.1110 -0.7661
    7MPD2    C513966   2.044   3.918  13.088  0.2773  0.1343 -0.3224
    7MPD2     H13967   2.406   3.833  13.039 -0.4037  0.4823 -1.6055
    7MPD2    H113968   2.053   3.866  13.297 -0.0006  0.8747 -1.0227
    7MPD2    H213969   2.030   3.965  12.887  1.0627  1.7606  0.1532
    7MPD2    H313970   1.944   3.962  13.093  0.0653 -0.2005 -1.8150
    7MPD2     N13971   2.304   3.776  13.290  0.0719 -0.6363  0.3457
    7MPD2    H513972   2.266   3.782  13.383  0.7110  1.7171  0.4687
    7MPD2    N113973   2.307   3.922  12.831  0.2484 -0.0484  0.0960
    7MPD2    H713974   2.406   3.911  12.849  1.0335  1.8633 -3.0931
    8TMC3    C113975   2.496   3.692  13.407  0.0083 -0.4157 -0.0980
    8TMC3    C213976   2.487   3.790  13.499  0.0656  0.8863 -0.1600
    8TMC3    C313977   2.600   3.836  13.563 -0.0848 -0.4879 -0.1302
    8TMC3    C413978   2.613   3.637  13.377 -0.1707  0.0840  0.2923
    8TMC3    C513979   2.727   3.693  13.433 -0.1194 -0.1634 -0.4688
    8TMC3    C613980   2.723   3.787  13.527 -0.1109 -0.3573 -0.7243
    8TMC3     C13981   2.427   3.714  13.281 -0.1562 -0.2350 -0.8074
    8TMC3     O13982   2.498   3.694  13.183 -0.4511 -0.0290 -0.3501
    8TMC3     H13983   2.389   3.831  13.521  0.5503  2.2235 -0.4818
    8TMC3    H113984   2.617   3.555  13.307 -2.5867  0.6268 -0.4947
    8TMC3    H213985   2.815   3.816  13.576  0.2885 -0.6844 -1.2710
    8TMC3    C713986   2.829   3.706  13.335  0.2021  0.2420 -0.3018
    8TMC3    C813987   2.587   3.864  13.711  0.1011 -0.9449  0.6852
    8TMC3    O113988   2.941   3.743  13.371  0.5229 -0.0795  0.1614
    8TMC3    O213989   2.690   3.840  13.773  0.0239  0.6812 -0.3008
    9TMC3    C113990   2.485   3.966  12.406  0.7960 -0.0289  0.0875
    9TMC3    C213991   2.597   3.887  12.436  0.1034  0.4763 -0.2878
    9TMC3    C313992   2.598   3.827  12.563 -0.5837  0.1986 -0.7793
    9TMC3    C413993   2.389   3.994  12.497 -0.1668  0.1269 -0.1414
    9TMC3    C513994   2.380   3.912  12.606 -0.7971  0.0659  0.2917
    9TMC3    C613995   2.487   3.839  12.651 -0.0439  0.8267  0.3390
    9TMC3     C13996   2.489   4.034  12.277  0.2985 -0.6780  0.1509
    9TMC3     O13997   2.581   4.003  12.205  0.2231 -0.1936  0.4610
    9TMC3     H13998   2.686   3.892  12.374  0.3015 -2.7533 -0.2655
    9TMC3    H113999   2.309   4.063  12.472 -2.5833 -2.3659  0.7629
    9TMC3    H214000   2.478   3.779  12.741  2.7496 -0.3946 -0.2205
    9TMC3    C714001   2.267   3.932  12.700  0.1532 -0.4011 -0.4268
    9TMC3    C814002   2.731   3.814  12.623  0.0295 -0.2113 -0.2943
    9TMC3    O114003   2.154   3.950  12.657  0.2267  0.6486  0.2714
    9TMC3    O214004   2.821   3.863  12.563 -0.2212  0.2768  0.6002
   10MPD2     C14005   2.966   3.769  13.076 -0.7264 -0.1043  0.3173
   10MPD2    C114006   2.836   3.729  13.086  0.2432  0.2110  0.1043
   10MPD2    C214007   2.768   3.722  12.972  0.0309 -0.2494 -1.1772
   10MPD2    C314008   2.815   3.765  12.850 -0.1518 -0.0294  0.3779
   10MPD2    C414009   2.941   3.809  12.841 -0.3066  0.4491  0.1167
   10MPD2    C514010   3.014   3.814  12.954  0.1822  0.0106  0.1721
   10MPD2     H14011   2.663   3.699  12.980 -0.1748  1.0052 -0.2847
   10MPD2    H114012   2.989   3.856  12.756  1.0152  0.0199  0.6415
   10MPD2    H214013   3.039   3.764  13.156 -0.8815  1.4614  0.5696
   10MPD2    H314014   3.116   3.852  12.954 -0.0774  0.7145  0.4192
   10MPD2     N14015   2.721   3.754  12.747 -0.1868  0.0670 -0.1293
   10MPD2    H514016   2.627   3.729  12.772 -0.4410 -0.1667 -1.3081
   10MPD2    N114017   2.769   3.705  13.208 -0.4503 -0.6755 -0.0993
   10MPD2    H714018   2.669   3.689  13.199 -0.5246 -0.2384 -0.0399
   11MPD2     C14019   3.300   3.717  14.005 -0.3372  0.3578  0.7332
   11MPD2    C114020   3.241   3.609  14.066  0.7543  0.3898  0.4235
   11MPD2    C214021   3.152   3.622  14.167 -0.7406  1.0095  0.4617
   11MPD2    C314022   3.124   3.747  14.216  0.2469 -0.2895  0.0193
   11MPD2    C414023   3.180   3.856  14.155 -0.1688 -0.0710  0.2114
   11MPD2    C514024   3.262   3.839  14.046 -0.8777 -0.1285 -0.6178
   11MPD2     H14025   3.081   3.544  14.194 -1.0451  1.1603  0.0908
   11MPD2    H114026   3.150   3.956  14.183 -0.9860 -0.4097  0.5325
   11MPD2    H214027   3.373   3.715  13.926 -1.2264  0.9709 -0.0983
   11MPD2    H314028   3.301   3.928  13.998  0.4907  0.7186  2.1341
   11MPD2     N14029   3.018   3.768  14.318 -0.6328  0.1852  0.0768
   11MPD2    H514030   2.990   3.866  14.325  0.1735  0.4408 -0.2625
   11MPD2    N114031   3.251   3.481  14.018  0.2688  0.3409 -0.2179
   11MPD2    H714032   3.195   3.407  14.058 -0.3802  0.8846 -0.1026
    1MPD1     C14033   2.067   0.041  15.932 -0.0930 -0.1330 -0.0787
    1MPD1    C114034   2.048   4.735  16.059  0.6874 -0.6447  0.2497
    1MPD1    C214035   2.013   0.094  16.153 -0.0596 -0.7889  0.4212
    1MPD1    C314036   2.014   0.229  16.129  0.0377 -0.7007 -0.9955
    1MPD1    C414037   2.035   0.268  15.993  0.1544  0.3154  0.0043
    1MPD1    C514038   2.061   0.179  15.894 -0.4985  1.1264 -0.3305
    1MPD1     H14039   2.005   0.072  16.259 -0.6388  4.1025  1.3853
    1MPD1    H114040   2.034   0.374  15.970  0.5107  0.3863  0.3083
    1MPD1    H214041   2.079   4.704  15.853 -2.4621 -1.3587  0.7009
    1MPD1    H314042   2.071   0.204  15.789  3.1676  0.5127 -0.1373
    1MPD1     N14043   2.016   0.326  16.235  0.3934 -0.1396 -0.0001
    1MPD1    H514044   2.036   0.288  16.327  2.6564 -0.4930 -0.6259
    1MPD1    N114045   2.049   4.595  16.080 -0.8334 -0.1169 -0.0226
    1MPD1    H614046   2.116   4.539  16.028  0.2702  0.0286  1.2240
    1MPD1    H714047   2.067   4.585  16.180 -1.8011 -0.8327  0.0839
    2MPD1     C14048   1.499   1.212  16.300 -0.3815 -0.0295 -0.4939
    2MPD1    C114049   1.587   1.175  16.200 -0.2601  0.0214  0.1407
    2MPD1    C214050   1.678   1.070  16.225  0.4032  0.3574 -0.0527
    2MPD1    C314051   1.692   1.014  16.355  0.3804 -0.2959 -0.7164
    2MPD1    C414052   1.606   1.054  16.456  0.3572 -0.2576  0.2163
    2MPD1    C514053   1.507   1.151  16.427 -1.1536 -0.4789 -0.3284
    2MPD1     H14054   1.726   1.033  16.135 -0.3335 -0.6161 -0.0470
    2MPD1    H114055   1.604   1.011  16.556  0.2482  1.0996  0.7895
    2MPD1    H214056   1.422   1.288  16.294  0.7072  1.1052 -0.0992
    2MPD1    H314057   1.446   1.190  16.508 -0.6207 -0.0709 -0.1239
    2MPD1     N14058   1.784   0.907  16.366  0.1891 -0.6885 -0.4016
    2MPD1    H514059   1.825   0.871  16.280 -0.4877 -2.1647 -0.1142
    2MPD1    N114060   1.570   1.218  16.070  0.9199  0.9006 -0.8194
    2MPD1    H614061   1.531   1.312  16.071  0.5114  0.7070  2.1410
    2MPD1    H714062   1.654   1.212  16.013  2.9070  0.1519  2.1875
    3TMC3    C114063   1.890   0.717  16.469  0.3696  0.5518 -0.9265
    3TMC3    C214064   1.943   0.661  16.581  0.1478 -0.3632 -0.1939
    3TMC3    C314065   2.020   0.550  16.567  0.3529 -0.2647  0.5562
    3TMC3    C414066   1.911   0.655  16.349 -0.3650 -0.8839  0.4878
    3TMC3    C514067   1.979   0.537  16.343 -0.2425 -0.4844 -0.1629
    3TMC3    C614068   2.049   0.488  16.449  0.7383  0.0183 -0.2543
    3TMC3     C14069   1.812   0.840  16.484 -0.1649  0.0180  0.5396
    3TMC3     O14070   1.781   0.871  16.601 -0.1769 -0.0226  0.3137
    3TMC3     H14071   1.912   0.705  16.675 -0.5234 -2.0101  0.3592
    3TMC3    H114072   1.865   0.687  16.255 -0.2177 -1.2008  0.3098
    3TMC3    H214073   2.123   0.409  16.444 -0.5254 -1.0248 -2.3957
    3TMC3    C714074   1.991   0.465  16.219 -0.0401  0.2162 -0.2458
    3TMC3    C814075   2.093   0.493  16.680 -0.9812 -0.0734  0.1940
    3TMC3    O114076   1.947   0.509  16.114  0.1208  0.1715 -0.1769
    3TMC3    O214077   2.124   0.375  16.675  0.2611  0.4234  0.3300
    4MPD1     C14078   2.452   0.579  17.019 -0.0469  0.1682  0.2801
    4MPD1    C114079   2.361   0.680  17.038  0.5616  0.0665  0.0413
    4MPD1    C214080   2.252   0.677  16.953 -0.3088 -0.4625  0.2752
    4MPD1    C314081   2.230   0.573  16.864 -0.8113  0.0691  0.1669
    4MPD1    C414082   2.320   0.470  16.852 -0.0248  0.5172  0.4991
    4MPD1    C514083   2.427   0.477  16.934 -0.7920 -0.8531  0.1891
    4MPD1     H14084   2.185   0.762  16.963  0.6454  0.2607  0.5395
    4MPD1    H114085   2.320   0.386  16.783 -0.1671  1.0469 -0.1443
    4MPD1    H214086   2.546   0.579  17.074  0.2628  0.8237 -0.2419
    4MPD1    H314087   2.504   0.401  16.929  0.7938  0.6259  2.0926
    4MPD1     N14088   2.122   0.584  16.776 -0.1975 -0.7270 -0.0066
    4MPD1    H514089   2.072   0.672  16.770 -1.9951 -1.8332 -1.3437
    4MPD1    N114090   2.384   0.783  17.126  0.5490 -0.1501 -0.0464
    4MPD1    H614091   2.424   0.754  17.215  0.3881 -0.6450 -0.1375
    4MPD1    H714092   2.317   0.859  17.137  0.8009  0.0631  0.0294
    1TCq1    O114093   1.744   3.718  10.878  0.3339  0.0049  0.0461
    1TCq1    C114094   1.824   3.683  10.980 -0.2760  0.4022  0.7103
    1TCq1    O214095   1.817   3.586  11.056  0.1092 -0.4007 -0.1603
    1TCq1    C214096   1.907   3.795  11.025 -0.7550 -0.0527  0.3046
    1TCq1    C314097   1.877   3.925  10.984 -0.1415  0.2537 -0.3769
    1TCq1    C414098   1.937   4.019  11.057 -0.0165 -0.4328 -0.3385
    1TCq1    C514099   2.046   3.997  11.129  0.0077 -0.1566 -0.0815
    1TCq1    C614100   2.077   3.868  11.158  0.1178 -0.4157 -0.1787
    1TCq1    C714101   2.006   3.762  11.112 -0.3468 -0.1742 -0.1565
    1TCq1    C814102   2.210   3.852  11.221  0.4350 -0.3836 -0.2937
    1TCq1    O414103   2.303   3.932  11.195 -0.2010  0.1516  0.3024
    1TCq1    C914104   1.904   4.155  11.013 -0.5657  0.2201 -0.9232
    1TCq1    O514105   1.851   4.174  10.899  0.2717  0.3302  0.1068
    1TCq1    O614106   1.947   4.252  11.075  0.4663 -0.2193  0.3752
    1TCq1    H114107   1.781   3.794  10.828 -0.4116  1.1477  1.1982
    1TCq1    H214108   1.792   3.947  10.921 -1.2475 -3.5539 -0.2245
    1TCq1    H314109   2.100   4.085  11.163  1.0269 -1.8969  2.7531
    1TCq1    H414110   2.039   3.660  11.123 -2.2145 -0.6253  1.4189
    2MPD1     C14111   2.534   3.592  11.531  0.0975 -0.3276 -0.2244
    2MPD1    C114112   2.420   3.521  11.536 -0.0883 -0.6837  0.1256
    2MPD1    C214113   2.315   3.572  11.457 -0.2155 -0.0426  0.8816
    2MPD1    C314114   2.318   3.690  11.386  0.1966  0.2385  0.3671
    2MPD1    C414115   2.428   3.767  11.407  0.6147 -0.0219  0.0578
    2MPD1    C514116   2.536   3.724  11.484  0.0179  0.0272  0.2834
    2MPD1     H14117   2.231   3.503  11.456 -0.5736  0.4041 -0.2056
    2MPD1    H114118   2.437   3.870  11.372  0.3487  0.6094  1.8764
    2MPD1    H214119   2.625   3.558  11.580 -1.0302 -0.5935  1.6901
    2MPD1    H314120   2.628   3.781  11.491  0.3643 -0.4857 -0.0577
    2MPD1     N14121   2.212   3.731  11.292 -0.3810 -0.3141  0.0487
    2MPD1    H514122   2.135   3.668  11.275 -0.9282  0.6154 -0.9176
    2MPD1    N114123   2.420   3.396  11.587 -0.2262  0.0616 -0.1318
    2MPD1    H614124   2.491   3.373  11.656  1.2009  0.7200 -1.3684
    2MPD1    H714125   2.329   3.357  11.610 -0.2652 -1.4735 -2.8969
    1TMC1    C114126   3.427   0.224   1.540 -0.2776 -0.1275 -0.9397
    1TMC1    C214127   3.297   0.199   1.514  0.4117  0.0063 -0.6771
    1TMC1    C314128   3.270   0.096   1.425 -0.4908 -0.4906 -0.3606
    1TMC1    C414129   3.527   0.161   1.480  0.1846 -0.3269 -0.3684
    1TMC1    C514130   3.500   0.074   1.378 -0.5130 -0.2420 -0.4421
    1TMC1    C614131   3.372   0.038   1.354 -0.3341  0.3534  0.7514
    1TMC1     C14132   3.477   0.325   1.627  0.1646 -0.5346 -0.5535
    1TMC1     O14133   3.596   0.322   1.657 -0.0997  0.5409 -0.0271
    1TMC1     H14134   3.219   0.253   1.567  0.3272  1.3058 -2.1355
    1TMC1    H114135   3.630   0.190   1.494  0.1424 -1.4314  2.3925
    1TMC1    H214136   3.348   4.712   1.268 -1.2714  1.2995  0.3232
    1TMC1    C714137   3.608   0.034   1.287 -0.0080  0.6419 -0.5127
    1TMC1    C814138   3.137   0.082   1.374  0.2503  0.5126 -0.2858
    1TMC1    O114139   3.703   0.107   1.274  0.1946 -0.7597 -0.1772
    1TMC1    O214140   3.123   0.021   1.266 -0.1628 -0.2459 -0.6041
    1TMC1    O314141   3.594   4.637   1.246  0.0853  0.4235  0.3664
    1TMC1    H314142   3.515   4.594   1.286  0.5252 -0.3169  0.4471
    1TMC1    O514143   3.052   0.069   1.478  0.1930 -0.0567  0.3183
    1TMC1    H514144   3.100   0.078   1.563 -0.2538  1.7847  0.3729
    2MPD1     C14145   3.442   0.749   1.922 -0.1202  1.2064 -0.3863
    2MPD1    C114146   3.336   0.746   1.831 -0.4448  0.3872  0.0211
    2MPD1    C214147   3.323   0.641   1.743 -0.2575  0.5973  0.4123
    2MPD1    C314148   3.410   0.531   1.747 -0.0803  0.1290  0.0916
    2MPD1    C414149   3.518   0.540   1.835  0.9664  0.3340 -0.1170
    2MPD1    C514150   3.528   0.648   1.921  0.2401 -0.2788  0.2601
    2MPD1     H14151   3.237   0.638   1.677 -0.2277 -2.4908  0.5103
    2MPD1    H114152   3.589   0.459   1.843 -1.7646 -1.7335  2.6051
    2MPD1    H214153   3.458   0.826   1.997 -0.3087 -1.4811  2.4110
    2MPD1    H314154   3.612   0.645   1.990  1.0116 -1.3051 -0.7212
    2MPD1     N14155   3.387   0.421   1.659 -0.4345 -0.1664  0.2637
    2MPD1    H514156   3.296   0.409   1.617 -0.5989 -1.4260  0.9796
    2MPD1    N114157   3.250   0.858   1.833  0.4943 -0.3807 -0.1890
    2MPD1    H614158   3.225   0.889   1.740 -0.2550 -1.0491 -0.2106
    2MPD1    H714159   3.280   0.940   1.884  1.3681  0.3135 -1.8697
    1MPD1     C14160   3.748   4.161  11.940  0.2650  0.2345 -0.9671
    1MPD1    C114161   3.754   4.270  11.852  0.1280  0.7307  0.2297
    1MPD1    C214162   3.860   4.267  11.759 -0.1742 -0.5626 -1.2628
    1MPD1    C314163   3.964   4.181  11.766 -0.0845 -1.0366  0.6932
    1MPD1    C414164   3.962   4.084  11.867  0.1166  1.0217 -0.1509
    1MPD1    C514165   3.853   4.073  11.949 -0.7951  0.1262  0.0332
    1MPD1     H14166   3.855   4.342  11.680  0.0628  0.8519  0.0665
    1MPD1    H114167   4.038   4.008  11.879 -0.8303 -0.0675 -1.0911
    1MPD1    H214168   3.659   4.148  12.001  0.1114  0.5461 -1.1264
    1MPD1    H314169   3.856   3.991  12.020  1.1369  0.8838  0.8082
    1MPD1     N14170   4.081   4.198  11.681  0.9706 -0.2887  0.2849
    1MPD1    H514171   4.078   4.286  11.629 -0.1498  0.7079  2.0513
    1MPD1    N114172   3.651   4.362  11.841  0.4440  0.5140 -0.0839
    1MPD1    H614173   3.683   4.441  11.784 -0.0318  1.2665  0.6945
    1MPD1    H714174   3.608   4.383  11.930 -1.2735  0.7634 -0.9714
    2MPD1     C14175   3.649   0.726  10.504 -0.6058 -0.3076  0.1938
    2MPD1    C114176   3.619   0.745  10.374  0.0881  0.2200 -0.0532
    2MPD1    C214177   3.619   0.627  10.289  0.5028 -0.1448  0.5078
    2MPD1    C314178   3.647   0.499  10.338  0.4600 -0.1463 -0.6961
    2MPD1    C414179   3.659   0.485  10.472 -0.3363 -0.2515 -0.3723
    2MPD1    C514180   3.667   0.594  10.554  0.0998  0.0100 -0.2242
    2MPD1     H14181   3.610   0.656  10.185  0.6424  1.7690  1.0290
    2MPD1    H114182   3.670   0.391  10.524  3.0813 -0.3632 -1.3382
    2MPD1    H214183   3.631   0.806  10.576  1.6740 -1.4280  2.0073
    2MPD1    H314184   3.679   0.583  10.662  1.9173  3.2330 -0.1289
    2MPD1     N14185   3.655   0.378  10.257 -0.6812 -0.1544 -0.0737
    2MPD1    H514186   3.666   0.285  10.296 -0.1907  0.1265  0.4504
    2MPD1    N114187   3.620   0.876  10.318  0.4885  0.5022 -0.6258
    2MPD1    H614188   3.595   0.952  10.381 -3.9789 -2.2697  0.9426
    2MPD1    H714189   3.574   0.887  10.228  3.1021 -0.1050 -2.0572
    3MPD1     C14190   3.499   0.045   9.283 -0.2766 -0.2528 -0.1809
    3MPD1    C114191   3.434   0.146   9.356  0.5256  0.7056  0.0459
    3MPD1    C214192   3.473   0.182   9.482  0.3184 -0.0105 -0.2452
    3MPD1    C314193   3.570   0.103   9.536  0.1374  0.1106  0.3026
    3MPD1    C414194   3.624   4.731   9.469  0.2175 -0.3996 -0.2597
    3MPD1    C514195   3.584   4.694   9.346 -0.2456  0.2643 -0.0087
    3MPD1     H14196   3.425   0.261   9.539  0.4785 -1.3486  1.7645
    3MPD1    H114197   3.708   4.674   9.505 -0.4250 -0.2051  1.5211
    3MPD1    H214198   3.485   0.027   9.177  0.1421  0.2345 -0.3191
    3MPD1    H314199   3.635   4.627   9.278  1.5319  1.5894  0.0395
    3MPD1     N14200   3.622   0.144   9.668 -0.4269 -0.1354 -0.6285
    3MPD1    H514201   3.597   0.238   9.697 -0.7208  0.1362 -1.7812
    3MPD1    N114202   3.362   0.239   9.284  0.4454 -0.4423  0.6834
    3MPD1    H614203   3.309   0.313   9.330 -1.4007 -0.6533 -1.0886
    3MPD1    H714204   3.308   0.198   9.208 -1.6784  3.4847  0.0344
    4MPD2     C14205   4.378   4.679  11.258  0.0119 -0.4885 -0.2281
    4MPD2    C114206   4.434   4.554  11.252  0.3243 -0.0109 -0.7109
    4MPD2    C214207   4.479   4.510  11.125 -0.0335  0.0884 -0.3356
    4MPD2    C314208   4.480   4.595  11.013 -0.4471 -0.0385 -0.5190
    4MPD2    C414209   4.431   4.719  11.027  0.0213 -0.4179 -0.0402
    4MPD2    C514210   4.365   0.013  11.141 -0.6011  0.2093 -0.1292
    4MPD2     H14211   4.521   4.411  11.113  0.4572  0.1998  0.4688
    4MPD2    H114212   4.431   0.056  10.947  0.3093  0.3999  0.7120
    4MPD2    H214213   4.330   4.719  11.347  2.0183  0.2540  0.5110
    4MPD2    H314214   4.317   0.109  11.150 -0.9480 -0.1670  2.1402
    4MPD2     N14215   4.512   4.550  10.879 -0.4610  0.2299  0.6784
    4MPD2    H514216   4.479   4.614  10.807 -0.0029 -1.0755 -0.7059
    4MPD2    N114217   4.451   4.460  11.357 -0.4305 -0.0703 -0.4500
    4MPD2    H714218   4.473   4.364  11.334  1.0326 -0.0066  0.6494
    5TMC3    C114219   4.441   4.350  11.558  0.0919 -0.3177  0.7896
    5TMC3    C214220   4.324   4.302  11.614  0.7718  0.3826 -0.5582
    5TMC3    C314221   4.288   4.171  11.584 -0.6921 -0.1956 -0.0445
    5TMC3    C414222   4.519   4.266  11.482  0.1940 -0.4564  0.2828
    5TMC3    C514223   4.484   4.133  11.462  0.2238 -0.0293  0.4403
    5TMC3    C614224   4.360   4.084  11.502  0.6196  0.0151  0.2900
    5TMC3     C14225   4.422   4.481  11.488  0.3675  0.3476  0.3996
    5TMC3     O14226   4.378   4.577  11.552 -0.2785  0.0715  0.5712
    5TMC3     H14227   4.261   4.363  11.677 -0.4816 -2.0728  0.5489
    5TMC3    H114228   4.610   4.301  11.435 -0.6030  1.1542 -0.0519
    5TMC3    H214229   4.319   3.988  11.473 -2.1753  0.8975  1.3005
    5TMC3    C714230   4.524   4.106  11.331  0.6287  0.3348  0.8813
    5TMC3    C814231   4.183   4.109  11.668 -0.3775 -1.2170 -0.5940
    5TMC3    O114232   4.553   4.204  11.260 -0.9399  0.4705  0.7478
    5TMC3    O214233   4.207   3.992  11.696  0.0728 -0.0725 -0.0653
    6TMC3    C114234   3.696   0.246  10.066  0.1151 -0.1116  0.3684
    6TMC3    C214235   3.675   0.222   9.935 -0.6594  0.2079  0.5424
    6TMC3    C314236   3.734   0.112   9.883 -0.0856 -0.5237  0.0076
    6TMC3    C414237   3.792   0.175  10.143 -0.0485  1.1038  0.0533
    6TMC3    C514238   3.850   0.067  10.085 -0.0933 -0.5225  0.1881
    6TMC3    C614239   3.817   0.033   9.957  0.1434 -0.5970 -0.7529
    6TMC3     C14240   3.654   0.379  10.118 -0.3006 -0.1156 -0.2777
    6TMC3     O14241   3.640   0.462  10.027 -0.5834  0.3277  0.3850
    6TMC3     H14242   3.608   0.281   9.874  0.1610 -0.3458 -0.8852
    6TMC3    H114243   3.802   0.184  10.251  0.5399 -0.6777  0.1446
    6TMC3    H214244   3.849   4.679   9.906 -0.3073 -1.5182  0.6062
    6TMC3    C714245   3.923   4.706  10.166 -0.8488 -0.7280 -0.0118
    6TMC3    C814246   3.710   0.073   9.745 -0.6517  0.8708  0.2288
    6TMC3    O114247   3.966   0.000  10.275  0.0205 -0.3105 -0.3310
    6TMC3    O214248   3.762   4.702   9.720 -0.1480  0.3337  0.6099
    7MPD2     C14249   4.523   3.826  10.898 -0.1975  0.5249  0.0450
    7MPD2    C114250   4.520   3.960  10.919 -0.0154  0.5958  0.3623
    7MPD2    C214251   4.515   4.004  11.050 -0.8936  0.2535  0.1449
    7MPD2    C314252   4.519   3.921  11.158  0.2447  0.4527 -0.4139
    7MPD2    C414253   4.514   3.786  11.131 -0.0354  0.3517  0.5031
    7MPD2    C514254   4.515   3.743  11.003  0.3902 -0.5984  0.6380
    7MPD2     H14255   4.511   4.112  11.057 -1.5586  0.4691 -4.0796
    7MPD2    H114256   4.533   3.716  11.212 -0.5009  0.6376  0.8649
    7MPD2    H214257   4.527   3.785  10.798 -2.9504  0.2844  0.0564
    7MPD2    H314258   4.529   3.638  10.979 -1.2480 -1.0591  1.7557
    7MPD2     N14259   4.510   3.970  11.291 -0.0545  0.0094  0.3210
    7MPD2    H514260   4.514   3.902  11.366  1.9386 -0.4906 -0.2487
    7MPD2    N114261   4.527   4.058  10.820  0.3232  0.1150  0.1956
    7MPD2    H714262   4.547   4.148  10.863 -1.1849  0.6036 -0.1363
    8TMC3    C114263   4.520   4.169  10.619 -0.6212  0.3584 -0.0398
    8TMC3    C214264   4.415   4.208  10.538 -0.1036 -0.5065 -0.1953
    8TMC3    C314265   4.374   4.340  10.554 -0.2350 -0.5099  0.1155
    8TMC3    C414266   4.595   4.262  10.689 -0.6858 -0.9824 -1.1580
    8TMC3    C514267   4.548   4.389  10.703 -0.3971  0.0379  0.9075
    8TMC3    C614268   4.436   4.431  10.632 -0.5237  0.2306  0.4117
    8TMC3     C14269   4.509   4.042  10.687 -0.2674 -0.5046 -0.1166
    8TMC3     O14270   4.473   3.947  10.625 -0.1190 -0.3035 -0.1161
    8TMC3     H14271   4.349   4.129  10.505 -2.8700  0.2951  3.4015
    8TMC3    H114272   4.685   4.224  10.736 -1.8827  0.6994  2.4693
    8TMC3    H214273   4.399   4.531  10.653  0.2005  0.1953  1.8376
    8TMC3    C714274   4.565   4.425  10.843  0.1792 -0.1461 -0.0838
    8TMC3    C814275   4.266   4.398  10.473 -0.2564  0.6641 -0.2918
    8TMC3    O114276   4.588   4.329  10.914  0.4776  0.3002  0.0490
    8TMC3    O214277   4.254   4.518  10.467  0.3632  0.0343 -0.7739
    9MPD2     C14278   4.043   4.224  10.255  0.2951 -0.0694 -0.1381
    9MPD2    C114279   4.098   4.337  10.305 -0.8424 -0.5486  0.8935
    9MPD2    C214280   4.052   4.460  10.258 -0.0509  0.2341  0.5515
    9MPD2    C314281   3.941   4.462  10.174  0.0728 -0.0889 -0.3436
    9MPD2    C414282   3.887   4.353  10.119 -0.1227  0.2019 -0.4770
    9MPD2    C514283   3.938   4.231  10.161  0.0091 -0.3657 -0.2903
    9MPD2     H14284   4.106   4.549  10.288  0.2621  0.7780 -1.6484
    9MPD2    H114285   3.795   4.349  10.062 -0.6088  0.4577  0.2874
    9MPD2    H214286   4.083   4.126  10.279  0.6037  0.7448  2.6477
    9MPD2    H314287   3.905   4.139  10.114 -2.1333  0.4014 -0.2777
    9MPD2     N14288   3.887   4.583  10.125  0.2943 -0.0329  0.3913
    9MPD2    H514289   3.809   4.578  10.060  0.6889 -1.1633  0.0097
    9MPD2    N114290   4.200   4.306  10.399 -0.4130 -0.0558 -0.1706
    9MPD2    H714291   4.220   4.206  10.404  1.1530  0.1897 -1.4650
    1MPD1     C14292   4.072   3.557  17.521 -0.2569 -0.3224  0.0373
    1MPD1    C114293   4.126   3.590  17.399  0.0222  0.2737  0.3981
    1MPD1    C214294   4.078   3.511  17.294 -0.2206  0.2068 -0.2953
    1MPD1    C314295   3.979   3.418  17.312 -0.4816 -0.1442  0.4565
    1MPD1    C414296   3.922   3.396  17.439  0.6343 -0.7469 -0.6187
    1MPD1    C514297   3.976   3.460  17.549 -0.1072 -0.2321  0.4388
    1MPD1     H14298   4.130   3.527  17.200  1.8603 -2.3302  0.4630
    1MPD1    H114299   3.843   3.324  17.459 -1.9268  1.7135 -1.9221
    1MPD1    H214300   4.102   3.612  17.610  2.7409  1.6259 -2.1826
    1MPD1    H314301   3.945   3.451  17.652 -0.8571 -1.9595  0.0771
    1MPD1     N14302   3.925   3.347  17.201  0.3328  0.0971 -0.2328
    1MPD1    H514303   3.863   3.268  17.215 -0.2421  0.2309 -1.9891
    1MPD1    N114304   4.237   3.674  17.406  0.6766 -0.0708  0.4306
    1MPD1    H614305   4.250   3.742  17.480  1.6165 -1.0136  1.1323
    1MPD1    H714306   4.241   3.736  17.325  1.0383  0.1891  0.6466
    2TMC2    C114307   3.677   3.140  16.955  0.0546  0.6692 -0.1121
    2TMC2    C214308   3.713   3.112  16.826 -0.6661  0.5220 -0.6609
    2TMC2    C314309   3.838   3.159  16.781  0.1293 -0.0486  0.0668
    2TMC2    C414310   3.758   3.210  17.036 -0.5190 -0.1462  0.5501
    2TMC2    C514311   3.869   3.267  16.984 -0.1069 -0.1040 -0.5079
    2TMC2    C614312   3.913   3.242  16.854  0.7773 -1.0675 -0.3113
    2TMC2     C14313   3.547   3.124  17.005 -0.1775 -0.7700 -0.1492
    2TMC2     O14314   3.503   3.220  17.067  0.0113  0.2895  0.7746
    2TMC2     H14315   3.650   3.038  16.777  0.9281 -3.2173  2.9655
    2TMC2    H114316   3.732   3.226  17.140 -0.4312  0.6816  0.4398
    2TMC2    H214317   4.008   3.285  16.826  0.3160  1.5476  2.1107
    2TMC2    C714318   3.952   3.359  17.068 -0.1724 -0.3344  0.3047
    2TMC2    C814319   3.880   3.101  16.657  0.1198 -0.3674 -0.0440
    2TMC2    O114320   4.028   3.435  17.009 -0.1101 -0.0708  0.1420
    2TMC2    O214321   3.839   2.994  16.620  0.1416  0.1864 -0.6810
    2TMC2    O514322   3.925   3.193  16.579  0.2401 -0.1617  0.0259
    2TMC2    H514323   3.936   3.284  16.613 -1.2030  0.1300 -0.3181
    3MPD1     C14324   3.151   2.826  17.160  0.2717 -0.8611 -0.2466
    3MPD1    C114325   3.206   2.764  17.052 -0.2246 -0.4592 -0.6387
    3MPD1    C214326   3.319   2.826  16.993  0.2523 -0.3507  0.1777
    3MPD1    C314327   3.367   2.952  17.030  0.4549 -0.9095  0.0828
    3MPD1    C414328   3.303   3.004  17.140 -0.6566 -0.3738  0.0995
    3MPD1    C514329   3.200   2.951  17.203 -0.3152 -0.5286  0.3655
    3MPD1     H14330   3.383   2.767  16.928 -0.1619 -0.6361  0.0356
    3MPD1    H114331   3.324   3.108  17.161 -0.1649 -0.0157 -2.1298
    3MPD1    H214332   3.085   2.774  17.228 -1.0189  0.7254 -0.2897
    3MPD1    H314333   3.168   3.005  17.291  2.0442  1.1131  0.2041
    3MPD1     N14334   3.487   3.002  16.969 -0.0663 -0.4903  0.3305
    3MPD1    H514335   3.530   2.951  16.893 -1.8710 -0.9892 -0.3548
    3MPD1    N114336   3.162   2.632  17.006 -0.2588 -1.0139  0.2726
    3MPD1    H614337   3.188   2.621  16.908  0.3104 -0.0596  0.3201
    3MPD1    H714338   3.063   2.616  17.022 -0.8958  0.5282 -2.3293
    1TMC1    C114339   1.682   2.749  12.681  0.2780 -0.0046 -0.4582
    1TMC1    C214340   1.628   2.627  12.681 -0.2777 -0.5205  0.0143
    1TMC1    C314341   1.517   2.608  12.605  0.1673 -0.5749  0.0936
    1TMC1    C414342   1.623   2.853  12.613 -0.5641  0.0469  0.1325
    1TMC1    C514343   1.505   2.831  12.552  0.6753 -0.4609  0.3269
    1TMC1    C614344   1.449   2.709  12.541 -0.2523  0.0284  0.5864
    1TMC1     C14345   1.818   2.764  12.731 -0.3143  0.0619  0.2169
    1TMC1     O14346   1.888   2.844  12.675  0.0495  0.6588  0.5010
    1TMC1     H14347   1.667   2.537  12.726  3.7540  1.7681  1.1574
    1TMC1    H114348   1.676   2.947  12.609 -0.8320  0.1571 -0.9171
    1TMC1    H214349   1.349   2.704  12.500 -0.7132  0.7061  1.6162
    1TMC1    C714350   1.424   2.953  12.542  0.0069  0.7823 -0.2901
    1TMC1    C814351   1.433   2.487  12.627  0.1468 -0.2302  0.0893
    1TMC1    O114352   1.308   2.962  12.574  0.5417 -0.0007 -0.0304
    1TMC1    O214353   1.409   2.453  12.745  0.2506 -0.0243  0.5675
    1TMC1    O314354   1.473   3.034  12.440 -0.1248  0.8083  0.2533
    1TMC1    H314355   1.563   3.021  12.405  0.0154  0.6580  0.6693
    1TMC1    O514356   1.371   2.463  12.509  0.5888 -0.3999 -0.4217
    1TMC1    H514357   1.410   2.498  12.425  0.6531 -0.8014 -0.5578
    2MPD2     C14358   2.080   2.759  12.890 -0.0595 -0.5286  0.2566
    2MPD2    C114359   1.968   2.691  12.926 -1.1369 -0.7741 -0.5307
    2MPD2    C214360   1.963   2.627  13.040 -0.1886 -0.0549 -0.2543
    2MPD2    C314361   2.068   2.629  13.127  0.6136 -0.6784  0.0514
    2MPD2    C414362   2.180   2.707  13.096 -0.0041  0.7996 -0.7976
    2MPD2    C514363   2.185   2.774  12.975  0.1214 -0.2946 -0.6387
    2MPD2     H14364   1.871   2.572  13.061  0.5742 -1.5358 -0.7367
    2MPD2    H114365   2.272   2.715  13.152 -0.5721  0.0165  0.2560
    2MPD2    H214366   2.095   2.808  12.795 -2.6207 -1.5134 -0.6679
    2MPD2    H314367   2.268   2.836  12.944 -0.4802  0.8673  0.0612
    2MPD2     N14368   2.062   2.561  13.247  0.0739  0.3816  0.9626
    2MPD2    H514369   1.999   2.481  13.255  1.2013 -0.4463  1.7026
    2MPD2    N114370   1.850   2.682  12.845 -0.9818 -0.4157  0.1239
    2MPD2    H714371   1.773   2.633  12.888  0.0597 -1.8074  0.4047
    3TCq1    O114372   1.805   2.189  13.613  0.6194  0.4453  0.0772
    3TCq1    C114373   1.846   2.260  13.500  0.1687 -0.4206  0.3887
    3TCq1    O214374   1.769   2.313  13.418 -0.3782  0.0896  0.0228
    3TCq1    C214375   1.969   2.325  13.523 -0.4974  0.0702 -0.0726
    3TCq1    C314376   2.060   2.258  13.596  0.1860  0.1662  0.2280
    3TCq1    C414377   2.186   2.320  13.604  0.5669 -0.7588 -0.8532
    3TCq1    C514378   2.210   2.429  13.531  0.3062  0.7615  0.0182
    3TCq1    C614379   2.113   2.499  13.470 -0.2130 -0.0034  0.1759
    3TCq1    C714380   1.986   2.445  13.467  0.3425  0.2187 -0.1809
    3TCq1    C814381   2.149   2.580  13.356  0.1369  0.8601 -0.5279
    3TCq1    O414382   2.243   2.655  13.377  0.0765 -0.1930 -0.6431
    3TCq1    C914383   2.294   2.254  13.671  0.0575  0.5705  0.3448
    3TCq1    O514384   2.279   2.133  13.704 -0.6463 -0.8965 -0.0122
    3TCq1    O614385   2.401   2.320  13.678  0.3704  0.6474 -0.3950
    3TCq1    H114386   1.888   2.185  13.666 -0.1006  0.1669  1.1794
    3TCq1    H214387   2.047   2.167  13.654 -3.0578  0.2034 -0.4387
    3TCq1    H314388   2.308   2.470  13.509  0.1110 -0.4369 -3.0545
    3TCq1    H414389   1.909   2.493  13.408 -0.7033 -1.0933  0.1156
    1MPD2     C14390   0.953   3.512  15.011 -0.9955 -0.0867  0.3426
    1MPD2    C114391   1.004   3.417  14.927  0.3046  0.5489 -0.3306
    1MPD2    C214392   1.129   3.375  14.954 -0.2997 -0.2348 -0.3531
    1MPD2    C314393   1.203   3.419  15.063 -0.2388 -0.3247  0.1450
    1MPD2    C414394   1.155   3.513  15.152  0.1716 -0.2926  0.2820
    1MPD2    C514395   1.029   3.561  15.121  0.1520  0.5328  0.1424
    1MPD2     H14396   1.180   3.310  14.884  0.1345 -0.3247  0.0506
    1MPD2    H114397   1.212   3.541  15.239 -0.4056 -0.5600  0.7467
    1MPD2    H214398   0.854   3.550  14.990 -0.3964  2.2588  1.7138
    1MPD2    H314399   0.996   3.638  15.190  1.1124  0.0241  1.1741
    1MPD2     N14400   1.327   3.360  15.082  0.2653 -0.6528  0.0565
    1MPD2    H514401   1.344   3.283  15.019 -0.9017 -0.3596 -0.6155
    1MPD2    N114402   0.928   3.372  14.814  0.4437 -0.9052 -0.3397
    1MPD2    H714403   0.831   3.398  14.799  2.1301  4.5169 -1.5806
    2TMC3    C114404   0.903   3.270  14.599 -0.0746 -0.5180 -0.0923
    2TMC3    C214405   0.943   3.156  14.541 -0.0157  0.4550  0.1931
    2TMC3    C314406   0.977   3.155  14.407 -0.2630 -0.3465 -0.0324
    2TMC3    C414407   0.865   3.380  14.533  0.7106  0.3133 -0.8884
    2TMC3    C514408   0.894   3.373  14.404 -0.3208  0.0198  0.1558
    2TMC3    C614409   0.954   3.267  14.341 -0.1111  0.5360  0.4631
    2TMC3     C14410   0.966   3.270  14.729 -0.8349  0.2123 -0.2692
    2TMC3     O14411   1.072   3.206  14.721 -0.1219  0.7651 -0.5627
    2TMC3     H14412   0.952   3.066  14.601  1.1734  0.8552  0.6179
    2TMC3    H114413   0.830   3.474  14.573 -0.9942  0.2996 -2.3776
    2TMC3    H214414   0.976   3.272  14.235  1.9158 -0.4580  0.8343
    2TMC3    C714415   0.891   3.497  14.330 -0.3739 -0.5209  0.0587
    2TMC3    C814416   1.112   3.096  14.381  0.6874  0.4434  0.4471
    2TMC3    O114417   0.820   3.589  14.359 -0.7313 -0.2833 -0.0323
    2TMC3    O214418   1.143   3.096  14.260  0.2278 -0.0860  0.0350
    3TCq1    O114419   1.801   3.606  14.214 -0.2754 -0.2288 -0.3245
    3TCq1    C114420   1.858   3.673  14.114 -0.0113  0.2593 -0.3020
    3TCq1    O214421   1.973   3.663  14.071 -0.3046  0.0489 -0.4686
    3TCq1    C214422   1.776   3.787  14.076 -0.0434 -0.1323  0.3713
    3TCq1    C314423   1.843   3.908  14.093 -0.5253 -0.1998 -0.3167
    3TCq1    C414424   1.772   4.012  14.130  0.7440 -0.1040 -0.7884
    3TCq1    C514425   1.634   4.012  14.156  0.2106  0.0132 -0.2891
    3TCq1    C614426   1.572   3.887  14.142  0.3020 -0.6115  1.3188
    3TCq1    C714427   1.638   3.779  14.099 -0.0765  0.4178 -0.2558
    3TCq1    C814428   1.430   3.886  14.120  0.3026  0.4575  0.4399
    3TCq1    O414429   1.381   3.997  14.115 -0.1552 -0.0032 -0.1922
    3TCq1    C914430   1.830   4.144  14.142  0.2912  0.1543  1.2114
    3TCq1    O514431   1.763   4.235  14.197 -0.0242  0.9766 -0.4323
    3TCq1    O614432   1.941   4.158  14.083  0.2277 -0.0873 -0.4765
    3TCq1    H114433   1.728   3.657  14.254  0.3154  1.4508 -1.3688
    3TCq1    H214434   1.951   3.915  14.087 -0.3636 -1.6278  0.8529
    3TCq1    H314435   1.581   4.099  14.193  1.4673 -0.0781  1.6878
    3TCq1    H414436   1.585   3.685  14.098 -3.3979  2.2972  1.0891
    4MPD2     C14437   1.137   3.848  14.059 -0.5452  0.6694  0.0428
    4MPD2    C114438   1.221   3.752  14.116 -0.9177  1.0615  0.3428
    4MPD2    C214439   1.169   3.633  14.151 -0.0299 -0.2321  0.3215
    4MPD2    C314440   1.031   3.626  14.177 -0.1984  0.4997 -0.2287
    4MPD2    C414441   0.941   3.723  14.138  0.4707 -0.0000  0.9374
    4MPD2    C514442   1.005   3.822  14.069 -0.3445 -0.1210 -0.1995
    4MPD2     H14443   1.231   3.555  14.192 -0.8573 -0.5965  0.8827
    4MPD2    H114444   0.833   3.724  14.140  0.4251 -2.2797 -1.4827
    4MPD2    H214445   1.172   3.941  14.015 -1.7114  0.8363 -0.5342
    4MPD2    H314446   0.934   3.893  14.026 -0.8555 -0.6451 -0.2228
    4MPD2     N14447   1.000   3.510  14.255  0.2198  0.6160 -0.1158
    4MPD2    H514448   1.070   3.437  14.267  0.3122  0.9238  1.2612
    4MPD2    N114449   1.361   3.763  14.125 -0.4504  0.0269  0.4044
    4MPD2    H714450   1.409   3.681  14.161  1.3661  0.1618 -1.6800
    5TMC2    C114451   1.657   3.213  14.962  0.3998 -0.0071  0.0583
    5TMC2    C214452   1.744   3.167  15.060 -0.0457 -0.3117 -0.2420
    5TMC2    C314453   1.742   3.220  15.190 -0.3039  0.2048  0.0023
    5TMC2    C414454   1.559   3.304  14.998 -0.3402  0.2766 -0.0097
    5TMC2    C514455   1.543   3.325  15.132 -0.0908  0.0063 -0.0605
    5TMC2    C614456   1.639   3.301  15.228  0.5885  0.5930  0.0150
    5TMC2     C14457   1.664   3.147  14.828 -0.2785 -0.3336 -0.3646
    5TMC2     O14458   1.764   3.088  14.794 -0.9508 -0.1712 -0.1611
    5TMC2     H14459   1.813   3.087  15.038 -1.5843 -1.8915  0.7222
    5TMC2    H114460   1.493   3.339  14.919  0.6085  1.4162 -0.2878
    5TMC2    H214461   1.626   3.338  15.329  2.4627  0.1373  0.4353
    5TMC2    C714462   1.423   3.393  15.170 -0.0969  0.0983 -0.1262
    5TMC2    C814463   1.828   3.174  15.286  0.5151 -0.4636 -0.0954
    5TMC2    O114464   1.422   3.469  15.269  0.7792  0.4234  0.5946
    5TMC2    O214465   1.798   3.148  15.404 -0.2224  0.3051 -0.4660
    5TMC2    O514466   1.943   3.145  15.221  0.6208  0.3123  0.3193
    5TMC2    H514467   1.966   3.185  15.134  1.2800 -0.4935  0.1195
    6MPD2     C14468   1.410   3.004  14.415  0.1751 -0.3055 -0.4196
    6MPD2    C114469   1.328   3.068  14.507  0.7390  0.9454 -0.3241
    6MPD2    C214470   1.372   3.108  14.624  0.1107  0.2707  0.5965
    6MPD2    C314471   1.506   3.098  14.651  0.1314  0.5996  0.0496
    6MPD2    C414472   1.601   3.051  14.556  0.2581  0.7282  0.4570
    6MPD2    C514473   1.547   2.990  14.445  0.1964  1.7991  0.0124
    6MPD2     H14474   1.304   3.140  14.702  1.1040  0.6157  1.3248
    6MPD2    H114475   1.708   3.047  14.573  0.0422 -0.8694  1.3823
    6MPD2    H214476   1.370   2.977  14.318  0.3404  3.2395 -1.4722
    6MPD2    H314477   1.615   2.941  14.376 -1.8511  2.5247 -2.5325
    6MPD2     N14478   1.539   3.151  14.773 -0.5219 -0.5601  0.3317
    6MPD2    H514479   1.458   3.185  14.824 -0.9195 -1.7904  0.5097
    6MPD2    N114480   1.191   3.096  14.494  0.0736  0.3803  0.8066
    6MPD2    H714481   1.146   3.137  14.576 -1.2759 -1.2528  0.8948
  945NH4     N114482   1.477   2.915   2.205 -0.1700 -0.7678 -0.1119
  945NH4     H214483   1.447   2.850   2.129 -1.8743  0.9967 -0.9700
  945NH4     H314484   1.407   2.991   2.189  0.6042  0.0420  0.3622
  945NH4     H414485   1.564   2.970   2.188 -0.8842  0.6808  0.9467
  945NH4     H514486   1.471   2.868   2.297  1.5803 -0.5876  0.0831
  946SOD     NA14487   3.130   0.161  11.770 -0.3986  0.1944 -0.1087
  947SOD     NA14488   1.140   4.361  14.854  0.3863  0.3086 -0.1573
  948SOD     NA14489   2.440   4.327  11.077 -0.2346 -0.5256 -0.0002
  949SOD     NA14490   3.503   0.881  16.730 -0.4800 -0.1124  0.1066
  950SOD     NA14491   1.097   2.068  10.876 -0.3064 -0.2012  0.2595
  951SOD     NA14492   2.579   4.528  16.695  0.4459  0.0120 -0.0119
  952SOD     NA14493   2.850   2.549   6.886  0.1464  0.2845 -0.0657
  953SOL     OW14494   2.688   4.217   5.295 -0.1107  0.7486 -0.0315
  953SOL    HW114495   2.733   4.194   5.213  3.0285  1.9336  1.3641
  953SOL    HW214496   2.680   4.135   5.343  0.4205  1.8753  1.9529
  954SOL     OW14497   4.198   0.040   6.174  0.0557 -0.1241  0.1199
  954SOL    HW114498   4.237   4.711   6.117  0.5514  1.7389 -1.7119
  954SOL    HW214499   4.119   4.729   6.197 -0.5858  0.6809 -0.4541
  955SOL     OW14500   1.610   4.030   8.008 -0.3944 -0.3646  0.2677
  955SOL    HW114501   1.554   3.989   8.074 -2.3119  0.5141 -0.8253
  955SOL    HW214502   1.575   4.118   8.020 -1.5642 -0.7308 -0.3957
  956SOL     OW14503   1.816   1.575  10.529 -0.3980 -0.1681 -0.0093
  956SOL    HW114504   1.891   1.534  10.487 -0.7950  0.4804 -1.3567
  956SOL    HW214505   1.815   1.527  10.613 -0.6551 -1.6540 -0.8569
  957SOL     OW14506   0.198   1.085  11.450  0.1731 -0.6641  0.4523
  957SOL    HW114507   0.112   1.062  11.487  0.3762 -0.6297  0.9392
  957SOL    HW214508   0.225   1.159  11.504  1.1113 -0.3733 -0.4068
  958SOL     OW14509   1.832   2.029   1.286 -0.4453 -0.1025  0.3169
  958SOL    HW114510   1.834   2.064   1.198 -1.3808  0.2336  0.4332
  958SOL    HW214511   1.921   1.996   1.299  0.7201  2.8957 -0.2202
  959SOL     OW14512   0.547   2.044  16.032 -0.2104  0.0103  0.0149
  959SOL    HW114513   0.619   1.982  16.019 -0.3680  0.0029 -0.8008
  959SOL    HW214514   0.564   2.090  16.114 -0.5586 -2.8200  1.6814
  960SOL     OW14515   0.748   0.304  12.528  0.4406  1.0330  0.5911
  960SOL    HW114516   0.751   0.215  12.562  0.8911  0.0555 -1.9788
  960SOL    HW214517   0.762   0.356  12.607 -0.2422  0.8892  0.8146
  961SOL     OW14518   4.359   1.970   6.643  0.2371 -0.2830 -0.0853
  961SOL    HW114519   4.452   1.960   6.661  1.3807  0.6732 -5.3748
  961SOL    HW214520   4.366   2.033   6.571 -0.8016  0.5662  0.5622
  962SOL     OW14521   3.392   2.140   9.245 -0.2226  0.3207  0.1387
  962SOL    HW114522   3.443   2.186   9.179 -2.4389  0.8672 -1.1632
  962SOL    HW214523   3.402   2.196   9.322 -0.6114 -1.4803  1.5275
  963SOL     OW14524   3.173   1.303   5.516  0.4138 -0.0439 -0.1481
  963SOL    HW114525   3.230   1.347   5.579 -1.0083 -2.2209  2.6079
  963SOL    HW214526   3.232   1.242   5.472  0.2341 -1.5665  1.7492
  964SOL     OW14527   3.544   0.642  13.307 -0.7665 -0.1474 -0.1040
  964SOL    HW114528   3.497   0.575  13.258 -1.1286  1.5113 -2.0100
  964SOL    HW214529   3.630   0.603  13.322 -1.3624 -0.9684  1.2381
  965SOL     OW14530   3.243   2.503   8.619  0.0655 -0.3024 -0.0734
  965SOL    HW114531   3.200   2.422   8.590  2.9639 -0.9091 -2.6589
  965SOL    HW214532   3.173   2.555   8.580 -1.4185 -0.9223  1.7333
  966SOL     OW14533   1.683   1.096   2.072 -0.1768 -0.3867 -1.1882
  966SOL    HW114534   1.713   1.121   1.985  0.0446 -1.5328 -1.4382
  966SOL    HW214535   1.761   1.046   2.096 -0.0201 -0.0826 -1.0587
  967SOL     OW14536   2.574   2.384   4.402 -0.2499 -0.0573  0.1451
  967SOL    HW114537   2.504   2.425   4.349  0.5883 -1.0981 -1.7726
  967SOL    HW214538   2.645   2.398   4.339  0.4972 -2.1771  0.5494
  968SOL     OW14539   0.949   0.720  10.603 -0.1548 -0.2409  0.3890
  968SOL    HW114540   0.901   0.648  10.562  0.0765  0.1225 -0.5350
  968SOL    HW214541   1.026   0.675  10.638  0.0341 -0.9351 -0.9071
  969SOL     OW14542   0.390   2.705   8.065  0.1031 -0.1090 -0.1504
  969SOL    HW114543   0.392   2.681   8.158 -1.3249 -0.9231 -0.3386
  969SOL    HW214544   0.299   2.681   8.052  0.7463 -1.1862 -2.7105
  970SOL     OW14545   3.419   1.950   2.489  0.4835  0.0985  0.8701
  970SOL    HW114546   3.354   2.018   2.470  0.6943 -0.3824 -1.5619
  970SOL    HW214547   3.496   2.007   2.484  0.9215 -0.6806 -1.2806
  971SOL     OW14548   1.614   4.108   4.463 -0.1057 -0.3326  0.3206
  971SOL    HW114549   1.590   4.072   4.549  0.7727  0.9994  1.1302
  971SOL    HW214550   1.620   4.197   4.499  2.2850 -0.7369  0.9063
  972SOL     OW14551   4.446   2.176   5.971 -0.0918  0.1365 -0.3931
  972SOL    HW114552   4.516   2.154   5.908 -1.4117 -2.2178 -1.0485
  972SOL    HW214553   4.400   2.242   5.919 -2.1603 -0.0671  1.1950
  973SOL     OW14554   0.251   0.741   1.541  0.0242  0.3591  0.5467
  973SOL    HW114555   0.218   0.778   1.622  0.2836  0.8295  0.4383
  973SOL    HW214556   0.231   0.650   1.563  3.3008 -0.3505  0.5788
  974SOL     OW14557   1.331   0.100   4.299  0.1212  0.1030 -0.1798
  974SOL    HW114558   1.376   0.164   4.355  2.1034 -1.7873  0.3824
  974SOL    HW214559   1.327   0.021   4.352 -1.1742  0.4541  0.2456
  975SOL     OW14560   0.331   1.479   6.589 -0.4132 -0.5042 -0.0681
  975SOL    HW114561   0.404   1.526   6.629  1.3444 -2.4807 -0.9786
  975SOL    HW214562   0.259   1.482   6.652 -0.9152  0.5871 -0.6902
  976SOL     OW14563   0.494   2.635   2.105  0.5517 -0.2225 -0.4480
  976SOL    HW114564   0.582   2.659   2.076 -0.2476  1.7663 -1.2314
  976SOL    HW214565   0.505   2.610   2.197  0.9001  1.4305 -0.0341
  977SOL     OW14566   2.578   3.216   3.731  0.2955  0.1506 -0.1065
  977SOL    HW114567   2.634   3.275   3.780  0.5355 -2.1208  2.3492
  977SOL    HW214568   2.535   3.281   3.676 -0.6846  2.0535  2.9191
  978SOL     OW14569   3.681   2.317  10.556 -0.1385  0.7131 -0.3818
  978SOL    HW114570   3.687   2.315  10.651 -0.2339  0.7483 -0.3751
  978SOL    HW214571   3.600   2.268  10.545  1.7959 -2.3737 -0.9224
  979SOL     OW14572   3.982   1.806   6.870  0.1355 -0.1481  0.4592
  979SOL    HW114573   4.072   1.801   6.837  0.0077 -0.0449  0.1008
  979SOL    HW214574   3.965   1.713   6.879  1.5139 -0.4674 -0.2425
  980SOL     OW14575   3.600   1.625  16.795  0.5658  0.4092 -0.0468
  980SOL    HW114576   3.595   1.603  16.702 -3.9184 -0.5494  0.4459
  980SOL    HW214577   3.507   1.638  16.816  0.3436 -0.0646 -0.7553
  981SOL     OW14578   1.266   2.502   8.033  0.5282  0.3277 -0.1742
  981SOL    HW114579   1.278   2.587   8.076  2.2675  0.2756 -0.5928
  981SOL    HW214580   1.181   2.485   8.073 -0.0320 -1.4052 -2.1053
  982SOL     OW14581   3.438   0.923   4.465 -0.2377  0.1723 -0.7664
  982SOL    HW114582   3.493   0.962   4.533  2.4201 -0.7511 -2.3856
  982SOL    HW214583   3.494   0.961   4.397 -0.4575  0.4648 -0.7831
  983SOL     OW14584   0.469   0.149  15.097 -1.2212  0.4756 -0.1055
  983SOL    HW114585   0.394   0.090  15.093 -0.8647 -0.0461  0.9198
  983SOL    HW214586   0.515   0.130  15.178  1.3778 -2.1388 -2.2081
  984SOL     OW14587   4.047   2.913   0.432 -0.1122 -0.2919 -0.1163
  984SOL    HW114588   4.086   2.834   0.393  1.4298  0.6122 -0.4204
  984SOL    HW214589   4.046   2.975   0.358  0.1621 -1.6796 -1.2915
  985SOL     OW14590   2.539   3.998   1.759 -0.4322  0.7260 -0.2410
  985SOL    HW114591   2.548   4.085   1.720  0.9739  0.6667 -0.0394
  985SOL    HW214592   2.460   4.005   1.813 -1.1214 -0.2227 -1.1326
  986SOL     OW14593   2.412   3.537   0.498 -0.0091  0.3066  0.6943
  986SOL    HW114594   2.483   3.569   0.554  1.0457  0.3538 -0.6777
  986SOL    HW214595   2.344   3.523   0.564 -1.5494 -2.0492 -1.3746
  987SOL     OW14596   1.983   1.964   4.879  0.2886 -0.2998 -0.6298
  987SOL    HW114597   1.960   1.875   4.851  0.2044 -0.8151  1.0637
  987SOL    HW214598   2.077   1.950   4.892 -0.3029 -1.7322  2.0595
  988SOL     OW14599   4.018   3.442   3.448  0.1146  0.0261 -0.5414
  988SOL    HW114600   3.938   3.404   3.485  1.4360 -0.6030  1.6955
  988SOL    HW214601   3.992   3.448   3.357 -0.2401  1.9625 -0.3027
  989SOL     OW14602   3.131   0.820   6.123  0.4679 -0.5774  0.3430
  989SOL    HW114603   3.210   0.874   6.117 -1.1356  1.6622 -0.6048
  989SOL    HW214604   3.074   0.876   6.070 -1.8761 -0.6666  2.7837
  990SOL     OW14605   1.504   2.585   5.118  0.2053 -0.1093  1.0642
  990SOL    HW114606   1.491   2.669   5.161 -0.3141  1.3045 -1.8743
  990SOL    HW214607   1.536   2.534   5.193  0.5451 -1.0337  0.2969
  991SOL     OW14608   0.684   3.222   8.035 -0.1834  0.4262  0.0393
  991SOL    HW114609   0.673   3.236   8.129 -1.3978 -0.7947  0.0783
  991SOL    HW214610   0.740   3.295   8.010  0.0809 -0.3306 -1.5914
  992SOL     OW14611   1.697   4.406   1.317  0.2999 -0.4265  0.0195
  992SOL    HW114612   1.767   4.451   1.364 -0.3365 -1.3438  1.8876
  992SOL    HW214613   1.750   4.362   1.251  1.6218 -4.8467  4.0292
  993SOL     OW14614   2.314   2.068  10.899  0.8692  0.7174  0.1563
  993SOL    HW114615   2.252   2.140  10.883  1.3511  0.3784 -3.1707
  993SOL    HW214616   2.394   2.120  10.902  0.0729  2.0232 -1.2961
  994SOL     OW14617   1.117   0.086  13.746  0.8710 -0.8186 -0.0288
  994SOL    HW114618   1.171   0.012  13.717  0.3207 -0.8544 -0.9613
  994SOL    HW214619   1.070   0.116  13.668 -0.4465 -1.1284  0.6590
  995SOL     OW14620   4.118   3.746   1.439  0.6433 -0.0627  0.3828
  995SOL    HW114621   4.114   3.781   1.528 -1.9243 -0.0760  0.2753
  995SOL    HW214622   4.077   3.817   1.390  0.8977  1.5133  2.4410
  996SOL     OW14623   0.583   0.605   3.153 -0.5411  0.5013 -0.1769
  996SOL    HW114624   0.525   0.586   3.226  0.5097  1.3720  0.8687
  996SOL    HW214625   0.649   0.665   3.186  0.3244 -1.0824  0.9527
  997SOL     OW14626   0.475   3.605   7.539 -0.2222  0.7632 -0.1830
  997SOL    HW114627   0.424   3.679   7.574  0.6744  0.8967  0.8462
  997SOL    HW214628   0.566   3.625   7.559 -0.1944  1.8407 -1.4026
  998SOL     OW14629   3.189   0.946   2.410 -0.0055 -0.2070  0.0036
  998SOL    HW114630   3.209   0.926   2.501  2.8052 -0.5222 -0.7041
  998SOL    HW214631   3.242   1.024   2.391  1.9037 -1.3942  0.5032
  999SOL     OW14632   2.243   1.697   1.511  0.1639 -0.0823  0.0271
  999SOL    HW114633   2.322   1.745   1.486  0.0612 -1.3305 -2.6527
  999SOL    HW214634   2.280   1.612   1.489  2.2129  0.6513  0.6023
 1000SOL     OW14635   3.392   2.444  17.058 -0.5015  0.1765 -0.4239
 1000SOL    HW114636   3.311   2.495  17.053  0.2394  1.4206  0.2129
 1000SOL    HW214637   3.437   2.492  17.127 -0.9615 -1.9127  1.3312
 1001SOL     OW14638   0.376   3.723   2.991 -0.1484  0.2909  0.0562
 1001SOL    HW114639   0.374   3.818   2.981 -1.3316  0.1447 -1.0975
 1001SOL    HW214640   0.292   3.698   2.952 -0.8077  1.8177  0.5288
 1002SOL     OW14641   2.112   1.874   8.861 -0.1810  0.1432 -0.0715
 1002SOL    HW114642   2.054   1.925   8.919  1.2565  3.6241 -1.6811
 1002SOL    HW214643   2.050   1.804   8.841 -0.1786  0.2986 -0.6296
 1003SOL     OW14644   1.178   3.470   2.566  0.5401 -0.0997  0.1731
 1003SOL    HW114645   1.235   3.394   2.578 -0.7727 -1.2261 -0.7889
 1003SOL    HW214646   1.102   3.430   2.607  1.0156 -0.8638  0.2928
 1004SOL     OW14647   0.505   2.046   9.106 -0.1787  0.2002 -0.0156
 1004SOL    HW114648   0.428   2.005   9.065  0.2181  0.3998 -0.9508
 1004SOL    HW214649   0.460   2.117   9.152 -0.8242 -0.3856  0.2538
 1005SOL     OW14650   4.280   0.855  10.643  0.0376  0.8948 -0.2193
 1005SOL    HW114651   4.290   0.909  10.722  1.7264  1.5594 -0.8950
 1005SOL    HW214652   4.192   0.820  10.660 -0.6664  1.2097 -3.3037
 1006SOL     OW14653   2.545   3.758   7.496  0.1071 -0.1869  0.4805
 1006SOL    HW114654   2.525   3.850   7.481 -0.6377 -0.2608  1.0107
 1006SOL    HW214655   2.627   3.744   7.449 -0.7970 -2.6651 -0.4020
 1007SOL     OW14656   1.862   3.035   0.487 -0.6202  0.0349 -0.1511
 1007SOL    HW114657   1.802   2.983   0.433  1.6091 -0.5463 -2.0342
 1007SOL    HW214658   1.872   2.975   0.561 -3.2203 -0.5627 -0.2712
 1008SOL     OW14659   4.402   3.360   4.866  0.0926 -0.3353  0.2201
 1008SOL    HW114660   4.391   3.439   4.812  5.7224  0.3624  0.0794
 1008SOL    HW214661   4.318   3.361   4.911 -0.7035  0.4037 -1.2893
 1009SOL     OW14662   0.330   3.838   5.712  0.7023  0.5164  0.2020
 1009SOL    HW114663   0.408   3.868   5.758  1.2881  0.6095 -0.8375
 1009SOL    HW214664   0.267   3.840   5.783  0.5669 -0.8899  0.1293
 1010SOL     OW14665   1.240   1.136   1.570  0.3580 -0.1165  0.0208
 1010SOL    HW114666   1.219   1.103   1.658 -0.8978 -0.0302 -0.2526
 1010SOL    HW214667   1.315   1.081   1.547  0.3188 -0.8246  1.6002
 1011SOL     OW14668   4.117   3.103   3.067 -0.3780  0.1164  0.9131
 1011SOL    HW114669   4.168   3.054   3.003  0.7329  3.5849 -0.7927
 1011SOL    HW214670   4.165   3.072   3.144 -1.6757 -0.5464  1.4582
 1012SOL     OW14671   0.093   2.224   2.380 -0.4147  0.6833  0.3704
 1012SOL    HW114672   0.027   2.160   2.355  0.3776 -0.4567  1.1985
 1012SOL    HW214673   0.054   2.262   2.459  0.9589  1.6944  0.5778
 1013SOL     OW14674   1.844   2.336   8.528 -0.6990  0.6356  0.2543
 1013SOL    HW114675   1.846   2.417   8.579 -0.2773  0.1844  0.9637
 1013SOL    HW214676   1.909   2.283   8.574  0.8779  2.2158 -0.1765
 1014SOL     OW14677   4.043   4.480  11.578 -0.6176 -0.1196 -0.2213
 1014SOL    HW114678   3.973   4.504  11.638 -0.0267  0.7752  0.1177
 1014SOL    HW214679   4.043   4.560  11.524 -0.3853  0.0302 -0.0004
 1015SOL     OW14680   4.727   3.483   8.621 -0.1025  0.2685 -0.7165
 1015SOL    HW114681   4.634   3.463   8.606 -0.2953 -0.0824  0.9195
 1015SOL    HW214682   4.724   3.571   8.659 -1.0735 -0.7220  1.5366
 1016SOL     OW14683   2.774   4.699   4.504 -0.4059  0.2137 -0.0498
 1016SOL    HW114684   2.698   0.002   4.461 -0.8200 -0.0219  0.4765
 1016SOL    HW214685   2.845   0.021   4.475  0.5829 -1.1983 -0.5229
 1017SOL     OW14686   2.279   4.027   2.744  0.6435  0.2215 -0.4529
 1017SOL    HW114687   2.204   3.968   2.747  1.9079 -1.3216  0.5585
 1017SOL    HW214688   2.253   4.109   2.786 -1.0892 -0.4357 -0.2600
 1018SOL     OW14689   0.275   1.784  12.434 -0.4582  0.2519  0.3638
 1018SOL    HW114690   0.260   1.818  12.346 -2.4035  1.4822  1.1852
 1018SOL    HW214691   0.198   1.810  12.484 -0.4499  2.0992 -0.5900
 1019SOL     OW14692   1.841   3.758  16.950 -0.3297  0.2846  0.2898
 1019SOL    HW114693   1.869   3.746  16.859  1.3831 -0.6758  0.9377
 1019SOL    HW214694   1.753   3.721  16.945 -0.4259  0.2587  2.1847
 1020SOL     OW14695   0.711   1.721   6.558  0.8279 -0.4194 -0.6864
 1020SOL    HW114696   0.754   1.798   6.594 -2.8576  0.2040  2.2798
 1020SOL    HW214697   0.620   1.749   6.549  1.3777  0.9072 -2.0270
 1021SOL     OW14698   3.846   2.882  13.230  0.1251 -0.5499 -0.8467
 1021SOL    HW114699   3.919   2.877  13.292  0.8919  2.5972 -1.5325
 1021SOL    HW214700   3.831   2.976  13.228  2.1299 -0.1937  1.2294
 1022SOL     OW14701   3.598   2.306  10.823 -0.6854  0.4699 -0.2566
 1022SOL    HW114702   3.522   2.337  10.773 -1.4268  0.8181  1.1128
 1022SOL    HW214703   3.566   2.224  10.859 -1.0619 -0.7169 -3.2331
 1023SOL     OW14704   2.384   2.694   1.448 -0.2811  0.5700  0.1803
 1023SOL    HW114705   2.362   2.787   1.446 -2.1284  0.1302  0.1431
 1023SOL    HW214706   2.466   2.691   1.398  1.0115  1.0173  2.2371
 1024SOL     OW14707   2.742   4.269   1.575 -0.9758  0.0789  0.2102
 1024SOL    HW114708   2.777   4.265   1.664 -0.5118 -0.0782  0.0163
 1024SOL    HW214709   2.803   4.214   1.526  0.5320 -0.5463  2.7669
 1025SOL     OW14710   4.366   3.664   4.200 -0.1869 -0.1668 -0.0730
 1025SOL    HW114711   4.388   3.747   4.242 -0.0577 -0.0836 -0.3097
 1025SOL    HW214712   4.355   3.602   4.272  2.2438 -0.6311 -0.1007
 1026SOL     OW14713   0.954   2.832   3.899  0.2092 -0.6687  0.7043
 1026SOL    HW114714   1.046   2.849   3.921  0.0844  1.9490 -0.7220
 1026SOL    HW214715   0.914   2.919   3.904  1.3133  0.0258 -2.8833
 1027SOL     OW14716   1.865   3.508   8.236 -0.1332 -0.0486 -0.0339
 1027SOL    HW114717   1.927   3.582   8.230  0.0005 -0.0822  1.0046
 1027SOL    HW214718   1.906   3.465   8.311 -3.0866 -0.9627  1.0665
 1028SOL     OW14719   2.832   4.140   7.531  0.2167  0.0818 -0.4263
 1028SOL    HW114720   2.921   4.115   7.554 -0.6372 -2.0118  0.6122
 1028SOL    HW214721   2.828   4.235   7.524 -0.9555  0.1325  1.0035
 1029SOL     OW14722   0.239   3.186   6.146 -0.2326  0.6448 -0.1985
 1029SOL    HW114723   0.206   3.101   6.175  0.3899  0.2540 -0.6234
 1029SOL    HW214724   0.328   3.184   6.181  0.5431 -0.8891 -2.1815
 1030SOL     OW14725   1.793   3.648   7.279  0.7330 -0.1168 -0.1786
 1030SOL    HW114726   1.837   3.698   7.347  0.3263 -0.8812  0.6436
 1030SOL    HW214727   1.794   3.561   7.319  0.5137  1.0586  2.3508
 1031SOL     OW14728   0.687   1.617   6.017  0.2268  0.1211  0.0947
 1031SOL    HW114729   0.709   1.643   6.107  3.2653 -0.6583 -0.4099
 1031SOL    HW214730   0.645   1.699   5.992  0.4891  0.3218  0.3103
 1032SOL     OW14731   4.436   2.478   3.108  0.7201 -0.1534  0.1821
 1032SOL    HW114732   4.449   2.384   3.098 -0.9114 -0.2348 -1.1666
 1032SOL    HW214733   4.403   2.472   3.198 -1.5128  2.1738 -0.4875
 1033SOL     OW14734   2.739   2.268   1.736 -0.2250  0.1317  0.2564
 1033SOL    HW114735   2.785   2.340   1.780  1.5454 -1.1772  0.5787
 1033SOL    HW214736   2.772   2.189   1.778 -1.5153 -0.8010 -0.5056
 1034SOL     OW14737   2.268   3.246   7.495 -0.1173 -0.2490  0.1677
 1034SOL    HW114738   2.350   3.216   7.535 -0.5116 -1.9107 -0.2640
 1034SOL    HW214739   2.285   3.195   7.416  1.8617  0.3380  0.1971
 1035SOL     OW14740   2.653   3.827   6.926  0.0967 -0.9853 -0.0093
 1035SOL    HW114741   2.709   3.900   6.897 -0.0611  0.0980  2.4575
 1035SOL    HW214742   2.582   3.824   6.862 -1.0345 -0.6000  1.2229
 1036SOL     OW14743   0.180   3.290  10.703 -0.0454 -0.1585 -0.1415
 1036SOL    HW114744   0.244   3.325  10.764  1.4210 -0.6390 -1.4057
 1036SOL    HW214745   0.133   3.225  10.756 -1.8954 -0.8047 -2.5434
 1037SOL     OW14746   3.289   3.238   9.383  0.0140  0.3762 -0.6568
 1037SOL    HW114747   3.342   3.172   9.426 -1.2852 -0.0603  0.2861
 1037SOL    HW214748   3.230   3.181   9.334 -1.6400  1.9728 -0.5628
 1038SOL     OW14749   3.693   2.383   2.386 -0.4457 -0.5618  0.3630
 1038SOL    HW114750   3.603   2.385   2.353  0.2333 -1.0480 -1.4756
 1038SOL    HW214751   3.748   2.387   2.309  0.2185  0.5038  0.8829
 1039SOL     OW14752   1.570   3.707   5.353 -0.0188 -0.3660  0.6104
 1039SOL    HW114753   1.482   3.669   5.352  0.5276 -1.6519  1.4357
 1039SOL    HW214754   1.543   3.799   5.354  0.6337 -0.1864  1.2597
 1040SOL     OW14755   2.748   4.295   5.771 -0.7210  0.4759 -0.0884
 1040SOL    HW114756   2.693   4.233   5.723 -1.3478  0.6302  0.4197
 1040SOL    HW214757   2.825   4.277   5.718 -2.1912 -1.8746 -1.4179
 1041SOL     OW14758   0.763   1.901   7.214  0.4446  0.0598 -0.4388
 1041SOL    HW114759   0.821   1.931   7.284  0.1678 -0.6827  0.1090
 1041SOL    HW214760   0.816   1.837   7.167 -0.2490 -0.1434 -0.9258
 1042SOL     OW14761   4.586   1.036   7.931 -0.9110 -0.5519 -0.0598
 1042SOL    HW114762   4.608   1.052   7.839 -0.5402 -1.3132 -0.1017
 1042SOL    HW214763   4.656   1.071   7.986  0.2338 -0.0142 -1.8401
 1043SOL     OW14764   0.978   3.623   8.414 -0.2592  0.2166  0.0892
 1043SOL    HW114765   0.960   3.690   8.349  0.7150 -0.1415 -0.5450
 1043SOL    HW214766   0.920   3.654   8.484  1.3503  2.4699  0.4181
 1044SOL     OW14767   1.688   2.888   3.508  0.4357  1.0463  0.1625
 1044SOL    HW114768   1.681   2.826   3.435 -1.0473 -1.5491  2.5409
 1044SOL    HW214769   1.754   2.845   3.563 -0.6313  1.4777  1.7633
 1045SOL     OW14770   3.652   3.920  10.234  0.4102 -0.6252  0.1391
 1045SOL    HW114771   3.594   3.935  10.159 -3.5311  2.4247  3.8294
 1045SOL    HW214772   3.694   3.837  10.210  0.1262 -1.0483  1.1271
 1046SOL     OW14773   3.499   1.071  13.345 -0.8500  0.1435 -0.4455
 1046SOL    HW114774   3.547   0.991  13.366 -0.9897  0.5574  1.4901
 1046SOL    HW214775   3.406   1.057  13.363 -0.2727 -1.2808  1.4399
 1047SOL     OW14776   2.148   2.504  17.481  0.3104  0.2249  0.1840
 1047SOL    HW114777   2.065   2.457  17.483 -0.5710  1.7533 -1.6444
 1047SOL    HW214778   2.162   2.504  17.576 -1.6654  1.1713  0.4698
 1048SOL     OW14779   2.910   2.504  14.523  0.0505  0.1990  0.0116
 1048SOL    HW114780   2.905   2.599  14.510  0.2130  0.0826 -0.8836
 1048SOL    HW214781   2.830   2.480  14.476  0.0829 -1.3694  0.7686
 1049SOL     OW14782   1.647   0.905   5.893 -0.0166  0.1983 -0.0365
 1049SOL    HW114783   1.654   0.985   5.841  1.7875 -0.0499 -0.1941
 1049SOL    HW214784   1.640   0.840   5.823 -1.2356 -0.2484  0.5126
 1050SOL     OW14785   3.029   2.561  10.161 -0.6696 -0.4713 -0.0891
 1050SOL    HW114786   2.992   2.477  10.136  0.3602 -1.3842  1.4957
 1050SOL    HW214787   3.060   2.596  10.077  0.5897 -2.3653 -0.4004
 1051SOL     OW14788   3.088   0.446   1.520 -0.1894  0.1370  0.1442
 1051SOL    HW114789   2.998   0.436   1.488 -0.2575  2.2465 -0.3142
 1051SOL    HW214790   3.102   0.539   1.539 -0.4325  0.2575 -0.2531
 1052SOL     OW14791   0.226   1.048   4.829  0.3916 -0.1273  0.0376
 1052SOL    HW114792   0.307   0.998   4.830  0.5577  0.1266 -0.4152
 1052SOL    HW214793   0.173   1.024   4.905  0.7124 -1.6321 -0.2314
 1053SOL     OW14794   1.977   3.953   3.248  0.0387 -0.0896  0.1767
 1053SOL    HW114795   2.067   3.923   3.236 -0.7979 -2.7387  0.4576
 1053SOL    HW214796   1.960   3.911   3.333 -1.0996  0.7694  0.3647
 1054SOL     OW14797   0.218   1.869   8.831 -0.2180 -0.2235  0.3001
 1054SOL    HW114798   0.264   1.851   8.913  1.5934 -1.3906 -0.9911
 1054SOL    HW214799   0.192   1.955   8.865 -2.4380 -0.5354 -0.6410
 1055SOL     OW14800   0.626   3.221   8.292  0.2923  0.1491  0.5256
 1055SOL    HW114801   0.660   3.207   8.380  1.3360  0.8613  0.2341
 1055SOL    HW214802   0.545   3.173   8.306  0.2087  0.0848 -0.1519
 1056SOL     OW14803   1.534   2.737   9.263  0.3265 -0.9113 -0.3468
 1056SOL    HW114804   1.489   2.782   9.335 -0.7427  0.4422 -1.8611
 1056SOL    HW214805   1.568   2.813   9.217 -0.8510 -0.7629 -0.9741
 1057SOL     OW14806   1.907   3.557   6.508  0.1650 -0.3813 -0.2682
 1057SOL    HW114807   1.835   3.620   6.508 -0.1294 -0.7242  1.5576
 1057SOL    HW214808   1.874   3.487   6.565  3.0104  1.3813  3.4740
 1058SOL     OW14809   0.146   1.975   0.266  0.1734 -0.0559 -0.0292
 1058SOL    HW114810   0.117   2.053   0.218  1.1835  0.4184  0.1200
 1058SOL    HW214811   0.236   1.981   0.234  0.7274  0.5404  1.6246
 1059SOL     OW14812   0.141   1.053   4.042 -0.3245 -0.3136  0.4231
 1059SOL    HW114813   0.130   0.971   4.091 -1.8092 -0.5235 -0.2772
 1059SOL    HW214814   0.058   1.100   4.050  0.7002  1.6317 -0.6626
 1060SOL     OW14815   2.719   4.232   0.444 -0.1871  0.0936 -0.7421
 1060SOL    HW114816   2.639   4.269   0.482  1.2861  3.1709 -0.6759
 1060SOL    HW214817   2.689   4.143   0.423 -0.6646 -0.2676  1.4807
 1061SOL     OW14818   4.428   4.011   3.720 -0.1602 -0.1842  0.4457
 1061SOL    HW114819   4.497   3.969   3.771 -0.7615 -0.2926  1.1706
 1061SOL    HW214820   4.452   4.103   3.717  0.8188 -0.3957  1.8280
 1062SOL     OW14821   4.058   4.603   1.818 -0.0687 -0.3262  0.2626
 1062SOL    HW114822   4.026   4.693   1.815  0.7816 -0.0060  0.9030
 1062SOL    HW214823   4.128   4.604   1.883  0.9234  3.3130 -0.8134
 1063SOL     OW14824   2.027   0.384   2.166 -0.0723 -0.0539 -0.0971
 1063SOL    HW114825   1.933   0.397   2.174 -0.1113 -0.4054  0.0453
 1063SOL    HW214826   2.035   0.397   2.072 -1.2954  1.1737 -0.0213
 1064SOL     OW14827   4.047   2.223   8.872 -0.7086  0.2308  0.8513
 1064SOL    HW114828   4.082   2.134   8.881  0.0176  0.4897  0.5444
 1064SOL    HW214829   3.999   2.236   8.953 -0.3681 -2.0398  1.4313
 1065SOL     OW14830   0.383   2.218  11.662  0.0713  0.2095  0.6383
 1065SOL    HW114831   0.365   2.311  11.648 -1.8362  0.1285  2.5117
 1065SOL    HW214832   0.415   2.194  11.575 -0.6864 -0.6505  0.5943
 1066SOL     OW14833   3.184   0.185   0.755  0.7448  0.4960 -0.5282
 1066SOL    HW114834   3.197   0.276   0.728  2.7402  0.5002  0.4796
 1066SOL    HW214835   3.202   0.137   0.674  1.6699  0.0620 -0.0600
 1067SOL     OW14836   0.795   0.077  12.283 -0.4486  0.0736  0.4220
 1067SOL    HW114837   0.790   0.052  12.375 -1.1366  0.2572  0.4314
 1067SOL    HW214838   0.882   0.040  12.265 -1.0625 -1.2445  0.2063
 1068SOL     OW14839   0.251   1.949   9.096  0.2418  0.5302 -0.0578
 1068SOL    HW114840   0.286   1.887   9.160 -0.0285  0.3427 -0.0888
 1068SOL    HW214841   0.156   1.946   9.106  0.1749 -1.3464 -1.2399
 1069SOL     OW14842   3.209   2.520  17.349  0.0514 -0.6901  0.1768
 1069SOL    HW114843   3.187   2.560  17.433  0.6780  0.1095 -0.0340
 1069SOL    HW214844   3.304   2.534  17.344 -0.5626  2.6055 -2.6698
 1070SOL     OW14845   1.810   3.514   3.747  0.1381  0.1706  0.2350
 1070SOL    HW114846   1.727   3.489   3.707  0.0736  2.1068 -0.8378
 1070SOL    HW214847   1.795   3.504   3.841 -1.6869  0.0913 -0.0706
 1071SOL     OW14848   2.429   2.427   6.777 -0.1385  0.7602 -0.3719
 1071SOL    HW114849   2.339   2.405   6.799 -0.4058  3.0960  0.8828
 1071SOL    HW214850   2.441   2.514   6.816  1.2604  1.0487 -1.4397
 1072SOL     OW14851   0.245   2.437   7.635  0.1479 -0.2283 -0.3613
 1072SOL    HW114852   0.215   2.520   7.599 -0.7583 -1.4885 -2.5591
 1072SOL    HW214853   0.305   2.460   7.705 -0.5089 -0.2224  0.1936
 1073SOL     OW14854   3.125   2.647   1.810 -0.1039  0.7678 -0.4823
 1073SOL    HW114855   3.186   2.720   1.795 -1.2538  1.9531  0.6344
 1073SOL    HW214856   3.152   2.592   1.736 -1.4467 -0.6755  0.1177
 1074SOL     OW14857   0.353   1.119   9.122 -0.2200 -0.4596  0.2578
 1074SOL    HW114858   0.275   1.174   9.121 -0.4310 -0.7595  0.3177
 1074SOL    HW214859   0.368   1.105   9.216 -1.6372 -2.3737  0.1965
 1075SOL     OW14860   2.767   3.234   4.486  0.0359 -0.1835 -0.0084
 1075SOL    HW114861   2.694   3.265   4.434 -0.5258 -1.7261 -0.1427
 1075SOL    HW214862   2.793   3.319   4.521  1.4233 -0.6680  0.1713
 1076SOL     OW14863   0.100   2.508   4.979 -0.2935 -0.4241  0.5705
 1076SOL    HW114864   0.154   2.586   4.984 -0.4198 -0.3472  0.7369
 1076SOL    HW214865   0.164   2.460   4.927 -0.4894 -0.0532 -0.0185
 1077SOL     OW14866   2.763   3.142   2.087 -0.1646 -0.5077  0.1546
 1077SOL    HW114867   2.678   3.176   2.113 -1.1224 -0.4639 -3.0156
 1077SOL    HW214868   2.765   3.156   1.992  0.5765 -0.5006  0.1670
 1078SOL     OW14869   0.770   1.664   1.720  0.6186  0.0837  0.9646
 1078SOL    HW114870   0.695   1.605   1.724  0.6490  0.1300  2.4555
 1078SOL    HW214871   0.732   1.740   1.676 -0.9281 -0.4140  1.4359
 1079SOL     OW14872   3.807   4.242   7.696  0.2981  0.3300 -0.0214
 1079SOL    HW114873   3.787   4.179   7.766  0.0550 -1.7754 -1.9817
 1079SOL    HW214874   3.721   4.272   7.668 -1.5810 -4.1471  0.9621
 1080SOL     OW14875   4.225   0.611  15.784 -0.3589  0.4538 -0.0286
 1080SOL    HW114876   4.297   0.670  15.808 -0.0620 -0.0229  0.2455
 1080SOL    HW214877   4.184   0.660  15.713  0.9349 -2.1640 -2.5632
 1081SOL     OW14878   2.999   2.934   9.952 -0.4388 -0.3394 -0.0218
 1081SOL    HW114879   2.968   2.904   9.867  1.1903 -0.3698 -0.5954
 1081SOL    HW214880   2.959   2.875  10.017 -1.3962  1.9045  1.4244
 1082SOL     OW14881   0.373   4.362   2.196  0.0781 -0.1881  0.1108
 1082SOL    HW114882   0.358   4.268   2.207 -0.5869 -0.0245  0.6113
 1082SOL    HW214883   0.455   4.364   2.147  0.2994 -0.6574  0.4596
 1083SOL     OW14884   4.667   2.496   9.486  0.3333  0.1411  0.5234
 1083SOL    HW114885   4.589   2.488   9.541 -0.6539  1.2120 -0.7488
 1083SOL    HW214886   4.731   2.524   9.551 -0.0907 -0.4714  1.2084
 1084SOL     OW14887   0.417   4.517  11.294  0.2172  0.6699 -0.4301
 1084SOL    HW114888   0.325   4.496  11.277  0.0157  2.1758 -1.1962
 1084SOL    HW214889   0.417   4.612  11.289  0.6955  0.7910  1.8168
 1085SOL     OW14890   0.437   4.284   6.574 -0.4885  0.0589  0.6352
 1085SOL    HW114891   0.482   4.289   6.659  0.7601  0.2220 -0.0244
 1085SOL    HW214892   0.403   4.195   6.572  1.4974 -0.7082  0.3258
 1086SOL     OW14893   4.462   0.468   1.883  0.1307  0.1514 -0.2886
 1086SOL    HW114894   4.422   0.484   1.968 -0.3791 -2.2078 -0.0726
 1086SOL    HW214895   4.401   0.522   1.833 -2.1334 -1.9369  0.2230
 1087SOL     OW14896   0.959   0.202   3.598 -0.0086  0.0210 -0.0807
 1087SOL    HW114897   0.966   0.136   3.529  1.7199  0.6493 -0.5131
 1087SOL    HW214898   0.925   0.271   3.541  2.9815  0.6702 -1.0806
 1088SOL     OW14899   4.429   0.740   5.884 -0.5712 -0.0351  0.4067
 1088SOL    HW114900   4.501   0.778   5.834 -2.6023  1.1228 -1.6430
 1088SOL    HW214901   4.365   0.808   5.862  0.0281  0.2703 -0.4158
 1089SOL     OW14902   3.154   1.393   8.577 -0.0067  0.1705 -0.5797
 1089SOL    HW114903   3.193   1.403   8.491 -1.3841 -1.2017 -1.3595
 1089SOL    HW214904   3.061   1.394   8.556 -0.2943 -3.4767  0.5136
 1090SOL     OW14905   4.490   2.008   5.325  0.0497 -0.7635  0.3935
 1090SOL    HW114906   4.440   2.058   5.388  2.3815  0.1410  1.5438
 1090SOL    HW214907   4.532   2.079   5.277 -1.2984 -0.7826 -0.8105
 1091SOL     OW14908   0.033   2.814   8.494  0.2225 -0.4231 -0.0777
 1091SOL    HW114909   0.058   2.836   8.584  0.3982  0.7210 -0.4098
 1091SOL    HW214910   4.676   2.793   8.491 -0.2670  1.6209  0.6873
 1092SOL     OW14911   1.983   1.224   4.173  0.2460  0.1945 -0.5083
 1092SOL    HW114912   1.960   1.139   4.136  1.2169 -0.2030 -0.2167
 1092SOL    HW214913   2.076   1.228   4.150  0.5410  0.0063  0.6576
 1093SOL     OW14914   1.742   1.804   2.562 -0.8723  0.1368  1.2233
 1093SOL    HW114915   1.831   1.803   2.597 -0.2616  0.6783 -0.3383
 1093SOL    HW214916   1.722   1.897   2.576  0.2436  0.8211 -1.9493
 1094SOL     OW14917   3.573   1.749   6.296  0.2131  0.0026 -0.0108
 1094SOL    HW114918   3.577   1.782   6.386 -0.2838  0.7251 -0.2590
 1094SOL    HW214919   3.643   1.684   6.300  1.3995  1.1482 -2.3985
 1095SOL     OW14920   0.192   0.132   8.576 -0.0713 -0.5109 -0.5914
 1095SOL    HW114921   0.199   0.126   8.481  0.8689 -1.1116 -0.4880
 1095SOL    HW214922   0.099   0.125   8.596  0.1612 -0.6772  0.4636
 1096SOL     OW14923   3.824   4.623   9.045 -0.5014 -0.1195  0.3885
 1096SOL    HW114924   3.825   4.717   9.064  1.9146 -0.1152  0.2358
 1096SOL    HW214925   3.889   4.591   9.108 -0.7876  1.7648  1.6711
 1097SOL     OW14926   0.983   1.426   3.517  0.0230  0.0825  0.4447
 1097SOL    HW114927   1.075   1.400   3.511  0.0331  0.3541 -0.6436
 1097SOL    HW214928   0.973   1.460   3.428  0.0095  0.7920  0.7193
 1098SOL     OW14929   4.440   2.623  15.360  0.3607 -0.2413 -0.1680
 1098SOL    HW114930   4.487   2.546  15.390  0.8793 -0.3362 -1.2002
 1098SOL    HW214931   4.449   2.611  15.265 -1.0103  1.8806 -0.5602
 1099SOL     OW14932   1.300   2.556   1.449  0.1064 -0.2474  0.3831
 1099SOL    HW114933   1.331   2.645   1.430  2.1516 -1.4204 -1.7626
 1099SOL    HW214934   1.355   2.527   1.522 -0.5892 -1.1017  0.5680
 1100SOL     OW14935   1.351   4.697   6.118 -0.2125 -0.3845  0.0227
 1100SOL    HW114936   1.261   4.727   6.134  0.5572  1.7208  0.4546
 1100SOL    HW214937   1.364   4.693   6.024 -1.7854  1.1146 -0.2534
 1101SOL     OW14938   4.696   3.878  16.752  0.3170  0.5205  0.5198
 1101SOL    HW114939   0.046   3.889  16.713  0.1189  1.5380  0.3876
 1101SOL    HW214940   4.695   3.942  16.823 -1.5462  1.7657 -0.6546
 1102SOL     OW14941   3.890   2.217  10.319  0.2486 -1.1426 -0.4703
 1102SOL    HW114942   3.894   2.122  10.320  0.9829 -1.0759  2.5657
 1102SOL    HW214943   3.842   2.239  10.399  1.6545  1.1949 -0.2599
 1103SOL     OW14944   3.633   4.335   6.259  0.5074 -0.3164 -0.5244
 1103SOL    HW114945   3.627   4.240   6.270 -0.3573 -0.5268 -2.8714
 1103SOL    HW214946   3.624   4.341   6.164 -3.1959 -2.8434 -0.3495
 1104SOL     OW14947   0.492   0.747   7.731  0.0896 -0.1950 -0.0951
 1104SOL    HW114948   0.468   0.709   7.816 -2.3642 -2.2982 -1.7103
 1104SOL    HW214949   0.585   0.767   7.742  0.1239 -0.4070  0.0081
 1105SOL     OW14950   3.614   1.208  15.084 -0.8054  0.4505  0.2857
 1105SOL    HW114951   3.627   1.300  15.107  0.1353  0.7265 -1.3705
 1105SOL    HW214952   3.530   1.220  15.040 -0.1782  0.2660 -0.9723
 1106SOL     OW14953   3.588   3.550   8.132 -0.3434 -0.6332 -0.7307
 1106SOL    HW114954   3.672   3.581   8.098  0.1806 -2.7543 -1.3755
 1106SOL    HW214955   3.585   3.469   8.081 -0.1830 -0.9783 -0.1911
 1107SOL     OW14956   1.877   2.076   5.594 -0.2154 -0.4155 -0.3282
 1107SOL    HW114957   1.970   2.086   5.617 -0.6121 -1.0650  1.5483
 1107SOL    HW214958   1.881   2.009   5.526  1.3411  0.6957 -1.3436
 1108SOL     OW14959   1.638   2.598  13.024 -0.2880 -0.3923  0.0146
 1108SOL    HW114960   1.593   2.526  13.068 -0.6101  0.2066  0.6817
 1108SOL    HW214961   1.585   2.667  13.064  0.3891 -0.6660  1.4217
 1109SOL     OW14962   3.875   4.402   4.374 -0.0641 -0.2253  0.7373
 1109SOL    HW114963   3.911   4.403   4.286 -1.0730  2.4360  0.3528
 1109SOL    HW214964   3.848   4.310   4.382 -0.9507 -0.0979 -0.7764
 1110SOL     OW14965   1.685   0.934  14.313 -1.2948 -0.6615  0.2118
 1110SOL    HW114966   1.711   0.961  14.401 -1.4778  1.4857 -0.3920
 1110SOL    HW214967   1.746   0.865  14.289 -0.7155 -0.6493  1.6845
 1111SOL     OW14968   2.109   2.595   1.602  0.4071  0.7397  0.2766
 1111SOL    HW114969   2.097   2.568   1.511 -0.9267  1.9015  0.1205
 1111SOL    HW214970   2.196   2.556   1.616 -0.0476 -1.0339 -1.7818
 1112SOL     OW14971   1.659   1.283   6.623 -0.0568 -0.0040  0.5384
 1112SOL    HW114972   1.646   1.323   6.537 -0.4547  0.4116  0.7870
 1112SOL    HW214973   1.615   1.344   6.683 -2.2221  0.1178 -1.1469
 1113SOL     OW14974   2.380   2.149   4.522  0.3304 -0.4593 -0.1056
 1113SOL    HW114975   2.407   2.238   4.543  0.2735 -0.6617  0.8529
 1113SOL    HW214976   2.447   2.119   4.461  1.3358 -0.4105  0.9726
 1114SOL     OW14977   0.117   0.429   9.284  0.5280  0.5093 -0.2479
 1114SOL    HW114978   0.146   0.369   9.215 -2.6121  0.6327 -1.6689
 1114SOL    HW214979   0.047   0.469   9.233 -0.6922  1.3096  2.0706
 1115SOL     OW14980   2.519   0.104   3.061 -0.2243 -0.3286 -0.5071
 1115SOL    HW114981   2.553   0.117   3.149 -1.5427 -0.2708 -0.0127
 1115SOL    HW214982   2.555   0.015   3.057  1.6092  0.3627  1.0061
 1116SOL     OW14983   3.421   0.106   2.003  0.0032  0.0530  0.2942
 1116SOL    HW114984   3.374   0.023   2.009 -1.6226  1.0822  1.5628
 1116SOL    HW214985   3.406   0.145   2.089 -0.3185 -2.4380  1.3563
 1117SOL     OW14986   4.557   1.039   8.765  0.4664 -0.1397 -0.5266
 1117SOL    HW114987   4.485   0.976   8.755  0.8434 -1.1462  3.1591
 1117SOL    HW214988   4.635   0.984   8.773 -0.0503 -0.7840  0.1017
 1118SOL     OW14989   1.200   4.266  11.291  0.0867  0.1825  0.1582
 1118SOL    HW114990   1.112   4.251  11.257  0.2674  0.0678 -0.2585
 1118SOL    HW214991   1.200   4.205  11.365  0.3877  1.4680  1.2266
 1119SOL     OW14992   2.311   1.531  14.512 -0.1758  0.4744  0.2758
 1119SOL    HW114993   2.218   1.548  14.496  0.3305  4.6711  1.7659
 1119SOL    HW214994   2.356   1.613  14.493 -2.1892  0.8914 -2.6424
 1120SOL     OW14995   4.725   2.833  16.863 -1.0980 -0.1801  0.2052
 1120SOL    HW114996   0.052   2.799  16.927 -0.5770  2.7783  1.2948
 1120SOL    HW214997   0.044   2.824  16.785 -0.6324 -2.0744  0.7488
 1121SOL     OW14998   0.180   3.002   6.902  0.2553 -0.0139  0.3354
 1121SOL    HW114999   0.199   3.096   6.914 -0.7733  0.3126 -0.5653
 1121SOL    HW215000   0.264   2.965   6.926  1.2753  0.9981 -1.6641
 1122SOL     OW15001   4.154   3.590   9.271 -0.2862 -0.0646 -0.0860
 1122SOL    HW115002   4.188   3.677   9.248  1.3282  0.1485  3.0552
 1122SOL    HW215003   4.064   3.615   9.295  0.0833 -0.6736  1.9379
 1123SOL     OW15004   0.446   1.014  13.833  0.2968 -0.9520 -0.0243
 1123SOL    HW115005   0.388   0.986  13.904  1.4649  3.1020  2.5443
 1123SOL    HW215006   0.533   1.018  13.873  1.0138 -1.7684 -1.5276
 1124SOL     OW15007   4.114   3.213  10.827 -0.5235  0.4138  0.2138
 1124SOL    HW115008   4.026   3.237  10.856 -0.3656  1.0757  0.1505
 1124SOL    HW215009   4.148   3.210  10.916 -0.9805  0.2902  0.3841
 1125SOL     OW15010   3.441   4.651  12.062 -0.2786  0.2260 -0.5423
 1125SOL    HW115011   3.407   4.572  12.104  0.5948  1.1246  1.8670
 1125SOL    HW215012   3.533   4.650  12.091 -0.9386  1.6414  1.5353
 1126SOL     OW15013   4.317   3.604   8.737 -0.4926  0.5003  0.1591
 1126SOL    HW115014   4.230   3.572   8.713  0.3343  1.1510 -3.8434
 1126SOL    HW215015   4.287   3.665   8.805  0.0012 -0.4059  1.1833
 1127SOL     OW15016   4.087   1.023   5.344  0.0984 -0.2878  0.1800
 1127SOL    HW115017   4.177   1.032   5.374 -0.1860  0.1080  0.9291
 1127SOL    HW215018   4.044   0.999   5.426  0.2227  0.9602  0.6144
 1128SOL     OW15019   2.595   1.169   2.048  0.3588  0.4482  0.4472
 1128SOL    HW115020   2.623   1.257   2.022  0.0988  0.8454  1.5053
 1128SOL    HW215021   2.621   1.175   2.139 -0.1668 -0.1573  0.6375
 1129SOL     OW15022   4.412   1.466   3.734 -1.0316 -0.0643  0.1597
 1129SOL    HW115023   4.499   1.489   3.767 -1.8620  0.5780  1.9369
 1129SOL    HW215024   4.420   1.504   3.647 -1.4793 -1.2586 -0.4012
 1130SOL     OW15025   3.107   0.885  12.641 -0.0005 -0.2672 -0.4551
 1130SOL    HW115026   3.117   0.855  12.731  1.2384 -2.0572 -1.1738
 1130SOL    HW215027   3.194   0.880  12.600  1.6445 -2.0683  3.2218
 1131SOL     OW15028   3.394   1.771   4.036 -0.3756 -0.1836 -0.1013
 1131SOL    HW115029   3.466   1.820   4.077  1.2377 -3.0535  0.4752
 1131SOL    HW215030   3.438   1.691   4.010  1.2219  1.0306 -1.1562
 1132SOL     OW15031   0.237   1.437   5.363  0.0923  0.3016  0.2556
 1132SOL    HW115032   0.321   1.473   5.394  0.7083  0.2663 -1.3488
 1132SOL    HW215033   0.269   1.413   5.276 -1.0395  2.9594 -0.8795
 1133SOL     OW15034   3.948   3.851   6.445 -0.0550 -0.0049  0.0523
 1133SOL    HW115035   3.931   3.943   6.424 -2.1445  0.4593  3.7998
 1133SOL    HW215036   3.883   3.808   6.390  0.2854 -0.6134  0.1260
 1134SOL     OW15037   2.986   2.882   2.899  0.2930 -0.0898  0.0364
 1134SOL    HW115038   3.047   2.875   2.972 -0.7223  0.0187  0.8975
 1134SOL    HW215039   3.040   2.847   2.828 -1.4020 -0.7682 -0.9327
 1135SOL     OW15040   2.053   3.618  17.397  0.3998 -0.1998  0.0777
 1135SOL    HW115041   2.001   3.663  17.330 -0.2960 -1.0695  0.0219
 1135SOL    HW215042   2.015   3.532  17.375  1.0255 -0.3363 -0.4791
 1136SOL     OW15043   0.389   2.993  10.739  0.5270  0.0282 -0.2221
 1136SOL    HW115044   0.409   3.047  10.816 -1.4638 -0.1568  0.4192
 1136SOL    HW215045   0.302   2.960  10.761 -0.1144  0.9464 -1.4012
 1137SOL     OW15046   1.104   1.978  10.654 -0.1163 -0.2563  0.4648
 1137SOL    HW115047   1.115   1.889  10.622  1.1390  1.0149 -2.5329
 1137SOL    HW215048   1.085   2.032  10.578  0.8626 -0.3194  0.1804
 1138SOL     OW15049   2.247   1.305   1.939 -0.2562  0.1481 -0.4978
 1138SOL    HW115050   2.197   1.386   1.933  1.3820  1.2623  0.8708
 1138SOL    HW215051   2.312   1.309   2.010  0.4065  1.3238 -1.1668
 1139SOL     OW15052   1.205   4.285  10.861 -0.1835  0.3865 -0.1788
 1139SOL    HW115053   1.294   4.303  10.831  0.1351 -1.1001 -0.1092
 1139SOL    HW215054   1.153   4.332  10.796 -3.6237 -2.3035  0.6102
 1140SOL     OW15055   0.950   3.757   3.428  0.0119  0.6712 -0.5281
 1140SOL    HW115056   0.985   3.831   3.478  0.6629 -1.2983  1.9320
 1140SOL    HW215057   1.007   3.758   3.351  0.4314 -1.7711 -0.2517
 1141SOL     OW15058   3.172   0.211  13.821  0.2104 -0.4020  0.0722
 1141SOL    HW115059   3.243   0.151  13.800  0.3068 -0.2714  0.0279
 1141SOL    HW215060   3.102   0.165  13.776  0.0945  0.8619 -1.0354
 1142SOL     OW15061   3.055   0.156  12.316 -0.2338 -0.7444  0.3829
 1142SOL    HW115062   3.148   0.154  12.336 -0.1237  1.7011  0.0522
 1142SOL    HW215063   3.052   0.065  12.285 -0.4344 -0.7715  0.4780
 1143SOL     OW15064   0.204   4.115   4.313  0.5799 -0.1458  0.3169
 1143SOL    HW115065   0.292   4.128   4.277 -0.3382  1.5982 -1.3368
 1143SOL    HW215066   0.202   4.167   4.393 -0.1000 -3.0434  2.1460
 1144SOL     OW15067   4.486   2.745   3.102 -0.3269  0.2517 -0.3659
 1144SOL    HW115068   4.488   2.774   3.010 -1.2091  0.1414 -0.4166
 1144SOL    HW215069   4.466   2.653   3.084 -0.7456  0.4209 -0.7507
 1145SOL     OW15070   4.692   2.542   7.258  0.0598 -0.7037 -0.0572
 1145SOL    HW115071   4.687   2.623   7.208 -3.5613 -1.1623 -0.4381
 1145SOL    HW215072   4.645   2.566   7.338 -0.8465  0.0854 -0.8305
 1146SOL     OW15073   4.560   2.112   9.140 -0.1640 -0.2913  0.1260
 1146SOL    HW115074   4.503   2.184   9.113  1.0107 -0.2579 -2.2648
 1146SOL    HW215075   4.498   2.039   9.145 -0.9825  0.4740  1.3237
 1147SOL     OW15076   2.321   1.484   8.184  0.5057  0.1958 -0.0450
 1147SOL    HW115077   2.282   1.481   8.271 -0.9745  0.2972 -0.7162
 1147SOL    HW215078   2.247   1.471   8.125  1.6475  1.6161 -1.7808
 1148SOL     OW15079   2.118   1.987   8.469 -0.2306 -0.0506 -0.1427
 1148SOL    HW115080   2.103   1.893   8.484  0.2645 -0.2590 -0.9481
 1148SOL    HW215081   2.041   2.024   8.427  2.2301  1.3780 -3.3544
 1149SOL     OW15082   0.795   2.968   7.143 -0.0282 -0.2243 -0.2269
 1149SOL    HW115083   0.888   2.956   7.125 -0.1426 -0.6939 -0.5191
 1149SOL    HW215084   0.786   2.931   7.231  0.8085  1.8547  0.7112
 1150SOL     OW15085   4.641   1.894   1.891 -0.8944 -0.3684  0.1831
 1150SOL    HW115086   4.568   1.950   1.864 -0.6461  0.2881  0.8534
 1150SOL    HW215087   4.649   1.832   1.819  2.5874  1.8834 -1.3075
 1151SOL     OW15088   4.613   4.558   6.427 -0.3384  0.0396  0.6849
 1151SOL    HW115089   4.547   4.512   6.374  1.5162 -1.3064 -0.4738
 1151SOL    HW215090   4.563   4.626   6.472  0.3563  1.3924 -0.6084
 1152SOL     OW15091   1.855   3.310   6.577 -0.2753 -0.1603  0.2707
 1152SOL    HW115092   1.909   3.302   6.655  1.1771  2.5074 -0.4783
 1152SOL    HW215093   1.766   3.323   6.611  0.2734  0.1740  1.6007
 1153SOL     OW15094   3.932   0.798   2.549  0.2146  0.4432  0.0705
 1153SOL    HW115095   3.958   0.830   2.635  0.4052  1.4044 -0.3485
 1153SOL    HW215096   3.962   0.879   2.508  0.3678  1.0576  1.4314
 1154SOL     OW15097   1.581   3.462   3.318  0.2901 -0.0821 -0.3161
 1154SOL    HW115098   1.553   3.392   3.260  0.7646 -0.3546 -0.2070
 1154SOL    HW215099   1.547   3.542   3.276 -1.2717  0.0021  1.0588
 1155SOL     OW15100   0.546   1.208   6.017 -0.0103  0.5291 -0.0188
 1155SOL    HW115101   0.455   1.193   5.991 -0.2678  1.8195  0.1715
 1155SOL    HW215102   0.564   1.289   5.970 -2.1442  1.0755  0.0922
 1156SOL     OW15103   2.587   3.751   6.545 -0.5943  0.0043  0.0350
 1156SOL    HW115104   2.675   3.714   6.538 -1.5066 -1.9319 -1.2633
 1156SOL    HW215105   2.604   3.844   6.530 -0.1583 -0.0672  0.0804
 1157SOL     OW15106   0.970   3.147   6.086  0.4454  0.0195  0.4919
 1157SOL    HW115107   0.945   3.137   6.178  0.8444 -1.7312  0.4101
 1157SOL    HW215108   1.057   3.187   6.086  0.7525 -0.6532  0.6942
 1158SOL     OW15109   3.061   3.102   3.086 -0.3595 -0.2033 -0.5082
 1158SOL    HW115110   3.090   3.015   3.057  0.7600  0.1092 -0.3133
 1158SOL    HW215111   3.109   3.122   3.167  0.4400  1.6011 -1.4224
 1159SOL     OW15112   3.475   4.544   4.243 -0.4227 -0.4388 -0.0840
 1159SOL    HW115113   3.493   4.635   4.266 -0.1904 -0.2234 -1.0939
 1159SOL    HW215114   3.555   4.535   4.191  0.4063  1.9553  0.7783
 1160SOL     OW15115   0.833   4.202   7.634 -0.1537  0.5477 -0.6646
 1160SOL    HW115116   0.924   4.174   7.649 -0.9316 -0.8648  1.4150
 1160SOL    HW215117   0.810   4.141   7.564 -1.2910 -0.1479  0.3256
 1161SOL     OW15118   3.571   1.200   4.040  0.0950  0.2733  0.7019
 1161SOL    HW115119   3.620   1.224   3.962 -2.9811 -0.9672 -1.6359
 1161SOL    HW215120   3.504   1.143   4.002  1.6758 -0.3879 -1.0889
 1162SOL     OW15121   3.903   2.640   9.806  0.0435 -0.4505  0.5524
 1162SOL    HW115122   3.984   2.595   9.783 -1.1409 -1.4718 -1.6610
 1162SOL    HW215123   3.842   2.567   9.813 -1.2769  0.6569  0.5540
 1163SOL     OW15124   0.302   1.767  12.738  0.0675 -0.1129  0.7366
 1163SOL    HW115125   0.250   1.733  12.810 -2.5346  1.3618 -0.4423
 1163SOL    HW215126   0.251   1.740  12.661  0.5518 -1.2641  0.8289
 1164SOL     OW15127   1.330   3.750   5.003  0.1102  0.0192  0.0436
 1164SOL    HW115128   1.302   3.841   5.013 -0.3466 -0.1196  0.0400
 1164SOL    HW215129   1.397   3.740   5.071  3.0847  2.8077 -2.4330
 1165SOL     OW15130   3.818   2.561  17.218  0.3011  0.2398  0.5462
 1165SOL    HW115131   3.824   2.468  17.195  1.1682 -0.3245  3.1285
 1165SOL    HW215132   3.723   2.569  17.211  0.5555  2.1943 -0.8616
 1166SOL     OW15133   2.816   4.286   4.874 -0.5674  0.1902 -0.4445
 1166SOL    HW115134   2.876   4.232   4.823 -0.1033  0.9893 -0.7412
 1166SOL    HW215135   2.838   4.367   4.827 -0.2565  0.9714  1.0302
 1167SOL     OW15136   3.059   1.113   8.899  0.0612  0.1133  0.3310
 1167SOL    HW115137   3.087   1.053   8.969 -2.3279  1.0559  2.1217
 1167SOL    HW215138   3.145   1.147   8.875  0.4370 -0.9860  0.1375
 1168SOL     OW15139   1.706   1.993   7.881  0.1125 -0.8301 -0.4935
 1168SOL    HW115140   1.615   1.996   7.852  0.8602  0.0908 -2.7551
 1168SOL    HW215141   1.708   2.075   7.931 -0.5373 -0.6909 -0.6924
 1169SOL     OW15142   4.131   3.002   5.719 -0.1578 -0.3659 -0.1496
 1169SOL    HW115143   4.184   2.923   5.730  0.2756 -0.2149 -1.1272
 1169SOL    HW215144   4.152   3.050   5.799  0.6999 -3.7569  1.6711
 1170SOL     OW15145   1.502   4.034  14.918 -0.3754 -0.2320  0.3002
 1170SOL    HW115146   1.572   4.058  14.857 -1.9601 -0.4568 -1.5636
 1170SOL    HW215147   1.526   3.942  14.910  1.1534  0.2969 -1.2014
 1171SOL     OW15148   3.446   2.147   3.141 -0.2198  0.0103 -0.1918
 1171SOL    HW115149   3.377   2.209   3.168  0.0357  0.9585 -1.7207
 1171SOL    HW215150   3.435   2.143   3.046 -2.2101  2.3535 -0.0795
 1172SOL     OW15151   3.705   0.633   6.536 -0.4671  0.5069  0.3293
 1172SOL    HW115152   3.677   0.550   6.495 -1.1288  1.0524 -0.3335
 1172SOL    HW215153   3.794   0.614   6.565 -0.6911 -0.3127  0.4894
 1173SOL     OW15154   3.074   1.150   7.702 -0.5212 -0.4676  0.0434
 1173SOL    HW115155   3.082   1.125   7.610  1.8445 -0.1732  0.1559
 1173SOL    HW215156   3.040   1.074   7.749  0.6561  0.1670  1.9127
 1174SOL     OW15157   2.633   1.809   7.509  0.2129 -0.4621 -0.0479
 1174SOL    HW115158   2.565   1.873   7.529  1.2099  0.8181 -0.7463
 1174SOL    HW215159   2.706   1.860   7.545 -0.0348 -1.3183  1.6545
 1175SOL     OW15160   1.166   4.165   5.800 -0.0672 -0.4445  0.4544
 1175SOL    HW115161   1.207   4.156   5.886 -0.5362  0.1229  0.7356
 1175SOL    HW215162   1.084   4.117   5.808  0.9572 -2.4859 -1.2106
 1176SOL     OW15163   1.412   2.597   3.095 -0.0433  0.1918 -0.0795
 1176SOL    HW115164   1.432   2.689   3.077  0.3849 -0.1553 -1.3262
 1176SOL    HW215165   1.416   2.552   3.011 -1.3575  0.2784 -0.1772
 1177SOL     OW15166   4.135   1.123   6.838 -0.1738  0.1082  0.8220
 1177SOL    HW115167   4.077   1.189   6.877 -1.6135 -0.6470 -0.0476
 1177SOL    HW215168   4.087   1.040   6.832 -0.3823  0.3932 -1.2835
 1178SOL     OW15169   3.547   2.268  14.767  0.1205  0.1790 -0.1148
 1178SOL    HW115170   3.521   2.350  14.726  1.4287  1.0068  0.6927
 1178SOL    HW215171   3.604   2.238  14.697 -0.6815 -0.2689 -0.5740
 1179SOL     OW15172   1.936   2.133   3.554  0.2085 -0.4782 -0.3575
 1179SOL    HW115173   2.001   2.130   3.624 -0.3629 -0.7136  0.1597
 1179SOL    HW215174   1.985   2.075   3.496 -0.1719 -1.5832  0.4325
 1180SOL     OW15175   2.746   2.127   2.205 -0.4156  0.5176  0.5090
 1180SOL    HW115176   2.769   2.056   2.265 -0.1190  1.6304  1.6997
 1180SOL    HW215177   2.760   2.205   2.258  0.1380  1.1140 -0.5108
 1181SOL     OW15178   4.213   4.527   0.320  0.0002 -0.7904 -0.2889
 1181SOL    HW115179   4.288   4.467   0.319  2.5708  2.4080  2.3697
 1181SOL    HW215180   4.242   4.582   0.392 -0.3566 -0.4472 -0.4057
 1182SOL     OW15181   0.802   1.068   4.232 -0.0842 -0.3052 -0.2104
 1182SOL    HW115182   0.749   1.108   4.162 -0.6246 -3.0483 -1.3461
 1182SOL    HW215183   0.857   1.007   4.183 -0.0187 -0.1106 -0.3833
 1183SOL     OW15184   3.464   3.156   4.172 -0.2435  0.0651  0.3788
 1183SOL    HW115185   3.467   3.231   4.111 -1.8604  1.1811  1.6769
 1183SOL    HW215186   3.370   3.150   4.189 -0.4911  0.7643 -0.7091
 1184SOL     OW15187   0.605   1.767   0.199  0.1624  0.1147  0.8132
 1184SOL    HW115188   0.662   1.842   0.181 -2.7875  1.9836 -0.8740
 1184SOL    HW215189   0.662   1.702   0.238 -1.8422 -2.4551 -0.5436
 1185SOL     OW15190   2.075   0.738   3.210 -0.1815  0.4689 -0.2687
 1185SOL    HW115191   2.018   0.786   3.150 -0.1812 -2.9852 -3.0246
 1185SOL    HW215192   2.127   0.809   3.248  0.1996 -0.5996  1.2389
 1186SOL     OW15193   0.381   0.301  11.642 -0.2283 -0.7134 -0.2147
 1186SOL    HW115194   0.344   0.366  11.701 -0.0251 -0.5355 -0.2806
 1186SOL    HW215195   0.355   0.220  11.684 -0.5073 -1.3933 -1.6868
 1187SOL     OW15196   2.231   2.747   4.143  0.9890  0.1042 -0.0189
 1187SOL    HW115197   2.247   2.817   4.206 -0.4315 -0.4640  0.9762
 1187SOL    HW215198   2.140   2.743   4.171  0.9981  0.8993  0.1360
 1188SOL     OW15199   2.869   0.952   8.806 -0.3779 -0.4518 -0.3265
 1188SOL    HW115200   2.788   0.959   8.857 -0.0079  3.3153 -0.2269
 1188SOL    HW215201   2.928   1.004   8.861 -2.8910  0.1937  1.7775
 1189SOL     OW15202   3.276   1.104   9.197 -0.5454  0.1856 -0.1734
 1189SOL    HW115203   3.371   1.109   9.206 -0.6651  0.2346  1.0506
 1189SOL    HW215204   3.253   1.185   9.152  0.5012  0.3287 -0.4436
 1190SOL     OW15205   1.784   3.963   2.533  0.2960  0.1309 -0.3506
 1190SOL    HW115206   1.725   3.985   2.461 -1.0467  0.3487  0.8189
 1190SOL    HW215207   1.719   3.942   2.600 -1.2974  2.4888 -1.1644
 1191SOL     OW15208   0.294   2.178   6.012 -0.1527  0.4623 -0.2593
 1191SOL    HW115209   0.298   2.194   6.106 -0.4956 -0.0522 -0.1592
 1191SOL    HW215210   0.237   2.101   6.004  1.9059 -1.0215 -0.6584
 1192SOL     OW15211   0.117   4.001  11.044  0.2130 -0.0448  0.2060
 1192SOL    HW115212   0.038   4.053  11.035 -1.0360 -2.0080 -0.3476
 1192SOL    HW215213   0.114   3.960  11.131 -0.1512 -2.6784 -1.0308
 1193SOL     OW15214   4.355   1.797   6.115  0.6920 -0.2876  0.1140
 1193SOL    HW115215   4.265   1.790   6.082  0.0147  0.4188  1.7888
 1193SOL    HW215216   4.370   1.704   6.133  0.2992 -0.1268  1.2957
 1194SOL     OW15217   1.291   0.569   3.583 -0.1865  0.4123 -0.7515
 1194SOL    HW115218   1.279   0.535   3.494 -3.5723 -1.3579  0.3442
 1194SOL    HW215219   1.205   0.611   3.593  0.0467  0.2597  1.7925
 1195SOL     OW15220   1.179   2.411   1.770  0.2252 -0.0676  0.4787
 1195SOL    HW115221   1.243   2.383   1.704 -0.5323 -1.1365  0.2109
 1195SOL    HW215222   1.208   2.500   1.791  0.3236 -0.3264  1.4400
 1196SOL     OW15223   1.049   1.561   9.555 -0.3050 -0.3623 -0.3958
 1196SOL    HW115224   1.001   1.562   9.638 -1.6664  1.0973 -1.2023
 1196SOL    HW215225   1.127   1.610   9.580 -1.3346  0.7581  0.6319
 1197SOL     OW15226   1.221   3.059   2.228  0.0293  0.1490  0.1439
 1197SOL    HW115227   1.162   3.028   2.159  0.6504 -1.9349  0.5734
 1197SOL    HW215228   1.186   3.148   2.236  2.2937  0.9006  1.8181
 1198SOL     OW15229   1.281   0.560   7.077 -0.0775  0.3680 -0.6203
 1198SOL    HW115230   1.328   0.522   7.002 -0.6525  1.0655 -1.3340
 1198SOL    HW215231   1.350   0.625   7.088 -1.6202  2.1509 -1.4116
 1199SOL     OW15232   1.478   4.271   4.635  0.0682 -0.0603 -0.4921
 1199SOL    HW115233   1.483   4.335   4.707 -0.3407 -1.4539  0.7786
 1199SOL    HW215234   1.507   4.199   4.691  1.5549  2.5567  2.0982
 1200SOL     OW15235   1.251   1.225  13.244 -0.0011  0.6172 -0.3270
 1200SOL    HW115236   1.193   1.149  13.249  0.0509  0.6231  0.3325
 1200SOL    HW215237   1.327   1.193  13.196  0.7238  1.1594  0.4497
 1201SOL     OW15238   0.381   0.178  13.388  0.0054 -0.0553 -0.1894
 1201SOL    HW115239   0.394   0.254  13.446 -0.0834  0.2942 -0.6232
 1201SOL    HW215240   0.355   0.215  13.304 -3.0248  2.8496  2.0142
 1202SOL     OW15241   0.123   1.375   9.982  0.4357 -0.0922 -0.1729
 1202SOL    HW115242   0.067   1.359  10.058 -0.3857 -2.1747 -1.2394
 1202SOL    HW215243   0.186   1.439  10.017 -1.5721  1.5033  0.5191
 1203SOL     OW15244   2.343   1.704  17.304 -0.6770 -0.3893 -0.3686
 1203SOL    HW115245   2.315   1.747  17.385 -3.3198 -0.3373 -1.3115
 1203SOL    HW215246   2.292   1.745  17.235 -2.0114  0.1855  0.9591
 1204SOL     OW15247   3.581   1.862   2.131 -0.5189  0.7792  0.0858
 1204SOL    HW115248   3.657   1.901   2.174  2.1248 -3.8320 -0.4034
 1204SOL    HW215249   3.538   1.820   2.206  2.5102 -0.0351  1.3575
 1205SOL     OW15250   2.107   0.045   8.731  0.1223 -0.2205 -0.0471
 1205SOL    HW115251   2.161   0.095   8.792 -0.5646 -2.0241  2.0429
 1205SOL    HW215252   2.023   0.063   8.773 -0.2693 -0.8571 -0.5540
 1206SOL     OW15253   2.800   0.573   1.756 -0.0907  0.2365  0.4223
 1206SOL    HW115254   2.766   0.486   1.774 -0.8341  0.4465  0.0401
 1206SOL    HW215255   2.881   0.581   1.806 -0.1783 -0.7519  0.7164
 1207SOL     OW15256   2.031   1.919  10.628 -0.0572  0.4447 -0.3142
 1207SOL    HW115257   2.023   1.902  10.722  0.8263 -0.7786 -0.4533
 1207SOL    HW215258   2.124   1.897  10.618 -0.2072 -0.0950 -0.5145
 1208SOL     OW15259   4.638   2.596   3.656 -0.0859  0.0825  0.4508
 1208SOL    HW115260   4.581   2.613   3.581  0.5852  2.2553  0.4296
 1208SOL    HW215261   4.571   2.615   3.723  1.2257 -0.0497  1.7955
 1209SOL     OW15262   3.799   0.360   0.014 -0.2285 -0.1874 -0.4332
 1209SOL    HW115263   3.791   0.453  17.739 -0.1883 -0.0418  0.2260
 1209SOL    HW215264   3.707   0.337   0.029  0.5226 -1.8414  1.6511
 1210SOL     OW15265   2.541   3.935   0.550  0.5557  0.2177 -0.5614
 1210SOL    HW115266   2.596   3.990   0.606  0.0041  2.9871 -2.7154
 1210SOL    HW215267   2.587   3.944   0.466  0.6672 -0.3221 -0.5549
 1211SOL     OW15268   2.408   1.882   7.859 -0.2953 -0.3344 -0.2340
 1211SOL    HW115269   2.401   1.863   7.953  1.3787  2.0799  0.3740
 1211SOL    HW215270   2.458   1.961   7.841  0.8973 -0.6368  1.7560
 1212SOL     OW15271   3.723   1.561   0.753 -0.5046 -0.8983  0.4318
 1212SOL    HW115272   3.774   1.494   0.799  2.7664  0.3712 -1.3081
 1212SOL    HW215273   3.797   1.604   0.710 -1.9277  1.4272  0.3244
 1213SOL     OW15274   2.022   1.771   4.248  0.1912  0.1993  0.0257
 1213SOL    HW115275   2.054   1.837   4.310  2.1953  0.5474 -1.4054
 1213SOL    HW215276   2.058   1.793   4.162  0.7391 -1.8381 -0.2553
 1214SOL     OW15277   4.200   0.045  10.446  0.0327  0.4989 -0.5687
 1214SOL    HW115278   4.109   0.047  10.417 -0.2572 -0.0049  0.3179
 1214SOL    HW215279   4.215   4.687  10.442 -1.9172  0.1288  1.0159
 1215SOL     OW15280   2.189   1.933   6.462  0.2933 -0.2291 -0.4936
 1215SOL    HW115281   2.238   1.932   6.380  0.7653 -1.8732 -0.1875
 1215SOL    HW215282   2.165   1.841   6.458  2.0797 -0.7310  0.1177
 1216SOL     OW15283   2.137   3.690   8.473 -0.1082 -0.1988 -0.0567
 1216SOL    HW115284   2.107   3.663   8.560  0.3320 -1.6666 -0.3595
 1216SOL    HW215285   2.227   3.719   8.489 -0.1712  2.0113 -3.7413
 1217SOL     OW15286   2.394   3.146   5.890  0.0144  0.4259 -0.0121
 1217SOL    HW115287   2.434   3.223   5.850  0.5828 -0.2559 -0.7423
 1217SOL    HW215288   2.374   3.090   5.815 -2.0484 -1.0041  1.5882
 1218SOL     OW15289   3.240   2.930   1.757  0.3692  0.2468 -0.3763
 1218SOL    HW115290   3.322   2.980   1.757  0.5778 -0.0912 -1.6632
 1218SOL    HW215291   3.218   2.913   1.849  1.4980  2.5366  0.3262
 1219SOL     OW15292   4.301   4.632   4.498  0.0002 -0.4735  0.3014
 1219SOL    HW115293   4.207   4.648   4.491 -0.0686 -0.9723  0.1239
 1219SOL    HW215294   4.321   4.702   4.561  0.0535 -0.8652  0.7176
 1220SOL     OW15295   2.565   2.858  10.253  0.1313  0.3983 -0.5436
 1220SOL    HW115296   2.520   2.789  10.205  0.5458  0.7774 -1.4691
 1220SOL    HW215297   2.655   2.843  10.225 -0.0202  0.9431 -1.3221
 1221SOL     OW15298   1.068   3.793  11.351 -0.2456 -0.4096 -0.3705
 1221SOL    HW115299   1.078   3.699  11.366  0.7036  0.1493  2.4721
 1221SOL    HW215300   0.973   3.795  11.339 -0.0702  0.4424 -1.5809
 1222SOL     OW15301   4.484   4.322   7.044 -0.3211  0.3983 -0.6535
 1222SOL    HW115302   4.521   4.401   7.083  0.1203  0.7190 -1.7274
 1222SOL    HW215303   4.391   4.343   7.050 -0.2435 -0.0650  2.3880
 1223SOL     OW15304   1.026   0.633   8.023 -0.0612  0.7129 -0.0535
 1223SOL    HW115305   0.959   0.677   8.074  1.2870  1.2554  1.2600
 1223SOL    HW215306   1.051   0.573   8.093  0.6879  0.4280 -0.5569
 1224SOL     OW15307   1.382   1.338  15.287 -0.2295 -0.5393 -0.4380
 1224SOL    HW115308   1.356   1.348  15.195  0.2498 -1.7170 -0.7034
 1224SOL    HW215309   1.391   1.432  15.303  0.3960 -0.6051 -0.4089
 1225SOL     OW15310   2.257   4.271  16.971  0.4435 -0.1963  0.1214
 1225SOL    HW115311   2.336   4.225  16.942  1.1537  1.2742 -0.2615
 1225SOL    HW215312   2.268   4.279  17.065  0.7818 -0.0406  0.0699
 1226SOL     OW15313   0.993   2.299   5.473 -0.1171  0.0417  0.7327
 1226SOL    HW115314   1.009   2.220   5.420  0.9519  1.1805 -0.6439
 1226SOL    HW215315   0.910   2.271   5.511 -0.4134  1.5735  1.2008
 1227SOL     OW15316   2.674   3.780  17.317  0.5063  1.0382  0.4429
 1227SOL    HW115317   2.612   3.809  17.384 -0.7776  1.1554 -0.7766
 1227SOL    HW215318   2.753   3.831  17.335 -0.3964  1.2552  3.7109
 1228SOL     OW15319   2.302   3.442  15.529  0.3707 -0.6207 -0.0402
 1228SOL    HW115320   2.223   3.458  15.478 -0.6114  0.6114  1.8735
 1228SOL    HW215321   2.347   3.526  15.521 -0.7133  0.1935  2.1909
 1229SOL     OW15322   1.842   3.753   3.069 -0.6457 -0.5230 -0.1055
 1229SOL    HW115323   1.856   3.847   3.080  0.1814 -0.3827 -2.3444
 1229SOL    HW215324   1.762   3.745   3.016 -1.5549  0.4880  1.1005
 1230SOL     OW15325   1.591   3.921   8.280  0.8451  0.2199 -0.0750
 1230SOL    HW115326   1.513   3.906   8.334  0.2386  0.4566 -0.8938
 1230SOL    HW215327   1.607   3.838   8.236 -0.7028  1.4216 -2.8983
 1231SOL     OW15328   1.716   3.794   5.844  0.0088 -0.2451 -0.4770
 1231SOL    HW115329   1.661   3.793   5.766 -1.1534  0.5761  0.3176
 1231SOL    HW215330   1.660   3.741   5.901  1.0371  0.4652  1.1906
 1232SOL     OW15331   1.931   4.524   1.381  0.0710  0.1042 -0.6644
 1232SOL    HW115332   1.960   4.611   1.409 -3.4581  1.1891 -0.4585
 1232SOL    HW215333   1.996   4.466   1.421 -0.0484  0.3436 -0.1315
 1233SOL     OW15334   1.623   3.693  14.402  0.5038  0.4193  0.4282
 1233SOL    HW115335   1.543   3.739  14.426 -0.8564 -1.1549 -1.1284
 1233SOL    HW215336   1.612   3.608  14.444 -0.8401  0.1235 -0.5198
 1234SOL     OW15337   2.865   3.504   4.584 -0.5876 -0.5659 -0.1223
 1234SOL    HW115338   2.828   3.528   4.669 -0.6311 -0.8824 -0.0527
 1234SOL    HW215339   2.815   3.568   4.532 -1.1662 -0.2461  0.8219
 1235SOL     OW15340   2.755   2.759   2.333  0.0203  0.2573 -0.5013
 1235SOL    HW115341   2.703   2.820   2.281  0.4887  0.3012 -0.9217
 1235SOL    HW215342   2.691   2.733   2.399 -0.2389  1.1214 -0.4137
 1236SOL     OW15343   0.375   1.074   6.370  0.6367  0.0766 -0.0972
 1236SOL    HW115344   0.351   1.104   6.457 -0.7082 -2.6452  0.4994
 1236SOL    HW215345   0.289   1.089   6.330 -0.7142 -0.3539  2.6148
 1237SOL     OW15346   1.910   3.340   1.605  0.3202  0.0661  0.7205
 1237SOL    HW115347   1.848   3.270   1.585 -0.1104  0.8485 -0.6842
 1237SOL    HW215348   1.903   3.390   1.524 -0.0905 -3.9153 -1.7015
 1238SOL     OW15349   1.403   1.108   6.286  0.2032 -0.1852 -0.8155
 1238SOL    HW115350   1.410   1.202   6.304 -1.3985 -0.3340  0.4823
 1238SOL    HW215351   1.416   1.107   6.191  0.4806 -0.8613 -0.7741
 1239SOL     OW15352   1.512   2.759   5.996  0.2051  0.6215 -0.4360
 1239SOL    HW115353   1.528   2.843   6.038 -0.5919 -0.1280  1.3734
 1239SOL    HW215354   1.593   2.715   6.020  0.1112  0.0145 -1.2251
 1240SOL     OW15355   3.085   0.812  14.408  0.4693 -0.0147 -0.2152
 1240SOL    HW115356   3.091   0.749  14.480 -2.6026 -1.5301 -1.2656
 1240SOL    HW215357   3.178   0.800  14.389  0.5284 -1.6039  1.0846
 1241SOL     OW15358   0.725   4.447   1.677 -1.0986  0.2161  0.1251
 1241SOL    HW115359   0.768   4.530   1.655  1.6252 -1.0235  0.7200
 1241SOL    HW215360   0.802   4.396   1.704 -1.7085 -0.5295  0.4408
 1242SOL     OW15361   1.083   3.110  11.784 -0.2859 -0.1823 -0.2192
 1242SOL    HW115362   1.175   3.126  11.763 -0.0923 -1.8070 -0.5469
 1242SOL    HW215363   1.096   3.027  11.828  0.1841 -0.2761 -0.5293
 1243SOL     OW15364   3.393   2.431   4.476  0.2567 -0.3057  0.1044
 1243SOL    HW115365   3.400   2.375   4.553 -0.6051 -1.1872 -0.4566
 1243SOL    HW215366   3.476   2.479   4.481 -0.8014  1.5446 -0.2025
 1244SOL     OW15367   4.699   1.961   7.910 -0.4266  0.1465 -0.0427
 1244SOL    HW115368   4.721   1.885   7.964  0.0424  0.4715  0.2227
 1244SOL    HW215369   0.048   2.000   7.925 -0.0718  0.0344 -1.7564
 1245SOL     OW15370   1.402   0.311   8.943 -0.1710 -0.4800 -0.0202
 1245SOL    HW115371   1.451   0.279   8.867  1.1246  0.5810  0.3828
 1245SOL    HW215372   1.464   0.364   8.993 -1.9733  2.1859 -0.5791
 1246SOL     OW15373   2.930   2.017  15.362  0.4336 -0.4110  0.3393
 1246SOL    HW115374   2.960   2.107  15.347  1.9031 -0.8185  0.7824
 1246SOL    HW215375   2.843   2.037  15.396  1.2691 -1.4540  3.1057
 1247SOL     OW15376   3.662   3.225  15.022  0.3507  0.5101  0.6562
 1247SOL    HW115377   3.747   3.235  15.063  2.1285  0.3029 -2.9360
 1247SOL    HW215378   3.627   3.313  15.038 -2.2417 -0.3666 -0.1068
 1248SOL     OW15379   1.821   2.020  10.902  0.4767  0.3994  0.5559
 1248SOL    HW115380   1.846   2.052  10.816  1.9538  0.2633  0.9308
 1248SOL    HW215381   1.873   1.940  10.913 -0.4805 -0.2569  0.2726
 1249SOL     OW15382   3.820   2.628  17.499 -0.5997 -0.1073 -0.3994
 1249SOL    HW115383   3.835   2.556  17.437 -1.2132  0.0650 -0.7512
 1249SOL    HW215384   3.828   2.591  17.588  4.2686 -0.1053 -0.8416
 1250SOL     OW15385   3.500   4.306  16.028  1.1253  0.2308 -0.1568
 1250SOL    HW115386   3.484   4.390  15.983  1.7894  0.5700  0.2346
 1250SOL    HW215387   3.485   4.244  15.956  4.0574 -0.9142  0.2273
 1251SOL     OW15388   3.043   2.365  13.432 -0.5270  0.2773 -0.2288
 1251SOL    HW115389   3.101   2.341  13.504  0.9068 -0.9715 -1.8015
 1251SOL    HW215390   3.071   2.457  13.430 -0.7773  0.3412 -0.6484
 1252SOL     OW15391   2.164   1.425   6.850  0.1010  0.2433 -0.3582
 1252SOL    HW115392   2.233   1.358   6.848 -0.6930 -0.5609 -0.8109
 1252SOL    HW215393   2.204   1.481   6.917  1.2432 -1.7374  0.6139
 1253SOL     OW15394   0.060   0.041  14.502  0.1974  0.3463  0.1334
 1253SOL    HW115395   0.063   0.067  14.594  0.3517  0.7654  0.0127
 1253SOL    HW215396   0.007   4.698  14.510  1.6251 -1.0375 -4.0700
 1254SOL     OW15397   0.118   0.706   3.316 -0.3872  0.1128 -0.1338
 1254SOL    HW115398   0.191   0.747   3.364  0.5237 -0.9856 -0.5721
 1254SOL    HW215399   0.100   0.633   3.375 -0.8192  0.3565  0.0373
 1255SOL     OW15400   1.617   0.308  13.525 -0.1029  0.1932  0.3695
 1255SOL    HW115401   1.572   0.224  13.539 -1.5059  1.0483  1.0194
 1255SOL    HW215402   1.561   0.366  13.576  0.7289 -1.1303  2.8102
 1256SOL     OW15403   4.357   2.484   4.172 -0.3180  0.8330  0.2682
 1256SOL    HW115404   4.379   2.423   4.243 -0.3112 -1.5556 -1.7662
 1256SOL    HW215405   4.443   2.526   4.173 -0.3116  0.7970  0.9342
 1257SOL     OW15406   2.831   0.584   3.946  0.2662  0.0233 -0.1370
 1257SOL    HW115407   2.764   0.609   3.883  0.0621 -1.1070 -0.3747
 1257SOL    HW215408   2.855   0.504   3.899 -0.1887 -0.6652  0.7892
 1258SOL     OW15409   3.369   2.256  13.853  0.8198 -0.1413  0.1423
 1258SOL    HW115410   3.332   2.227  13.937 -1.2335 -0.2711 -0.7965
 1258SOL    HW215411   3.462   2.234  13.859  0.8466  0.0521  0.4347
 1259SOL     OW15412   1.104   4.041   5.501  0.3090 -0.0939  0.2596
 1259SOL    HW115413   1.066   3.966   5.548 -1.2491  0.7164  0.2900
 1259SOL    HW215414   1.146   3.994   5.429 -0.7791 -1.1716  0.3213
 1260SOL     OW15415   3.629   1.589   5.338 -0.1512  0.1755  0.4278
 1260SOL    HW115416   3.552   1.640   5.316 -0.3001 -0.1646  0.1679
 1260SOL    HW215417   3.680   1.587   5.257 -0.3389 -1.4753  0.3432
 1261SOL     OW15418   1.604   1.934   2.832 -0.2648 -0.0008 -0.3635
 1261SOL    HW115419   1.642   2.001   2.776 -0.9420 -0.6985 -1.6436
 1261SOL    HW215420   1.679   1.877   2.847  1.2729  2.1923  0.3330
 1262SOL     OW15421   4.481   3.981   8.086 -0.0070  0.8905 -0.1675
 1262SOL    HW115422   4.433   3.982   8.169 -2.0699 -2.1385 -1.2941
 1262SOL    HW215423   4.470   4.068   8.049 -1.6340  0.9269  0.3799
 1263SOL     OW15424   3.481   3.591  17.289 -0.9940 -0.6806  0.1379
 1263SOL    HW115425   3.441   3.674  17.264  0.5384  0.5365  1.7345
 1263SOL    HW215426   3.513   3.618  17.376  0.7173  1.9681 -1.3248
 1264SOL     OW15427   1.125   1.731   2.375 -0.4529 -0.1041 -0.0226
 1264SOL    HW115428   1.097   1.767   2.459  0.3054 -0.1159  0.2330
 1264SOL    HW215429   1.206   1.782   2.367 -1.4327  1.4758  0.1749
 1265SOL     OW15430   2.580   2.870   4.336  0.0678  0.4998  0.1794
 1265SOL    HW115431   2.509   2.807   4.350 -0.2137  0.5113 -1.2307
 1265SOL    HW215432   2.584   2.905   4.425  1.9680  0.7683 -0.0110
 1266SOL     OW15433   4.197   2.675   6.577 -0.1836  0.0662 -0.6896
 1266SOL    HW115434   4.199   2.580   6.578  1.3287  0.0552 -2.8924
 1266SOL    HW215435   4.123   2.684   6.636 -0.4959 -0.1276 -1.0530
 1267SOL     OW15436   2.762   3.657   5.973  0.0244 -0.5893 -0.7704
 1267SOL    HW115437   2.669   3.678   5.968  0.1398  0.1109 -0.0616
 1267SOL    HW215438   2.797   3.746   5.971  0.5614 -0.7981 -0.7129
 1268SOL     OW15439   2.225   3.746  10.073  0.5567 -0.0316  0.4681
 1268SOL    HW115440   2.300   3.806  10.076  0.5772 -0.0141 -0.4786
 1268SOL    HW215441   2.246   3.695  10.152 -1.6249 -1.3299  0.2147
 1269SOL     OW15442   0.638   1.185  15.845  0.1509 -0.1268  0.0299
 1269SOL    HW115443   0.569   1.247  15.825 -0.0002  0.5419  2.6837
 1269SOL    HW215444   0.595   1.111  15.888 -1.4141  1.3362  0.9326
 1270SOL     OW15445   3.623   3.985   5.207 -0.3394  0.4975 -0.8170
 1270SOL    HW115446   3.569   3.943   5.275  1.4723 -1.1499 -0.3965
 1270SOL    HW215447   3.614   3.914   5.142  1.6938  1.2168 -1.8789
 1271SOL     OW15448   4.611   2.173  17.494  0.0539  0.0351 -0.2360
 1271SOL    HW115449   4.580   2.088  17.464 -0.4687  0.5771 -1.2488
 1271SOL    HW215450   4.673   2.134  17.555  3.0009  2.0022 -1.9677
 1272SOL     OW15451   1.908   4.149  15.636  0.2265  0.1193  0.4488
 1272SOL    HW115452   1.877   4.207  15.706 -0.2405  1.1472 -0.6218
 1272SOL    HW215453   1.955   4.208  15.578  1.0679  0.1241  1.1261
 1273SOL     OW15454   1.868   1.203   8.403 -1.2051  0.0521 -0.6310
 1273SOL    HW115455   1.955   1.211   8.365 -1.5842  1.4541 -1.2296
 1273SOL    HW215456   1.817   1.157   8.336 -0.1044 -0.3378 -1.2072
 1274SOL     OW15457   3.274   1.383   4.564  0.2381  0.1525  0.0340
 1274SOL    HW115458   3.206   1.316   4.556  0.2933  0.0867  0.1051
 1274SOL    HW215459   3.299   1.385   4.472  0.2397 -1.3369  0.0000
 1275SOL     OW15460   1.245   1.327  10.825  0.3086  0.3339 -0.1229
 1275SOL    HW115461   1.204   1.245  10.852  0.7608 -0.9797 -3.4577
 1275SOL    HW215462   1.181   1.347  10.758 -1.0338 -0.3187  0.9676
 1276SOL     OW15463   3.254   0.671  13.384 -0.0299 -0.3739  0.1163
 1276SOL    HW115464   3.222   0.760  13.399  0.2688 -0.2338 -0.0799
 1276SOL    HW215465   3.334   0.684  13.333 -0.4177 -0.4566 -0.5207
 1277SOL     OW15466   1.479   4.450   5.149  0.7253  0.2814 -0.5791
 1277SOL    HW115467   1.418   4.481   5.216  2.0278  2.8637 -0.5837
 1277SOL    HW215468   1.544   4.520   5.153  1.6577 -0.6362  0.1670
 1278SOL     OW15469   1.324   2.642   6.706 -0.3943 -0.8752 -0.0345
 1278SOL    HW115470   1.363   2.563   6.670 -1.9810 -1.8016  0.2734
 1278SOL    HW215471   1.363   2.650   6.794 -1.1986  1.0150  0.1573
 1279SOL     OW15472   0.610   1.756   5.297  0.2149  0.4189 -0.1132
 1279SOL    HW115473   0.682   1.751   5.359 -0.8757 -0.7544  1.0675
 1279SOL    HW215474   0.662   1.797   5.228  1.6876  0.3827  0.9710
 1280SOL     OW15475   3.468   0.079   4.946  0.1393 -0.1018 -0.3370
 1280SOL    HW115476   3.496   0.170   4.957  0.2299 -0.4696  2.5290
 1280SOL    HW215477   3.485   0.051   4.856  2.5243 -0.5220  0.2473
 1281SOL     OW15478   3.263   2.451   9.233  0.0193  0.7716 -0.0827
 1281SOL    HW115479   3.309   2.367   9.226  2.6418  2.2367 -0.3015
 1281SOL    HW215480   3.197   2.425   9.298  0.3255  0.5706  0.1465
 1282SOL     OW15481   2.533   3.689  15.779 -0.1357 -0.5281  0.0299
 1282SOL    HW115482   2.533   3.601  15.818  0.0344 -1.5778 -2.3592
 1282SOL    HW215483   2.477   3.676  15.703  0.9581 -1.9750 -0.5244
 1283SOL     OW15484   3.099   1.540   2.967 -0.7208  0.2306  0.2226
 1283SOL    HW115485   3.114   1.457   3.012 -1.1493 -0.0017 -0.0575
 1283SOL    HW215486   3.149   1.610   3.009 -2.9623  2.0482 -0.1302
 1284SOL     OW15487   2.244   2.156   5.079  0.6641 -0.6324  0.3953
 1284SOL    HW115488   2.266   2.248   5.091 -0.4633 -0.1285 -1.3078
 1284SOL    HW215489   2.257   2.153   4.984 -1.7696  0.5980  0.0358
 1285SOL     OW15490   2.712   2.123   1.164 -0.5689  0.3488  0.0916
 1285SOL    HW115491   2.790   2.093   1.116 -1.3141 -1.2122 -0.1386
 1285SOL    HW215492   2.748   2.206   1.194 -2.7386  1.5675 -0.6952
 1286SOL     OW15493   4.016   3.301  14.259 -0.0399 -0.3684 -0.4022
 1286SOL    HW115494   4.009   3.313  14.354  0.1928 -0.9461 -0.3112
 1286SOL    HW215495   4.074   3.225  14.263  0.4766  0.0577  0.4277
 1287SOL     OW15496   1.137   4.178   4.911  0.3100  0.2717 -0.0191
 1287SOL    HW115497   1.153   4.252   4.852  1.3537 -0.6339 -0.8639
 1287SOL    HW215498   1.083   4.129   4.850  0.1258 -1.3844  1.4818
 1288SOL     OW15499   0.393   3.207   3.088  0.0823 -0.5093 -0.1852
 1288SOL    HW115500   0.365   3.271   3.153 -0.2684  0.9732 -1.7937
 1288SOL    HW215501   0.323   3.142   3.093 -1.1717  0.6143 -2.8544
 1289SOL     OW15502   3.011   1.093  17.614  0.3517  0.1733 -0.4837
 1289SOL    HW115503   2.979   1.173  17.572  0.6298  0.3822 -0.3067
 1289SOL    HW215504   3.049   1.118  17.699 -3.1854  2.7699  0.3315
 1290SOL     OW15505   3.060   3.770   4.453 -0.3613  0.3286  0.3982
 1290SOL    HW115506   2.969   3.741   4.455 -0.2521 -0.0468 -0.3420
 1290SOL    HW215507   3.047   3.821   4.373 -1.1382  1.4699  1.2455
 1291SOL     OW15508   3.960   1.303  13.588  0.4158 -0.4100  0.7258
 1291SOL    HW115509   3.880   1.348  13.614  0.0444 -1.2447  1.0399
 1291SOL    HW215510   3.977   1.349  13.506 -5.3613  1.2899  0.4657
 1292SOL     OW15511   0.806   1.338   4.740  0.0077  0.0383 -0.5059
 1292SOL    HW115512   0.890   1.294   4.724 -0.9082 -1.2402 -1.7691
 1292SOL    HW215513   0.839   1.426   4.758  1.3862 -0.2127 -1.7173
 1293SOL     OW15514   0.390   2.476   8.313  0.0562 -0.0324 -0.7607
 1293SOL    HW115515   0.343   2.536   8.371 -0.7220 -1.6478  0.2949
 1293SOL    HW215516   0.448   2.436   8.378 -0.8718 -2.2280 -1.2775
 1294SOL     OW15517   1.470   4.109  14.513 -0.0083 -0.0834 -0.0471
 1294SOL    HW115518   1.470   4.016  14.533  3.8228  0.0594  0.6896
 1294SOL    HW215519   1.564   4.118  14.496 -0.0728  0.5094 -0.0870
 1295SOL     OW15520   0.304   3.358   6.720 -0.2113 -0.0244 -0.0571
 1295SOL    HW115521   0.396   3.332   6.718 -0.4829 -0.8959 -1.5413
 1295SOL    HW215522   0.298   3.354   6.624  1.5947 -1.5705 -0.1077
 1296SOL     OW15523   2.939   1.000   2.313 -0.4469 -0.3438  0.3472
 1296SOL    HW115524   3.032   0.982   2.326 -0.4139  0.7996  1.7012
 1296SOL    HW215525   2.894   0.930   2.360  0.7288 -0.4562  1.2821
 1297SOL     OW15526   3.384   2.674  14.408  0.5596 -0.1884  0.2336
 1297SOL    HW115527   3.331   2.713  14.477  2.2399  0.0997  1.3442
 1297SOL    HW215528   3.326   2.678  14.331  1.4993 -0.7180 -0.5005
 1298SOL     OW15529   3.521   0.335   4.849  0.0218  0.5179 -0.2286
 1298SOL    HW115530   3.445   0.351   4.905  0.7096  1.7913  0.3079
 1298SOL    HW215531   3.477   0.360   4.768  0.1958  0.1875 -0.4279
 1299SOL     OW15532   3.808   3.067   2.628  0.3681  0.6798 -0.2024
 1299SOL    HW115533   3.859   3.138   2.587  2.1577  0.0693  0.9383
 1299SOL    HW215534   3.735   3.111   2.672 -1.6970 -2.7957 -0.2258
 1300SOL     OW15535   0.623   4.630   4.015  0.1245 -0.3560  0.3856
 1300SOL    HW115536   0.602   4.583   3.934  1.7756 -1.9122  0.8468
 1300SOL    HW215537   0.590   4.719   4.009 -0.8543 -0.7735 -0.4832
 1301SOL     OW15538   3.948   1.171   5.825  0.5559 -0.0208  0.0836
 1301SOL    HW115539   4.028   1.223   5.816  0.6837 -0.1231  0.6331
 1301SOL    HW215540   3.972   1.119   5.901  1.9472 -2.2111 -1.8492
 1302SOL     OW15541   1.985   1.105   7.358 -0.8293 -0.7674 -0.1956
 1302SOL    HW115542   1.915   1.166   7.380 -1.3023 -1.3111 -0.2038
 1302SOL    HW215543   2.041   1.113   7.435 -1.9743  0.5394  0.4833
 1303SOL     OW15544   0.090   3.530   3.627  0.1189 -0.3181 -0.2151
 1303SOL    HW115545   0.131   3.533   3.713 -0.7716  0.1110  0.1907
 1303SOL    HW215546   0.140   3.599   3.583 -1.1653  0.7313 -0.0344
 1304SOL     OW15547   2.521   3.315   4.091 -0.5058 -0.2239 -0.3868
 1304SOL    HW115548   2.479   3.379   4.033 -1.1188 -1.6675 -1.5591
 1304SOL    HW215549   2.508   3.232   4.044  1.0742  0.0541 -1.3058
 1305SOL     OW15550   2.710   1.089   6.057 -0.0107  0.6312  0.1442
 1305SOL    HW115551   2.715   1.012   6.114  1.2618 -1.4666 -2.8150
 1305SOL    HW215552   2.783   1.132   6.102  1.6935 -1.8139 -0.2743
 1306SOL     OW15553   2.930   3.310   8.770 -0.1675  0.4407  0.3396
 1306SOL    HW115554   2.866   3.340   8.833  0.2137 -1.3772  1.6118
 1306SOL    HW215555   3.004   3.369   8.785  0.2362 -0.1369  0.6706
 1307SOL     OW15556   1.724   4.620   7.689  0.7258  0.3319 -0.2683
 1307SOL    HW115557   1.748   4.712   7.690  3.8441 -0.4379 -1.8376
 1307SOL    HW215558   1.674   4.611   7.609  1.3148 -0.7800 -0.5150
 1308SOL     OW15559   1.621   1.201  14.040 -0.6277  0.2345  0.2970
 1308SOL    HW115560   1.622   1.294  14.061  0.1682  0.4806 -0.8021
 1308SOL    HW215561   1.678   1.171  14.111 -0.9124 -1.0798 -0.0374
 1309SOL     OW15562   0.733   2.201   4.862  0.5898  0.1202  0.0585
 1309SOL    HW115563   0.680   2.214   4.941 -1.7124  0.8901 -1.6145
 1309SOL    HW215564   0.715   2.107   4.858 -2.3958  0.6189  1.6874
 1310SOL     OW15565   2.669   4.065   0.833 -0.4582 -0.3705  0.1747
 1310SOL    HW115566   2.714   4.030   0.910 -0.0675  2.1293  1.1010
 1310SOL    HW215567   2.624   4.145   0.860 -0.0140  0.3516 -1.2421
 1311SOL     OW15568   2.035   4.492   7.019  0.0306  0.0058 -0.5726
 1311SOL    HW115569   1.962   4.520   7.075 -0.8887  1.5433 -2.4968
 1311SOL    HW215570   2.108   4.493   7.081  0.1248 -0.3762 -0.6777
 1312SOL     OW15571   4.600   0.373   2.813 -0.4974 -0.0010  0.4563
 1312SOL    HW115572   4.513   0.408   2.831 -0.7347  0.3666 -1.3187
 1312SOL    HW215573   4.600   0.298   2.873  1.7597  1.4803  2.3101
 1313SOL     OW15574   1.654   4.283   1.641  1.0530  0.2988  0.3888
 1313SOL    HW115575   1.676   4.290   1.548 -0.5246 -3.4606 -0.2729
 1313SOL    HW215576   1.612   4.368   1.651  0.2190 -0.3321  2.2637
 1314SOL     OW15577   3.263   2.896   0.048  0.0852  0.0435  0.5327
 1314SOL    HW115578   3.255   2.971  17.734  1.7405 -0.5819 -0.4983
 1314SOL    HW215579   3.223   2.831  17.734 -1.0197  1.5967 -0.4379
 1315SOL     OW15580   1.206   0.151  17.322  0.2680 -0.0173 -0.6843
 1315SOL    HW115581   1.184   0.237  17.286  0.3080  0.4494  0.4099
 1315SOL    HW215582   1.276   0.118  17.265  1.4508 -0.0365  0.7770
 1316SOL     OW15583   0.947   1.187   5.740  0.1990  0.5567  0.9932
 1316SOL    HW115584   0.901   1.153   5.816  0.0875 -0.3917  0.5147
 1316SOL    HW215585   0.890   1.258   5.712  0.2469 -0.5340 -1.9267
 1317SOL     OW15586   0.900   3.401   3.935  0.1260 -0.7204 -0.1233
 1317SOL    HW115587   0.955   3.454   3.878 -1.9345 -0.3266 -1.7595
 1317SOL    HW215588   0.822   3.455   3.949  0.4568 -0.8446  2.1769
 1318SOL     OW15589   3.290   4.496   6.441  0.2572 -0.2636 -0.4791
 1318SOL    HW115590   3.201   4.521   6.463  0.4108 -1.4018  1.3674
 1318SOL    HW215591   3.283   4.460   6.352 -0.3172  1.7788 -1.2749
 1319SOL     OW15592   0.636   1.210  17.257 -0.3739  0.3046 -0.2033
 1319SOL    HW115593   0.671   1.176  17.340  0.8838  0.4512 -0.6786
 1319SOL    HW215594   0.674   1.147  17.196  1.4445  0.8861  0.3446
 1320SOL     OW15595   4.254   4.306   1.956 -0.2477  0.1814  0.1706
 1320SOL    HW115596   4.335   4.345   1.923 -0.2602 -0.6575 -0.8544
 1320SOL    HW215597   4.242   4.331   2.047  1.0029  1.8295 -0.1158
 1321SOL     OW15598   0.106   4.724   3.572 -0.3707 -0.0496  0.0241
 1321SOL    HW115599   0.112   4.730   3.667 -1.1539  0.8493  0.0231
 1321SOL    HW215600   0.060   0.070   3.557  0.8938  0.9788  1.7825
 1322SOL     OW15601   0.162   0.274   1.769  0.2623  0.0281 -0.2845
 1322SOL    HW115602   0.183   0.201   1.828  1.9241 -0.5234 -1.5645
 1322SOL    HW215603   0.066   0.270   1.769  0.2600 -0.1804  1.0347
 1323SOL     OW15604   0.475   3.798   2.642  0.5103  0.3325 -0.1406
 1323SOL    HW115605   0.428   3.729   2.688  2.1363 -0.4782  0.3065
 1323SOL    HW215606   0.473   3.869   2.706 -1.2661  0.5940 -0.4811
 1324SOL     OW15607   0.179   0.842   8.468 -0.1131 -0.0714 -0.6698
 1324SOL    HW115608   0.093   0.847   8.427  0.4569 -2.6578 -2.1809
 1324SOL    HW215609   0.174   0.747   8.481  2.1652  0.1289  1.7501
 1325SOL     OW15610   2.360   2.380  16.153 -0.1753 -0.2655 -0.2513
 1325SOL    HW115611   2.397   2.454  16.201 -0.9496  0.3712 -0.6256
 1325SOL    HW215612   2.438   2.356  16.104  1.7272  2.0631  1.6343
 1326SOL     OW15613   0.736   2.656   4.976  0.2268  0.0399  0.1140
 1326SOL    HW115614   0.800   2.631   5.043 -0.3101  0.0400  0.6255
 1326SOL    HW215615   0.773   2.740   4.950  1.0320 -0.6179 -0.8737
 1327SOL     OW15616   3.102   1.479   5.095  0.2538 -0.0038 -0.3535
 1327SOL    HW115617   3.184   1.436   5.070 -0.4805 -0.6225 -1.6781
 1327SOL    HW215618   3.109   1.554   5.036 -0.0121 -1.6158 -2.4344
 1328SOL     OW15619   2.611   3.997   7.648 -0.1640  0.1384 -0.6293
 1328SOL    HW115620   2.690   3.953   7.615 -0.7894 -0.9238 -0.6913
 1328SOL    HW215621   2.628   4.087   7.620 -2.4320  0.4874 -0.8863
 1329SOL     OW15622   1.549   1.269   4.477 -0.1812  0.4957 -0.2544
 1329SOL    HW115623   1.595   1.256   4.394 -0.7266 -1.3709 -0.2677
 1329SOL    HW215624   1.480   1.327   4.446 -0.3791 -0.8056 -2.2958
 1330SOL     OW15625   2.062   4.300   0.771  0.7510  0.5189 -0.1744
 1330SOL    HW115626   2.012   4.372   0.808  2.1227  0.5194  1.6611
 1330SOL    HW215627   1.998   4.267   0.708 -0.1074  2.0439 -0.0945
 1331SOL     OW15628   1.100   2.610   7.256 -0.1393 -0.2802 -1.0702
 1331SOL    HW115629   1.039   2.536   7.261 -1.7905  1.2312  0.7772
 1331SOL    HW215630   1.082   2.652   7.340  0.8804 -1.1539 -0.4065
 1332SOL     OW15631   1.145   2.811  12.718 -0.3438  0.4793  0.4764
 1332SOL    HW115632   1.063   2.858  12.704 -1.6188 -1.4072  1.7422
 1332SOL    HW215633   1.196   2.858  12.651  1.1660 -1.3491  0.3398
 1333SOL     OW15634   3.520   0.089   7.399 -0.2044  0.6279  0.6326
 1333SOL    HW115635   3.591   0.114   7.458 -0.4956  1.1935  0.7489
 1333SOL    HW215636   3.509   0.166   7.342  0.2420 -0.4335 -0.8951
 1334SOL     OW15637   3.173   4.512   2.747  0.2219 -0.3369  0.3652
 1334SOL    HW115638   3.087   4.471   2.754 -0.1950  0.5299  0.3364
 1334SOL    HW215639   3.219   4.449   2.691 -0.0570  0.2504 -0.5277
 1335SOL     OW15640   2.082   4.442  16.565 -0.1744 -0.5597 -0.0962
 1335SOL    HW115641   2.004   4.477  16.607  0.5111  0.9169 -0.0409
 1335SOL    HW215642   2.057   4.355  16.534  1.9768 -1.0803 -0.4090
 1336SOL     OW15643   4.486   4.287   6.494  0.3013  0.3712  0.1408
 1336SOL    HW115644   4.447   4.210   6.533 -0.4585 -0.2808 -1.9035
 1336SOL    HW215645   4.407   4.322   6.453 -1.6524 -2.6443  1.3783
 1337SOL     OW15646   4.356   2.098   4.096 -0.5186 -0.2057 -0.1955
 1337SOL    HW115647   4.386   2.109   4.186  1.4293  2.2860 -1.1258
 1337SOL    HW215648   4.428   2.071   4.039 -0.6414  1.3222 -1.0802
 1338SOL     OW15649   1.304   4.105   7.264 -0.0984  0.1925  0.4576
 1338SOL    HW115650   1.306   4.200   7.266 -0.4306  0.2202 -0.5654
 1338SOL    HW215651   1.251   4.087   7.186 -1.2752  2.7795  0.6471
 1339SOL     OW15652   2.688   0.653   1.396  0.2365  0.0503  0.8808
 1339SOL    HW115653   2.717   0.712   1.466 -0.6233 -0.5772  1.7449
 1339SOL    HW215654   2.596   0.640   1.420 -0.3552  2.7267  0.1183
 1340SOL     OW15655   4.302   0.649   2.510  0.0316  0.1101 -0.2719
 1340SOL    HW115656   4.217   0.622   2.473 -0.5090 -1.5969  2.2085
 1340SOL    HW215657   4.347   0.625   2.429 -0.6856 -0.1550 -0.5925
 1341SOL     OW15658   4.373   4.671   8.322 -0.6683 -0.1125 -0.2518
 1341SOL    HW115659   4.346   4.643   8.409  2.9383 -2.6447  0.0485
 1341SOL    HW215660   4.307   4.625   8.271 -1.4868  0.8012 -0.0171
 1342SOL     OW15661   3.956   1.050  13.582 -0.2548  0.1830 -0.0028
 1342SOL    HW115662   4.016   1.038  13.509 -0.3469 -2.2604  0.3512
 1342SOL    HW215663   3.956   1.146  13.578  2.5050  0.1870  0.3748
 1343SOL     OW15664   3.402   3.986   2.518 -0.1106 -0.1497 -0.3058
 1343SOL    HW115665   3.439   3.992   2.430 -1.1820  0.1110 -0.7455
 1343SOL    HW215666   3.490   3.977   2.554 -0.6873  0.8595  1.3471
 1344SOL     OW15667   0.678   1.508  14.503  0.2596 -0.0102 -0.7195
 1344SOL    HW115668   0.762   1.470  14.477  0.4388 -0.4252  0.4681
 1344SOL    HW215669   0.694   1.515  14.597  0.9276  1.5922 -0.9338
 1345SOL     OW15670   3.636   3.033   7.382 -0.1003 -0.1478  0.1861
 1345SOL    HW115671   3.718   3.080   7.367 -0.6616  0.8525  0.2437
 1345SOL    HW215672   3.585   3.095   7.434 -0.4007  1.4086 -1.9567
 1346SOL     OW15673   0.939   2.299   7.461  0.0741 -0.1628  0.2722
 1346SOL    HW115674   1.033   2.291   7.480  0.5186  0.2560 -1.7194
 1346SOL    HW215675   0.908   2.345   7.539  0.4338 -1.7910  1.3779
 1347SOL     OW15676   4.079   0.403  16.645 -0.0054  0.0811 -0.1529
 1347SOL    HW115677   4.106   0.314  16.665  3.8845  1.2695 -0.0635
 1347SOL    HW215678   4.002   0.412  16.702 -0.8866  1.6868 -1.5827
 1348SOL     OW15679   3.402   1.874  12.673 -0.1004 -0.2034 -0.0524
 1348SOL    HW115680   3.355   1.853  12.754  1.5491 -0.1841  0.9080
 1348SOL    HW215681   3.325   1.906  12.626  1.4805  2.5124 -0.7759
 1349SOL     OW15682   1.383   4.101   8.861 -0.0888  0.1882 -0.1506
 1349SOL    HW115683   1.313   4.046   8.826 -1.5532  1.8545  0.1384
 1349SOL    HW215684   1.417   4.026   8.910  0.4476  0.2994 -0.3570
 1350SOL     OW15685   3.343   3.677   7.898 -0.6900 -0.6238 -0.7571
 1350SOL    HW115686   3.342   3.698   7.992  0.3601 -2.2485 -0.3720
 1350SOL    HW215687   3.253   3.646   7.884 -0.6089 -1.4854  0.5836
 1351SOL     OW15688   4.372   2.221   7.764 -0.9186  0.4032 -0.4204
 1351SOL    HW115689   4.466   2.235   7.757 -1.4282  3.5549 -1.0426
 1351SOL    HW215690   4.368   2.127   7.780  3.6276  0.1431 -0.8767
 1352SOL     OW15691   0.890   2.487   2.418  0.1803  0.3451 -0.5596
 1352SOL    HW115692   0.908   2.480   2.324  1.6802 -2.3633 -0.0606
 1352SOL    HW215693   0.812   2.542   2.420 -1.3897 -1.8979 -0.2920
 1353SOL     OW15694   0.886   1.395   7.964 -0.0216 -0.1946 -0.0790
 1353SOL    HW115695   0.965   1.343   7.982 -0.4752 -1.4583 -1.7727
 1353SOL    HW215696   0.835   1.360   8.037  1.7934 -0.7805  0.9380
 1354SOL     OW15697   3.781   2.446   9.226 -0.4023 -0.0286 -0.3650
 1354SOL    HW115698   3.696   2.483   9.246 -1.8883 -1.7611 -3.4998
 1354SOL    HW215699   3.834   2.520   9.198 -0.6747  0.8656  1.4893
 1355SOL     OW15700   0.442   3.076   8.446  0.3356  0.2786 -0.1607
 1355SOL    HW115701   0.427   2.984   8.468  0.2715  0.5770  1.0765
 1355SOL    HW215702   0.348   3.094   8.439  0.5737  1.6326  0.0672
 1356SOL     OW15703   1.334   2.303   0.668 -0.8127 -0.1259  0.3669
 1356SOL    HW115704   1.302   2.214   0.657  0.0073 -0.3427 -0.2815
 1356SOL    HW215705   1.278   2.344   0.734 -0.3755 -1.0797  1.3334
 1357SOL     OW15706   2.209   3.732   1.695  0.1054  0.0875 -0.0994
 1357SOL    HW115707   2.173   3.732   1.783 -4.2209 -1.2765 -1.8543
 1357SOL    HW215708   2.301   3.719   1.718  0.2861 -1.1192 -1.4858
 1358SOL     OW15709   1.526   2.397  13.161  0.0079  0.6426  0.1938
 1358SOL    HW115710   1.482   2.368  13.081 -1.2078 -3.0212  2.1572
 1358SOL    HW215711   1.503   2.318  13.210  1.2489 -0.8032 -1.5743
 1359SOL     OW15712   3.321   3.184  16.072  0.0502 -0.6394  0.0444
 1359SOL    HW115713   3.318   3.276  16.047  0.6420 -0.9610 -1.2070
 1359SOL    HW215714   3.235   3.179  16.114 -0.0604  2.1322  0.1629
 1360SOL     OW15715   2.012   2.414   0.358  0.3726  0.1978  0.3733
 1360SOL    HW115716   2.095   2.457   0.378  0.7998  0.7419 -2.6602
 1360SOL    HW215717   1.954   2.431   0.433  0.6165  0.5751  0.4763
 1361SOL     OW15718   4.574   2.050   4.406 -0.0064  0.1285 -0.5014
 1361SOL    HW115719   4.613   2.071   4.322  2.2866 -1.5420  0.1504
 1361SOL    HW215720   4.508   1.985   4.379  0.2673 -0.7334  0.8727
 1362SOL     OW15721   3.184   2.863   2.680  0.7041  0.2099 -0.2181
 1362SOL    HW115722   3.146   2.855   2.593 -2.2849  2.1427  0.9088
 1362SOL    HW215723   3.231   2.947   2.672  0.2949  0.4415 -0.1891
 1363SOL     OW15724   3.907   1.295   1.831 -0.2321  0.5824 -0.0218
 1363SOL    HW115725   3.968   1.316   1.902  0.7513  0.9455 -0.9829
 1363SOL    HW215726   3.843   1.241   1.878 -1.2270  1.1953 -0.6890
 1364SOL     OW15727   4.528   3.685   5.817  0.0080  0.4697 -0.5184
 1364SOL    HW115728   4.543   3.774   5.785  0.1487  0.3077 -0.9030
 1364SOL    HW215729   4.453   3.695   5.876  1.3329 -0.0084  1.2590
 1365SOL     OW15730   1.825   1.302   6.907  0.0811 -0.3461  0.2860
 1365SOL    HW115731   1.856   1.312   6.817 -2.1642  1.0383 -0.3149
 1365SOL    HW215732   1.857   1.377   6.957 -0.9869  0.5399 -0.3761
 1366SOL     OW15733   2.819   4.505   4.159 -0.1609  0.4927 -0.6868
 1366SOL    HW115734   2.816   4.588   4.112  0.5445  0.6791 -0.3993
 1366SOL    HW215735   2.908   4.512   4.193 -0.1355 -0.8721 -0.4911
 1367SOL     OW15736   2.768   1.639   8.120  0.7358 -0.0520 -0.1294
 1367SOL    HW115737   2.823   1.561   8.117 -0.4163 -0.8620 -0.2907
 1367SOL    HW215738   2.757   1.660   8.027  0.8033  0.8216  0.0520
 1368SOL     OW15739   0.267   2.518   7.171 -0.0240  0.8635  0.3110
 1368SOL    HW115740   0.178   2.483   7.159  0.7252 -0.7056 -0.6711
 1368SOL    HW215741   0.267   2.530   7.266 -1.2925  1.6096  0.2219
 1369SOL     OW15742   0.605   3.188  15.958 -0.1368 -0.2454  0.2402
 1369SOL    HW115743   0.663   3.156  15.888  1.1961 -1.4151  1.8916
 1369SOL    HW215744   0.672   3.243  15.999 -0.2419  0.0756 -0.0144
 1370SOL     OW15745   3.954   3.919   0.962  0.2054 -0.2275 -0.3162
 1370SOL    HW115746   3.924   3.951   1.048  0.1530 -0.0542 -0.3975
 1370SOL    HW215747   4.048   3.907   0.970  0.4472  0.9455 -1.4162
 1371SOL     OW15748   1.172   4.660   9.833 -0.3223  0.4042  0.2072
 1371SOL    HW115749   1.204   4.713   9.759 -0.5174  0.2006 -0.0226
 1371SOL    HW215750   1.176   4.718   9.909 -0.9673 -2.4617  2.4351
 1372SOL     OW15751   0.326   0.534   5.069  0.0177 -0.2638 -0.1422
 1372SOL    HW115752   0.360   0.597   5.132 -0.2743  2.2091 -2.4817
 1372SOL    HW215753   0.339   0.457   5.125  0.7904  1.5170  2.1090
 1373SOL     OW15754   2.770   4.208   3.513  0.1093 -0.0840  0.7290
 1373SOL    HW115755   2.811   4.181   3.431  0.8746  2.9747  0.1003
 1373SOL    HW215756   2.684   4.214   3.471  0.2994  2.3455  0.6937
 1374SOL     OW15757   3.200   3.314   7.656 -0.0276  0.1436  0.8525
 1374SOL    HW115758   3.105   3.322   7.668 -0.2290 -0.0113 -0.6406
 1374SOL    HW215759   3.203   3.255   7.580 -0.7937 -0.4176  1.2623
 1375SOL     OW15760   1.055   1.060   6.670  0.5105  0.2570 -0.1508
 1375SOL    HW115761   1.137   1.014   6.652 -0.4483 -1.9937  1.1847
 1375SOL    HW215762   1.079   1.106   6.751 -0.2406 -0.1218  0.2877
 1376SOL     OW15763   0.767   4.459   2.022 -0.2071 -0.1928  0.4443
 1376SOL    HW115764   0.672   4.447   2.020 -0.2917  0.6024 -0.2547
 1376SOL    HW215765   0.781   4.550   1.997  3.6643 -1.3017 -1.4543
 1377SOL     OW15766   2.334   2.337   5.757  0.3386  0.7333  0.6614
 1377SOL    HW115767   2.394   2.268   5.786 -0.0146  0.0958 -0.1466
 1377SOL    HW215768   2.381   2.400   5.701 -0.1942  1.0150  0.5318
 1378SOL     OW15769   3.271   4.017  16.946  0.2830  0.1358  0.0274
 1378SOL    HW115770   3.193   3.981  16.905  0.8084  0.7485 -1.5356
 1378SOL    HW215771   3.325   3.939  16.943  0.2363  0.0422  1.7470
 1379SOL     OW15772   1.864   2.910   5.451 -0.9256  0.9356  0.1717
 1379SOL    HW115773   1.827   2.906   5.363  2.7756  0.0118 -1.3537
 1379SOL    HW215774   1.871   3.003   5.472  3.1620  0.3278  1.5509
 1380SOL     OW15775   3.639   1.514   5.719 -0.6730 -0.4366  0.3367
 1380SOL    HW115776   3.733   1.518   5.737 -0.9845 -0.8082  2.0997
 1380SOL    HW215777   3.609   1.423   5.712  0.0632 -0.5628 -1.0810
 1381SOL     OW15778   4.449   2.599  16.811 -0.3443  1.1212 -0.0039
 1381SOL    HW115779   4.391   2.536  16.769  1.4950 -0.7448  0.2097
 1381SOL    HW215780   4.455   2.668  16.745  1.3205  1.2395  0.2689
 1382SOL     OW15781   3.713   3.656   3.361 -0.0892  0.3135 -0.0900
 1382SOL    HW115782   3.770   3.583   3.385  0.0622 -0.1150 -1.7488
 1382SOL    HW215783   3.677   3.626   3.277 -1.7760 -2.1754  1.5278
 1383SOL     OW15784   1.973   3.881  10.120  0.1962  0.1608 -0.7647
 1383SOL    HW115785   2.043   3.817  10.107 -0.9665 -0.9839 -1.3436
 1383SOL    HW215786   2.028   3.959  10.115 -0.1597  0.5533  1.4719
 1384SOL     OW15787   0.155   3.804  12.049 -0.6332  0.1579  0.0991
 1384SOL    HW115788   0.215   3.735  12.074 -3.1095 -1.7888  0.7147
 1384SOL    HW215789   0.072   3.766  12.078 -1.2037  1.1251 -0.2614
 1385SOL     OW15790   0.038   2.956   5.888  0.2765  0.2152 -0.3530
 1385SOL    HW115791   0.075   3.025   5.832 -1.7292  3.2259  1.9831
 1385SOL    HW215792   0.085   2.881   5.855  1.4519  0.0767  1.6269
 1386SOL     OW15793   2.270   3.565   3.235  0.4495  0.5256 -1.0865
 1386SOL    HW115794   2.210   3.597   3.167 -1.1009 -1.9578 -0.8816
 1386SOL    HW215795   2.298   3.486   3.190  1.5024  1.0382 -1.3382
 1387SOL     OW15796   3.218   3.627  10.716  0.3207  0.1356  0.3249
 1387SOL    HW115797   3.150   3.585  10.769 -0.4364  0.2954 -0.5165
 1387SOL    HW215798   3.160   3.667  10.651  0.9574 -0.5610 -0.6786
 1388SOL     OW15799   0.191   4.225  10.679 -0.1950 -0.7780  0.4957
 1388SOL    HW115800   0.221   4.145  10.721  1.9416  0.0615  0.5317
 1388SOL    HW215801   0.206   4.299  10.738 -2.8849 -0.2670  0.5415
 1389SOL     OW15802   2.920   3.483  16.742  0.6892  0.2121 -0.2900
 1389SOL    HW115803   2.999   3.499  16.794 -0.7050  1.4302  1.4292
 1389SOL    HW215804   2.933   3.552  16.677  1.0848  0.2407 -0.1847
 1390SOL     OW15805   2.334   1.251   5.429  0.0077 -0.4237  0.1147
 1390SOL    HW115806   2.401   1.200   5.474  0.2232  1.0417  1.4522
 1390SOL    HW215807   2.387   1.290   5.359  0.4628 -0.2803  0.5422
 1391SOL     OW15808   0.811   1.385   5.613 -0.8442  0.1491  0.0082
 1391SOL    HW115809   0.829   1.389   5.519 -0.5199 -0.7654  0.0288
 1391SOL    HW215810   0.745   1.316   5.614  0.6235 -1.2829 -1.1107
 1392SOL     OW15811   3.351   2.950   3.527 -0.2863  0.2067  0.3436
 1392SOL    HW115812   3.331   2.857   3.533 -0.5783  0.2830  0.5526
 1392SOL    HW215813   3.302   2.982   3.603  0.7928 -0.3580  1.2672
 1393SOL     OW15814   3.098   3.858  11.068  0.2406  0.3836  0.3288
 1393SOL    HW115815   3.058   3.921  11.129 -0.4193 -0.5949  0.9074
 1393SOL    HW215816   3.171   3.836  11.126  1.8204 -1.8607 -2.5025
 1394SOL     OW15817   4.696   4.009   8.417  0.5212 -0.2685 -0.0858
 1394SOL    HW115818   4.679   3.927   8.371 -1.1355 -0.7131  1.2986
 1394SOL    HW215819   0.001   3.984   8.499 -1.3264 -2.5453  0.1598
 1395SOL     OW15820   2.149   2.426  15.873  0.4706  0.2040  0.4090
 1395SOL    HW115821   2.236   2.392  15.851  0.6724  0.0043  1.4878
 1395SOL    HW215822   2.167   2.514  15.842  1.8839 -0.9856 -2.1199
 1396SOL     OW15823   1.512   3.545   4.149 -0.5879  0.0045  0.0949
 1396SOL    HW115824   1.496   3.619   4.091  0.7998 -0.7801 -1.2768
 1396SOL    HW215825   1.422   3.517   4.167 -0.4762 -0.0473  0.5961
 1397SOL     OW15826   2.129   2.474  14.263 -0.4269 -0.1780  0.1634
 1397SOL    HW115827   2.195   2.511  14.204  1.6535 -3.7524  0.2160
 1397SOL    HW215828   2.167   2.386  14.257 -0.0959 -0.1405  1.8095
 1398SOL     OW15829   0.039   2.463   3.832 -0.0360 -0.2632  0.0282
 1398SOL    HW115830   4.717   2.508   3.771  1.4247  0.2540 -1.0005
 1398SOL    HW215831   0.100   2.535   3.849  3.0863 -2.8170 -0.3498
 1399SOL     OW15832   0.573   3.715   9.481 -0.5233 -0.2166  1.0330
 1399SOL    HW115833   0.668   3.717   9.482 -0.5073 -0.2805 -1.7686
 1399SOL    HW215834   0.563   3.656   9.406 -0.5520 -1.5231  2.0681
 1400SOL     OW15835   4.140   2.403   8.396 -0.1058  0.0505 -0.0828
 1400SOL    HW115836   4.074   2.334   8.401  1.5790 -1.7569 -2.7914
 1400SOL    HW215837   4.169   2.415   8.486  0.7955  0.9014 -0.4838
 1401SOL     OW15838   3.784   0.696  16.945  0.4823  0.0955 -0.2794
 1401SOL    HW115839   3.816   0.781  16.916 -1.1713  0.4633 -1.0713
 1401SOL    HW215840   3.689   0.710  16.938  0.6872  1.2981 -0.5618
 1402SOL     OW15841   4.261   2.575   6.989  0.0814 -0.5730 -0.0446
 1402SOL    HW115842   4.269   2.670   6.998 -1.0926 -0.3067 -1.8514
 1402SOL    HW215843   4.309   2.555   6.910 -1.9693  0.1223 -1.4730
 1403SOL     OW15844   1.633   3.209  14.213 -0.9845 -0.2129  0.1629
 1403SOL    HW115845   1.687   3.157  14.154 -1.4720  0.1362 -0.5875
 1403SOL    HW215846   1.547   3.175  14.187 -0.4507 -1.1695 -0.3760
 1404SOL     OW15847   3.331   1.504   9.683 -0.4522  0.1645 -0.0362
 1404SOL    HW115848   3.287   1.420   9.700 -1.3229  0.6468  0.0990
 1404SOL    HW215849   3.345   1.541   9.770 -1.1246  1.4378 -0.4658
 1405SOL     OW15850   0.381   1.883   2.796  0.3970 -0.0398  0.2617
 1405SOL    HW115851   0.341   1.970   2.787  0.8457  0.3840  2.3849
 1405SOL    HW215852   0.421   1.880   2.709  1.2028  1.0918  0.5904
 1406SOL     OW15853   2.014   1.590   3.612 -0.3885  0.3736 -0.5058
 1406SOL    HW115854   1.951   1.519   3.596 -0.3071  0.8971 -3.1106
 1406SOL    HW215855   1.964   1.648   3.670  0.3208 -1.5523  2.0296
 1407SOL     OW15856   4.277   2.761   4.101 -0.0264  0.4898 -0.4665
 1407SOL    HW115857   4.185   2.739   4.087 -0.2077  1.1591 -0.3503
 1407SOL    HW215858   4.300   2.679   4.144 -2.4963  0.1471  0.2175
 1408SOL     OW15859   4.238   3.562   8.238 -0.1662  0.2424  0.9192
 1408SOL    HW115860   4.219   3.636   8.180 -0.7692 -1.2786 -0.8181
 1408SOL    HW215861   4.154   3.531   8.271 -2.4693  1.7573 -3.4177
 1409SOL     OW15862   3.024   3.032   9.167 -0.6729 -0.6529  0.4852
 1409SOL    HW115863   2.958   3.029   9.236 -0.1878  0.5481  1.0136
 1409SOL    HW215864   2.986   2.956   9.123 -1.5689  0.1267 -0.0782
 1410SOL     OW15865   1.409   0.267   2.187 -0.0284  0.2215 -0.5884
 1410SOL    HW115866   1.479   0.217   2.144 -0.3695  0.5021 -1.4661
 1410SOL    HW215867   1.345   0.197   2.201  2.5588 -1.6675  1.8561
 1411SOL     OW15868   4.079   4.364   4.725  0.4999 -0.4088  0.1248
 1411SOL    HW115869   4.091   4.315   4.644  0.8790 -1.9859  1.1345
 1411SOL    HW215870   4.136   4.318   4.787 -0.9989 -1.0561  1.0185
 1412SOL     OW15871   1.053   2.200   4.437 -0.0707 -0.0103 -0.2550
 1412SOL    HW115872   1.149   2.206   4.432  0.0946 -2.2329  0.1190
 1412SOL    HW215873   1.027   2.246   4.517  1.1104 -1.3201  0.8874
 1413SOL     OW15874   2.817   3.184   3.356 -0.1872  0.1331  0.3358
 1413SOL    HW115875   2.828   3.278   3.345 -0.6602 -0.0935 -1.9080
 1413SOL    HW215876   2.827   3.154   3.266 -0.2220 -0.7890  0.6391
 1414SOL     OW15877   0.767   4.388   5.439 -0.2221 -0.0280 -0.1926
 1414SOL    HW115878   0.859   4.361   5.433  0.0573  1.0242 -0.7407
 1414SOL    HW215879   0.737   4.342   5.361  0.2673 -0.9070  0.1371
 1415SOL     OW15880   4.009   1.771   7.783 -0.1205 -0.3489  0.1331
 1415SOL    HW115881   4.052   1.828   7.846 -0.3448 -2.4236  2.1762
 1415SOL    HW215882   4.062   1.699   7.817  1.4305  0.5668 -0.3565
 1416SOL     OW15883   1.196   4.666   9.236 -0.4502  0.3999 -0.5963
 1416SOL    HW115884   1.109   4.667   9.276 -0.3698  2.2643 -0.4903
 1416SOL    HW215885   1.181   4.673   9.142  1.0240 -0.3821 -0.8942
 1417SOL     OW15886   0.433   4.363  10.303 -0.4881  0.5464 -0.4801
 1417SOL    HW115887   0.460   4.411  10.225 -0.5153  1.3789  0.0125
 1417SOL    HW215888   0.513   4.372  10.355 -0.5369 -0.5924 -0.2197
 1418SOL     OW15889   1.827   4.614  16.471  0.2449  0.1107  0.1281
 1418SOL    HW115890   1.853   4.688  16.526  0.0578 -1.0451  1.7538
 1418SOL    HW215891   1.814   4.542  16.532  3.1955 -0.4291  0.1189
 1419SOL     OW15892   2.313   2.826  11.547 -0.2859 -0.4801 -0.0154
 1419SOL    HW115893   2.233   2.793  11.588 -1.5195 -0.8278 -2.7491
 1419SOL    HW215894   2.368   2.748  11.542  0.8177  0.4244 -1.9173
 1420SOL     OW15895   4.573   0.625   9.331  0.0441 -0.0072  0.7985
 1420SOL    HW115896   4.508   0.691   9.355 -0.1202  0.0387  0.2216
 1420SOL    HW215897   4.516   0.573   9.275  1.4951 -1.8886  1.0691
 1421SOL     OW15898   0.196   2.185  14.539 -0.0372 -0.0338 -0.2160
 1421SOL    HW115899   0.123   2.161  14.597 -1.0030  0.5753 -1.1625
 1421SOL    HW215900   0.149   2.227  14.467 -1.5622 -1.2781  0.0304
 1422SOL     OW15901   0.235   3.608   6.200 -0.0963 -0.3360  0.0383
 1422SOL    HW115902   0.152   3.577   6.162  0.3190 -0.7091 -0.5561
 1422SOL    HW215903   0.204   3.686   6.245  0.2387  0.8610 -1.8114
 1423SOL     OW15904   1.323   1.455  15.046  0.6298 -0.2004  0.4929
 1423SOL    HW115905   1.333   1.550  15.055  1.7057 -0.2537 -0.1307
 1423SOL    HW215906   1.394   1.435  14.985 -2.5780 -2.2162 -2.5393
 1424SOL     OW15907   0.852   2.879  11.959  0.4439  0.1689  0.0419
 1424SOL    HW115908   0.944   2.897  11.977  0.0078  1.3901  1.0912
 1424SOL    HW215909   0.851   2.793  11.915 -0.3452  0.1934  0.0225
 1425SOL     OW15910   1.996   2.908   7.227  0.2063  0.4406  0.0324
 1425SOL    HW115911   2.048   2.897   7.147  0.0320 -3.6707  0.5199
 1425SOL    HW215912   2.027   2.832   7.275  0.6485  1.5711  1.5622
 1426SOL     OW15913   1.211   3.726   3.300 -0.3592  0.8052 -0.7082
 1426SOL    HW115914   1.252   3.747   3.384  0.9050  0.5515 -1.2625
 1426SOL    HW215915   1.167   3.645   3.325 -1.1716  0.8191 -2.0880
 1427SOL     OW15916   0.753   0.688   2.182 -0.0227  0.7240 -0.4018
 1427SOL    HW115917   0.752   0.779   2.212 -1.9496  0.1582  1.3079
 1427SOL    HW215918   0.803   0.701   2.102 -0.6310  0.3653 -0.8450
 1428SOL     OW15919   1.155   1.534  16.801 -0.2734 -0.3882 -0.3647
 1428SOL    HW115920   1.207   1.498  16.729 -0.2339  1.3474 -1.1960
 1428SOL    HW215921   1.124   1.615  16.762 -0.9341  0.0818  1.1226
 1429SOL     OW15922   4.487   2.412   8.059 -0.0534  0.2008  0.2873
 1429SOL    HW115923   4.419   2.449   8.115 -2.1790 -2.8600 -0.3126
 1429SOL    HW215924   4.450   2.325   8.050 -0.6685  0.5200 -0.2409
 1430SOL     OW15925   1.309   0.455   4.073 -0.3977 -0.0450 -0.1077
 1430SOL    HW115926   1.284   0.490   3.988  1.7877 -0.3525 -0.8917
 1430SOL    HW215927   1.318   0.531   4.130 -2.0125  1.1985 -1.5260
 1431SOL     OW15928   1.296   4.623   7.590 -0.3032 -0.4101 -0.3464
 1431SOL    HW115929   1.338   4.708   7.609 -0.1481  0.1877 -3.3134
 1431SOL    HW215930   1.219   4.631   7.646  0.6605 -2.3439  1.2316
 1432SOL     OW15931   4.333   3.100   6.775 -0.1428 -0.6096 -0.2841
 1432SOL    HW115932   4.391   3.175   6.759 -1.4625  0.7180  1.1902
 1432SOL    HW215933   4.345   3.043   6.700  1.5348 -0.7831  0.1142
 1433SOL     OW15934   4.406   1.027   3.505  0.0191  0.9889 -0.4995
 1433SOL    HW115935   4.404   1.120   3.484  1.7836  1.5465  1.9192
 1433SOL    HW215936   4.493   1.008   3.469  0.5450 -0.0207  1.3374
 1434SOL     OW15937   0.769   2.543   8.254  0.1685  0.7776 -0.3388
 1434SOL    HW115938   0.724   2.516   8.174 -0.3413  0.5427  0.0320
 1434SOL    HW215939   0.751   2.637   8.245  1.3949  1.1840  1.4071
 1435SOL     OW15940   2.908   3.552  12.370 -0.0589  0.0052  0.2500
 1435SOL    HW115941   2.873   3.630  12.326  0.4329 -0.0123 -0.1682
 1435SOL    HW215942   3.003   3.550  12.358 -0.0196 -1.1960  0.7585
 1436SOL     OW15943   4.069   3.582   8.662 -0.1921  0.1897  0.1912
 1436SOL    HW115944   4.090   3.500   8.617 -0.1787  0.1546  0.2612
 1436SOL    HW215945   3.991   3.551   8.708 -0.7580 -1.2439 -1.7110
 1437SOL     OW15946   1.750   1.715  13.971 -0.4093 -0.1370 -0.3943
 1437SOL    HW115947   1.795   1.790  14.010  0.3998 -0.2492 -1.1014
 1437SOL    HW215948   1.682   1.756  13.916 -0.2375 -0.0799 -0.5666
 1438SOL     OW15949   2.362   1.198  11.735 -0.3658  0.1119 -0.4930
 1438SOL    HW115950   2.457   1.198  11.745 -0.2850 -0.6068 -1.2759
 1438SOL    HW215951   2.359   1.187  11.640  0.6631 -0.5078 -0.4634
 1439SOL     OW15952   2.330   2.478   1.250 -0.0328 -0.6035 -0.2490
 1439SOL    HW115953   2.398   2.411   1.258 -0.2460 -0.7989 -0.0649
 1439SOL    HW215954   2.345   2.527   1.331  0.2122 -1.6837  0.3462
 1440SOL     OW15955   4.469   0.263   8.971 -0.0743 -0.4546  0.0660
 1440SOL    HW115956   4.492   0.173   8.948  0.5656 -0.0886 -0.7026
 1440SOL    HW215957   4.427   0.296   8.892 -0.8297 -0.3873  0.4896
 1441SOL     OW15958   1.766   2.329   3.771 -0.3478 -0.3121 -0.8281
 1441SOL    HW115959   1.812   2.290   3.846 -1.2863  1.1344  0.4961
 1441SOL    HW215960   1.717   2.251   3.744 -0.3469 -0.3357 -0.7627
 1442SOL     OW15961   2.901   1.717   1.767  0.0848  0.4992  0.2470
 1442SOL    HW115962   2.831   1.723   1.831  1.4713 -4.1988  2.2252
 1442SOL    HW215963   2.872   1.652   1.702 -0.0319  0.4672  0.3316
 1443SOL     OW15964   1.517   2.434   3.559 -0.2875 -0.0288 -0.6860
 1443SOL    HW115965   1.607   2.405   3.547 -0.3425  0.2325 -1.7987
 1443SOL    HW215966   1.480   2.400   3.477 -1.4299 -0.4093 -0.0039
 1444SOL     OW15967   0.279   2.073  15.350  0.3702  0.0799 -0.4046
 1444SOL    HW115968   0.331   2.123  15.412 -0.2427  2.0030 -1.4327
 1444SOL    HW215969   0.228   2.141  15.305  1.4470  0.5262 -0.9554
 1445SOL     OW15970   4.156   0.826   6.129 -0.3093 -0.2047  0.2130
 1445SOL    HW115971   4.250   0.817   6.114 -0.3585  2.8200 -1.8147
 1445SOL    HW215972   4.144   0.782   6.214  1.7707  0.6045  0.9136
 1446SOL     OW15973   1.251   1.084   8.266  0.2785  0.3469  0.7241
 1446SOL    HW115974   1.216   1.043   8.187  0.3136 -0.2733  1.0334
 1446SOL    HW215975   1.238   1.177   8.245 -1.9198 -0.5903 -2.0777
 1447SOL     OW15976   2.964   0.614   2.206  0.2560  0.0044  0.0970
 1447SOL    HW115977   3.041   0.633   2.259  1.1124  0.2874 -1.2406
 1447SOL    HW215978   2.908   0.578   2.275  2.9303 -1.5450  1.4731
 1448SOL     OW15979   3.139   0.662   6.972  0.0178  0.2328  0.1594
 1448SOL    HW115980   3.214   0.603   6.982  0.5074  0.7720 -0.3257
 1448SOL    HW215981   3.082   0.604   6.920  0.9511 -0.4642 -0.0893
 1449SOL     OW15982   2.809   2.170   5.872  0.3790 -0.5827  0.2459
 1449SOL    HW115983   2.875   2.195   5.807 -0.2507 -0.3401 -0.2901
 1449SOL    HW215984   2.846   2.083   5.889  3.2533  0.9082  1.5991
 1450SOL     OW15985   2.794   0.516   5.258  0.1585  0.2601 -0.1274
 1450SOL    HW115986   2.822   0.426   5.237  1.1128  0.4340  0.4227
 1450SOL    HW215987   2.865   0.544   5.315 -0.1657 -0.0460  0.4363
 1451SOL     OW15988   1.233   0.054   4.056 -0.3809 -0.0116  0.1311
 1451SOL    HW115989   1.268   0.085   4.140  0.4175 -4.2492  1.4082
 1451SOL    HW215990   1.160   4.736   4.085  1.1280 -1.2249  1.6761
 1452SOL     OW15991   3.858   1.415   8.211  0.6637  0.1970  0.9738
 1452SOL    HW115992   3.867   1.330   8.166 -2.8812 -0.4123  1.4427
 1452SOL    HW215993   3.840   1.460   8.128  2.2238 -0.3900  0.3212
 1453SOL     OW15994   2.392   3.201  10.616 -0.3465 -0.1766  0.3157
 1453SOL    HW115995   2.452   3.274  10.636  0.0134 -0.2348 -0.5650
 1453SOL    HW215996   2.454   3.129  10.630 -0.8160 -0.6519 -0.0797
 1454SOL     OW15997   3.265   3.925   4.593  0.1385  0.3309  0.8489
 1454SOL    HW115998   3.183   3.877   4.581 -0.0944  0.4754  1.9402
 1454SOL    HW215999   3.234   4.009   4.627 -0.7871 -0.7199  2.5555
 1455SOL     OW16000   0.135   1.667   3.304 -0.3277  0.1940  0.2216
 1455SOL    HW116001   0.146   1.617   3.223 -1.6955  1.0759 -0.5046
 1455SOL    HW216002   0.087   1.741   3.266  2.2575  1.1551 -1.2084
 1456SOL     OW16003   1.750   2.966   2.144 -0.0199  0.6442 -0.4089
 1456SOL    HW116004   1.778   2.949   2.054 -0.4134  0.4183 -0.4896
 1456SOL    HW216005   1.800   2.903   2.195  2.5568  0.6720 -2.8684
 1457SOL     OW16006   0.214   1.970   6.755 -0.4354 -0.3313 -0.3842
 1457SOL    HW116007   0.154   1.938   6.823  2.0437  2.1440  2.9848
 1457SOL    HW216008   0.291   1.977   6.811 -0.7232  0.1320 -0.0406
 1458SOL     OW16009   4.317   0.539   4.261 -0.4263  0.2703 -0.1296
 1458SOL    HW116010   4.228   0.574   4.255 -1.0812 -1.3217  0.1981
 1458SOL    HW216011   4.343   0.504   4.176 -0.5465 -1.4852  0.5643
 1459SOL     OW16012   0.805   1.825   8.460 -0.0008 -0.4594  0.0166
 1459SOL    HW116013   0.793   1.919   8.470  1.4771 -0.2356 -0.2815
 1459SOL    HW216014   0.853   1.798   8.382 -0.1910 -0.0403 -0.2467
 1460SOL     OW16015   2.399   4.468  15.150  0.2629  0.0936  0.2847
 1460SOL    HW116016   2.374   4.539  15.210 -0.3885  0.1707 -0.0911
 1460SOL    HW216017   2.342   4.475  15.074  0.8856 -1.8908 -0.3590
 1461SOL     OW16018   2.823   1.471  11.900 -0.0128  0.3866 -0.0291
 1461SOL    HW116019   2.813   1.566  11.907  2.9835  0.6722  0.4029
 1461SOL    HW216020   2.906   1.454  11.856  0.7453 -1.3114  2.0858
 1462SOL     OW16021   1.736   3.090   8.643 -0.4662 -0.4280  0.0455
 1462SOL    HW116022   1.817   3.116   8.599  0.1195 -1.3243  0.5998
 1462SOL    HW216023   1.769   3.013   8.689  0.4813 -0.7346 -1.1302
 1463SOL     OW16024   4.368   3.963   6.248  0.3564 -0.1789 -0.4971
 1463SOL    HW116025   4.313   3.898   6.293 -0.1134 -0.1109 -0.9753
 1463SOL    HW216026   4.343   4.049   6.280  1.7022  0.4738 -1.2214
 1464SOL     OW16027   3.915   1.067   2.925 -0.2587  0.0187  0.4307
 1464SOL    HW116028   3.826   1.072   2.889 -0.0353  1.1075  0.0245
 1464SOL    HW216029   3.908   1.140   2.986 -2.8777 -0.3315  0.5451
 1465SOL     OW16030   2.820   0.241   2.309  0.4377 -0.6534  0.0635
 1465SOL    HW116031   2.902   0.272   2.347  0.4970  0.5879 -1.0984
 1465SOL    HW216032   2.795   0.182   2.380 -1.5550 -1.5080 -1.3782
 1466SOL     OW16033   1.567   2.094  12.043 -0.0528  0.2857  0.0672
 1466SOL    HW116034   1.596   2.069  12.131  0.8174 -0.9533 -0.5772
 1466SOL    HW216035   1.480   2.055  12.042  0.9746 -1.9550 -0.8283
 1467SOL     OW16036   2.182   2.855   6.264 -0.5750 -0.4185  0.4004
 1467SOL    HW116037   2.218   2.771   6.234  2.0050  1.0628 -0.6321
 1467SOL    HW216038   2.176   2.905   6.183  0.2790 -1.4875 -0.3255
 1468SOL     OW16039   3.178   1.895  11.422 -0.3530 -0.0130  0.4036
 1468SOL    HW116040   3.269   1.903  11.393 -0.5929  1.4433  0.0513
 1468SOL    HW216041   3.178   1.911  11.517 -1.2900  0.6807  0.2862
 1469SOL     OW16042   0.025   0.001   2.080 -0.2448 -0.1709  0.2496
 1469SOL    HW116043   0.108   0.029   2.119  0.0942  1.2854 -1.5568
 1469SOL    HW216044   0.055   4.701   1.997 -0.4201  0.0132  0.1053
 1470SOL     OW16045   0.471   0.118   2.557  0.3639  0.3304  0.6328
 1470SOL    HW116046   0.404   0.177   2.524  0.0746 -0.8986 -0.9699
 1470SOL    HW216047   0.456   0.133   2.651  0.8717  1.0280  0.5966
 1471SOL     OW16048   2.091   3.780   9.200 -0.2562 -0.3685  0.2191
 1471SOL    HW116049   2.035   3.703   9.187 -1.5247  0.1802  2.2859
 1471SOL    HW216050   2.063   3.804   9.289 -2.4543  0.8492 -0.8016
 1472SOL     OW16051   0.292   0.033   5.295 -0.1617  0.3697  0.5868
 1472SOL    HW116052   0.311   0.056   5.386 -1.1740 -1.1362  1.1783
 1472SOL    HW216053   0.232   4.695   5.287  0.3668  0.2032 -1.8110
 1473SOL     OW16054   3.623   1.318   2.269  0.4378  0.0244  0.1625
 1473SOL    HW116055   3.537   1.343   2.304  0.4039 -1.5623  1.2404
 1473SOL    HW216056   3.673   1.307   2.350 -0.4571 -1.6617  0.4810
 1474SOL     OW16057   1.937   3.135  12.150  0.9681 -0.1012  0.0936
 1474SOL    HW116058   2.020   3.114  12.108  0.7710 -0.3887 -0.1489
 1474SOL    HW216059   1.933   3.231  12.153  0.0143 -0.1208 -0.6324
 1475SOL     OW16060   3.334   3.889   3.621  0.3120  0.8187 -0.3031
 1475SOL    HW116061   3.373   3.820   3.567  2.4870  2.4779 -0.8440
 1475SOL    HW216062   3.378   3.868   3.703  1.6939  2.2801 -0.6745
 1476SOL     OW16063   3.727   4.602   5.599 -0.0237 -0.6805  0.1017
 1476SOL    HW116064   3.700   4.686   5.561 -1.3674 -0.2125  2.0462
 1476SOL    HW216065   3.729   4.546   5.522  1.1999 -0.0297 -0.3381
 1477SOL     OW16066   2.659   4.583   3.089  0.7540  0.3155 -0.5182
 1477SOL    HW116067   2.640   4.573   2.995  0.9632  0.7157 -0.6039
 1477SOL    HW216068   2.625   4.502   3.125  0.1779  1.2816  1.0806
 1478SOL     OW16069   0.551   1.917  12.401  0.1201 -0.4577  0.7646
 1478SOL    HW116070   0.487   1.922  12.472 -3.6193  0.4090 -2.6554
 1478SOL    HW216071   0.592   1.832  12.419 -1.9938 -1.4619  0.8293
 1479SOL     OW16072   3.847   3.708  12.802  0.0807  0.2792  0.3717
 1479SOL    HW116073   3.867   3.665  12.885  1.0847 -0.1879 -0.1078
 1479SOL    HW216074   3.935   3.729  12.768  0.6657  0.2283  1.8562
 1480SOL     OW16075   3.034   3.532  17.467 -0.3758 -0.2000  0.0513
 1480SOL    HW116076   2.970   3.584  17.517 -0.2096 -1.2082  1.3133
 1480SOL    HW216077   2.983   3.513  17.389  1.7960 -1.5131 -1.0276
 1481SOL     OW16078   0.487   2.423   7.811  0.0270 -0.2348 -0.0127
 1481SOL    HW116079   0.563   2.384   7.767 -0.3899 -0.6590 -0.3598
 1481SOL    HW216080   0.448   2.342   7.842 -1.0904  0.4745  0.4283
 1482SOL     OW16081   1.748   1.059  12.662 -0.2409 -0.2254 -0.6276
 1482SOL    HW116082   1.750   0.981  12.607  5.5000  0.5311 -1.4984
 1482SOL    HW216083   1.766   1.121  12.591  2.2140  0.4282  0.5696
 1483SOL     OW16084   0.318   0.098   1.937 -0.1246 -0.4835 -0.0428
 1483SOL    HW116085   0.309   0.007   1.964  3.3353  0.2328  3.5031
 1483SOL    HW216086   0.405   0.090   1.897 -0.1285 -0.7069 -0.0087
 1484SOL     OW16087   1.613   2.632   8.931  0.2031  0.2860 -0.4957
 1484SOL    HW116088   1.616   2.630   9.027  1.2177 -0.0238 -0.5342
 1484SOL    HW216089   1.630   2.724   8.912 -0.7187  0.4631 -0.4677
 1485SOL     OW16090   2.072   2.260   5.717 -0.0042  0.5938  0.7163
 1485SOL    HW116091   2.030   2.345   5.708  0.0534  0.5580  0.1284
 1485SOL    HW216092   2.163   2.289   5.717  0.7912 -1.8581  0.3804
 1486SOL     OW16093   3.685   0.030  12.895  0.1047  0.1818 -0.0505
 1486SOL    HW116094   3.627   0.079  12.954 -0.5099 -1.6364  0.8690
 1486SOL    HW216095   3.685   4.684  12.944 -1.8710  0.3684  0.2735
 1487SOL     OW16096   2.582   1.132   2.329 -0.2578 -0.1085 -0.2010
 1487SOL    HW116097   2.651   1.158   2.391  0.5909 -0.1369 -1.1331
 1487SOL    HW216098   2.500   1.123   2.378 -0.3256  2.1805  0.1161
 1488SOL     OW16099   1.918   0.345   4.429  0.0605 -0.0506 -0.4234
 1488SOL    HW116100   1.882   0.433   4.441  2.3580  0.9536 -1.0097
 1488SOL    HW216101   1.856   0.289   4.477 -0.7996  0.6141 -0.7539
 1489SOL     OW16102   2.099   1.241   8.276 -0.5781 -0.1905  0.0485
 1489SOL    HW116103   2.176   1.281   8.317  0.8824 -2.5535 -0.3705
 1489SOL    HW216104   2.138   1.163   8.237 -0.1273  0.3657 -0.6252
 1490SOL     OW16105   2.710   0.411   7.983 -0.1694  0.0375  0.6180
 1490SOL    HW116106   2.716   0.464   8.062  1.4261  0.7869 -0.0020
 1490SOL    HW216107   2.625   0.368   7.990  0.4954 -1.5300 -1.0031
 1491SOL     OW16108   1.262   3.991   7.774 -0.1661  0.4336 -0.1518
 1491SOL    HW116109   1.331   4.046   7.736  1.1398 -0.4228  0.9414
 1491SOL    HW216110   1.305   3.908   7.797 -0.5963  0.3502  0.3482
 1492SOL     OW16111   0.611   0.507   8.785  0.4150  0.1192  0.2864
 1492SOL    HW116112   0.656   0.478   8.864  2.3809  2.0806 -0.1166
 1492SOL    HW216113   0.686   0.548   8.743  1.5589 -0.5599  1.6845
 1493SOL     OW16114   2.449   2.321   1.789 -0.1369 -0.1456  0.3589
 1493SOL    HW116115   2.509   2.277   1.850  2.1826  0.3519 -1.5319
 1493SOL    HW216116   2.508   2.382   1.744 -0.1036 -0.6548 -0.2901
 1494SOL     OW16117   0.417   4.335  11.539 -0.1122  0.5902  0.0803
 1494SOL    HW116118   0.406   4.418  11.492 -2.6044 -0.8105 -1.8114
 1494SOL    HW216119   0.419   4.267  11.471  1.1043  0.0415  0.6630
 1495SOL     OW16120   3.957   1.311   3.502 -0.0028  0.2404 -0.0807
 1495SOL    HW116121   3.987   1.326   3.592  0.1398 -0.1623 -0.0625
 1495SOL    HW216122   3.968   1.401   3.470 -0.0786 -0.4031 -1.8964
 1496SOL     OW16123   2.785   2.011  16.960  0.0946 -0.4871 -0.3606
 1496SOL    HW116124   2.716   2.045  16.903 -0.1816 -1.1432 -0.4136
 1496SOL    HW216125   2.731   1.983  17.034 -0.8470 -0.5789 -1.0882
 1497SOL     OW16126   3.103   4.105  13.080  0.0346  0.8538 -0.2066
 1497SOL    HW116127   3.133   4.192  13.106  2.2463 -0.2928  1.0789
 1497SOL    HW216128   3.185   4.056  13.077  0.0734  0.9350 -0.4713
 1498SOL     OW16129   0.505   3.529  14.211 -0.4863 -0.8626  0.2656
 1498SOL    HW116130   0.452   3.465  14.163 -1.3743  0.4792 -0.5280
 1498SOL    HW216131   0.530   3.478  14.288  0.7903 -1.1455 -0.3371
 1499SOL     OW16132   2.051   4.388  14.982  0.4311  0.0433  0.1649
 1499SOL    HW116133   2.032   4.337  14.903  0.5593  0.6627 -0.2629
 1499SOL    HW216134   2.143   4.407  14.965  0.8817 -0.7128  1.7391
 1500SOL     OW16135   3.555   0.024   7.921 -0.0880 -0.1459 -0.3949
 1500SOL    HW116136   3.517   0.088   7.862 -2.6912 -0.7913  0.5748
 1500SOL    HW216137   3.512   4.682   7.888 -1.3038  0.1324  0.5514
 1501SOL     OW16138   3.063   0.624   2.474 -0.1839 -0.1802  0.3440
 1501SOL    HW116139   2.995   0.691   2.468 -0.1762 -0.0030  2.4365
 1501SOL    HW216140   3.066   0.609   2.568  0.3145  0.2073  0.3882
 1502SOL     OW16141   3.072   1.412   7.320 -0.6204 -0.2134  0.2136
 1502SOL    HW116142   2.997   1.364   7.284  0.9474 -2.6617  0.2444
 1502SOL    HW216143   3.120   1.445   7.245  1.1039 -0.4546  1.2132
 1503SOL     OW16144   0.030   1.697   4.557  0.1845  0.2410  0.5754
 1503SOL    HW116145   4.673   1.690   4.577 -0.3969  2.8005 -1.2545
 1503SOL    HW216146   0.032   1.650   4.474  0.6264 -0.5503  1.0347
 1504SOL     OW16147   1.445   1.940   4.565 -0.1380  0.5195 -0.0378
 1504SOL    HW116148   1.440   1.955   4.659 -1.5177  0.0090 -0.0190
 1504SOL    HW216149   1.523   1.988   4.538  0.6505  0.3806  2.0161
 1505SOL     OW16150   3.807   3.194   4.948 -0.2318  0.2112  0.4333
 1505SOL    HW116151   3.723   3.231   4.975 -0.5027 -1.0078  1.2680
 1505SOL    HW216152   3.855   3.267   4.909 -1.9525  0.9947 -0.2072
 1506SOL     OW16153   2.236   1.947   3.012 -0.0794 -0.4678 -0.5177
 1506SOL    HW116154   2.213   1.936   3.104 -1.2772 -0.8154 -0.8599
 1506SOL    HW216155   2.278   1.863   2.995 -1.8829 -1.8410  1.7382
 1507SOL     OW16156   1.260   0.420   8.283  0.4612 -0.0296 -0.2806
 1507SOL    HW116157   1.169   0.442   8.261 -0.1973 -1.1347  1.3368
 1507SOL    HW216158   1.266   0.329   8.252  1.8970  0.0215 -0.1230
 1508SOL     OW16159   1.190   2.499   9.764  0.3002 -0.2583  0.0167
 1508SOL    HW116160   1.127   2.564   9.796 -1.3583  0.3521 -4.4571
 1508SOL    HW216161   1.163   2.475   9.675  1.1286  1.3075 -0.6729
 1509SOL     OW16162   2.450   0.522  13.399 -0.1969 -0.0599  0.2752
 1509SOL    HW116163   2.496   0.553  13.476  2.9675 -0.2754 -1.5233
 1509SOL    HW216164   2.370   0.574  13.402 -1.6533 -2.2034 -1.2678
 1510SOL     OW16165   1.167   2.803   4.967  0.1155 -0.3658  0.1901
 1510SOL    HW116166   1.227   2.820   5.040  0.9907 -2.4712 -0.0437
 1510SOL    HW216167   1.095   2.865   4.981  1.8187  1.3670  1.1967
 1511SOL     OW16168   2.927   4.669   3.285 -0.1955 -0.0166 -0.0737
 1511SOL    HW116169   2.888   4.612   3.219  1.9221 -1.4212 -0.0916
 1511SOL    HW216170   3.002   4.703   3.235 -0.5992 -0.1186 -0.7550
 1512SOL     OW16171   2.743   1.345   3.458  0.4870 -0.4342  0.2852
 1512SOL    HW116172   2.679   1.335   3.387  1.2783  0.5876 -0.5736
 1512SOL    HW216173   2.753   1.255   3.489 -0.8519 -1.0762 -1.1213
 1513SOL     OW16174   2.255   2.140   7.226  0.2745  0.1397  0.3951
 1513SOL    HW116175   2.311   2.074   7.268 -0.6520 -0.4497  0.6847
 1513SOL    HW216176   2.269   2.139   7.132 -1.4737  2.7707  0.0961
 1514SOL     OW16177   0.496   1.354   3.474 -0.4430  0.0276  0.1015
 1514SOL    HW116178   0.572   1.407   3.499 -0.3998 -0.1008  0.2457
 1514SOL    HW216179   0.427   1.419   3.466 -0.0696  0.7360  2.6487
 1515SOL     OW16180   2.122   1.924  12.055  0.7323  0.3076 -0.3235
 1515SOL    HW116181   2.162   1.894  11.974 -1.4671 -4.3041  0.2968
 1515SOL    HW216182   2.200   1.943  12.107  0.4249 -1.9747  0.9665
 1516SOL     OW16183   1.693   1.457   6.137  0.0051  0.3946 -0.5381
 1516SOL    HW116184   1.768   1.420   6.184 -0.8742  2.2040  2.3397
 1516SOL    HW216185   1.729   1.490   6.055 -0.8751  0.9741 -0.6884
 1517SOL     OW16186   1.575   2.196   6.372 -0.5769  0.3447 -0.1594
 1517SOL    HW116187   1.660   2.208   6.331 -0.0578 -1.6381  0.3474
 1517SOL    HW216188   1.518   2.252   6.318 -1.1299 -0.6366 -0.5887
 1518SOL     OW16189   3.345   0.581   2.512  0.2424 -0.6104  0.1887
 1518SOL    HW116190   3.313   0.613   2.428 -0.8807 -0.7099  0.5685
 1518SOL    HW216191   3.344   0.663   2.561  2.7832 -1.1629  1.1503
 1519SOL     OW16192   1.362   3.257   7.709  0.1922 -0.0238 -0.0609
 1519SOL    HW116193   1.375   3.350   7.727  0.3370 -0.0097 -0.2419
 1519SOL    HW216194   1.278   3.251   7.664  0.4974 -0.8916 -0.5088
 1520SOL     OW16195   0.815   0.212  11.919  0.1362  0.2027  0.3907
 1520SOL    HW116196   0.840   0.289  11.867 -0.4750 -0.4865 -0.9204
 1520SOL    HW216197   0.720   0.227  11.925 -0.3882 -3.1900  0.2803
 1521SOL     OW16198   3.267   1.902   4.725 -0.0349 -0.4483  0.1303
 1521SOL    HW116199   3.267   1.940   4.637 -0.8869  1.6583  1.0300
 1521SOL    HW216200   3.267   1.809   4.702 -0.3836 -0.5841  0.6662
 1522SOL     OW16201   2.666   3.306  11.674  0.3890  0.3976 -0.6498
 1522SOL    HW116202   2.752   3.338  11.700  1.1035 -0.1253 -2.3816
 1522SOL    HW216203   2.686   3.300  11.581 -0.0109  0.1193 -0.7210
 1523SOL     OW16204   1.520   0.689   7.098 -0.3807  0.2188 -0.3578
 1523SOL    HW116205   1.535   0.708   7.005  1.4484  0.2673 -0.0517
 1523SOL    HW216206   1.535   0.778   7.129  0.0474 -0.3833  1.1723
 1524SOL     OW16207   0.405   0.064  12.453 -0.2656  0.2932 -0.4064
 1524SOL    HW116208   0.342   0.136  12.454 -1.7318 -1.0379  1.6964
 1524SOL    HW216209   0.483   0.120  12.462  0.2668 -0.5953  0.5124
 1525SOL     OW16210   1.684   2.894   3.829 -0.1263 -0.4487  0.1287
 1525SOL    HW116211   1.748   2.862   3.765 -0.9492  0.1470 -0.9947
 1525SOL    HW216212   1.734   2.883   3.910  0.8949 -1.4979 -0.6500
 1526SOL     OW16213   4.422   1.073   1.202 -0.0705 -0.0090  0.1127
 1526SOL    HW116214   4.448   1.036   1.286 -0.8685 -1.1469 -0.1278
 1526SOL    HW216215   4.501   1.066   1.149  0.2083 -0.5305  0.5952
 1527SOL     OW16216   2.331   0.760   6.335 -0.3785  0.0811 -0.1070
 1527SOL    HW116217   2.247   0.805   6.327  0.3031  1.1656 -1.1765
 1527SOL    HW216218   2.315   0.720   6.250  1.9007 -2.0882  0.4563
 1528SOL     OW16219   3.942   1.723   4.806  0.0754  0.8309  0.4791
 1528SOL    HW116220   4.029   1.690   4.829  0.9854  2.5051 -0.6358
 1528SOL    HW216221   3.887   1.689   4.876 -0.6156  0.8904 -0.0336
 1529SOL     OW16222   0.436   0.398   7.434  0.3322 -0.1622  0.3638
 1529SOL    HW116223   0.390   0.425   7.514 -0.8584 -0.2639 -0.2872
 1529SOL    HW216224   0.461   0.481   7.394  1.0630 -1.3819 -1.6953
 1530SOL     OW16225   3.014   1.634   4.518 -0.2809 -0.0992  0.1733
 1530SOL    HW116226   2.949   1.567   4.495  0.6070 -0.8673 -0.1049
 1530SOL    HW216227   2.964   1.715   4.518 -1.8623 -1.0835  0.3016
 1531SOL     OW16228   2.199   3.462   9.179  0.1454 -0.4616 -0.4779
 1531SOL    HW116229   2.247   3.545   9.173 -0.0300 -0.2686  0.8746
 1531SOL    HW216230   2.263   3.412   9.229 -0.8710  1.0028  2.2810
 1532SOL     OW16231   2.770   0.080   2.063 -0.4026  0.1950  0.3104
 1532SOL    HW116232   2.779   0.166   2.104  2.5536  0.6644 -1.3097
 1532SOL    HW216233   2.792   0.013   2.128  2.0012  1.8429  1.2216
 1533SOL     OW16234   3.272   0.808   2.641  0.2036  0.1858  0.1264
 1533SOL    HW116235   3.217   0.763   2.705  0.1320  1.8938  1.2817
 1533SOL    HW216236   3.328   0.864   2.696  1.3676  0.5198 -1.4060
 1534SOL     OW16237   4.342   3.881  12.869 -0.4543 -0.1488  0.0017
 1534SOL    HW116238   4.325   3.826  12.945 -0.0890  0.6180  0.6416
 1534SOL    HW216239   4.335   3.967  12.911 -1.2965 -0.0155 -0.3938
 1535SOL     OW16240   2.008   4.243   6.138  0.2499  0.2233  0.1862
 1535SOL    HW116241   2.067   4.307   6.178 -0.7490  1.2542  0.0060
 1535SOL    HW216242   1.933   4.287   6.099  1.5785  1.1459 -1.3073
 1536SOL     OW16243   4.737   2.506  12.524  0.2672 -0.8061 -0.2217
 1536SOL    HW116244   0.044   2.435  12.477  1.2125 -0.6632  0.4495
 1536SOL    HW216245   4.690   2.540  12.447  1.8017  1.4092 -0.1853
 1537SOL     OW16246   0.442   3.484   6.311  0.0479  0.2420 -0.4084
 1537SOL    HW116247   0.372   3.528   6.263  0.5459  0.6337 -0.7828
 1537SOL    HW216248   0.388   3.437   6.374 -0.7922 -0.6295 -1.7887
 1538SOL     OW16249   4.057   0.899   3.373  0.4587 -0.4473  0.0260
 1538SOL    HW116250   4.141   0.854   3.359  0.8976  0.6526 -0.9077
 1538SOL    HW216251   4.081   0.987   3.345 -1.1204  0.0167  0.1477
 1539SOL     OW16252   0.105   2.887   2.837 -0.0260 -0.1513  0.5520
 1539SOL    HW116253   0.161   2.961   2.814  0.8812 -0.7916  0.6735
 1539SOL    HW216254   0.055   2.917   2.913 -1.2826 -2.8775  0.8012
 1540SOL     OW16255   1.013   4.252   6.179 -0.4883  0.3227 -0.1679
 1540SOL    HW116256   1.084   4.192   6.155  0.3338  1.6196 -1.0283
 1540SOL    HW216257   0.968   4.199   6.245  0.5706 -1.4360 -0.8363
 1541SOL     OW16258   4.412   1.513  14.433  0.1770 -0.1315  0.6794
 1541SOL    HW116259   4.457   1.594  14.456  1.1906  0.0364 -1.8592
 1541SOL    HW216260   4.407   1.525  14.338 -0.8062  1.2681  0.9021
 1542SOL     OW16261   2.248   3.556  13.008  0.2909  0.2932  0.1208
 1542SOL    HW116262   2.165   3.599  13.026  1.0449  2.2210 -1.0099
 1542SOL    HW216263   2.303   3.584  13.081  1.7169  0.3796 -0.9886
 1543SOL     OW16264   0.402   4.091   8.796 -0.0254 -0.1618 -0.4336
 1543SOL    HW116265   0.351   4.033   8.853 -2.2600  3.8122  1.6206
 1543SOL    HW216266   0.412   4.167   8.853  1.3154 -1.7664  1.4885
 1544SOL     OW16267   3.652   1.074   8.321 -0.5245 -0.1884 -0.2500
 1544SOL    HW116268   3.664   0.982   8.343  2.7194  0.4525  0.5607
 1544SOL    HW216269   3.606   1.074   8.237 -0.7686 -0.0978 -0.1177
 1545SOL     OW16270   3.677   0.753   3.779 -0.9535  0.6328  0.2322
 1545SOL    HW116271   3.693   0.666   3.815 -0.5734  1.1132  1.2124
 1545SOL    HW216272   3.751   0.753   3.719  0.0003 -0.8295  1.4398
 1546SOL     OW16273   1.034   3.811  16.354 -0.4161  0.7835  0.0108
 1546SOL    HW116274   0.976   3.852  16.289 -1.6557 -0.7723  0.1194
 1546SOL    HW216275   1.105   3.874  16.359  2.1659 -2.2070  0.6312
 1547SOL     OW16276   1.946   1.238   0.264 -0.4325  0.3411  0.2172
 1547SOL    HW116277   2.000   1.308   0.300  2.6051 -1.7025 -0.3731
 1547SOL    HW216278   1.962   1.238   0.170  0.6015  0.2480  0.3864
 1548SOL     OW16279   2.639   1.735   6.778 -0.3499 -0.2687  0.6828
 1548SOL    HW116280   2.623   1.822   6.816  1.9271  1.1878 -1.6569
 1548SOL    HW216281   2.625   1.692   6.862  0.8101 -1.4966  0.2363
 1549SOL     OW16282   1.213   4.294   6.763  0.5793 -0.3696  0.3478
 1549SOL    HW116283   1.243   4.383   6.748  0.8541 -0.1108  2.3562
 1549SOL    HW216284   1.290   4.238   6.776  0.4784 -0.4740  0.5053
 1550SOL     OW16285   0.462   3.817   8.365  0.4481  0.6091  0.6580
 1550SOL    HW116286   0.384   3.818   8.310  2.2689 -0.3766 -1.9378
 1550SOL    HW216287   0.432   3.846   8.451  1.9412  0.8559  1.1087
 1551SOL     OW16288   2.957   3.602   5.609  0.6175  0.1637 -0.5351
 1551SOL    HW116289   2.879   3.545   5.606  0.3911  0.5447 -1.8031
 1551SOL    HW216290   3.017   3.539   5.648  1.1718  0.9210 -0.1736
 1552SOL     OW16291   4.494   1.591   4.626 -0.0647  0.0445  0.3706
 1552SOL    HW116292   4.414   1.630   4.588 -0.6892  1.0079  2.6618
 1552SOL    HW216293   4.463   1.529   4.691 -0.1049  0.4827  0.7722
 1553SOL     OW16294   2.315   0.147   4.212  0.4295 -0.1810  0.1542
 1553SOL    HW116295   2.242   0.208   4.218  0.6884  0.3736 -2.3463
 1553SOL    HW216296   2.385   0.204   4.182 -1.7082  2.2251 -0.2561
 1554SOL     OW16297   1.660   2.680   2.000 -0.2472 -0.3751 -0.0875
 1554SOL    HW116298   1.712   2.652   2.076  0.1662 -0.5662 -0.4365
 1554SOL    HW216299   1.716   2.734   1.944 -2.1217  1.8401  0.2153
 1555SOL     OW16300   0.134   2.689   4.684 -0.2035 -0.2353 -0.2662
 1555SOL    HW116301   0.157   2.721   4.771  0.5194 -0.8588 -0.2299
 1555SOL    HW216302   0.205   2.739   4.644 -0.1859 -1.3090 -1.5636
 1556SOL     OW16303   1.804   4.304  11.502  0.0357 -0.4658 -1.2277
 1556SOL    HW116304   1.828   4.388  11.540 -1.8203 -1.1325  1.4416
 1556SOL    HW216305   1.807   4.327  11.409  0.6204 -1.6681 -1.5018
 1557SOL     OW16306   3.948   2.908   7.367  0.0065  0.4009  0.2871
 1557SOL    HW116307   4.009   2.853   7.318 -0.8244 -1.9132  1.8867
 1557SOL    HW216308   3.936   2.983   7.307  1.3109 -0.4628 -1.0660
 1558SOL     OW16309   4.554   0.580   6.241 -0.8444 -0.0591 -0.0579
 1558SOL    HW116310   4.593   0.548   6.322  0.8228 -0.2210 -0.9347
 1558SOL    HW216311   4.630   0.559   6.186 -2.1590 -0.0794 -1.8931
 1559SOL     OW16312   4.505   2.313   2.463  0.2895 -0.4614  0.3837
 1559SOL    HW116313   4.418   2.350   2.477  0.6659  0.3404  0.6158
 1559SOL    HW216314   4.551   2.393   2.437  0.4639 -0.2935  1.1869
 1560SOL     OW16315   1.245   1.612   4.771  0.1061  0.2397  0.0209
 1560SOL    HW116316   1.202   1.644   4.850 -0.9331  1.1428 -0.9009
 1560SOL    HW216317   1.236   1.682   4.706  0.7655  0.0135 -0.3107
 1561SOL     OW16318   4.580   1.305   8.713 -0.0346 -0.7380  0.2530
 1561SOL    HW116319   4.498   1.350   8.694  1.5343  1.8516 -0.3162
 1561SOL    HW216320   4.562   1.211   8.702 -2.2075 -0.2548 -0.2057
 1562SOL     OW16321   1.650   4.526   9.466  0.4672 -0.0945 -0.2022
 1562SOL    HW116322   1.669   4.486   9.381  0.5878 -2.4500  0.9193
 1562SOL    HW216323   1.600   4.452   9.501  0.3800 -0.5839 -1.3474
 1563SOL     OW16324   1.994   0.862  11.012 -0.0698  0.0933 -0.1783
 1563SOL    HW116325   1.925   0.865  11.078  0.4133  3.6829  0.1610
 1563SOL    HW216326   1.947   0.898  10.937 -1.8926 -0.8482  0.5173
 1564SOL     OW16327   2.250   1.279   1.641 -0.1056 -0.2324  0.1964
 1564SOL    HW116328   2.267   1.280   1.735 -1.5508 -1.0326  0.4600
 1564SOL    HW216329   2.159   1.308   1.632 -0.3592 -1.0506  0.0985
 1565SOL     OW16330   4.054   1.492  12.852 -0.3637  1.1053  0.0620
 1565SOL    HW116331   3.968   1.463  12.823 -0.4767  0.3939  1.1426
 1565SOL    HW216332   4.086   1.550  12.782 -0.1219  1.4813  0.4825
 1566SOL     OW16333   4.656   3.540   8.270  0.2456 -0.2644  0.0441
 1566SOL    HW116334   4.650   3.636   8.269  3.1839 -0.1066 -0.1057
 1566SOL    HW216335   4.697   3.533   8.185  0.9136  0.0145  0.3447
 1567SOL     OW16336   3.785   0.123   7.756 -0.3013  0.0949 -0.2158
 1567SOL    HW116337   3.806   0.184   7.827 -1.1725  0.5134 -0.3058
 1567SOL    HW216338   3.747   0.050   7.805 -1.3266 -0.4576 -1.8559
 1568SOL     OW16339   4.165   1.597   7.904 -0.0123  0.0519  0.2337
 1568SOL    HW116340   4.259   1.585   7.915 -0.0283  0.0094  0.3254
 1568SOL    HW216341   4.130   1.519   7.947 -1.6489 -0.5052 -2.1379
 1569SOL     OW16342   0.610   3.258  15.551  0.7787 -0.1080  0.3033
 1569SOL    HW116343   0.622   3.338  15.499  0.3461 -0.3492 -0.1692
 1569SOL    HW216344   0.515   3.263  15.560  0.8176  1.2510 -0.0280
 1570SOL     OW16345   2.310   0.057   8.329 -0.3661  0.7046  0.5523
 1570SOL    HW116346   2.330   0.149   8.346  2.0645  0.1722  0.6067
 1570SOL    HW216347   2.282   0.065   8.238  0.9080 -1.4747 -0.0455
 1571SOL     OW16348   0.664   0.314   4.450 -0.6653 -0.0979  0.3286
 1571SOL    HW116349   0.648   0.220   4.454  0.4960 -0.3577 -1.1109
 1571SOL    HW216350   0.759   0.321   4.461 -0.5587 -0.0330 -0.6829
 1572SOL     OW16351   3.573   0.020   4.008  0.5827  0.2184  0.4643
 1572SOL    HW116352   3.545   0.109   4.029  0.6921 -0.3763  3.1043
 1572SOL    HW216353   3.554   0.019   3.914  0.0417  1.4194  0.5572
 1573SOL     OW16354   0.617   2.954  13.550 -0.1294  0.2753 -0.1733
 1573SOL    HW116355   0.544   2.905  13.511  0.6816 -1.4481  0.4835
 1573SOL    HW216356   0.577   3.041  13.552 -2.3487 -0.7625  0.6943
 1574SOL     OW16357   2.737   4.324   2.576 -0.6679  0.2643  0.1217
 1574SOL    HW116358   2.673   4.254   2.563 -1.6761  1.0068  1.1065
 1574SOL    HW216359   2.689   4.404   2.598 -0.6087  0.8612 -1.9203
 1575SOL     OW16360   0.471   0.527   5.915  0.1043 -0.0174 -0.0613
 1575SOL    HW116361   0.550   0.567   5.951 -0.7564 -1.4476  3.4760
 1575SOL    HW216362   0.424   0.502   5.995 -0.0487  2.7649  0.6966
 1576SOL     OW16363   0.923   3.101   7.765  0.0308  0.1833  0.1614
 1576SOL    HW116364   0.937   3.023   7.711  2.1807  0.4479  0.3254
 1576SOL    HW216365   0.848   3.073   7.817 -0.8904 -0.5871 -1.5541
 1577SOL     OW16366   0.681   2.892   7.394 -0.2787 -0.4490  0.1216
 1577SOL    HW116367   0.617   2.886   7.464  0.1253  0.4730  0.5637
 1577SOL    HW216368   0.714   2.803   7.380  0.0371 -0.2313 -0.5425
 1578SOL     OW16369   2.970   2.222   5.663  0.6713 -0.3994 -0.4558
 1578SOL    HW116370   3.004   2.163   5.596  1.6166 -1.7975  1.2606
 1578SOL    HW216371   3.027   2.297   5.646 -1.1357  0.9616 -0.6314
 1579SOL     OW16372   2.350   2.736   7.516 -0.9318 -0.3487 -0.1331
 1579SOL    HW116373   2.259   2.715   7.498 -0.9855  1.1713 -1.6553
 1579SOL    HW216374   2.353   2.757   7.609  1.2067  2.6327 -0.8562
 1580SOL     OW16375   1.131   3.490   3.367 -0.6291  0.2110 -0.1293
 1580SOL    HW116376   1.045   3.460   3.338 -1.6187  2.3740  0.5250
 1580SOL    HW216377   1.180   3.436   3.306  0.5648  1.7830 -0.5497
 1581SOL     OW16378   1.742   2.596   5.313  0.2099 -0.2530 -0.3527
 1581SOL    HW116379   1.754   2.507   5.278  1.1997 -0.4059  0.3602
 1581SOL    HW216380   1.833   2.623   5.325  0.8210 -0.9256 -3.4265
 1582SOL     OW16381   0.708   3.693   7.287  0.6169 -0.5012 -0.1350
 1582SOL    HW116382   0.766   3.761   7.321 -0.7605  0.8198 -0.4246
 1582SOL    HW216383   0.740   3.619   7.340 -2.0334 -1.2366  0.4460
 1583SOL     OW16384   3.368   2.739  10.713 -0.2629  0.1571  0.0755
 1583SOL    HW116385   3.381   2.717  10.805  1.0969  1.1704  0.1326
 1583SOL    HW216386   3.377   2.834  10.722 -2.6939  0.4060 -0.1904
 1584SOL     OW16387   3.877   3.626   9.259 -0.4708 -0.5182  0.0592
 1584SOL    HW116388   3.835   3.540   9.252  1.2720 -1.4682  1.2232
 1584SOL    HW216389   3.818   3.660   9.326 -1.0248 -0.5284 -0.4265
 1585SOL     OW16390   3.240   4.060   4.324  0.2601 -0.3061 -0.5604
 1585SOL    HW116391   3.334   4.068   4.307  0.1538  2.4451  0.0906
 1585SOL    HW216392   3.243   4.020   4.411 -1.0896  1.5605  0.3407
 1586SOL     OW16393   0.025   1.592  15.235  0.2105  0.1293  0.0144
 1586SOL    HW116394   4.666   1.586  15.238  0.1407  0.7516 -0.9205
 1586SOL    HW216395   0.046   1.502  15.208 -1.6326 -0.2768 -0.0338
 1587SOL     OW16396   3.113   4.161  12.240 -0.1503  0.0155 -0.4077
 1587SOL    HW116397   3.115   4.083  12.186 -2.7527 -1.0022  0.9760
 1587SOL    HW216398   3.019   4.181  12.234  0.2554  1.8524 -0.8312
 1588SOL     OW16399   1.085   1.677  13.111 -0.7415 -0.1951  0.3822
 1588SOL    HW116400   1.105   1.737  13.039  1.8560 -0.1077  1.1664
 1588SOL    HW216401   0.999   1.709  13.139 -0.2263  1.2814  0.2970
 1589SOL     OW16402   1.758   0.302   1.626  0.1248  0.3122  0.1882
 1589SOL    HW116403   1.800   0.283   1.543 -0.0175  0.4693  0.0807
 1589SOL    HW216404   1.700   0.377   1.612 -1.7333 -0.9200  1.3261
 1590SOL     OW16405   0.232   0.779   5.385  0.0625  0.3179 -0.0951
 1590SOL    HW116406   0.166   0.838   5.419  1.1288  0.5964  1.4721
 1590SOL    HW216407   0.300   0.786   5.452 -1.1023 -0.6933  1.1659
 1591SOL     OW16408   0.486   0.216   6.029  0.1933 -0.1257  0.0761
 1591SOL    HW116409   0.481   0.296   6.082 -0.0973 -0.9287  1.2395
 1591SOL    HW216410   0.529   0.151   6.085  0.3705 -0.3413 -0.3058
 1592SOL     OW16411   3.456   4.464   3.126  0.4247 -0.3780  0.1042
 1592SOL    HW116412   3.430   4.471   3.035 -0.6738 -0.1003  0.4416
 1592SOL    HW216413   3.373   4.463   3.174 -0.0134  1.3547 -0.6365
 1593SOL     OW16414   4.616   2.190   5.157 -0.5186 -0.7798 -0.4706
 1593SOL    HW116415   4.706   2.223   5.168 -0.2309 -1.8962  0.5906
 1593SOL    HW216416   4.586   2.263   5.104  2.0082 -0.1853 -1.0970
 1594SOL     OW16417   0.097   2.824  13.241 -0.2145 -0.0577  0.3513
 1594SOL    HW116418   0.128   2.800  13.329  2.3861 -0.4950 -0.6803
 1594SOL    HW216419   0.155   2.773  13.183  1.1279  2.4965 -0.5271
 1595SOL     OW16420   1.274   3.149   5.494 -0.1633 -0.2652 -0.3364
 1595SOL    HW116421   1.184   3.122   5.474 -0.6427 -0.1558  1.5793
 1595SOL    HW216422   1.300   3.077   5.552 -4.3120 -2.0682 -0.7181
 1596SOL     OW16423   1.713   2.906   9.516  0.1153  0.0384 -0.2454
 1596SOL    HW116424   1.660   2.971   9.562  1.3078  1.9087 -1.5355
 1596SOL    HW216425   1.704   2.833   9.577 -1.6669  0.5827  0.1125
 1597SOL     OW16426   4.400   2.767  11.690  0.3566  0.0721  0.2504
 1597SOL    HW116427   4.469   2.704  11.713 -0.2561 -0.3414  0.9341
 1597SOL    HW216428   4.369   2.723  11.611 -0.2575  1.3268 -0.2110
 1598SOL     OW16429   2.175   0.519   3.387 -0.2351 -0.3760  0.1339
 1598SOL    HW116430   2.121   0.578   3.335  2.2714  0.4824 -1.5142
 1598SOL    HW216431   2.106   0.468   3.429 -1.4772  0.7968 -0.4701
 1599SOL     OW16432   3.154   1.244   6.236  0.0783 -1.0901  0.0305
 1599SOL    HW116433   3.192   1.252   6.149 -0.8913  1.4726 -0.1585
 1599SOL    HW216434   3.230   1.240   6.295 -0.1138 -1.8655  0.2135
 1600SOL     OW16435   4.219   1.012  16.488  0.2565 -0.2203  0.6713
 1600SOL    HW116436   4.166   1.079  16.531 -1.5148 -0.0795 -1.7464
 1600SOL    HW216437   4.181   0.927  16.511 -0.5504  0.2834  1.1885
 1601SOL     OW16438   3.066   0.409   3.750 -0.5273  0.2982  0.6931
 1601SOL    HW116439   3.056   0.363   3.666  0.2878  2.2640 -0.4826
 1601SOL    HW216440   3.110   0.342   3.802  1.4467  0.1939 -1.0814
 1602SOL     OW16441   4.227   4.503   9.537  0.4352  0.2580  0.5638
 1602SOL    HW116442   4.211   4.408   9.533  0.6118  0.2780 -0.7128
 1602SOL    HW216443   4.296   4.504   9.602  1.3168 -1.4387 -0.3327
 1603SOL     OW16444   3.347   2.361   7.815 -0.1550 -0.0425  0.1419
 1603SOL    HW116445   3.421   2.421   7.811  0.3430 -0.5413  1.6512
 1603SOL    HW216446   3.369   2.283   7.867  3.1409 -0.0108 -1.1794
 1604SOL     OW16447   2.184   3.648   4.013 -0.0420 -0.1680 -0.0712
 1604SOL    HW116448   2.147   3.711   4.075  1.1672  0.9962 -0.4995
 1604SOL    HW216449   2.137   3.662   3.931  0.4930 -0.1731 -0.3791
 1605SOL     OW16450   2.033   1.306   3.360 -0.1259  0.4210  0.0710
 1605SOL    HW116451   2.054   1.213   3.364 -0.0262  0.3875 -1.3016
 1605SOL    HW216452   1.977   1.321   3.437 -0.4127  0.3361 -0.1211
 1606SOL     OW16453   0.704   3.570  17.342  0.3865 -0.4010 -0.3688
 1606SOL    HW116454   0.676   3.522  17.420  3.0510 -2.0029 -0.4029
 1606SOL    HW216455   0.706   3.499  17.278  0.5235  0.4320 -1.2877
 1607SOL     OW16456   1.281   1.804   1.464  0.0316 -0.1448  0.5905
 1607SOL    HW116457   1.253   1.714   1.446 -1.5661  0.5995 -0.6971
 1607SOL    HW216458   1.235   1.823   1.546 -0.8351  0.9388 -0.1392
 1608SOL     OW16459   3.433   1.771   7.809  0.0776 -0.1299  0.3684
 1608SOL    HW116460   3.375   1.783   7.885  0.4645 -0.7738  0.7589
 1608SOL    HW216461   3.407   1.683   7.783  2.2225 -1.1014  1.5783
 1609SOL     OW16462   3.334   3.687  16.817  0.0484 -0.4318 -0.0642
 1609SOL    HW116463   3.391   3.610  16.820  0.2217 -0.2856  0.3716
 1609SOL    HW216464   3.390   3.754  16.778  0.6112 -0.8531  0.0118
 1610SOL     OW16465   1.215   3.269   6.176 -0.3740  0.1096  0.5114
 1610SOL    HW116466   1.306   3.290   6.157 -1.3448  1.6379 -2.3723
 1610SOL    HW216467   1.227   3.203   6.245 -2.6091 -2.9819 -2.0486
 1611SOL     OW16468   2.581   2.627   3.814  0.3553  0.2932 -0.2698
 1611SOL    HW116469   2.627   2.578   3.881 -0.9187 -1.0357 -0.3772
 1611SOL    HW216470   2.499   2.649   3.857  0.1531  0.2758 -0.6445
 1612SOL     OW16471   4.417   0.388  13.714  0.3818 -0.1472 -0.3951
 1612SOL    HW116472   4.512   0.380  13.721  0.3865  0.7775  0.6560
 1612SOL    HW216473   4.403   0.449  13.786 -2.4720 -1.2162 -0.0498
 1613SOL     OW16474   4.482   0.698  10.137 -0.3570 -0.2007 -0.5539
 1613SOL    HW116475   4.496   0.621  10.193  1.1602  0.7707  0.4181
 1613SOL    HW216476   4.560   0.698  10.081  0.1929 -0.3472  0.2118
 1614SOL     OW16477   3.636   0.198   3.159  0.0832  0.2940  0.3687
 1614SOL    HW116478   3.578   0.256   3.109 -0.7025 -0.2666  0.6253
 1614SOL    HW216479   3.570   0.158   3.216 -2.0860  0.5434 -1.9445
 1615SOL     OW16480   1.161   1.137   3.833 -0.0848 -0.2432 -0.0487
 1615SOL    HW116481   1.179   1.047   3.860 -1.6714 -0.5947 -0.1371
 1615SOL    HW216482   1.074   1.129   3.794 -0.6169 -0.3988  1.1806
 1616SOL     OW16483   1.610   4.032   2.296 -0.6918 -0.0502 -0.2966
 1616SOL    HW116484   1.605   4.061   2.205  0.5338 -0.0990 -0.3887
 1616SOL    HW216485   1.520   4.002   2.304  0.2262 -2.9742 -0.8852
 1617SOL     OW16486   0.091   4.582   7.655  0.4275 -0.3858  0.4631
 1617SOL    HW116487   0.043   4.509   7.617 -0.4659  0.2227  0.4234
 1617SOL    HW216488   0.077   4.562   7.748  1.7669 -1.3995  0.4531
 1618SOL     OW16489   3.688   1.125  13.930  0.0529  0.2280  0.2168
 1618SOL    HW116490   3.676   1.057  13.997 -1.4976  0.5646  0.2735
 1618SOL    HW216491   3.680   1.076  13.848  0.2048 -1.0588  0.9624
 1619SOL     OW16492   0.407   4.156  13.497  0.0873  0.5720 -0.3807
 1619SOL    HW116493   0.392   4.226  13.433  0.8004  0.8116 -0.2888
 1619SOL    HW216494   0.435   4.087  13.436  0.5275 -1.2078  1.8445
 1620SOL     OW16495   0.407   2.776   1.305  0.2500 -0.3348  0.0535
 1620SOL    HW116496   0.445   2.710   1.247  0.3415  1.1081 -1.5295
 1620SOL    HW216497   0.316   2.746   1.303  0.3870 -0.6986 -1.0322
 1621SOL     OW16498   3.245   4.394   8.025 -0.2208 -0.1539 -0.1573
 1621SOL    HW116499   3.287   4.455   8.086  3.3494 -0.5709 -2.1895
 1621SOL    HW216500   3.180   4.352   8.081  1.0848 -0.4814  1.1374
 1622SOL     OW16501   0.953   4.422   4.513 -0.3798  0.8223  0.1876
 1622SOL    HW116502   0.963   4.424   4.418 -1.1379  1.5400  0.1208
 1622SOL    HW216503   0.976   4.329   4.511 -0.7311  0.7254  0.8925
 1623SOL     OW16504   2.555   3.954   2.312 -0.4069  0.1735  0.2293
 1623SOL    HW116505   2.461   3.973   2.317 -0.2193  1.4577 -1.0945
 1623SOL    HW216506   2.575   3.926   2.402  0.0912  1.4001  0.5019
 1624SOL     OW16507   1.451   1.593   6.051  0.3054 -0.0393 -0.1075
 1624SOL    HW116508   1.451   1.522   5.986 -0.4051  1.3479 -1.6016
 1624SOL    HW216509   1.497   1.552   6.125  1.5580 -0.8737 -1.3407
 1625SOL     OW16510   4.368   2.507   5.589  0.3857 -0.2831  0.0892
 1625SOL    HW116511   4.428   2.480   5.520 -0.0883 -1.5041  0.1651
 1625SOL    HW216512   4.289   2.463   5.559  0.1416  1.0246 -1.1925
 1626SOL     OW16513   1.302   1.083   2.690  1.0265  0.3157 -0.4514
 1626SOL    HW116514   1.279   0.993   2.668 -0.6585  0.7224 -0.3716
 1626SOL    HW216515   1.349   1.118   2.614  3.1724 -1.1305  0.2178
 1627SOL     OW16516   0.678   1.475   7.207  0.6687  0.9504 -0.1179
 1627SOL    HW116517   0.708   1.556   7.248 -0.9735  1.4485  0.1231
 1627SOL    HW216518   0.641   1.504   7.123  1.5370  1.7014 -0.2420
 1628SOL     OW16519   2.122   1.215   7.794  0.0674 -0.0406 -0.0452
 1628SOL    HW116520   2.093   1.149   7.857 -0.8574 -0.1703 -0.6143
 1628SOL    HW216521   2.200   1.246   7.840 -0.7346 -0.9852  1.9479
 1629SOL     OW16522   0.470   0.787   5.546 -0.0621 -0.9205 -0.0863
 1629SOL    HW116523   0.449   0.835   5.626 -1.7890  0.0479 -1.1244
 1629SOL    HW216524   0.564   0.778   5.564  0.2735  2.3538 -0.1145
 1630SOL     OW16525   2.217   2.038   5.474 -0.2746  0.6310 -0.2597
 1630SOL    HW116526   2.238   1.965   5.415  0.2728 -1.1337  2.1097
 1630SOL    HW216527   2.166   2.087   5.410 -0.7396  0.3180 -0.1281
 1631SOL     OW16528   1.782   3.363  17.019 -0.3328  0.1060 -0.2642
 1631SOL    HW116529   1.875   3.363  17.000  0.0089  1.1247  1.3460
 1631SOL    HW216530   1.749   3.417  16.947  1.5100 -0.8023 -1.7679
 1632SOL     OW16531   3.683   1.849   7.737  0.5094 -0.7379  0.6747
 1632SOL    HW116532   3.594   1.821   7.756 -0.0881  1.2883  0.8401
 1632SOL    HW216533   3.713   1.778   7.680  0.8684  0.4084 -0.5608
 1633SOL     OW16534   2.983   3.030   7.488  0.6485  0.6218 -0.3774
 1633SOL    HW116535   2.899   3.018   7.534  0.9614 -0.3398 -0.0514
 1633SOL    HW216536   3.043   3.007   7.559  2.1120  0.6056 -1.6446
 1634SOL     OW16537   3.165   4.468  10.248 -0.6548 -0.4070  0.1328
 1634SOL    HW116538   3.218   4.393  10.274  0.0804 -0.3389 -1.1668
 1634SOL    HW216539   3.174   4.465  10.153 -0.2710 -0.0255  0.1587
 1635SOL     OW16540   0.423   0.417   8.600  0.0638  0.4140  0.3816
 1635SOL    HW116541   0.477   0.476   8.653 -0.0346  3.6356 -3.0919
 1635SOL    HW216542   0.423   0.335   8.649 -1.6400  0.2262  0.0789
 1636SOL     OW16543   3.504   0.537   0.158  0.4562 -0.2895  0.4992
 1636SOL    HW116544   3.436   0.490   0.206 -0.7033  1.1119  0.2284
 1636SOL    HW216545   3.449   0.577   0.090 -0.5176 -0.5787  1.1174
 1637SOL     OW16546   0.887   2.413   7.245  0.0328 -0.3084 -0.1560
 1637SOL    HW116547   0.872   2.341   7.183  1.9906 -0.3784 -0.5339
 1637SOL    HW216548   0.896   2.363   7.326 -0.4391  0.1253  0.1634
 1638SOL     OW16549   2.046   2.637   8.226 -0.3732  0.5975  0.3158
 1638SOL    HW116550   1.989   2.625   8.150  1.9788  0.2164 -1.3870
 1638SOL    HW216551   2.039   2.732   8.235 -0.0270  0.7345 -0.9052
 1639SOL     OW16552   2.944   0.985   5.552  0.4766  0.5017  0.3394
 1639SOL    HW116553   2.942   1.055   5.487 -0.8494  0.5649  0.4366
 1639SOL    HW216554   3.033   0.954   5.535 -0.3367 -0.6286 -1.8867
 1640SOL     OW16555   3.803   2.480   8.861  0.1011 -0.7558 -0.0979
 1640SOL    HW116556   3.869   2.424   8.903 -0.1722 -1.1301 -0.1620
 1640SOL    HW216557   3.843   2.516   8.782 -0.7495  0.6559  0.1211
 1641SOL     OW16558   1.012   2.488   4.372 -0.2082 -0.3722  0.1078
 1641SOL    HW116559   0.926   2.458   4.343 -0.7345  1.4950 -0.2410
 1641SOL    HW216560   1.057   2.404   4.363  2.3070  0.8061  1.5207
 1642SOL     OW16561   2.052   3.670   3.766  0.0434  0.0471  0.3768
 1642SOL    HW116562   1.989   3.742   3.776 -0.8329 -0.5508 -0.8653
 1642SOL    HW216563   1.997   3.600   3.802  1.7024 -1.6301 -0.3482
 1643SOL     OW16564   1.745   1.574   2.416  0.2413  0.1970 -0.7555
 1643SOL    HW116565   1.746   1.668   2.433 -0.8391  0.4724 -2.2345
 1643SOL    HW216566   1.682   1.576   2.344 -0.0691  2.1499 -0.4338
 1644SOL     OW16567   4.369   3.835   3.387 -0.5705 -0.2212  0.0605
 1644SOL    HW116568   4.460   3.803   3.382 -0.1078  0.9207  1.1563
 1644SOL    HW216569   4.318   3.759   3.358 -1.6184  0.0126  1.2966
 1645SOL     OW16570   1.185   4.228   3.680 -0.0790  0.2966 -0.4748
 1645SOL    HW116571   1.143   4.313   3.685  0.7030  0.6753 -0.2329
 1645SOL    HW216572   1.138   4.179   3.748 -0.7897  0.4769 -0.8459
 1646SOL     OW16573   1.897   0.155  12.495 -0.2420  0.0512  0.1903
 1646SOL    HW116574   1.922   0.234  12.447 -1.4247 -0.1689 -0.8041
 1646SOL    HW216575   1.803   0.168  12.477 -0.6982 -1.3427  1.5486
 1647SOL     OW16576   0.390   4.029   5.386 -0.4279  0.2027  0.0678
 1647SOL    HW116577   0.354   4.049   5.472  1.9665  0.8780  0.9235
 1647SOL    HW216578   0.419   4.119   5.374  0.5178 -0.0516  0.4616
 1648SOL     OW16579   3.094   3.681   5.986 -0.1383 -0.3507  0.1100
 1648SOL    HW116580   3.143   3.736   6.047 -0.4595 -1.4042  1.3215
 1648SOL    HW216581   3.122   3.723   5.904  1.0423 -0.2965  0.5400
 1649SOL     OW16582   1.088   0.383  17.220  0.0719  0.0252  0.3236
 1649SOL    HW116583   1.035   0.458  17.247  0.8745  0.9850 -0.7388
 1649SOL    HW216584   1.128   0.421  17.141 -1.2937 -0.4838 -0.6122
 1650SOL     OW16585   1.121   2.034   3.431 -0.2456 -0.3339 -0.0718
 1650SOL    HW116586   1.072   2.112   3.457 -0.8316 -0.5311 -0.6009
 1650SOL    HW216587   1.213   2.048   3.452 -0.9064 -0.2422  2.7876
 1651SOL     OW16588   4.160   1.243   4.853  0.0140  0.2471  0.2796
 1651SOL    HW116589   4.128   1.190   4.927 -1.0288 -1.5840 -1.4744
 1651SOL    HW216590   4.073   1.268   4.821 -0.4418  0.3816  1.6190
 1652SOL     OW16591   2.435   3.951   6.001  0.2161  0.3917  0.1813
 1652SOL    HW116592   2.408   3.864   5.970 -1.9297  0.7524  1.0210
 1652SOL    HW216593   2.518   3.933   6.044 -0.5835 -1.2320  1.0494
 1653SOL     OW16594   4.530   1.359   2.342 -0.0063  0.0102  0.3201
 1653SOL    HW116595   4.542   1.398   2.256 -0.1134  0.8847  0.7019
 1653SOL    HW216596   4.605   1.390   2.394  1.1238 -1.4832 -0.4302
 1654SOL     OW16597   0.069   1.008   3.159 -0.6931  0.6311 -0.2369
 1654SOL    HW116598   0.130   0.957   3.106 -0.6678 -0.0448  0.4462
 1654SOL    HW216599   4.723   0.985   3.117 -0.7416  0.3099  0.0323
 1655SOL     OW16600   3.184   2.402   4.811  0.1751 -0.0365  0.4372
 1655SOL    HW116601   3.146   2.447   4.736 -0.5075 -0.8579  0.2868
 1655SOL    HW216602   3.110   2.341   4.814 -0.8864  1.3851  3.3089
 1656SOL     OW16603   3.256   3.115   8.770 -0.2523  0.1512 -0.2216
 1656SOL    HW116604   3.247   3.020   8.771 -0.2307  0.1309 -1.6600
 1656SOL    HW216605   3.214   3.145   8.850  1.3581  0.1308  0.6164
 1657SOL     OW16606   1.283   4.011   5.071  0.3453 -0.0472  0.1038
 1657SOL    HW116607   1.211   4.041   5.015 -0.0560  1.4209  1.4208
 1657SOL    HW216608   1.330   4.093   5.083 -0.4585  0.6084 -1.1394
 1658SOL     OW16609   4.339   4.399   3.127  0.4162  0.6137  0.0764
 1658SOL    HW116610   4.397   4.372   3.199  0.9388  2.6882  0.4279
 1658SOL    HW216611   4.391   4.449   3.064  0.4555 -0.7933 -1.0081
 1659SOL     OW16612   1.821   4.657   6.413 -0.1103  0.0431  0.2512
 1659SOL    HW116613   1.874   4.578   6.400 -0.5243 -0.1252 -0.4044
 1659SOL    HW216614   1.755   4.626   6.350 -1.3695  2.9130  0.1651
 1660SOL     OW16615   4.159   1.916   4.371 -0.6003 -0.3784 -0.3051
 1660SOL    HW116616   4.097   1.846   4.351 -0.4251 -0.7607  0.4972
 1660SOL    HW216617   4.166   1.926   4.466 -0.5776  1.1660 -0.4778
 1661SOL     OW16618   1.654   1.686   4.186  0.1763  0.0545 -0.4504
 1661SOL    HW116619   1.719   1.706   4.253  1.1056 -2.6599 -0.5495
 1661SOL    HW216620   1.589   1.747   4.221 -1.0173 -0.7062 -1.3175
 1662SOL     OW16621   3.028   2.058   5.449  0.2014  0.1293  0.3105
 1662SOL    HW116622   2.989   1.971   5.447 -2.4156  1.2380  2.0605
 1662SOL    HW216623   3.117   2.038   5.422  0.5915 -1.1731  2.5171
 1663SOL     OW16624   0.610   0.205   8.436 -0.1293  0.4676  0.0531
 1663SOL    HW116625   0.573   0.160   8.512  0.9514  3.9317  2.6971
 1663SOL    HW216626   0.538   0.216   8.374 -0.4918 -0.2299  0.3498
 1664SOL     OW16627   3.863   1.446  14.253 -0.4174 -0.2960 -0.6939
 1664SOL    HW116628   3.857   1.366  14.202  0.1222  1.8264 -4.0719
 1664SOL    HW216629   3.954   1.471  14.235 -0.6549 -0.3364 -1.9290
 1665SOL     OW16630   0.644   2.584   3.832  0.2420 -0.5645  0.3853
 1665SOL    HW116631   0.623   2.674   3.808  0.6469 -0.4873  0.3106
 1665SOL    HW216632   0.569   2.568   3.889  0.8246 -1.1833  0.9832
 1666SOL     OW16633   2.244   0.943  11.591  1.1528 -0.0358 -0.3486
 1666SOL    HW116634   2.299   0.985  11.526 -0.9646  4.3556  0.6941
 1666SOL    HW216635   2.158   0.943  11.550  1.2624 -1.5701 -0.5658
 1667SOL     OW16636   2.405   0.626   1.499 -0.0320  0.3426  0.3698
 1667SOL    HW116637   2.412   0.556   1.563  3.4891  2.5937  2.4169
 1667SOL    HW216638   2.381   0.696   1.559 -1.5636  0.4425 -0.3474
 1668SOL     OW16639   3.214   4.704   7.014 -0.0248  0.1404 -0.4789
 1668SOL    HW116640   3.162   0.046   7.025  1.6095  1.3309 -1.3105
 1668SOL    HW216641   3.141   4.641   7.014  1.0594 -1.1262 -0.8123
 1669SOL     OW16642   0.047   1.155   2.600 -0.4896  0.2772  0.0719
 1669SOL    HW116643   4.713   1.186   2.656  1.2018  0.7446  1.9712
 1669SOL    HW216644   4.731   1.164   2.521 -2.1563 -0.4927  1.0844
 1670SOL     OW16645   2.861   4.287  14.021  0.5329  0.1198 -0.5278
 1670SOL    HW116646   2.928   4.218  14.026  0.4984  0.2086  1.2339
 1670SOL    HW216647   2.828   4.268  13.933 -1.8108  0.3839  0.2947
 1671SOL     OW16648   4.621   1.797   9.732  0.2630 -0.6242  0.1419
 1671SOL    HW116649   4.703   1.757   9.704  0.4587 -0.2148  0.1256
 1671SOL    HW216650   4.593   1.734   9.798  0.9310  1.9426  2.8833
 1672SOL     OW16651   3.044   4.499   1.533 -0.0209  0.3306 -0.2201
 1672SOL    HW116652   3.120   4.539   1.574 -1.3942 -0.3297  3.0077
 1672SOL    HW216653   3.084   4.421   1.495  0.5824  0.7954 -0.5396
 1673SOL     OW16654   2.397   1.865   2.463 -0.5435 -0.8218 -1.0297
 1673SOL    HW116655   2.397   1.956   2.491  0.4118 -1.3947  0.7854
 1673SOL    HW216656   2.304   1.840   2.470 -0.4123 -0.7271  0.9316
 1674SOL     OW16657   1.655   1.785   9.327 -1.1866 -0.1964  0.1215
 1674SOL    HW116658   1.653   1.706   9.273  2.9957 -0.1580 -0.1115
 1674SOL    HW216659   1.651   1.853   9.259 -0.1738 -1.2142 -0.9634
 1675SOL     OW16660   1.453   4.053   6.465 -0.0601  0.3101 -0.2990
 1675SOL    HW116661   1.465   4.075   6.557  1.3461 -1.1766 -0.1256
 1675SOL    HW216662   1.364   4.020   6.466  0.8947 -2.2460 -1.0001
 1676SOL     OW16663   2.360   4.374   8.570  0.0425  0.1045  0.7575
 1676SOL    HW116664   2.332   4.465   8.560 -0.7078 -0.1403  0.6323
 1676SOL    HW216665   2.282   4.325   8.541 -1.4999  2.9878  0.0467
 1677SOL     OW16666   2.653   3.993  11.781 -0.1964  0.3259 -0.2368
 1677SOL    HW116667   2.560   3.968  11.782 -0.4120  1.1042 -1.4715
 1677SOL    HW216668   2.665   3.986  11.876 -2.1667 -1.9437 -0.1562
 1678SOL     OW16669   3.618   3.384   4.444  0.1274 -0.3386 -0.5392
 1678SOL    HW116670   3.662   3.400   4.361 -3.5462 -2.1226 -2.8437
 1678SOL    HW216671   3.631   3.291   4.459  0.6081 -0.2146 -0.1924
 1679SOL     OW16672   4.112   1.320  14.969 -0.1837 -0.2819 -0.9041
 1679SOL    HW116673   4.035   1.359  14.925 -0.0127 -2.3975 -3.0974
 1679SOL    HW216674   4.065   1.279  15.041  2.2645  0.4934  1.0939
 1680SOL     OW16675   4.235   3.686   3.093 -0.0044 -0.3432  0.2646
 1680SOL    HW116676   4.199   3.673   3.180  1.5910  1.4443  1.1886
 1680SOL    HW216677   4.247   3.781   3.082 -0.8279 -0.4790 -1.9680
 1681SOL     OW16678   4.222   3.188   8.679 -0.1598 -0.0738 -0.6355
 1681SOL    HW116679   4.225   3.150   8.767 -1.0734  0.7565 -0.2445
 1681SOL    HW216680   4.303   3.159   8.637  0.9064  2.7123 -0.4687
 1682SOL     OW16681   0.817   4.587   4.178 -0.0426  0.3444  0.1515
 1682SOL    HW116682   0.761   4.566   4.253 -0.8231 -1.6701 -1.0013
 1682SOL    HW216683   0.750   4.619   4.118  0.6364  2.9314  0.7671
 1683SOL     OW16684   4.274   3.720   5.920  0.0378 -0.2800  0.3624
 1683SOL    HW116685   4.241   3.804   5.950  1.7855 -0.0077  1.5215
 1683SOL    HW216686   4.292   3.672   6.001  1.2265 -0.1189  0.1931
 1684SOL     OW16687   1.886   1.848   9.135  0.8141  0.3305 -0.8046
 1684SOL    HW116688   1.874   1.943   9.141 -2.6016 -0.2159  0.8861
 1684SOL    HW216689   1.813   1.836   9.075 -0.2982 -1.9218  1.0023
 1685SOL     OW16690   0.627   1.872   8.867  0.1091 -0.5932  0.1203
 1685SOL    HW116691   0.584   1.839   8.788 -1.1322 -2.0899  1.4362
 1685SOL    HW216692   0.624   1.964   8.840 -1.7018 -0.6650  0.0943
 1686SOL     OW16693   0.088   4.602  16.318  0.9040 -0.4002  0.0985
 1686SOL    HW116694   0.153   4.671  16.334 -0.8778  1.0937  0.8316
 1686SOL    HW216695   0.056   4.634  16.234  0.4432 -0.4876  0.2440
 1687SOL     OW16696   3.914   0.403   6.012  0.0892  0.0849  0.4606
 1687SOL    HW116697   4.006   0.401   5.985  0.5875  1.4472  2.0425
 1687SOL    HW216698   3.878   0.458   5.942  2.7934 -0.7269 -1.5992
 1688SOL     OW16699   0.015   2.671   6.624  0.4454 -0.4441  0.4338
 1688SOL    HW116700   4.670   2.627   6.646 -0.5228  1.7523  1.1949
 1688SOL    HW216701   4.730   2.731   6.552 -3.6478 -2.5984 -0.1240
 1689SOL     OW16702   3.652   3.890   4.102  0.4348  0.4858  0.4207
 1689SOL    HW116703   3.565   3.851   4.112  0.3939  0.6080  0.5359
 1689SOL    HW216704   3.700   3.837   4.166 -1.7074 -1.9430  0.0538
 1690SOL     OW16705   2.809   4.605   2.265  0.2188 -0.4136  0.1001
 1690SOL    HW116706   2.868   4.560   2.326  0.0894  0.2155  0.6897
 1690SOL    HW216707   2.758   4.654   2.330 -0.5841  0.1683 -0.9844
 1691SOL     OW16708   4.633   2.621   1.771  0.1367 -0.4225  0.0717
 1691SOL    HW116709   4.719   2.623   1.729  0.1287  0.9720  0.1005
 1691SOL    HW216710   4.648   2.675   1.849  1.8654 -0.0362 -0.5379
 1692SOL     OW16711   3.651   0.593  15.694  0.2660  0.7767  0.0958
 1692SOL    HW116712   3.619   0.683  15.683 -1.3381 -0.0776 -2.0905
 1692SOL    HW216713   3.606   0.569  15.613  2.3685  1.4456 -1.2619
 1693SOL     OW16714   0.346   0.747  11.156 -0.5838  0.4906  0.5795
 1693SOL    HW116715   0.326   0.811  11.224  0.4137 -0.0543  1.3717
 1693SOL    HW216716   0.438   0.770  11.149 -0.7997  0.2499 -3.0391
 1694SOL     OW16717   0.825   3.950   3.238  0.3818  0.2907 -0.5922
 1694SOL    HW116718   0.755   3.958   3.174  0.6134 -0.7257 -0.9731
 1694SOL    HW216719   0.863   3.867   3.208 -1.1422 -0.1545 -1.2585
 1695SOL     OW16720   3.874   4.453  11.023  0.2231  0.4849 -0.3723
 1695SOL    HW116721   3.949   4.502  10.991  1.6969 -1.6666 -0.1709
 1695SOL    HW216722   3.913   4.367  11.016  0.7181  0.6340  0.5797
 1696SOL     OW16723   0.131   1.516   8.447  0.2204 -0.0209  0.0306
 1696SOL    HW116724   0.212   1.505   8.396  0.8926 -2.2142  1.5560
 1696SOL    HW216725   0.167   1.577   8.510  2.2454  0.9365 -2.0540
 1697SOL     OW16726   1.628   1.611  11.537 -0.4598  0.1869 -0.3396
 1697SOL    HW116727   1.647   1.703  11.556  0.9373 -1.0562  4.2978
 1697SOL    HW216728   1.677   1.565  11.604 -2.2963  1.1430  1.6599
 1698SOL     OW16729   3.751   2.101   8.712  0.2761 -0.0602  0.5445
 1698SOL    HW116730   3.792   2.100   8.798  2.3477  0.6811 -0.4537
 1698SOL    HW216731   3.661   2.095   8.745  0.3043 -0.2710  0.5840
 1699SOL     OW16732   3.489   0.075  17.364  0.0009 -0.8536  0.1204
 1699SOL    HW116733   3.560   0.129  17.332 -2.9575  1.4116 -2.5800
 1699SOL    HW216734   3.435   0.052  17.288  0.9227  1.5606 -1.2582
 1700SOL     OW16735   3.487   1.643   8.165 -0.1985  0.5312 -0.1744
 1700SOL    HW116736   3.483   1.693   8.247 -1.9261  1.5912 -0.9135
 1700SOL    HW216737   3.530   1.711   8.113  1.4894 -0.3679  0.0731
 1701SOL     OW16738   3.107   1.688   3.434 -0.5335 -0.1528  0.4561
 1701SOL    HW116739   3.148   1.667   3.517 -1.4761 -1.0483  0.6936
 1701SOL    HW216740   3.024   1.641   3.440 -0.6510  0.0776  0.6419
 1702SOL     OW16741   1.003   2.354  12.238  0.6956  0.1614  0.2356
 1702SOL    HW116742   1.029   2.431  12.188  1.1835  0.1807  0.5196
 1702SOL    HW216743   1.080   2.336  12.291 -0.6722 -1.3741  1.7124
 1703SOL     OW16744   1.439   3.684   2.747  0.2409 -0.1621  0.9757
 1703SOL    HW116745   1.352   3.700   2.708 -0.7706  2.2041  4.2470
 1703SOL    HW216746   1.406   3.624   2.813  1.8695 -1.0156  0.9974
 1704SOL     OW16747   2.261   4.387  14.201 -0.1921  0.4814  0.1155
 1704SOL    HW116748   2.247   4.471  14.245  0.0028 -0.1680  1.4004
 1704SOL    HW216749   2.344   4.413  14.163 -0.1299  1.1956  0.7337
 1705SOL     OW16750   0.340   0.308   8.354  0.1056 -0.6681 -0.6379
 1705SOL    HW116751   0.276   0.362   8.308 -0.6087 -0.4811  0.5816
 1705SOL    HW216752   0.350   0.351   8.439 -1.0564 -0.7691 -0.4561
 1706SOL     OW16753   0.300   2.924   7.466  0.8019 -0.1723 -0.4993
 1706SOL    HW116754   0.370   2.987   7.482  1.8562 -1.2891 -0.7358
 1706SOL    HW216755   0.253   2.972   7.397  0.1947 -1.0730 -0.7089
 1707SOL     OW16756   4.511   2.488   1.466  0.2149 -0.0190  0.3033
 1707SOL    HW116757   4.485   2.547   1.395 -1.4400 -0.0789  0.8778
 1707SOL    HW216758   4.469   2.406   1.442  1.0617 -0.5261  0.5700
 1708SOL     OW16759   3.417   4.022   8.013 -0.3748 -0.0838 -0.3938
 1708SOL    HW116760   3.455   3.970   7.943 -0.8310  0.9907 -1.4493
 1708SOL    HW216761   3.325   4.015   7.987 -0.5533  1.3722 -0.1423
 1709SOL     OW16762   2.520   2.316  10.650  0.6274 -0.5995  0.1123
 1709SOL    HW116763   2.522   2.273  10.736  1.7797  0.6760  0.7284
 1709SOL    HW216764   2.499   2.236  10.601 -1.4153 -0.8726  1.4195
 1710SOL     OW16765   2.059   2.596   0.741 -0.4983  0.1701  0.3230
 1710SOL    HW116766   2.081   2.652   0.666 -0.7887 -0.9477 -0.5972
 1710SOL    HW216767   2.139   2.598   0.793 -0.6698  0.5854  0.5701
 1711SOL     OW16768   2.789   2.404   1.132 -0.2318 -0.4726 -0.3995
 1711SOL    HW116769   2.843   2.482   1.138 -3.0039  1.4843 -0.7220
 1711SOL    HW216770   2.726   2.426   1.063 -0.1531 -0.0784 -0.3422
 1712SOL     OW16771   2.008   0.943   0.164 -1.2162 -0.3969 -0.3460
 1712SOL    HW116772   1.973   1.018   0.214  1.4613 -1.4914  3.1599
 1712SOL    HW216773   2.054   0.996   0.100  2.2169 -2.0347  0.7535
 1713SOL     OW16774   3.705   2.605  11.663  0.0345 -0.6072 -0.0243
 1713SOL    HW116775   3.796   2.626  11.643 -0.5448  0.4062 -1.6655
 1713SOL    HW216776   3.669   2.662  11.595  1.3487 -1.1592 -1.1934
 1714SOL     OW16777   1.649   1.081   2.375  1.0135 -0.1012 -0.0879
 1714SOL    HW116778   1.716   1.149   2.387 -0.0030  0.9581 -0.4225
 1714SOL    HW216779   1.692   1.041   2.299 -2.8469  0.3282 -2.4732
 1715SOL     OW16780   4.430   2.155   6.438  0.1122 -0.0964  0.1399
 1715SOL    HW116781   4.425   2.152   6.343 -0.7745 -1.7959  0.2460
 1715SOL    HW216782   4.359   2.216   6.457  1.5911  1.3475  1.1018
 1716SOL     OW16783   1.603   3.310   9.720 -0.3422 -0.4151  1.1972
 1716SOL    HW116784   1.554   3.375   9.770 -2.0705  1.0490 -2.4679
 1716SOL    HW216785   1.602   3.244   9.790 -2.5640  0.7538  2.2686
 1717SOL     OW16786   0.503   0.876  15.415 -0.0566 -0.1470  0.2701
 1717SOL    HW116787   0.414   0.840  15.413  0.8032 -2.2753 -0.2436
 1717SOL    HW216788   0.514   0.870  15.510  1.5670  1.3566  0.1796
 1718SOL     OW16789   2.522   0.074   6.024 -0.2019  0.4649 -0.3065
 1718SOL    HW116790   2.453   0.112   6.079 -0.3315 -1.1456  0.6507
 1718SOL    HW216791   2.546   4.731   6.070  0.7029  0.8957 -0.0200
 1719SOL     OW16792   1.880   3.626   2.165 -0.4305  0.3851  0.1057
 1719SOL    HW116793   1.811   3.668   2.215 -0.1047  1.4737 -0.3635
 1719SOL    HW216794   1.881   3.534   2.191 -1.5960  0.5068  0.5732
 1720SOL     OW16795   2.939   3.124   6.411 -0.4067  0.0492  0.2563
 1720SOL    HW116796   2.855   3.171   6.416  1.1102  2.6834  0.7834
 1720SOL    HW216797   2.970   3.150   6.497 -2.0000 -0.4019  0.9633
 1721SOL     OW16798   3.302   3.307  10.468  0.3639 -0.2452  0.2530
 1721SOL    HW116799   3.217   3.326  10.427  1.3526  1.0899 -1.1954
 1721SOL    HW216800   3.287   3.220  10.505  1.2709 -0.2710  0.5558
 1722SOL     OW16801   3.130   3.206   1.570 -0.0588  0.0496  0.6146
 1722SOL    HW116802   3.144   3.278   1.509 -2.7811  1.1925  1.3581
 1722SOL    HW216803   3.060   3.234   1.628  1.5464  0.0286  2.5814
 1723SOL     OW16804   0.131   2.298   5.170  0.4796  0.2219  0.1631
 1723SOL    HW116805   0.212   2.290   5.221  0.6289 -0.0692 -0.1211
 1723SOL    HW216806   0.138   2.372   5.110  2.1875 -0.4585 -0.4755
 1724SOL     OW16807   3.559   1.717  16.369  0.1078  0.7030 -0.2656
 1724SOL    HW116808   3.651   1.710  16.343  0.1208 -0.9906  0.2722
 1724SOL    HW216809   3.565   1.812  16.357  1.4848  0.9211  2.1670
 1725SOL     OW16810   1.316   1.339   4.944  0.1424 -0.0810 -0.3365
 1725SOL    HW116811   1.334   1.421   4.899  0.7176  0.0326  0.0974
 1725SOL    HW216812   1.399   1.307   4.980  0.0180 -1.1838 -1.0145
 1726SOL     OW16813   1.865   4.449   5.218 -0.3905 -0.1009 -0.4820
 1726SOL    HW116814   1.826   4.391   5.284  0.2307 -0.8361 -0.7532
 1726SOL    HW216815   1.900   4.519   5.274 -1.3273 -1.9498  2.4549
 1727SOL     OW16816   0.149   1.242  14.278  0.2122  0.0495  0.6722
 1727SOL    HW116817   0.183   1.329  14.301  1.1464 -1.2124  4.0722
 1727SOL    HW216818   0.105   1.210  14.357  0.5135  0.3253  0.9508
 1728SOL     OW16819   3.089   1.050   7.410 -0.1030  0.1803  0.3417
 1728SOL    HW116820   3.138   0.972   7.382 -0.2282  0.2162  0.0302
 1728SOL    HW216821   2.999   1.022   7.398  0.2975 -0.2024 -1.7331
 1729SOL     OW16822   2.341   2.236  15.783 -0.1699  0.4596  0.0004
 1729SOL    HW116823   2.286   2.173  15.736  0.1119  0.5014 -0.3906
 1729SOL    HW216824   2.410   2.173  15.806 -0.5116  0.1580  0.1992
 1730SOL     OW16825   0.469   0.735   2.686 -0.7478 -0.0358 -0.6808
 1730SOL    HW116826   0.456   0.723   2.780  1.5692 -0.4172 -0.4054
 1730SOL    HW216827   0.504   0.824   2.681  1.6487 -1.0444 -2.1071
 1731SOL     OW16828   4.180   1.771   7.262 -0.2910 -0.3741 -0.1979
 1731SOL    HW116829   4.101   1.819   7.238 -0.5539 -0.7094  0.0051
 1731SOL    HW216830   4.205   1.816   7.343 -1.1326 -1.5087  0.6895
 1732SOL     OW16831   3.057   3.817   7.655  0.1990 -0.4204  0.1620
 1732SOL    HW116832   3.050   3.857   7.742  0.8629 -0.5877  0.2878
 1732SOL    HW216833   2.986   3.861   7.609  0.0100 -0.5786  0.3000
 1733SOL     OW16834   4.472   3.910   6.853 -0.2583  0.3067  0.8302
 1733SOL    HW116835   4.408   3.883   6.920 -0.3792 -1.6391 -0.0578
 1733SOL    HW216836   4.550   3.857   6.870  0.4626  1.8025  2.1324
 1734SOL     OW16837   3.613   3.823  13.367  0.2927  0.0277  0.2304
 1734SOL    HW116838   3.663   3.803  13.446 -0.6630  0.5438  0.9647
 1734SOL    HW216839   3.649   3.906  13.335  0.7645  0.1456  1.0600
 1735SOL     OW16840   2.050   0.541   8.235 -0.1431 -0.3006  0.2774
 1735SOL    HW116841   2.095   0.572   8.156  1.2418 -4.2359 -0.4523
 1735SOL    HW216842   1.965   0.532   8.191  0.3943 -0.6959 -0.6753
 1736SOL     OW16843   2.656   1.848   8.260 -0.2247  0.0283  0.7329
 1736SOL    HW116844   2.704   1.777   8.218  1.3586  0.3119  2.0713
 1736SOL    HW216845   2.571   1.831   8.219  0.3613 -1.4940  0.1470
 1737SOL     OW16846   2.141   0.988   4.999 -0.7023 -0.3570 -0.5911
 1737SOL    HW116847   2.178   1.071   4.970  0.2842 -0.6715 -0.2137
 1737SOL    HW216848   2.105   1.001   5.086  0.0337  0.0902 -0.3582
 1738SOL     OW16849   2.447   2.072  15.469  0.0105 -0.1452 -0.1142
 1738SOL    HW116850   2.470   2.151  15.519  1.3028 -0.4851 -0.1843
 1738SOL    HW216851   2.514   2.069  15.401  1.1230 -1.8390  1.0641
 1739SOL     OW16852   2.923   4.541   2.926  0.2759 -0.1645  0.2370
 1739SOL    HW116853   2.866   4.470   2.956  1.5478 -1.1779  0.2351
 1739SOL    HW216854   3.006   4.515   2.965 -1.3782 -1.5237  2.8667
 1740SOL     OW16855   0.967   1.286  11.714  0.5005  0.3712  1.0181
 1740SOL    HW116856   0.949   1.237  11.794  0.1580  1.3163  1.5296
 1740SOL    HW216857   1.050   1.329  11.734 -0.1219  0.9862  2.3219
 1741SOL     OW16858   1.813   4.201  10.250  0.3986  0.1377  0.1808
 1741SOL    HW116859   1.787   4.111  10.233 -0.2150  0.4031 -0.2971
 1741SOL    HW216860   1.890   4.211  10.194  0.0933  1.9584  0.0661
 1742SOL     OW16861   0.794   2.449  12.101 -0.4153  0.6275  0.7414
 1742SOL    HW116862   0.713   2.397  12.100 -0.5685  0.8640  0.9820
 1742SOL    HW216863   0.860   2.380  12.104 -0.1821  0.7880 -0.4131
 1743SOL     OW16864   1.079   1.853   6.460  0.1433  0.2398 -0.0107
 1743SOL    HW116865   1.108   1.769   6.425  1.7553  0.2058  1.3893
 1743SOL    HW216866   1.148   1.859   6.526 -0.4281 -0.1455  0.6250
 1744SOL     OW16867   4.641   4.271   9.366 -0.4775 -0.1131  0.1222
 1744SOL    HW116868   4.706   4.324   9.413 -1.5473  0.2007  1.2455
 1744SOL    HW216869   4.565   4.269   9.424 -1.0118  0.2610 -0.5770
 1745SOL     OW16870   3.441   4.026   5.627  0.2444 -0.4036  0.0882
 1745SOL    HW116871   3.494   4.071   5.693 -1.0418  1.9317 -0.4709
 1745SOL    HW216872   3.503   3.959   5.598  1.6192  0.9348 -0.0477
 1746SOL     OW16873   3.543   1.367   4.606 -0.3650 -0.3163 -0.2866
 1746SOL    HW116874   3.534   1.372   4.701  0.9080 -3.7781  0.0378
 1746SOL    HW216875   3.452   1.349   4.583 -1.3050  1.0237  2.3501
 1747SOL     OW16876   4.080   1.343   3.734 -0.1165 -0.2222  0.3562
 1747SOL    HW116877   4.172   1.339   3.709  0.0235 -1.9829  1.1099
 1747SOL    HW216878   4.093   1.327   3.828  0.9463 -3.3855 -0.3392
 1748SOL     OW16879   4.163   4.680   9.853  0.1868 -0.4877  0.1700
 1748SOL    HW116880   4.238   4.644   9.900  1.4432 -0.7676 -2.0249
 1748SOL    HW216881   4.218   4.706   9.779 -0.7210 -0.7306 -0.6011
 1749SOL     OW16882   3.241   1.647   3.679 -0.0414  0.5540 -0.5001
 1749SOL    HW116883   3.336   1.658   3.683  0.0617 -0.7978  1.1661
 1749SOL    HW216884   3.204   1.680   3.762  2.4487  0.2990  0.7046
 1750SOL     OW16885   4.420   1.857   4.310  0.6853 -0.4845  0.4174
 1750SOL    HW116886   4.410   1.817   4.224  0.0721 -0.5497  0.5226
 1750SOL    HW216887   4.328   1.875   4.328  1.4592  1.1969  2.7338
 1751SOL     OW16888   2.015   1.009   3.706 -0.1628 -0.9029 -0.0827
 1751SOL    HW116889   1.953   0.940   3.728 -1.5071  0.0521 -0.8883
 1751SOL    HW216890   1.998   1.011   3.612 -0.8852 -1.0587  0.0401
 1752SOL     OW16891   1.061   2.612   4.822 -0.0996  0.0198 -0.6185
 1752SOL    HW116892   1.058   2.665   4.742  3.5954 -2.3935 -2.3397
 1752SOL    HW216893   1.103   2.670   4.886  0.1092 -1.2329  0.3785
 1753SOL     OW16894   3.883   0.030   8.529 -0.3206  0.2612 -0.0968
 1753SOL    HW116895   3.828   4.706   8.579  0.2676 -1.6846 -1.8110
 1753SOL    HW216896   3.825   0.078   8.470 -1.0549 -0.1786  0.2801
 1754SOL     OW16897   1.463   2.491   1.652 -0.3136  0.3289 -0.1303
 1754SOL    HW116898   1.555   2.470   1.636  0.6222  1.8879  3.0378
 1754SOL    HW216899   1.468   2.518   1.744 -1.4117 -0.8012  0.2490
 1755SOL     OW16900   2.061   4.372   8.014  0.4218  0.2236 -0.2820
 1755SOL    HW116901   2.012   4.297   7.979 -1.7895  1.8918 -0.7555
 1755SOL    HW216902   2.106   4.334   8.089  1.6352  0.0695 -1.0767
 1756SOL     OW16903   3.178   1.502   5.345  0.4536  0.3488 -0.1368
 1756SOL    HW116904   3.111   1.492   5.277  1.7251 -2.3866 -0.9615
 1756SOL    HW216905   3.167   1.416   5.386 -0.3251  1.7890  2.6742
 1757SOL     OW16906   0.076   0.830  12.409 -0.0429 -0.3711 -0.2495
 1757SOL    HW116907   0.131   0.904  12.383  0.8832 -1.2115 -0.6922
 1757SOL    HW216908   0.021   0.869  12.477 -1.7067 -1.8149 -0.7657
 1758SOL     OW16909   1.318   3.369  16.688  0.5016 -0.3916  0.0602
 1758SOL    HW116910   1.342   3.459  16.664  1.4948 -0.4657  0.7667
 1758SOL    HW216911   1.251   3.339  16.627  0.3212 -3.7148  1.8795
 1759SOL     OW16912   1.112   0.090   5.724  0.2930  0.3053  0.1913
 1759SOL    HW116913   1.140   0.047   5.643  0.5458 -1.8795  1.4353
 1759SOL    HW216914   1.121   0.015   5.783 -0.2565  0.4564  0.4691
 1760SOL     OW16915   2.046   1.812   0.884 -0.1243  0.0213 -0.5349
 1760SOL    HW116916   2.029   1.744   0.949  1.7297  1.8635  1.8707
 1760SOL    HW216917   2.123   1.852   0.925  0.9568 -1.7527 -0.8815
 1761SOL     OW16918   1.096   2.608   2.572  0.2297 -0.5026 -0.2527
 1761SOL    HW116919   1.043   2.565   2.505  0.2992  0.9508 -1.2531
 1761SOL    HW216920   1.138   2.535   2.618 -1.3577 -0.1306  1.7969
 1762SOL     OW16921   3.472   0.835   5.208  0.5860  0.1532 -0.6406
 1762SOL    HW116922   3.489   0.787   5.127  1.3594  1.3747 -1.2047
 1762SOL    HW216923   3.527   0.912   5.192 -0.3429  0.5962 -1.6234
 1763SOL     OW16924   4.517   2.974  12.206  0.7671  0.2480  0.2062
 1763SOL    HW116925   4.429   2.965  12.243 -0.0453 -0.8083 -1.9690
 1763SOL    HW216926   4.551   3.060  12.232 -1.2272  1.0716  0.0937
 1764SOL     OW16927   3.832   0.729  15.222  0.2555  0.0737 -0.1822
 1764SOL    HW116928   3.891   0.725  15.297  0.1752 -0.7400 -0.1682
 1764SOL    HW216929   3.816   0.823  15.210  0.2387 -0.1135 -1.6189
 1765SOL     OW16930   2.992   2.605   6.353  0.0106 -0.0624 -0.0269
 1765SOL    HW116931   2.918   2.601   6.292 -0.5574  3.2300  0.4708
 1765SOL    HW216932   2.973   2.684   6.403  2.0054  0.3118  0.1255
 1766SOL     OW16933   3.910   1.938   6.122  0.1006 -0.5003 -0.2379
 1766SOL    HW116934   3.940   1.994   6.193 -1.2951 -0.6434  0.4544
 1766SOL    HW216935   3.963   1.860   6.138  1.4251  0.7787  1.4843
 1767SOL     OW16936   1.928   4.525   6.077  0.3185 -0.2734 -0.6028
 1767SOL    HW116937   1.936   4.506   5.983  0.8974 -1.9670 -0.2074
 1767SOL    HW216938   1.983   4.603   6.083  0.3481 -0.3465  0.0089
 1768SOL     OW16939   3.399   1.000   2.956 -0.7303 -0.4666  0.3972
 1768SOL    HW116940   3.439   0.923   2.917  1.1102  1.3879 -1.3426
 1768SOL    HW216941   3.431   0.987   3.046 -0.2479 -1.0105  0.1403
 1769SOL     OW16942   4.533   0.590   2.342 -0.1325  0.7414  0.6080
 1769SOL    HW116943   4.596   0.644   2.293  0.5404 -1.0990 -0.5436
 1769SOL    HW216944   4.587   0.561   2.416 -0.5723  0.0815  0.6646
 1770SOL     OW16945   1.975   1.514   2.241  0.0286  0.2304 -0.5793
 1770SOL    HW116946   1.879   1.511   2.248  0.0399 -0.5873 -0.8057
 1770SOL    HW216947   1.990   1.581   2.175 -0.3943  1.4206  0.5260
 1771SOL     OW16948   1.544   0.153  17.412  0.2118 -0.1958  0.4226
 1771SOL    HW116949   1.465   0.188  17.452  0.0391 -1.0405  0.8168
 1771SOL    HW216950   1.594   0.221  17.367  0.0100 -0.6274 -0.4683
 1772SOL     OW16951   2.525   4.230  14.302  1.1574  0.0972  0.6395
 1772SOL    HW116952   2.438   4.205  14.333  1.0873  1.3145  1.4236
 1772SOL    HW216953   2.508   4.278  14.222 -2.0861 -0.5189  0.9467
 1773SOL     OW16954   0.922   0.009   9.278  0.8262  0.1983 -0.3116
 1773SOL    HW116955   0.880   4.676   9.328  1.2399 -1.1931 -1.9370
 1773SOL    HW216956   0.911   0.085   9.335 -0.0470  0.4369 -0.7944
 1774SOL     OW16957   1.132   1.068  16.343 -0.7576 -0.4137 -0.3936
 1774SOL    HW116958   1.039   1.080  16.326 -0.4187 -0.6669 -2.4905
 1774SOL    HW216959   1.136   1.114  16.426  1.7612  1.5692 -1.5919
 1775SOL     OW16960   1.121   3.822   4.632 -0.0174 -0.1285 -0.4308
 1775SOL    HW116961   1.039   3.824   4.583  0.0945 -0.2643 -0.6213
 1775SOL    HW216962   1.100   3.884   4.703 -1.0930 -1.7687  0.6730
 1776SOL     OW16963   2.713   0.264  12.044 -0.3180  0.0586  0.4185
 1776SOL    HW116964   2.655   0.192  12.068  0.2080 -0.3304  0.5066
 1776SOL    HW216965   2.660   0.337  12.075  1.3983  0.3755  2.5292
 1777SOL     OW16966   4.104   3.122  17.474 -0.1373 -0.1039 -0.4204
 1777SOL    HW116967   4.048   3.079  17.409  1.0084 -3.8016  1.0058
 1777SOL    HW216968   4.135   3.041  17.515  2.6667  1.4495  0.5165
 1778SOL     OW16969   4.556   2.582  12.331 -0.1361  0.1024  0.6362
 1778SOL    HW116970   4.501   2.646  12.375  0.2594 -0.7620  2.4099
 1778SOL    HW216971   4.499   2.529  12.275 -0.2281  1.0598 -0.1555
 1779SOL     OW16972   2.011   4.477   3.684  0.2225 -0.3871 -0.4652
 1779SOL    HW116973   1.941   4.530   3.724  2.3190  2.6676 -0.8735
 1779SOL    HW216974   1.989   4.488   3.591 -0.4690 -0.6834 -0.3344
 1780SOL     OW16975   0.327   1.412   6.054  0.0399  0.0622  0.4891
 1780SOL    HW116976   0.318   1.400   6.148 -1.1329  0.5863  0.4406
 1780SOL    HW216977   0.236   1.407   6.025  0.0222 -1.3902  0.7939
 1781SOL     OW16978   3.056   0.096   3.791 -0.4160  0.2539 -0.1699
 1781SOL    HW116979   3.059   0.016   3.739  1.0290  0.1287  0.0961
 1781SOL    HW216980   3.050   0.051   3.876  1.1717  0.1873 -0.0961
 1782SOL     OW16981   0.575   3.170   4.515 -0.3269 -0.0127 -0.1334
 1782SOL    HW116982   0.637   3.218   4.571  0.4594  1.1451 -1.9992
 1782SOL    HW216983   0.537   3.248   4.475  0.4703  0.9591  1.0006
 1783SOL     OW16984   3.942   4.390   6.558  0.2650 -0.4735  0.2957
 1783SOL    HW116985   4.021   4.426   6.518  1.7196 -1.7645  2.0525
 1783SOL    HW216986   3.975   4.370   6.645  1.8187 -0.8561 -0.3741
 1784SOL     OW16987   0.796   1.530   2.328  0.1748 -0.0537  0.0085
 1784SOL    HW116988   0.887   1.501   2.332  0.4524  0.9438  1.1448
 1784SOL    HW216989   0.755   1.444   2.323 -1.9244  0.9463  0.0855
 1785SOL     OW16990   4.331   1.154  11.627 -0.3221 -0.3907 -0.8621
 1785SOL    HW116991   4.419   1.183  11.650 -0.7431 -0.7978  1.2073
 1785SOL    HW216992   4.297   1.139  11.715 -1.2900 -0.8084 -1.3011
 1786SOL     OW16993   1.750   1.992  17.483 -0.0652  0.1856 -0.5861
 1786SOL    HW116994   1.796   2.011  17.402 -2.6436  2.2026 -1.5713
 1786SOL    HW216995   1.694   1.917  17.463  0.0709 -0.2433  0.6467
 1787SOL     OW16996   3.207   1.507   2.263  0.5807  0.6437  0.0642
 1787SOL    HW116997   3.152   1.541   2.334  1.2330  0.4175  0.6751
 1787SOL    HW216998   3.297   1.539   2.275  0.1084  1.3726  1.8019
 1788SOL     OW16999   2.114   1.819   3.821 -0.0887 -0.3200 -0.0933
 1788SOL    HW117000   2.170   1.744   3.806 -0.3163  0.0238 -2.6757
 1788SOL    HW217001   2.030   1.780   3.845 -0.8660  1.7144  0.5424
 1789SOL     OW17002   0.984   3.551   8.118  0.1948  0.2068 -0.2963
 1789SOL    HW117003   1.051   3.489   8.148 -1.1164 -1.1198 -0.1308
 1789SOL    HW217004   1.041   3.628   8.110  0.2188  0.1661 -0.5204
 1790SOL     OW17005   4.387   1.559   3.486 -0.2128  0.5971 -0.1807
 1790SOL    HW117006   4.322   1.629   3.492 -1.5837 -0.8430  1.4868
 1790SOL    HW217007   4.449   1.605   3.429  0.6242 -0.6036 -0.2268
 1791SOL     OW17008   4.024   2.392   2.321 -0.5399 -0.2319  0.0527
 1791SOL    HW117009   4.053   2.423   2.235 -0.6962  0.3269  0.2012
 1791SOL    HW217010   4.015   2.299   2.300 -0.6534  0.2487 -2.0792
 1792SOL     OW17011   3.816   3.924   3.262 -0.3824 -0.0444 -0.6175
 1792SOL    HW117012   3.805   3.871   3.341  2.9515 -1.5915 -1.1731
 1792SOL    HW217013   3.860   4.004   3.289 -2.2628  0.1589  1.8154
 1793SOL     OW17014   1.901   3.148  17.344 -0.2481 -0.4486  0.2645
 1793SOL    HW117015   1.849   3.116  17.270  2.3935  0.6201 -2.0314
 1793SOL    HW217016   1.958   3.074  17.366  1.0043  0.8364  1.3705
 1794SOL     OW17017   4.150   3.439   2.840  0.4713  0.1672  0.3767
 1794SOL    HW117018   4.233   3.455   2.796 -0.6953 -0.9852 -2.2312
 1794SOL    HW217019   4.097   3.516   2.821  3.5807  1.8072 -1.6521
 1795SOL     OW17020   3.764   4.569  11.637  0.1615 -0.1462  0.2076
 1795SOL    HW117021   3.707   4.628  11.685 -1.1380 -0.1277 -1.3523
 1795SOL    HW217022   3.724   4.575  11.550  0.8622 -1.2114 -0.1920
 1796SOL     OW17023   4.260   0.359   4.830  0.7987  0.3744  0.1974
 1796SOL    HW117024   4.168   0.334   4.818  1.3862 -1.8998  0.3576
 1796SOL    HW217025   4.284   0.394   4.745 -2.7266 -0.8074 -1.3038
 1797SOL     OW17026   3.876   1.853  10.843  0.0959 -0.0135 -0.1065
 1797SOL    HW117027   3.848   1.928  10.895 -1.2713  0.0079 -0.8701
 1797SOL    HW217028   3.958   1.834  10.889  1.4513  0.8499 -2.1908
 1798SOL     OW17029   2.999   4.425   3.444  0.0131  0.0975 -0.5867
 1798SOL    HW117030   3.012   4.482   3.368  1.2771 -1.5585 -1.6030
 1798SOL    HW217031   3.047   4.346   3.422  0.7869  0.2612  0.4926
 1799SOL     OW17032   0.135   0.538   4.662  0.5813  0.4186  0.1110
 1799SOL    HW117033   0.185   0.602   4.713  1.6304 -0.9848  0.8617
 1799SOL    HW217034   0.203   0.470   4.665 -1.9752 -2.2594 -1.8890
 1800SOL     OW17035   1.514   3.010   2.541 -0.1160  0.1153  0.1768
 1800SOL    HW117036   1.502   3.080   2.477  2.1985  0.1045 -0.2667
 1800SOL    HW217037   1.465   3.042   2.617 -1.8285 -0.7679 -0.5342
 1801SOL     OW17038   1.885   1.092   7.714  0.1807 -0.0843  0.4448
 1801SOL    HW117039   1.951   1.156   7.740  1.3058 -0.4883 -1.3875
 1801SOL    HW217040   1.840   1.138   7.643 -0.2946 -1.2200 -0.0025
 1802SOL     OW17041   3.726   3.925   8.310 -1.2324 -0.2303  0.2867
 1802SOL    HW117042   3.682   3.843   8.330 -1.4089 -0.2693 -0.2790
 1802SOL    HW217043   3.811   3.890   8.283 -1.1259  0.4829 -0.3126
 1803SOL     OW17044   1.363   0.099   7.726  0.2617  0.4656  0.0548
 1803SOL    HW117045   1.443   0.133   7.767  1.2462 -1.0295 -0.6450
 1803SOL    HW217046   1.326   0.182   7.695 -0.8759 -0.2708 -0.5826
 1804SOL     OW17047   1.230   1.007   6.983  0.1027 -0.2826  0.4892
 1804SOL    HW117048   1.167   1.078   6.980  0.0508 -0.3201  0.6660
 1804SOL    HW217049   1.221   0.971   7.072  1.2280 -0.4581  0.5325
 1805SOL     OW17050   3.577   4.350   8.767  0.3056 -0.0887  0.3431
 1805SOL    HW117051   3.528   4.297   8.830 -1.5304 -1.3659 -2.1583
 1805SOL    HW217052   3.580   4.288   8.694 -0.6779  0.9977 -0.6320
 1806SOL     OW17053   0.494   1.586   3.778 -0.0851 -0.3484 -0.3685
 1806SOL    HW117054   0.512   1.591   3.684 -1.6968 -0.9099 -0.7148
 1806SOL    HW217055   0.430   1.655   3.792  0.5076  0.1623 -0.1839
 1807SOL     OW17056   1.554   2.413   1.909  0.6109  0.0059  0.1217
 1807SOL    HW117057   1.588   2.499   1.935 -2.4621  1.4726 -0.7568
 1807SOL    HW217058   1.603   2.344   1.953  1.4504  0.3658 -0.2529
 1808SOL     OW17059   0.165   0.498   3.928  0.4702  0.0851  1.1472
 1808SOL    HW117060   0.107   0.509   4.003 -2.1767 -2.0167 -0.5831
 1808SOL    HW217061   0.217   0.579   3.929  1.3545 -0.4846  1.2518
 1809SOL     OW17062   1.534   4.593  13.632  0.7459  0.1596 -0.3347
 1809SOL    HW117063   1.628   4.605  13.640  1.1498 -2.3727 -1.0413
 1809SOL    HW217064   1.524   4.563  13.542 -2.5901  1.2946 -0.3475
 1810SOL     OW17065   4.288   4.361   7.759  0.7462  0.1191  0.4440
 1810SOL    HW117066   4.220   4.293   7.766  1.0895 -0.2948 -0.2069
 1810SOL    HW217067   4.289   4.390   7.668 -3.5287 -1.3052 -0.0586
 1811SOL     OW17068   2.642   2.800  11.295  0.1485 -0.1682 -0.1029
 1811SOL    HW117069   2.664   2.719  11.249 -3.8033 -0.6334 -1.2580
 1811SOL    HW217070   2.546   2.802  11.293  0.1107 -2.1608 -0.7685
 1812SOL     OW17071   2.280   3.397   2.210  0.5526  0.6158 -0.3648
 1812SOL    HW117072   2.358   3.342   2.206  1.4380  1.8438 -0.0770
 1812SOL    HW217073   2.295   3.469   2.148 -0.3820 -0.1960 -1.5344
 1813SOL     OW17074   2.536   3.483   8.843 -0.0936  0.0971  0.2467
 1813SOL    HW117075   2.552   3.502   8.751  1.8824  2.1363  0.9845
 1813SOL    HW217076   2.441   3.479   8.842 -0.1852  1.5129  1.7190
 1814SOL     OW17077   1.318   4.646   7.191  1.0838  0.2284 -0.4658
 1814SOL    HW117078   1.413   4.649   7.181  0.8975 -0.3845 -2.4301
 1814SOL    HW217079   1.293   4.644   7.099  2.2262 -0.3880 -0.7605
 1815SOL     OW17080   0.461   3.734  10.515  0.0314 -0.5807  0.1803
 1815SOL    HW117081   0.383   3.687  10.485 -0.8533  1.6912 -1.0991
 1815SOL    HW217082   0.423   3.816  10.548  0.2062 -0.2518 -0.4286
 1816SOL     OW17083   3.346   3.667   8.167 -0.2333 -0.6141  0.4789
 1816SOL    HW117084   3.292   3.607   8.218 -1.1595  1.1354  1.5853
 1816SOL    HW217085   3.428   3.619   8.156 -0.2660 -0.8189  1.1594
 1817SOL     OW17086   4.155   4.230  14.229 -0.3370 -0.7685 -0.1571
 1817SOL    HW117087   4.226   4.196  14.285  1.0984  3.8794  0.8433
 1817SOL    HW217088   4.079   4.204  14.280 -0.2885 -0.1533  0.2291
 1818SOL     OW17089   0.361   4.363  13.705 -0.1188  0.0835 -0.4112
 1818SOL    HW117090   0.367   4.295  13.638  1.6733  1.5926 -1.7900
 1818SOL    HW217091   0.366   4.439  13.646 -0.8893 -0.3805 -1.0720
 1819SOL     OW17092   0.360   3.374  16.266 -0.0376 -0.5428 -0.2046
 1819SOL    HW117093   0.265   3.379  16.265 -0.0579 -0.2912  1.7068
 1819SOL    HW217094   0.372   3.307  16.198 -1.1339 -0.0753 -0.8504
 1820SOL     OW17095   3.867   3.163   1.298  0.8522  0.1152  0.2341
 1820SOL    HW117096   3.891   3.256   1.303  0.1663  0.2882  0.2651
 1820SOL    HW217097   3.944   3.125   1.340  1.6015 -0.4414 -1.6063
 1821SOL     OW17098   3.051   4.117  14.043  0.5274 -0.3764 -0.1446
 1821SOL    HW117099   3.090   4.082  13.963  0.4590 -0.0520 -0.3226
 1821SOL    HW217100   3.120   4.148  14.101  1.1366 -0.1393 -0.9921
 1822SOL     OW17101   0.954   4.243   2.087  0.2314  0.0422  0.3819
 1822SOL    HW117102   0.921   4.324   2.048  0.7361  0.3634  0.6327
 1822SOL    HW217103   1.025   4.272   2.144 -0.3908 -1.7791  2.0881
 1823SOL     OW17104   0.722   2.186   5.575  0.0850  0.2698  0.4370
 1823SOL    HW117105   0.768   2.138   5.506  1.0585 -0.7350  1.7881
 1823SOL    HW217106   0.698   2.115   5.634 -2.8049  2.0074  1.2993
 1824SOL     OW17107   3.105   4.455   7.428  0.3110 -0.2416  0.1405
 1824SOL    HW117108   3.169   4.525   7.416  0.5125 -0.4717 -0.1305
 1824SOL    HW217109   3.089   4.467   7.522 -1.1062  2.4284 -0.4413
 1825SOL     OW17110   0.865   0.876   3.617 -0.2240  0.0521 -0.1737
 1825SOL    HW117111   0.849   0.926   3.698 -0.3095 -3.1932  1.7879
 1825SOL    HW217112   0.866   0.947   3.553  0.3417 -0.1024 -0.3369
 1826SOL     OW17113   4.299   1.497   2.387  0.1516 -0.1566  0.4383
 1826SOL    HW117114   4.378   1.443   2.382  0.6152  0.8020 -2.4788
 1826SOL    HW217115   4.283   1.512   2.294  0.0034  2.8185  0.9408
 1827SOL     OW17116   3.616   2.862  16.524  0.1283 -0.3089 -0.1584
 1827SOL    HW117117   3.613   2.767  16.536 -2.2407 -0.3085 -0.8387
 1827SOL    HW217118   3.695   2.889  16.572  0.0566  0.3384 -0.4058
 1828SOL     OW17119   2.740   2.289   9.070  0.1483  0.3938  0.5384
 1828SOL    HW117120   2.835   2.294   9.072  0.1718  0.2062 -0.0358
 1828SOL    HW217121   2.727   2.333   8.986  0.5009  1.3565  0.9814
 1829SOL     OW17122   1.351   4.099   8.290  0.1094 -0.1039  0.4445
 1829SOL    HW117123   1.339   4.070   8.199 -1.9679 -0.1328  0.7178
 1829SOL    HW217124   1.399   4.180   8.273  0.6589 -0.2001  1.5911
 1830SOL     OW17125   0.395   3.642  15.488  0.0242  0.3125  0.2460
 1830SOL    HW117126   0.401   3.738  15.493 -1.6853  0.3900  0.8278
 1830SOL    HW217127   0.317   3.631  15.542  0.6640 -2.4855  0.5609
 1831SOL     OW17128   4.081   3.889   6.101  0.1460 -0.0278  0.3619
 1831SOL    HW117129   4.066   3.946   6.176 -1.1654 -2.4507  1.9454
 1831SOL    HW217130   4.027   3.932   6.034  0.4769 -0.0785  0.0653
 1832SOL     OW17131   0.187   1.988   1.457 -0.1768 -0.6296  0.1097
 1832SOL    HW117132   0.160   2.024   1.373 -2.4429  1.7974  1.8560
 1832SOL    HW217133   0.262   2.046   1.468  0.4771 -2.1078  3.3701
 1833SOL     OW17134   4.250   4.562   1.564 -0.8790 -0.4503  0.2518
 1833SOL    HW117135   4.319   4.619   1.598 -0.5507  0.2701 -1.6239
 1833SOL    HW217136   4.197   4.533   1.638 -0.8229 -0.8305  0.1435
 1834SOL     OW17137   3.974   1.786  12.143  0.3960 -0.3936 -0.4563
 1834SOL    HW117138   3.986   1.854  12.209 -0.1852  0.5317 -1.3142
 1834SOL    HW217139   3.897   1.799  12.088 -0.8361 -2.8237  0.6625
 1835SOL     OW17140   3.219   1.558   1.746 -0.0569  0.2108  0.2375
 1835SOL    HW117141   3.273   1.511   1.810  1.0237  1.5277  0.2933
 1835SOL    HW217142   3.266   1.641   1.737 -0.8011  0.7146  1.0333
 1836SOL     OW17143   4.260   1.919   4.867  0.4180  0.3568  0.4658
 1836SOL    HW117144   4.355   1.913   4.852  0.7497 -0.9064  3.0236
 1836SOL    HW217145   4.250   2.004   4.909  1.9260  0.1208  1.3053
 1837SOL     OW17146   1.255   1.635  10.600 -1.2785  0.1857  0.5302
 1837SOL    HW117147   1.321   1.663  10.664 -0.2120  0.1998 -0.5848
 1837SOL    HW217148   1.253   1.714  10.546 -0.2482 -0.1608 -0.0231
 1838SOL     OW17149   3.098   4.026   2.882 -0.3243  0.3424  0.1642
 1838SOL    HW117150   3.141   3.949   2.919  0.7378  1.8731  2.1312
 1838SOL    HW217151   3.156   4.098   2.908 -0.0117  0.1009  0.1447
 1839SOL     OW17152   4.112   3.306   7.457 -0.6535 -0.7375  0.1875
 1839SOL    HW117153   4.114   3.384   7.401 -1.7003 -0.0571  1.0930
 1839SOL    HW217154   4.189   3.323   7.511 -0.2636  2.8225 -1.4695
 1840SOL     OW17155   2.176   3.277   3.298  0.4134 -0.5246 -0.1451
 1840SOL    HW117156   2.163   3.368   3.323 -0.9197 -0.9558  0.7388
 1840SOL    HW217157   2.087   3.243   3.288 -0.0414  0.5813  0.1782
 1841SOL     OW17158   1.121   0.647   6.307 -0.1090 -0.2004  0.2520
 1841SOL    HW117159   1.190   0.619   6.247 -0.9078 -5.4974  1.8194
 1841SOL    HW217160   1.158   0.720   6.357 -1.0781  0.5755 -0.1764
 1842SOL     OW17161   3.797   3.711   5.130  0.5047  0.8490 -0.3794
 1842SOL    HW117162   3.741   3.636   5.144  1.5233  0.1909  0.2074
 1842SOL    HW217163   3.812   3.692   5.038 -1.5533 -2.2587 -0.0641
 1843SOL     OW17164   0.143   0.813   4.204  0.2670 -0.0802  0.6497
 1843SOL    HW117165   0.104   0.730   4.175  0.2469  0.9072 -2.1743
 1843SOL    HW217166   0.163   0.796   4.295  0.3186  4.0846  1.4048
 1844SOL     OW17167   0.327   1.557   5.800  0.7522 -0.0641  0.0087
 1844SOL    HW117168   0.323   1.488   5.865  0.2350  0.8393  0.9443
 1844SOL    HW217169   0.410   1.544   5.756  0.6511 -0.6692  0.0017
 1845SOL     OW17170   3.238   4.392  12.085  0.4040  0.6200 -0.3659
 1845SOL    HW117171   3.265   4.345  12.006  1.4455  0.0013  0.3564
 1845SOL    HW217172   3.206   4.318  12.137 -2.4332  0.7664 -1.9182
 1846SOL     OW17173   2.882   0.419  17.232  0.8860  0.9297  0.8246
 1846SOL    HW117174   2.885   0.330  17.197  0.3992  1.2117  0.0784
 1846SOL    HW217175   2.790   0.442  17.225  0.5212 -1.1350 -1.1174
 1847SOL     OW17176   0.509   2.319   1.824 -0.4305 -0.0922 -0.3196
 1847SOL    HW117177   0.483   2.230   1.850  1.0635 -0.1611  0.9482
 1847SOL    HW217178   0.601   2.294   1.810  0.1224  1.0145  1.3777
 1848SOL     OW17179   1.895   3.405   7.381 -0.6117 -0.5823 -0.1628
 1848SOL    HW117180   1.910   3.311   7.371 -2.6095 -1.2106  2.7475
 1848SOL    HW217181   1.984   3.439   7.367 -0.5886 -1.3285 -1.8221
 1849SOL     OW17182   3.203   3.797  13.377  0.0161 -0.3555  0.4430
 1849SOL    HW117183   3.211   3.839  13.462 -2.2827  1.3499 -0.1682
 1849SOL    HW217184   3.108   3.787  13.374  0.0262 -0.2247 -0.5435
 1850SOL     OW17185   4.625   4.317   3.924  0.1981 -0.2108  0.7917
 1850SOL    HW117186   4.571   4.299   3.848  0.5926 -1.4633  0.8197
 1850SOL    HW217187   4.598   4.407   3.946  0.9583  0.7802 -2.3444
 1851SOL     OW17188   1.039   2.409   5.028 -0.4637  0.0920  0.3272
 1851SOL    HW117189   1.024   2.480   4.966  0.1298 -0.4283 -0.3968
 1851SOL    HW217190   1.102   2.449   5.089  0.4100  1.1545 -1.2754
 1852SOL     OW17191   0.844   1.978   4.573 -0.4336 -0.7965 -0.3650
 1852SOL    HW117192   0.899   1.941   4.504  1.4499 -1.6260  1.6036
 1852SOL    HW217193   0.781   2.023   4.517  0.1344 -3.0622 -2.8114
 1853SOL     OW17194   1.259   1.818   6.700 -0.4509 -0.8027 -0.1580
 1853SOL    HW117195   1.198   1.831   6.773 -2.1550 -0.5894 -1.6154
 1853SOL    HW217196   1.289   1.908   6.682  0.1200 -1.1783 -1.0961
 1854SOL     OW17197   0.217   1.952   3.092  0.0484 -0.0076  0.5758
 1854SOL    HW117198   0.264   2.021   3.045 -0.9910 -0.7407 -1.5598
 1854SOL    HW217199   0.250   1.866   3.066 -0.9250 -0.1036 -0.3752
 1855SOL     OW17200   2.763   0.075  16.943  0.0193 -0.1066  0.3998
 1855SOL    HW117201   2.720   0.016  17.004 -0.2969  0.0363  0.3138
 1855SOL    HW217202   2.713   0.061  16.863 -0.5670  1.5071  0.4896
 1856SOL     OW17203   3.998   1.436   4.589 -0.0505  0.4428 -0.2686
 1856SOL    HW117204   3.934   1.395   4.531  0.7408 -3.0714  1.2985
 1856SOL    HW217205   3.973   1.384   4.665  0.4425 -2.3877 -2.0208
 1857SOL     OW17206   3.189   0.033   2.671  0.4685 -0.4087 -0.0535
 1857SOL    HW117207   3.221   0.008   2.585  1.6131  1.5490 -0.1921
 1857SOL    HW217208   3.172   4.678   2.695 -1.6826 -1.1538 -4.3935
 1858SOL     OW17209   2.017   4.038   7.422  0.1510 -0.0275  0.4166
 1858SOL    HW117210   2.005   4.052   7.516 -0.3458 -0.4863  0.4242
 1858SOL    HW217211   1.946   4.098   7.400 -0.0885 -0.0520  1.1129
 1859SOL     OW17212   2.759   4.485   2.002  0.1548  0.4313  0.4541
 1859SOL    HW117213   2.776   4.531   1.920  1.9617 -0.0376  0.5826
 1859SOL    HW217214   2.821   4.527   2.061  0.4974  0.8408 -0.2090
 1860SOL     OW17215   0.021   1.254   6.614 -0.6572  0.0232  0.0835
 1860SOL    HW117216   0.037   1.348   6.610  0.2088  0.0168  3.1286
 1860SOL    HW217217   4.670   1.241   6.577 -1.3187 -2.3118  2.3937
 1861SOL     OW17218   1.552   4.311   6.495  0.2200  0.6503  0.5455
 1861SOL    HW117219   1.484   4.245   6.488  1.8600 -0.6714 -3.1593
 1861SOL    HW217220   1.498   4.389   6.480 -0.1225  0.3831  0.3944
 1862SOL     OW17221   1.765   2.599   3.706  0.4818 -0.2344  0.1251
 1862SOL    HW117222   1.674   2.617   3.680  0.1848 -1.1473  0.5637
 1862SOL    HW217223   1.750   2.510   3.738  0.2883  0.1691  1.1762
 1863SOL     OW17224   2.914   0.396   9.991 -0.1026 -0.3236 -0.6606
 1863SOL    HW117225   2.901   0.303  10.009 -1.0328  0.7112  4.0309
 1863SOL    HW217226   2.861   0.428  10.064  2.5833  0.3970  0.9874
 1864SOL     OW17227   2.754   1.835   6.147  0.2409 -0.5017 -0.0841
 1864SOL    HW117228   2.802   1.855   6.066  1.0659  0.9158  0.7517
 1864SOL    HW217229   2.797   1.902   6.201  0.5731 -1.3153  0.6513
 1865SOL     OW17230   4.347   2.829   6.396  0.1442  0.4172 -0.0946
 1865SOL    HW117231   4.295   2.783   6.461  0.0467 -1.2097 -1.3290
 1865SOL    HW217232   4.343   2.763   6.327 -1.0283 -0.6155  0.9681
 1866SOL     OW17233   3.560   3.321   5.002 -0.2835 -0.1798  0.3386
 1866SOL    HW117234   3.472   3.335   5.036  0.1140 -0.5237  1.4802
 1866SOL    HW217235   3.558   3.383   4.928 -0.5848 -1.3228 -0.6029
 1867SOL     OW17236   2.382   0.768   3.029  0.1049  0.0917 -0.1990
 1867SOL    HW117237   2.369   0.693   2.972  0.0293 -0.3258  0.3689
 1867SOL    HW217238   2.328   0.834   2.985  3.0362  3.3298  1.0596
 1868SOL     OW17239   2.844   4.022   3.078 -0.4962  0.0379 -0.9188
 1868SOL    HW117240   2.813   3.938   3.113 -1.1949 -0.3709 -2.5285
 1868SOL    HW217241   2.827   4.010   2.984  0.8290  1.0238 -1.2951
 1869SOL     OW17242   0.202   1.337   4.433  0.6656 -0.0112 -0.7031
 1869SOL    HW117243   0.128   1.277   4.430  1.0711 -0.5927  0.7739
 1869SOL    HW217244   0.211   1.348   4.528 -1.1660  0.6765 -0.6011
 1870SOL     OW17245   1.430   3.792   1.228  0.1670  0.7539 -0.6182
 1870SOL    HW117246   1.357   3.734   1.249  0.7153 -0.3123 -1.6633
 1870SOL    HW217247   1.476   3.796   1.312 -0.7286 -0.4503 -0.0666
 1871SOL     OW17248   0.319   4.008   1.520  0.5878  0.5309 -0.2705
 1871SOL    HW117249   0.377   4.017   1.444  0.3175 -0.7820 -0.6243
 1871SOL    HW217250   0.314   3.913   1.529  0.7852  0.6578  1.0885
 1872SOL     OW17251   1.987   1.115  14.467  0.5428 -0.6004 -0.5555
 1872SOL    HW117252   1.931   1.038  14.472  1.0188 -0.8912  0.3329
 1872SOL    HW217253   2.051   1.105  14.538 -1.1251  1.8802  1.2935
 1873SOL     OW17254   3.334   0.841   5.837  0.8581 -1.0330  0.2604
 1873SOL    HW117255   3.338   0.889   5.920 -0.2160  1.3230 -1.0528
 1873SOL    HW217256   3.248   0.799   5.843 -0.3843  1.7438  1.7210
 1874SOL     OW17257   2.621   1.643   5.373  0.3688  0.2199  0.2293
 1874SOL    HW117258   2.555   1.701   5.410 -3.3738 -2.6397 -2.0048
 1874SOL    HW217259   2.581   1.633   5.286  1.5831  1.5246 -0.4922
 1875SOL     OW17260   0.452   2.542   2.385  0.0351  0.0411  0.9308
 1875SOL    HW117261   0.523   2.596   2.421  2.3508 -0.7991 -2.4186
 1875SOL    HW217262   0.500   2.459   2.381 -0.6817 -0.4233  2.0319
 1876SOL     OW17263   0.547   0.351  11.432  0.2033 -0.1453  0.7270
 1876SOL    HW117264   0.475   0.399  11.390 -2.1119 -1.8065  2.8039
 1876SOL    HW217265   0.506   0.347  11.518 -0.3923  1.0737  0.5029
 1877SOL     OW17266   1.348   2.099  10.243  0.6965 -0.2251 -0.1452
 1877SOL    HW117267   1.318   2.142  10.322  2.4146 -1.2066  1.0491
 1877SOL    HW217268   1.412   2.038  10.280  0.6985 -0.6672 -0.8673
 1878SOL     OW17269   2.555   3.676   0.700 -0.2322 -0.1348  0.1942
 1878SOL    HW117270   2.549   3.766   0.666 -0.1004 -0.0952  0.2771
 1878SOL    HW217271   2.467   3.658   0.734 -0.2155 -1.2440 -0.3808
 1879SOL     OW17272   0.764   1.551   3.891 -0.5615 -0.0536 -0.0292
 1879SOL    HW117273   0.672   1.546   3.865 -1.3185  0.5299  2.5867
 1879SOL    HW217274   0.785   1.503   3.811 -0.7983  0.3490 -0.3319
 1880SOL     OW17275   1.173   1.912   8.210  0.3173  0.0294 -0.1816
 1880SOL    HW117276   1.201   2.003   8.205  2.4874 -0.6020  0.4629
 1880SOL    HW217277   1.185   1.893   8.303 -2.5090  1.1522  0.4186
 1881SOL     OW17278   3.654   0.708  16.635  0.0266 -0.2817 -0.0717
 1881SOL    HW117279   3.735   0.694  16.684  0.4243 -0.5712 -0.7951
 1881SOL    HW217280   3.614   0.623  16.656  0.5372 -0.6340 -0.5158
 1882SOL     OW17281   2.862   1.802   4.017 -0.1794 -0.0886 -0.5853
 1882SOL    HW117282   2.829   1.869   4.077 -1.6101 -1.1720 -0.1706
 1882SOL    HW217283   2.956   1.809   4.037  0.1580 -1.6344 -1.6464
 1883SOL     OW17284   2.016   4.605   3.116  0.1028 -0.0423  0.0358
 1883SOL    HW117285   2.035   4.589   3.024  2.1668 -1.3189  0.6822
 1883SOL    HW217286   2.023   4.700   3.112 -0.5778  0.0391  0.7849
 1884SOL     OW17287   3.744   0.332   5.371  0.3524  0.3162 -0.2584
 1884SOL    HW117288   3.650   0.337   5.352  0.9364  1.3260 -2.8367
 1884SOL    HW217289   3.757   0.402   5.435  0.6448  1.0597 -1.1311
 1885SOL     OW17290   1.659   0.102   3.323  0.2701  0.1617  0.5141
 1885SOL    HW117291   1.692   0.159   3.393 -1.4666  0.0842  1.3802
 1885SOL    HW217292   1.654   0.014   3.362  0.4493  0.6288  1.5836
 1886SOL     OW17293   4.394   2.829   5.061  0.4891  0.0627  0.8025
 1886SOL    HW117294   4.307   2.856   5.030  0.6207 -1.3594 -0.8261
 1886SOL    HW217295   4.383   2.738   5.031 -0.2356  0.5093 -0.3172
 1887SOL     OW17296   1.018   0.644   1.430  0.6669 -0.3082 -0.2739
 1887SOL    HW117297   1.044   0.726   1.471  1.1852 -0.8867  0.5593
 1887SOL    HW217298   0.930   0.636   1.466  0.3572  0.4053 -0.8618
 1888SOL     OW17299   4.131   3.584  16.827 -0.5251  0.0730 -0.0983
 1888SOL    HW117300   4.093   3.512  16.877  0.1776  0.1636  0.5776
 1888SOL    HW217301   4.075   3.593  16.750 -2.5107 -2.0754  1.0813
 1889SOL     OW17302   1.189   0.198   0.363  0.0854  0.0159  0.3253
 1889SOL    HW117303   1.211   0.143   0.287  1.8920  1.2697 -0.0683
 1889SOL    HW217304   1.094   0.206   0.363  0.1909  1.3784 -0.6814
 1890SOL     OW17305   1.352   0.475   3.026  0.1517 -0.0944 -0.0046
 1890SOL    HW117306   1.409   0.398   3.028 -0.9224 -0.7569  4.5861
 1890SOL    HW217307   1.403   0.536   2.973  2.2099 -2.7968 -1.1513
 1891SOL     OW17308   0.867   2.566   5.393  0.4030 -0.0094 -0.4924
 1891SOL    HW117309   0.956   2.537   5.409  0.9519  1.9544  0.0725
 1891SOL    HW217310   0.837   2.498   5.334  0.7638  0.1101 -0.8094
 1892SOL     OW17311   2.867   3.974   2.742 -0.0202 -0.1672 -0.2104
 1892SOL    HW117312   2.951   4.000   2.779 -0.5099 -0.4672  1.0886
 1892SOL    HW217313   2.861   3.879   2.754 -1.3768 -0.2916 -1.7704
 1893SOL     OW17314   3.634   3.804   6.303  0.1735 -0.3210 -0.3907
 1893SOL    HW117315   3.557   3.771   6.257 -1.4714  2.5623  0.3612
 1893SOL    HW217316   3.683   3.721   6.306 -0.7786 -0.9565 -2.1691
 1894SOL     OW17317   3.685   0.520   3.882  0.0700  0.7998 -0.8261
 1894SOL    HW117318   3.759   0.519   3.943 -0.1904  2.8343 -0.4735
 1894SOL    HW217319   3.720   0.467   3.810 -1.2100 -1.3249  0.1187
 1895SOL     OW17320   2.811   0.014   6.896  0.1523 -0.1567 -0.3070
 1895SOL    HW117321   2.776   0.095   6.858 -0.9385 -1.1811 -1.4884
 1895SOL    HW217322   2.877   0.048   6.956  1.2102 -0.5951 -1.2326
 1896SOL     OW17323   0.276   0.860  15.943 -0.1348  1.3167  0.0598
 1896SOL    HW117324   0.317   0.811  16.015  0.0150 -0.3567 -1.1617
 1896SOL    HW217325   0.263   0.787  15.882 -1.0758  0.4666  1.2656
 1897SOL     OW17326   1.394   1.184   5.307 -0.4852 -0.1392 -0.0390
 1897SOL    HW117327   1.428   1.265   5.269  0.0599 -0.9866 -1.3808
 1897SOL    HW217328   1.410   1.120   5.237  1.1400  0.4042 -0.1635
 1898SOL     OW17329   4.480   3.723  13.325 -0.1251 -0.1263 -0.5757
 1898SOL    HW117330   4.425   3.801  13.334  0.5416  0.4190 -1.2586
 1898SOL    HW217331   4.558   3.745  13.275  0.1323  1.7445  0.6679
 1899SOL     OW17332   4.380   0.926  12.246 -0.4319  0.0880 -0.3522
 1899SOL    HW117333   4.351   0.858  12.308  0.6421 -2.1203 -2.2685
 1899SOL    HW217334   4.352   1.005  12.292 -1.8437  0.7794 -2.3863
 1900SOL     OW17335   3.580   1.407   2.701  0.0113  0.5339  0.0012
 1900SOL    HW117336   3.640   1.479   2.723  0.1938  1.1063 -2.4052
 1900SOL    HW217337   3.536   1.390   2.784  1.5059  0.2423  0.7452
 1901SOL     OW17338   0.584   4.254  10.646  0.4959  0.0531  0.0517
 1901SOL    HW117339   0.664   4.206  10.666  1.4060  2.0752  1.2570
 1901SOL    HW217340   0.516   4.188  10.632  0.0900  0.6799 -0.9757
 1902SOL     OW17341   2.995   1.930   6.249 -0.0346 -0.0019 -0.3801
 1902SOL    HW117342   3.077   1.924   6.299  0.4912  4.0984 -0.7528
 1902SOL    HW217343   2.986   2.024   6.237  2.8679  0.1531 -1.2780
 1903SOL     OW17344   4.529   3.062   7.444 -0.2764 -0.5389  0.1930
 1903SOL    HW117345   4.467   3.076   7.516  2.1812 -0.5070  2.3141
 1903SOL    HW217346   4.614   3.096   7.475  0.0705 -1.7533  0.5568
 1904SOL     OW17347   2.668   1.945  14.995  0.6824 -0.3256  0.2872
 1904SOL    HW117348   2.589   1.892  14.985 -0.9120  2.2810 -1.0099
 1904SOL    HW217349   2.729   1.878  15.025  0.0792 -1.8864 -1.9985
 1905SOL     OW17350   2.172   2.856   7.020  0.2605  0.3990  0.4419
 1905SOL    HW117351   2.242   2.792   7.028 -0.0123  0.1399  0.7280
 1905SOL    HW217352   2.217   2.938   6.999 -0.2502  0.3561 -0.8436
 1906SOL     OW17353   4.347   1.881  12.348  0.5216  0.3625  0.0971
 1906SOL    HW117354   4.334   1.868  12.442 -0.1048  2.2889  0.2574
 1906SOL    HW217355   4.376   1.793  12.321  1.2522  1.2842 -2.0650
 1907SOL     OW17356   2.905   0.724   7.315  0.1300  0.4632  0.1608
 1907SOL    HW117357   2.877   0.638   7.348 -1.6125  0.9564 -0.0119
 1907SOL    HW217358   2.997   0.712   7.294  0.0489  0.7755 -0.3743
 1908SOL     OW17359   1.387   1.727   8.169  0.6348 -0.0748 -0.8109
 1908SOL    HW117360   1.445   1.719   8.244 -0.9304 -1.7319  0.2298
 1908SOL    HW217361   1.380   1.819   8.146 -2.3784  0.4676  2.3377
 1909SOL     OW17362   2.684   3.219   2.451 -0.1603  0.1680 -0.1885
 1909SOL    HW117363   2.758   3.164   2.475 -0.7653 -0.8387 -0.6597
 1909SOL    HW217364   2.609   3.169   2.483 -0.6960  0.0298 -1.6483
 1910SOL     OW17365   3.875   3.427   7.058 -0.0876 -0.0338 -0.2260
 1910SOL    HW117366   3.868   3.339   7.022 -0.0229  0.2494 -0.9156
 1910SOL    HW217367   3.806   3.421   7.124 -0.4181 -0.5941 -0.6203
 1911SOL     OW17368   1.027   3.692   1.462  0.8445 -0.3632 -0.0689
 1911SOL    HW117369   1.087   3.767   1.458 -0.8965  1.0237 -0.1146
 1911SOL    HW217370   0.982   3.679   1.379 -0.4964 -1.9889  0.9092
 1912SOL     OW17371   3.198   4.098   2.264 -0.4114 -0.5811 -0.2292
 1912SOL    HW117372   3.292   4.080   2.274 -0.6037 -1.3529  0.1950
 1912SOL    HW217373   3.196   4.192   2.250 -0.7858 -0.6645 -0.7025
 1913SOL     OW17374   1.028   3.384   5.350  0.2339  0.0555  0.2481
 1913SOL    HW117375   1.030   3.334   5.433  0.7618  0.5094  0.5050
 1913SOL    HW217376   1.000   3.317   5.287 -2.4544  2.1085 -0.7472
 1914SOL     OW17377   3.349   0.505   6.722  0.2487  0.0995 -0.1120
 1914SOL    HW117378   3.427   0.473   6.675 -0.4260  0.0566 -1.2086
 1914SOL    HW217379   3.281   0.476   6.661  2.5853 -0.6979 -2.3505
 1915SOL     OW17380   0.491   2.457  14.018 -0.2225  0.1442  0.2234
 1915SOL    HW117381   0.533   2.542  14.009 -0.4199  0.2060 -0.1040
 1915SOL    HW217382   0.532   2.402  13.950  0.5024  0.9076  0.0372
 1916SOL     OW17383   0.733   4.505  11.275 -0.2565 -0.2245 -0.1715
 1916SOL    HW117384   0.709   4.571  11.340 -0.8819 -1.8108  1.2334
 1916SOL    HW217385   0.716   4.421  11.319 -2.1446  0.6469  0.7650
 1917SOL     OW17386   2.361   1.783  12.931  0.0314 -0.4817  0.7820
 1917SOL    HW117387   2.439   1.740  12.966  1.5957  0.7990 -1.1168
 1917SOL    HW217388   2.371   1.878  12.945  0.9209 -0.2060 -1.6337
 1918SOL     OW17389   2.080   2.056   2.612 -0.5920  0.1943 -0.1932
 1918SOL    HW117390   2.022   2.021   2.544 -0.9751 -0.2760  0.3807
 1918SOL    HW217391   2.059   1.995   2.682 -2.1576  0.6924 -0.2182
 1919SOL     OW17392   4.541   3.941   0.246  0.0736 -0.1141 -0.2096
 1919SOL    HW117393   4.570   3.987   0.325  3.0145 -0.2715 -1.1626
 1919SOL    HW217394   4.467   3.994   0.216  0.3300 -0.3400 -1.2489
 1920SOL     OW17395   1.044   4.720  12.235 -0.2006  0.2476 -0.6713
 1920SOL    HW117396   1.033   4.668  12.156 -0.7364 -0.6577  0.0015
 1920SOL    HW217397   1.095   0.056  12.198  0.4686  1.0725  1.9021
 1921SOL     OW17398   4.366   0.278  11.744  0.0604  0.5219 -0.3542
 1921SOL    HW117399   4.344   0.210  11.807  2.7706 -1.6601 -1.7476
 1921SOL    HW217400   4.379   0.350  11.805  3.0795 -1.0841  0.9259
 1922SOL     OW17401   0.046   1.534   6.810  0.4626  0.4865 -0.0917
 1922SOL    HW117402   4.690   1.540   6.790  0.7503  2.2549 -0.9410
 1922SOL    HW217403   0.085   1.621   6.798  2.4240 -0.5318 -1.1149
 1923SOL     OW17404   4.132   2.971  11.989  0.4180  0.3428 -0.3602
 1923SOL    HW117405   4.075   3.044  12.012  0.8028  0.1704  1.1480
 1923SOL    HW217406   4.148   2.933  12.075 -0.1464  0.2969 -0.2722
 1924SOL     OW17407   4.625   0.273   1.799  0.3433  0.2225 -0.1986
 1924SOL    HW117408   4.611   0.280   1.705  1.5057  4.1238 -0.0642
 1924SOL    HW217409   4.564   0.340   1.830 -0.7382 -0.4460 -0.8688
 1925SOL     OW17410   3.768   2.630  15.919 -0.0572  0.2321  0.2753
 1925SOL    HW117411   3.746   2.700  15.859  0.0168  0.4996  0.5598
 1925SOL    HW217412   3.704   2.643  15.989  0.2340  0.6392  0.4704
 1926SOL     OW17413   2.725   4.416   6.278  0.4761 -0.1692  0.1289
 1926SOL    HW117414   2.807   4.465   6.268  0.3143  0.1841  0.5450
 1926SOL    HW217415   2.765   4.340   6.320 -0.7062 -0.9625 -0.1927
 1927SOL     OW17416   2.996   0.518   7.728 -0.2296 -0.7113 -0.3559
 1927SOL    HW117417   2.909   0.519   7.689 -0.4908 -1.9437  0.2047
 1927SOL    HW217418   2.992   0.450   7.795  1.0916 -0.2157  0.2218
 1928SOL     OW17419   3.120   3.863  15.003 -0.7718  0.0690  0.5955
 1928SOL    HW117420   3.140   3.926  15.072  1.7936  1.1148 -1.1338
 1928SOL    HW217421   3.197   3.877  14.948 -0.1833  0.3727  1.5069
 1929SOL     OW17422   3.760   0.245   7.515  0.4507 -0.5283 -0.1103
 1929SOL    HW117423   3.776   0.211   7.603  0.5304  0.5298  0.2898
 1929SOL    HW217424   3.850   0.260   7.486 -0.3379  1.4865 -1.5143
 1930SOL     OW17425   4.033   3.962  12.573 -0.5846  0.1203  0.0707
 1930SOL    HW117426   4.023   4.057  12.565  0.4262  0.1289 -1.1753
 1930SOL    HW217427   4.000   3.940  12.660 -0.7955  0.9761  0.2058
 1931SOL     OW17428   2.178   0.384   1.607 -0.5012 -0.3239  0.0612
 1931SOL    HW117429   2.237   0.323   1.563  1.6199  1.3325  0.6580
 1931SOL    HW217430   2.140   0.329   1.675 -2.3996 -0.1715 -0.8572
 1932SOL     OW17431   4.070   2.202   7.143 -0.2917 -0.1872 -0.2560
 1932SOL    HW117432   4.055   2.195   7.238  2.5798  1.7077  0.3425
 1932SOL    HW217433   4.047   2.112   7.118 -0.9918  0.2852 -1.3108
 1933SOL     OW17434   4.010   0.368   9.152 -0.1797 -0.1690  0.1371
 1933SOL    HW117435   4.029   0.427   9.079  3.5440 -1.5032  0.0531
 1933SOL    HW217436   4.086   0.310   9.144 -0.3428 -0.3155 -0.3793
 1934SOL     OW17437   3.651   4.717   6.982  0.0830  0.0187 -0.0787
 1934SOL    HW117438   3.591   4.645   6.998  0.3003  0.2445  1.7848
 1934SOL    HW217439   3.693   4.712   7.068 -0.1772  3.3051  0.2227
 1935SOL     OW17440   0.220   2.878   1.697  0.1835  0.6276  0.4280
 1935SOL    HW117441   0.263   2.924   1.769 -0.2543 -0.7200  1.5312
 1935SOL    HW217442   0.253   2.939   1.630  1.9952 -2.0279 -1.0771
 1936SOL     OW17443   3.300   1.479   7.184  0.3707 -0.2545 -0.1097
 1936SOL    HW117444   3.370   1.414   7.192  2.0902  1.6867  0.6602
 1936SOL    HW217445   3.308   1.508   7.093  0.5379 -0.0427 -0.0260
 1937SOL     OW17446   1.840   4.394  11.257  0.5657  0.4422 -0.4404
 1937SOL    HW117447   1.891   4.475  11.258  0.0061  0.7852  0.7113
 1937SOL    HW217448   1.874   4.344  11.183  0.2703 -1.3592  0.6480
 1938SOL     OW17449   4.057   4.475   3.042 -0.3757 -0.2208 -0.1583
 1938SOL    HW117450   4.141   4.520   3.035 -0.0209 -0.8639 -0.0766
 1938SOL    HW217451   4.059   4.451   3.135  0.8132 -0.3006 -0.2074
 1939SOL     OW17452   1.844   1.906  11.901 -0.6752 -0.1576 -0.2442
 1939SOL    HW117453   1.869   1.976  11.841 -0.7763  2.1912  2.4929
 1939SOL    HW217454   1.929   1.863  11.893 -0.8711 -0.9101  1.9252
 1940SOL     OW17455   2.533   1.030   1.813  0.2566 -0.4508  0.3816
 1940SOL    HW117456   2.536   1.067   1.901 -2.8808 -0.7563  0.6142
 1940SOL    HW217457   2.579   1.099   1.765 -0.0583  0.0115  0.7486
 1941SOL     OW17458   1.045   2.698   0.908 -0.2597 -0.2366  0.2814
 1941SOL    HW117459   1.111   2.744   0.961 -0.3284 -0.0037  0.1643
 1941SOL    HW217460   0.962   2.713   0.952 -1.1862 -0.7102 -1.3218
 1942SOL     OW17461   2.158   2.905   2.693 -0.4406 -0.1687 -0.4846
 1942SOL    HW117462   2.177   2.960   2.618 -0.3847 -1.3283 -1.3200
 1942SOL    HW217463   2.150   2.969   2.764  2.1347 -0.9296  0.4851
 1943SOL     OW17464   0.331   0.344   4.655 -0.1997  0.7718 -0.1327
 1943SOL    HW117465   0.381   0.284   4.710  0.2518  0.4996 -0.8509
 1943SOL    HW217466   0.394   0.416   4.644  0.1151  0.5240  0.0600
 1944SOL     OW17467   4.332   0.976   4.736 -0.2082 -0.3454 -0.1469
 1944SOL    HW117468   4.314   1.009   4.824  2.4559  0.9287 -0.0618
 1944SOL    HW217469   4.281   1.041   4.688 -1.4822 -0.4084  1.1330
 1945SOL     OW17470   3.328   0.000  13.720  0.2747  0.4533 -0.4786
 1945SOL    HW117471   3.414   4.716  13.682  0.6014  1.5888 -0.3483
 1945SOL    HW217472   3.290   4.649  13.719  0.4257  0.4236 -3.3521
 1946SOL     OW17473   3.284   4.427   3.694  0.0027 -0.0874 -0.4222
 1946SOL    HW117474   3.253   4.341   3.669 -0.8460  0.7140 -2.1090
 1946SOL    HW217475   3.367   4.409   3.738  0.4525 -1.0083 -1.6778
 1947SOL     OW17476   4.227   4.465   6.508 -0.6022 -0.1623 -0.1162
 1947SOL    HW117477   4.269   4.441   6.426  1.8764  0.4058  0.9770
 1947SOL    HW217478   4.206   4.558   6.497  0.8596  0.2025  0.0852
 1948SOL     OW17479   3.026   1.606   1.977  0.6716  0.0849 -0.4510
 1948SOL    HW117480   2.989   1.677   1.925 -2.3958 -1.2227 -0.0605
 1948SOL    HW217481   3.102   1.655   2.007  1.3061  0.2075 -2.2355
 1949SOL     OW17482   1.704   4.598   3.497 -0.3504  0.0951 -0.8025
 1949SOL    HW117483   1.797   4.609   3.477 -0.1703 -2.4196 -1.3057
 1949SOL    HW217484   1.690   4.519   3.445 -0.8348  0.4469 -1.2022
 1950SOL     OW17485   0.471   2.660   4.041  0.1264 -0.0826  0.5594
 1950SOL    HW117486   0.474   2.584   4.099 -0.7665 -0.2182  0.4220
 1950SOL    HW217487   0.498   2.720   4.110  1.0128  1.6789 -1.3130
 1951SOL     OW17488   0.527   4.557   8.944  0.1466  0.1123 -0.4815
 1951SOL    HW117489   0.477   4.635   8.969  1.6963  1.1047 -0.4779
 1951SOL    HW217490   0.614   4.597   8.934  0.3390 -0.6159 -1.6961
 1952SOL     OW17491   3.127   2.946   9.547  0.1188  0.1220  0.1719
 1952SOL    HW117492   3.069   2.883   9.590  1.1179 -0.7897  0.1801
 1952SOL    HW217493   3.078   3.028   9.558  0.1321  0.2411 -0.6980
 1953SOL     OW17494   0.469   0.900   5.803 -0.8127  0.3041 -0.2296
 1953SOL    HW117495   0.414   0.976   5.822  0.9437  1.6517 -0.4281
 1953SOL    HW217496   0.479   0.873   5.895 -0.1530  0.6828 -0.1888
 1954SOL     OW17497   3.507   1.354   8.585  0.0072  0.7081 -0.1174
 1954SOL    HW117498   3.502   1.448   8.571 -1.4477  0.3218 -2.2544
 1954SOL    HW217499   3.590   1.331   8.543  1.0471  0.0549  2.3036
 1955SOL     OW17500   3.920   1.044   3.738  0.2564 -0.0298  0.5358
 1955SOL    HW117501   3.978   0.990   3.792 -0.1958 -0.7677  0.2780
 1955SOL    HW217502   3.975   1.116   3.707 -1.2152 -0.3712 -2.8365
 1956SOL     OW17503   3.813   4.268   8.879 -0.7854 -0.4290  0.4181
 1956SOL    HW117504   3.883   4.284   8.816  0.7261 -0.0475  2.2130
 1956SOL    HW217505   3.741   4.327   8.855 -1.1654 -0.7252  0.8257
 1957SOL     OW17506   3.892   2.030  11.469 -0.8576  0.0123 -0.4429
 1957SOL    HW117507   3.950   1.999  11.400 -0.2900 -1.2795  0.6005
 1957SOL    HW217508   3.938   2.108  11.500  0.0698 -1.4770  1.9594
 1958SOL     OW17509   4.369   0.714  16.139 -0.0659  0.3395 -0.0384
 1958SOL    HW117510   4.408   0.760  16.066  0.1797  0.1389 -0.0319
 1958SOL    HW217511   4.347   0.625  16.111  1.4554 -0.9797  2.9599
 1959SOL     OW17512   3.755   3.287  14.731 -0.5705  0.4780 -0.1365
 1959SOL    HW117513   3.664   3.304  14.709 -0.9501  0.6992  1.6191
 1959SOL    HW217514   3.753   3.277  14.826  0.5458  1.0620 -0.0468
 1960SOL     OW17515   1.284   0.633   1.672 -0.2965 -0.1100 -0.3723
 1960SOL    HW117516   1.224   0.579   1.722 -0.5805 -0.9483 -1.6423
 1960SOL    HW217517   1.233   0.649   1.593  1.0881  1.2475 -1.0043
 1961SOL     OW17518   0.392   0.398   3.764  0.1908 -0.1898  0.1204
 1961SOL    HW117519   0.373   0.474   3.708  1.2599 -0.7660 -1.0444
 1961SOL    HW217520   0.394   0.431   3.853 -1.6123  0.8639 -0.2245
 1962SOL     OW17521   3.083   4.626   4.277 -0.7519 -0.2844 -0.2264
 1962SOL    HW117522   3.117   4.548   4.321  0.4832  0.2235 -0.2861
 1962SOL    HW217523   3.049   4.697   4.332 -0.0441 -1.2350  1.4415
 1963SOL     OW17524   3.987   0.303   4.785  0.0481 -0.1733  0.2830
 1963SOL    HW117525   3.945   0.218   4.772 -1.4275  0.8039 -1.3380
 1963SOL    HW217526   3.953   0.343   4.705 -1.8919 -0.9730  0.7119
 1964SOL     OW17527   2.814   0.593  15.250 -1.0978 -0.3663 -0.0054
 1964SOL    HW117528   2.765   0.535  15.192 -1.0461 -0.3729 -0.0429
 1964SOL    HW217529   2.882   0.627  15.192 -3.1605  3.3786 -0.2316
 1965SOL     OW17530   4.021   4.423   5.904 -0.3264 -0.1103 -0.2686
 1965SOL    HW117531   3.990   4.354   5.845  0.6624  0.0183 -0.9406
 1965SOL    HW217532   3.955   4.490   5.888  0.8506  0.6021 -2.1675
 1966SOL     OW17533   0.092   1.890   2.081  0.4406 -0.1074 -0.4685
 1966SOL    HW117534   0.015   1.911   2.027 -0.8239  1.1027  1.7958
 1966SOL    HW217535   0.160   1.945   2.042 -0.5923  1.4235 -0.1198
 1967SOL     OW17536   0.373   4.230   8.511  0.0323 -0.1893  0.1770
 1967SOL    HW117537   0.386   4.257   8.602 -1.1535 -0.9749  0.5842
 1967SOL    HW217538   0.457   4.188   8.493  0.2138  0.1856  0.1414
 1968SOL     OW17539   0.282   1.475  14.332 -0.1591 -0.0608 -1.0871
 1968SOL    HW117540   0.353   1.537  14.348 -1.2832  0.7422  0.7608
 1968SOL    HW217541   0.205   1.531  14.322 -0.0781 -0.0408 -1.6017
 1969SOL     OW17542   0.938   2.075  16.120  0.0934  0.6209  0.1949
 1969SOL    HW117543   0.864   2.019  16.100  1.4701 -0.1377 -2.7648
 1969SOL    HW217544   1.009   2.016  16.095 -2.0549 -1.4907 -0.8240
 1970SOL     OW17545   2.318   3.424   7.871 -0.4732  0.1491 -0.2940
 1970SOL    HW117546   2.276   3.374   7.800  0.4884 -0.1348 -0.6659
 1970SOL    HW217547   2.354   3.353   7.924  1.0281  1.0278 -0.1528
 1971SOL     OW17548   0.561   3.071  10.526  0.0492 -0.3963  0.0170
 1971SOL    HW117549   0.573   3.161  10.555 -0.7465 -0.1658 -0.3805
 1971SOL    HW217550   0.520   3.036  10.604 -3.7479 -2.2120 -2.8162
 1972SOL     OW17551   3.323   3.966   0.630 -0.2288  0.1578  0.0151
 1972SOL    HW117552   3.267   3.952   0.554  0.1633 -0.5822 -0.1385
 1972SOL    HW217553   3.268   3.932   0.700 -0.1229  0.9772  0.4998
 1973SOL     OW17554   0.402   1.977  16.727  0.0970  0.0034  0.1573
 1973SOL    HW117555   0.416   1.887  16.755 -0.5453 -0.4444 -0.9433
 1973SOL    HW217556   0.311   1.989  16.753 -0.0032 -1.3219  0.4088
 1974SOL     OW17557   1.237   2.752   9.012  0.2262  0.0997 -0.2831
 1974SOL    HW117558   1.220   2.705   9.094  0.5013 -0.9933 -0.8451
 1974SOL    HW217559   1.288   2.682   8.971 -1.2162 -0.9957 -0.2176
 1975SOL     OW17560   2.977   2.524   6.686  0.1219  0.8190  0.5986
 1975SOL    HW117561   3.049   2.461   6.696  1.0362  1.6261 -0.8670
 1975SOL    HW217562   3.024   2.599   6.649  0.2201  0.0804 -0.8001
 1976SOL     OW17563   3.177   0.122   5.230  0.3279  0.4529  0.2643
 1976SOL    HW117564   3.097   0.074   5.250  0.6314  0.1076  0.6584
 1976SOL    HW217565   3.185   0.170   5.313 -1.6289  0.5830  0.3798
 1977SOL     OW17566   2.420   2.594  11.437  0.0982  0.4861  0.5751
 1977SOL    HW117567   2.377   2.509  11.441 -0.2815  0.7429  2.0594
 1977SOL    HW217568   2.507   2.555  11.426 -0.1312  0.6350 -1.7044
 1978SOL     OW17569   3.454   3.246  14.711 -0.3350 -0.2137  0.4940
 1978SOL    HW117570   3.415   3.183  14.771 -0.8638  0.2259  0.6121
 1978SOL    HW217571   3.403   3.232  14.631  1.6362 -2.1364 -0.3940
 1979SOL     OW17572   0.188   3.488   7.199 -0.0032  0.6234 -0.1205
 1979SOL    HW117573   0.182   3.420   7.132 -0.0739  1.6914 -1.2090
 1979SOL    HW217574   0.277   3.521   7.187  0.3832 -1.0486 -1.9167
 1980SOL     OW17575   2.895   4.623   6.653 -0.1289 -0.0482 -0.2989
 1980SOL    HW117576   2.979   4.669   6.660  0.2104 -0.7910  0.4974
 1980SOL    HW217577   2.847   4.681   6.712 -0.9421  0.4214 -1.4303
 1981SOL     OW17578   1.995   2.724   2.823 -0.1747 -0.2483  0.1175
 1981SOL    HW117579   2.023   2.691   2.909  0.0724 -0.3140  0.0118
 1981SOL    HW217580   2.071   2.778   2.799 -0.8038  0.0808 -1.1216
 1982SOL     OW17581   0.212   3.913   1.833  0.2734  0.4786  0.0599
 1982SOL    HW117582   0.266   3.992   1.830  1.6047 -0.3995  1.2463
 1982SOL    HW217583   0.213   3.897   1.738 -1.0656  1.5275 -0.1338
 1983SOL     OW17584   3.957   3.341   1.781 -0.6409 -0.5822  0.2175
 1983SOL    HW117585   3.880   3.359   1.727 -1.1260  0.1939  1.1677
 1983SOL    HW217586   3.979   3.248   1.770 -1.7206 -0.6722 -1.1581
 1984SOL     OW17587   2.968   1.910  15.125  0.0098  0.3554 -0.3293
 1984SOL    HW117588   2.934   1.821  15.134 -1.0199  0.9752  1.9413
 1984SOL    HW217589   2.966   1.945  15.214 -1.0117 -0.9757  0.1741
 1985SOL     OW17590   3.879   3.477  14.108  0.1918 -0.3663  0.1582
 1985SOL    HW117591   3.949   3.421  14.141  0.3711 -1.0654 -1.3772
 1985SOL    HW217592   3.815   3.466  14.178 -0.3502 -0.3313 -0.3306
 1986SOL     OW17593   3.057   3.654   6.890  0.4407 -0.2317  0.4379
 1986SOL    HW117594   3.099   3.718   6.947  0.8410  0.8419 -1.0517
 1986SOL    HW217595   3.114   3.651   6.813  0.4487  0.0053  0.4352
 1987SOL     OW17596   2.839   1.126   4.553 -0.1187 -0.2677  0.2296
 1987SOL    HW117597   2.752   1.116   4.592  0.5948 -2.5788  1.2144
 1987SOL    HW217598   2.842   1.217   4.524 -0.7365 -0.2778  0.1290
 1988SOL     OW17599   4.055   0.455   7.697  0.0285 -0.1046 -1.0621
 1988SOL    HW117600   4.086   0.377   7.743 -2.2708 -0.1097  0.4743
 1988SOL    HW217601   3.966   0.469   7.730 -0.0008 -0.4015 -1.0172
 1989SOL     OW17602   4.351   1.406   8.936 -0.4547 -0.0302 -0.2102
 1989SOL    HW117603   4.296   1.457   8.877 -1.9953 -0.2998  0.9964
 1989SOL    HW217604   4.427   1.464   8.949  1.6706 -2.1808 -3.0510
 1990SOL     OW17605   4.308   0.800  17.126 -0.0651 -0.4111 -0.1072
 1990SOL    HW117606   4.378   0.864  17.109 -1.2041  1.2152  1.2927
 1990SOL    HW217607   4.256   0.854  17.185 -5.5948 -2.9263 -2.6807
 1991SOL     OW17608   0.954   1.116  11.413  0.2660  0.2997  0.0801
 1991SOL    HW117609   0.876   1.061  11.402 -1.8443  3.1070  0.7008
 1991SOL    HW217610   0.962   1.150  11.324  0.0482  0.7122  0.2124
 1992SOL     OW17611   3.417   2.773   4.595 -0.7636  0.6284 -0.7671
 1992SOL    HW117612   3.466   2.695   4.569 -1.4593  0.0805 -0.4291
 1992SOL    HW217613   3.460   2.845   4.549  0.5733 -0.8935 -1.8680
 1993SOL     OW17614   4.132   2.147   4.238 -0.5314 -0.2385  0.0537
 1993SOL    HW117615   4.155   2.065   4.281 -1.8708  0.8382  2.7830
 1993SOL    HW217616   4.199   2.141   4.170 -0.2572  0.0704  0.3008
 1994SOL     OW17617   2.398   2.286  12.422  0.6441 -0.2146  0.1888
 1994SOL    HW117618   2.401   2.382  12.418 -0.5272 -0.1634  0.4415
 1994SOL    HW217619   2.493   2.274  12.422  0.4348 -1.9024 -1.0160
 1995SOL     OW17620   0.266   1.826   5.621 -0.1409  0.3343  0.1486
 1995SOL    HW117621   0.196   1.887   5.601 -0.2458  0.2683  0.3114
 1995SOL    HW217622   0.229   1.744   5.587  0.8647 -0.0951  0.0659
 1996SOL     OW17623   3.154   4.076  15.137 -0.1283  0.0985  0.3623
 1996SOL    HW117624   3.138   4.169  15.149 -2.2752 -0.1968 -0.1795
 1996SOL    HW217625   3.110   4.033  15.211  1.1328 -0.1261  0.9682
 1997SOL     OW17626   4.239   2.257   8.051  0.0404 -0.5886  0.3570
 1997SOL    HW117627   4.173   2.243   7.983 -0.6370 -0.2104  0.9215
 1997SOL    HW217628   4.209   2.340   8.088  3.0132  0.1437  1.0957
 1998SOL     OW17629   1.534   1.821   6.277  0.3051  0.2498 -0.0396
 1998SOL    HW117630   1.581   1.868   6.346 -0.0870  1.1630 -0.3932
 1998SOL    HW217631   1.598   1.828   6.206  0.7911 -1.2863  0.2427
 1999SOL     OW17632   3.057   0.992   6.875 -0.2729 -0.2405 -0.3614
 1999SOL    HW117633   3.134   0.935   6.876  0.3364  0.5467 -1.5549
 1999SOL    HW217634   3.067   1.046   6.953  2.8087 -0.6812 -0.4340
 2000SOL     OW17635   1.236   4.645   8.088 -0.1888  0.2349  0.3463
 2000SOL    HW117636   1.313   4.588   8.093  1.0353  1.9078  0.5031
 2000SOL    HW217637   1.211   4.630   8.179  0.4579  1.7790  0.7687
 2001SOL     OW17638   3.702   4.677   6.276  0.0898 -0.5239 -0.3772
 2001SOL    HW117639   3.700   0.022   6.326  0.8057 -0.9984  0.4336
 2001SOL    HW217640   3.644   4.628   6.334 -0.8916  0.7347 -0.2915
 2002SOL     OW17641   3.925   1.907   1.884  0.4296  0.3023  0.5000
 2002SOL    HW117642   3.936   1.816   1.914  1.6172  0.2611 -0.0678
 2002SOL    HW217643   3.964   1.898   1.797 -1.0704  4.0597 -0.5218
 2003SOL     OW17644   3.290   0.631   3.454  0.3378  0.0286 -0.4849
 2003SOL    HW117645   3.278   0.716   3.411 -2.5210 -1.1655 -2.0845
 2003SOL    HW217646   3.383   0.611   3.450  0.7494  1.7436  0.5929
 2004SOL     OW17647   0.126   0.882  15.293 -0.2592  0.5132 -0.2727
 2004SOL    HW117648   0.167   0.833  15.365 -2.1698  0.2515  0.6592
 2004SOL    HW217649   0.043   0.835  15.283 -1.2210  2.3503 -0.8529
 2005SOL     OW17650   1.470   3.982  12.473  0.3288 -0.4903  0.0337
 2005SOL    HW117651   1.555   4.013  12.504  1.5708 -1.3706 -2.4575
 2005SOL    HW217652   1.418   4.060  12.495  1.4626 -0.3001  2.0510
 2006SOL     OW17653   4.096   0.295   2.003  0.0801  0.2596  0.4584
 2006SOL    HW117654   4.139   0.308   1.919  0.4173  0.8059  0.7184
 2006SOL    HW217655   4.056   0.209   1.987 -1.5445  1.1591 -0.2507
 2007SOL     OW17656   2.797   0.411   5.791  0.2782 -0.4235 -0.4342
 2007SOL    HW117657   2.754   0.326   5.794 -0.6460 -0.0021 -1.8816
 2007SOL    HW217658   2.743   0.466   5.847  0.2526 -1.9482  1.0235
 2008SOL     OW17659   2.170   4.170   5.851 -0.4467  0.4952  0.3084
 2008SOL    HW117660   2.099   4.107   5.840  1.3607 -1.4212 -0.5578
 2008SOL    HW217661   2.135   4.229   5.917 -0.8467 -0.2892  0.8017
 2009SOL     OW17662   2.337   2.353  15.407 -0.2209 -0.1552 -0.2059
 2009SOL    HW117663   2.382   2.416  15.464  1.5075 -1.1642 -0.4504
 2009SOL    HW217664   2.372   2.357  15.318 -1.9037 -1.9936 -0.9594
 2010SOL     OW17665   1.049   3.924   6.866  0.5074 -0.6382  0.3217
 2010SOL    HW117666   1.115   3.885   6.923  2.3229  3.9995  1.4172
 2010SOL    HW217667   0.974   3.902   6.921 -0.6610 -2.3514 -1.9484
 2011SOL     OW17668   3.670   1.849   1.582  0.2787  0.2776  0.1167
 2011SOL    HW117669   3.644   1.824   1.671  0.9659  1.9595  0.7881
 2011SOL    HW217670   3.698   1.939   1.595 -0.1360  0.4055  0.1242
 2012SOL     OW17671   0.820   3.185   6.876 -0.0309 -0.2253 -0.1282
 2012SOL    HW117672   0.740   3.169   6.927  0.4469  2.1453  1.3603
 2012SOL    HW217673   0.858   3.097   6.873  0.5100 -0.0448  1.2037
 2013SOL     OW17674   2.629   2.084   9.501 -0.4336 -0.0682  0.1956
 2013SOL    HW117675   2.719   2.053   9.485  0.4655  2.0655  1.1196
 2013SOL    HW217676   2.608   2.127   9.418 -0.8981 -2.4346 -0.9256
 2014SOL     OW17677   2.353   4.680  15.292 -0.2777 -0.0238  0.3873
 2014SOL    HW117678   2.393   0.027  15.314  2.6549 -0.5773 -2.9903
 2014SOL    HW217679   2.304   4.661  15.372 -1.3719  0.5681 -0.1398
 2015SOL     OW17680   0.251   2.826   9.037  0.0160 -0.1171 -0.4214
 2015SOL    HW117681   0.216   2.914   9.036  0.1603 -0.0555  0.2985
 2015SOL    HW217682   0.208   2.794   9.116  1.0070 -1.7483 -0.5235
 2016SOL     OW17683   3.271   3.232   7.399 -0.2210  0.6831  0.1976
 2016SOL    HW117684   3.215   3.297   7.358 -2.5032 -2.3472 -1.4995
 2016SOL    HW217685   3.357   3.265   7.373  0.3568 -2.2635 -1.6645
 2017SOL     OW17686   3.336   1.156   2.549 -0.0611 -0.4711 -0.0074
 2017SOL    HW117687   3.428   1.146   2.574  0.2130  1.1175 -0.3569
 2017SOL    HW217688   3.342   1.236   2.498  0.8163  0.1659  1.0970
 2018SOL     OW17689   0.263   4.670   2.918 -0.2614  0.1478 -0.1785
 2018SOL    HW117690   0.236   4.736   2.982 -1.3617  0.5973 -1.1018
 2018SOL    HW217691   0.217   4.592   2.947 -0.6142  0.2530 -0.4576
 2019SOL     OW17692   0.318   3.773   7.745 -0.5370  0.0237  0.9001
 2019SOL    HW117693   0.247   3.807   7.689 -0.9970 -1.2484  0.7151
 2019SOL    HW217694   0.371   3.852   7.759 -0.0124 -0.4290  1.4616
 2020SOL     OW17695   2.526   0.079   4.408  0.4798 -0.2266  0.3657
 2020SOL    HW117696   2.498   0.108   4.495  1.0117  0.3789  0.3357
 2020SOL    HW217697   2.450   0.076   4.350 -0.0185 -0.9247  1.0605
 2021SOL     OW17698   3.991   2.279   6.692  0.5620 -0.7085 -0.3700
 2021SOL    HW117699   4.066   2.269   6.751  0.2080 -2.8587 -0.2758
 2021SOL    HW217700   3.966   2.186   6.691  1.1186 -0.8543 -1.9139
 2022SOL     OW17701   1.324   3.302   2.730  0.2522 -0.5942  0.5858
 2022SOL    HW117702   1.294   3.373   2.788 -1.2804 -2.6259  2.2900
 2022SOL    HW217703   1.285   3.220   2.760  0.9103 -0.4616  1.8068
 2023SOL     OW17704   3.171   0.439   8.647  0.0981  0.6009  0.2485
 2023SOL    HW117705   3.127   0.460   8.564 -0.4403 -0.8751  0.1518
 2023SOL    HW217706   3.253   0.480   8.623  0.4320 -1.6814 -2.5147
 2024SOL     OW17707   1.103   0.111   5.209  0.0263  0.4975  0.3941
 2024SOL    HW117708   1.098   0.042   5.275 -1.8225  0.3743  0.1314
 2024SOL    HW217709   1.010   0.131   5.204 -0.1523 -0.2783  0.6908
 2025SOL     OW17710   3.703   0.495   7.375 -0.0586 -0.1148  0.7528
 2025SOL    HW117711   3.731   0.411   7.410  2.2251 -0.3218 -1.5906
 2025SOL    HW217712   3.716   0.548   7.454 -1.3719 -1.4451  1.8632
 2026SOL     OW17713   0.511   4.341   6.837  0.4629 -0.3700 -0.3350
 2026SOL    HW117714   0.528   4.285   6.913  0.4803  0.3665  0.2069
 2026SOL    HW217715   0.523   4.431   6.866 -0.0883 -0.4800  0.2586
 2027SOL     OW17716   4.288   2.564  13.480 -0.2208  0.1845  0.0300
 2027SOL    HW117717   4.334   2.550  13.397  0.1048  1.2645  0.0370
 2027SOL    HW217718   4.345   2.626  13.525  1.3431 -0.6462 -0.8337
 2028SOL     OW17719   1.311   3.465  11.785  0.1749  0.1874  0.4913
 2028SOL    HW117720   1.234   3.453  11.729 -0.8734 -1.5409  2.2911
 2028SOL    HW217721   1.361   3.385  11.766  0.9000  0.7972 -0.2079
 2029SOL     OW17722   3.534   3.767   7.052 -0.1672  0.1784 -0.2644
 2029SOL    HW117723   3.589   3.842   7.076 -1.2250  0.9389 -0.2228
 2029SOL    HW217724   3.577   3.732   6.974 -2.1344 -0.5076 -1.0121
 2030SOL     OW17725   1.767   0.379   7.886 -0.1572 -0.0003  0.5506
 2030SOL    HW117726   1.825   0.421   7.949  2.1674 -1.0852 -0.8565
 2030SOL    HW217727   1.743   0.450   7.828 -0.1604  0.8926  1.6552
 2031SOL     OW17728   1.549   2.019   3.909  0.2504  0.7902  0.3062
 2031SOL    HW117729   1.585   2.024   3.820  2.5063  0.3843  1.1846
 2031SOL    HW217730   1.543   2.113   3.926  3.2107  1.5268 -2.5772
 2032SOL     OW17731   0.840   1.191  14.680  0.5273  0.3278 -0.1861
 2032SOL    HW117732   0.778   1.158  14.745 -0.8956  1.9350 -0.7317
 2032SOL    HW217733   0.833   1.284  14.700 -0.4764  0.1955  0.0828
 2033SOL     OW17734   0.253   0.315  13.184  0.4335  0.0944  0.1625
 2033SOL    HW117735   0.230   0.341  13.095  2.0620  2.1148  0.3340
 2033SOL    HW217736   0.178   0.258  13.199  1.2739  0.0314  4.0632
 2034SOL     OW17737   0.767   0.772   7.754 -0.1721 -0.8226 -0.3057
 2034SOL    HW117738   0.831   0.723   7.806  0.6534 -2.6036 -2.9680
 2034SOL    HW217739   0.774   0.717   7.676  0.9702 -0.7197 -0.2777
 2035SOL     OW17740   3.817   3.884   2.343 -0.2735 -0.3769 -0.1152
 2035SOL    HW117741   3.828   3.977   2.362 -2.7311 -0.2962  0.8267
 2035SOL    HW217742   3.872   3.867   2.266 -0.2953  2.0209 -0.6601
 2036SOL     OW17743   4.187   3.806   8.043 -0.2379 -0.1992 -0.4070
 2036SOL    HW117744   4.222   3.777   7.959  0.1677  0.4522 -0.4607
 2036SOL    HW217745   4.186   3.902   8.042 -1.5818 -0.2024 -0.1614
 2037SOL     OW17746   3.196   4.516  13.638  0.0741 -0.3460 -0.0718
 2037SOL    HW117747   3.114   4.472  13.660 -0.2827  0.8699  1.0518
 2037SOL    HW217748   3.167   4.560  13.558  1.0920 -1.4412 -1.0388
 2038SOL     OW17749   1.777   0.582   4.469  0.8222  0.0957 -0.7398
 2038SOL    HW117750   1.827   0.587   4.551 -1.9645  0.6053  0.9427
 2038SOL    HW217751   1.698   0.537   4.498  0.6028  0.2570 -1.0969
 2039SOL     OW17752   4.134   4.136  13.587  0.0496  0.4552  0.4998
 2039SOL    HW117753   4.044   4.107  13.575  0.2675  0.0547 -0.2087
 2039SOL    HW217754   4.112   4.219  13.629  0.6313  0.9061 -0.0778
 2040SOL     OW17755   3.545   4.212   4.685  0.0517 -1.0071  0.0031
 2040SOL    HW117756   3.519   4.285   4.629 -0.3600  0.6762  2.3556
 2040SOL    HW217757   3.629   4.245   4.717 -0.2281 -2.6671  2.4865
 2041SOL     OW17758   2.073   3.876   0.379 -0.3843 -0.0169 -0.2783
 2041SOL    HW117759   2.072   3.805   0.315  1.2126 -1.7861  1.6817
 2041SOL    HW217760   2.145   3.850   0.436 -0.5153  0.3110  0.0437
 2042SOL     OW17761   1.237   3.334  15.433  0.7836  0.1589 -0.5694
 2042SOL    HW117762   1.205   3.280  15.361  0.9456 -0.4446 -0.1812
 2042SOL    HW217763   1.315   3.380  15.400  0.1845  1.3820 -0.3027
 2043SOL     OW17764   4.530   0.760   7.435  0.4711  0.0115  0.2554
 2043SOL    HW117765   4.552   0.849   7.407  1.8843 -1.3438 -2.8817
 2043SOL    HW217766   4.612   0.723   7.469 -0.2589 -1.1471  0.7280
 2044SOL     OW17767   3.981   0.652  10.853  0.2195  0.4239 -0.1474
 2044SOL    HW117768   4.002   0.644  10.760  0.0918  1.7236 -0.2844
 2044SOL    HW217769   3.904   0.596  10.865  0.1221  0.2589 -1.5313
 2045SOL     OW17770   2.805   0.030   2.754 -0.0944  0.0059 -0.6936
 2045SOL    HW117771   2.870   0.099   2.769 -0.7965  0.2875  1.1158
 2045SOL    HW217772   2.850   4.687   2.781 -0.0987  0.2559  0.0621
 2046SOL     OW17773   0.550   2.401   8.541  0.5325  0.1049 -0.0661
 2046SOL    HW117774   0.595   2.474   8.584  1.7675  0.7836 -2.4747
 2046SOL    HW217775   0.564   2.327   8.600  0.6925  1.1611  1.2111
 2047SOL     OW17776   2.416   3.364   1.744  0.5652 -0.0515 -0.3616
 2047SOL    HW117777   2.321   3.357   1.744  0.6315 -0.9888  1.1632
 2047SOL    HW217778   2.443   3.274   1.761  1.0055  0.1500  0.0188
 2048SOL     OW17779   0.943   3.859   4.186 -0.2642  0.4830 -0.3044
 2048SOL    HW117780   0.945   3.823   4.275 -1.3562  0.7871 -0.1595
 2048SOL    HW217781   1.039   3.863   4.178 -0.2775  1.2403 -0.0119
 2049SOL     OW17782   3.080   1.864   8.610  0.0484  0.7399 -0.0543
 2049SOL    HW117783   3.125   1.784   8.636 -0.4543  0.6349  0.4708
 2049SOL    HW217784   2.991   1.830   8.615 -0.6963  2.9163  1.2398
 2050SOL     OW17785   1.091   0.593   0.224  0.2018 -0.1277  0.9415
 2050SOL    HW117786   1.049   0.519   0.268 -2.2140  0.4247 -0.4657
 2050SOL    HW217787   1.118   0.542   0.148  3.3861  1.4646  1.0255
 2051SOL     OW17788   2.597   3.098   9.141 -0.0295  0.1651 -0.2816
 2051SOL    HW117789   2.504   3.088   9.158 -0.3457  0.6690 -1.7279
 2051SOL    HW217790   2.608   3.081   9.047  1.0949  0.4841 -0.2106
 2052SOL     OW17791   1.179   2.407   0.844 -0.3482  0.3217  0.3941
 2052SOL    HW117792   1.100   2.460   0.852  0.4313  1.7194 -1.2351
 2052SOL    HW217793   1.175   2.360   0.928 -2.5206  1.3611  0.8790
 2053SOL     OW17794   1.954   2.049   3.047  0.1303 -0.0527 -0.1111
 2053SOL    HW117795   1.878   1.991   3.053  0.1591 -0.3326 -2.3107
 2053SOL    HW217796   2.021   1.985   3.072 -0.0555  0.0860  0.7363
 2054SOL     OW17797   0.538   3.593   8.468  0.8204  0.5722  0.0721
 2054SOL    HW117798   0.529   3.679   8.427  2.5182  0.8130  0.1950
 2054SOL    HW217799   0.609   3.566   8.410  1.3943  1.5275  0.3203
 2055SOL     OW17800   1.607   0.374  14.598  0.4070 -0.7594 -0.5470
 2055SOL    HW117801   1.517   0.371  14.566 -0.6161 -1.3570  2.3690
 2055SOL    HW217802   1.605   0.296  14.654 -1.6829  0.1889  0.6787
 2056SOL     OW17803   0.191   3.695   6.567  0.1344  0.5703 -0.3651
 2056SOL    HW117804   0.277   3.655   6.577  0.3867  0.9215 -1.1626
 2056SOL    HW217805   0.134   3.628   6.605 -0.0699 -0.3278 -2.2464
 2057SOL     OW17806   1.860   1.182  10.542  0.7079 -0.2303  0.3853
 2057SOL    HW117807   1.785   1.145  10.496  2.8257 -0.6243 -2.8221
 2057SOL    HW217808   1.839   1.159  10.632  0.8214 -0.5159  0.3381
 2058SOL     OW17809   1.711   2.123  16.330 -0.4570 -0.2685 -0.0568
 2058SOL    HW117810   1.785   2.167  16.287 -2.3206  3.1597  0.2649
 2058SOL    HW217811   1.638   2.147  16.273 -2.2949 -0.3770  2.2258
 2059SOL     OW17812   3.485   0.663   6.918 -0.0539 -0.0791  0.9671
 2059SOL    HW117813   3.451   0.574   6.903 -0.0948  0.1196 -0.1038
 2059SOL    HW217814   3.541   0.660   6.995 -0.5906  0.0339  1.3655
 2060SOL     OW17815   3.057   2.170   4.736  0.6493  0.3047 -0.3282
 2060SOL    HW117816   3.019   2.120   4.808  0.4456  1.4425  0.3418
 2060SOL    HW217817   3.150   2.148   4.733  0.6384 -0.2632  3.9730
 2061SOL     OW17818   1.614   0.234   4.732  0.4677  0.3424  0.0488
 2061SOL    HW117819   1.566   0.155   4.706 -0.2375  0.4022  1.1720
 2061SOL    HW217820   1.701   0.193   4.727  0.6800  0.6514  1.2733
 2062SOL     OW17821   1.401   0.331  17.567  0.2899  0.0809  0.3588
 2062SOL    HW117822   1.489   0.367  17.565  1.3241 -2.4929 -0.5356
 2062SOL    HW217823   1.353   0.413  17.553  0.5374  0.2950  0.7680
 2063SOL     OW17824   4.095   0.165   3.733 -0.1081  0.7384 -0.1222
 2063SOL    HW117825   4.090   0.137   3.642 -0.3679  2.0148 -0.4981
 2063SOL    HW217826   4.006   0.145   3.763  0.6192 -1.6702  0.4173
 2064SOL     OW17827   0.055   1.410   6.044  0.4351 -0.3395 -0.3202
 2064SOL    HW117828   4.726   1.341   6.030  0.0222 -0.2368  1.1748
 2064SOL    HW217829   0.036   1.442   6.132  1.6901 -2.4999  0.7359
 2065SOL     OW17830   3.887   4.155   6.460 -0.2061 -0.2192  0.5978
 2065SOL    HW117831   3.904   4.246   6.484 -0.6155 -0.3370  1.3218
 2065SOL    HW217832   3.795   4.160   6.435  0.0101  0.3212 -0.0837
 2066SOL     OW17833   0.367   3.030   6.341  0.0036  0.3033  0.3919
 2066SOL    HW117834   0.437   3.093   6.361 -0.3633  0.3429  1.5396
 2066SOL    HW217835   0.403   2.945   6.370 -0.4074  0.5104  1.5072
 2067SOL     OW17836   1.144   1.102   9.200 -0.3358  0.6904 -0.2010
 2067SOL    HW117837   1.105   1.022   9.236  0.4512  0.4606  0.1445
 2067SOL    HW217838   1.235   1.079   9.216 -0.4234  0.8007  0.4418
 2068SOL     OW17839   4.121   1.174  13.944  0.0517 -0.0006 -0.2659
 2068SOL    HW117840   4.177   1.168  14.021  1.5941  1.2860 -1.2840
 2068SOL    HW217841   4.184   1.153  13.876 -0.7582  0.0025 -1.0273
 2069SOL     OW17842   2.777   2.728   6.752 -0.8266  0.3806 -0.6887
 2069SOL    HW117843   2.811   2.812   6.782 -2.3933  1.1857 -1.1777
 2069SOL    HW217844   2.797   2.735   6.659  1.1311 -1.1605 -0.3813
 2070SOL     OW17845   2.429   3.111   1.878  0.9289 -0.0309  0.0876
 2070SOL    HW117846   2.424   3.107   1.973  0.5135 -0.6555  0.0360
 2070SOL    HW217847   2.476   3.030   1.855  0.0320 -0.4671 -0.1855
 2071SOL     OW17848   2.233   4.332   6.365  0.3173 -0.4051 -0.2003
 2071SOL    HW117849   2.295   4.262   6.343  0.4265 -0.3023 -0.2207
 2071SOL    HW217850   2.251   4.345   6.458 -0.6817  0.3139 -0.1163
 2072SOL     OW17851   0.022   0.700   1.989 -0.7486  0.5766  0.0031
 2072SOL    HW117852   0.055   0.744   2.067  1.0935  0.1938 -0.5557
 2072SOL    HW217853   0.037   0.606   2.005 -2.5910  0.2759 -0.1141
 2073SOL     OW17854   0.301   3.363   1.572 -0.1215 -0.2257  0.2158
 2073SOL    HW117855   0.226   3.420   1.554 -2.1911 -2.7144  0.8857
 2073SOL    HW217856   0.355   3.373   1.494 -0.3085  2.1105  0.3816
 2074SOL     OW17857   3.211   4.142   3.626  0.5762 -0.0084  0.0402
 2074SOL    HW117858   3.188   4.121   3.716 -0.6716  1.6741  0.1245
 2074SOL    HW217859   3.253   4.059   3.606  1.6201  0.1759  1.4955
 2075SOL     OW17860   2.541   2.886   7.802 -0.2532  0.3143  0.2479
 2075SOL    HW117861   2.541   2.839   7.886 -1.1334  0.9244  0.5956
 2075SOL    HW217862   2.455   2.926   7.792 -0.8354 -0.8798  0.5122
 2076SOL     OW17863   3.610   3.260  13.046 -0.0812  0.1931 -0.0197
 2076SOL    HW117864   3.573   3.330  13.099  0.0279 -0.9766  1.6010
 2076SOL    HW217865   3.585   3.292  12.959  1.1902 -0.6018 -0.6749
 2077SOL     OW17866   4.701   0.296   5.431  0.6829  0.0832  0.0425
 2077SOL    HW117867   0.045   0.247   5.444  2.1382  2.4976  0.0402
 2077SOL    HW217868   4.736   0.382   5.451 -2.7627  1.9181 -1.8306
 2078SOL     OW17869   4.208   1.296   4.508  0.2902 -0.0235 -0.6992
 2078SOL    HW117870   4.127   1.348   4.508  0.7486  0.6835  0.0329
 2078SOL    HW217871   4.181   1.205   4.517 -0.2525  0.2797  0.8381
 2079SOL     OW17872   1.380   4.402  17.681 -0.0173  0.1829  0.4888
 2079SOL    HW117873   1.427   4.484  17.697  1.1361  0.1108 -2.5041
 2079SOL    HW217874   1.435   4.338  17.728 -0.8126 -1.7597 -1.2182
 2080SOL     OW17875   4.340   0.083   8.760 -0.2372 -0.2804 -0.1178
 2080SOL    HW117876   4.272   0.108   8.823 -0.0531  0.2903 -0.1465
 2080SOL    HW217877   4.284   0.067   8.684 -1.9886  0.2312  1.0492
 2081SOL     OW17878   3.420   0.431   4.321  0.1718  0.3945  0.0100
 2081SOL    HW117879   3.337   0.462   4.284  0.9807  1.1334 -1.2021
 2081SOL    HW217880   3.450   0.374   4.250 -0.2088  1.1001 -0.7144
 2082SOL     OW17881   3.314   0.543  11.192 -0.2213  0.5928  0.2208
 2082SOL    HW117882   3.401   0.552  11.153 -0.3468 -0.7722 -0.3750
 2082SOL    HW217883   3.312   0.634  11.223 -1.0631  0.2047  1.2956
 2083SOL     OW17884   2.014   4.633  12.980  0.9348 -0.2598 -0.1152
 2083SOL    HW117885   2.050   4.581  12.908  1.9136  0.4016 -0.1057
 2083SOL    HW217886   1.951   4.695  12.943  0.8097  1.2705  2.6892
 2084SOL     OW17887   0.822   2.243  17.121 -0.4004  0.3738  0.4790
 2084SOL    HW117888   0.890   2.202  17.068 -1.5946  0.6059 -1.2354
 2084SOL    HW217889   0.781   2.313  17.070 -2.2070 -1.1229 -0.1495
 2085SOL     OW17890   3.997   3.042   8.577 -0.1167 -0.0675 -0.5113
 2085SOL    HW117891   4.076   3.081   8.615 -0.3565 -0.1919  0.1235
 2085SOL    HW217892   4.021   2.995   8.498  2.6917 -0.3372  0.4821
 2086SOL     OW17893   1.917   2.851  17.005 -0.0675  0.0420 -0.3246
 2086SOL    HW117894   2.012   2.856  17.001  0.2052 -3.0798  1.3211
 2086SOL    HW217895   1.903   2.896  16.922 -0.5865  0.4414 -0.0184
 2087SOL     OW17896   2.872   2.308  17.027  0.5446  0.5500 -0.5184
 2087SOL    HW117897   2.817   2.229  17.025  1.7287 -0.2821 -0.2671
 2087SOL    HW217898   2.926   2.300  16.948  1.2665 -2.5812  0.2904
 2088SOL     OW17899   3.721   2.336  11.638  0.2646  0.5798  0.4709
 2088SOL    HW117900   3.806   2.299  11.664  0.2638 -0.3520 -0.8056
 2088SOL    HW217901   3.722   2.429  11.660  2.4847  1.5998 -3.8399
 2089SOL     OW17902   2.783   1.061   3.496 -0.1552 -0.4985 -0.3708
 2089SOL    HW117903   2.709   1.001   3.500  0.7344 -1.6035 -0.4486
 2089SOL    HW217904   2.802   1.053   3.589  0.1965 -0.3901 -0.4301
 2090SOL     OW17905   4.686   3.610   5.121 -0.8858 -0.2074  0.4428
 2090SOL    HW117906   4.653   3.582   5.206  1.0026 -2.2991  0.4882
 2090SOL    HW217907   0.023   3.549   5.109  0.1028  0.6436  2.2205
 2091SOL     OW17908   3.990   4.103   9.259 -0.0137 -0.3212  0.0731
 2091SOL    HW117909   4.035   4.098   9.174  1.8785  1.7376  0.9683
 2091SOL    HW217910   3.921   4.167   9.237  0.6934 -0.1443 -1.6764
 2092SOL     OW17911   2.945   0.963   4.927 -0.6031 -0.5863 -0.3133
 2092SOL    HW117912   2.863   0.997   4.893  0.1105 -2.2208 -3.6341
 2092SOL    HW217913   2.941   0.877   4.886 -1.7424 -1.6295  1.9745
 2093SOL     OW17914   1.461   4.083   6.755  0.2020 -0.2645  0.1421
 2093SOL    HW117915   1.483   3.995   6.785  0.2225 -1.2690 -2.8397
 2093SOL    HW217916   1.533   4.129   6.799 -0.7201  0.3122  1.0397
 2094SOL     OW17917   1.494   0.003   0.254  0.3152  0.0757 -0.5323
 2094SOL    HW117918   1.399   0.013   0.263  0.3744 -0.5819  0.8509
 2094SOL    HW217919   1.517   0.089   0.220  1.7922  0.8355  2.4141
 2095SOL     OW17920   4.181   4.350   7.063  0.6136 -0.8235 -0.0155
 2095SOL    HW117921   4.098   4.317   7.097 -0.0659  0.0268 -0.8420
 2095SOL    HW217922   4.138   4.371   6.980  0.6511  2.0824  0.6881
 2096SOL     OW17923   4.020   2.750  13.834  0.2055 -0.1509  0.6312
 2096SOL    HW117924   3.966   2.806  13.889 -0.6115  0.4925 -0.8094
 2096SOL    HW217925   3.964   2.761  13.757  0.3644 -0.1732  0.5120
 2097SOL     OW17926   1.215   3.722   2.621 -0.2562 -0.8281 -0.4692
 2097SOL    HW117927   1.193   3.635   2.590  1.6156 -2.3547  2.4890
 2097SOL    HW217928   1.207   3.786   2.550  3.2364 -0.5667 -0.6400
 2098SOL     OW17929   2.096   0.311   5.339 -0.3131 -0.1607  0.3556
 2098SOL    HW117930   2.178   0.357   5.353  0.5037 -1.3098 -0.7858
 2098SOL    HW217931   2.117   0.247   5.272  0.1384  0.1389  0.2173
 2099SOL     OW17932   3.527   1.178   3.145  0.8231  0.4002  0.2387
 2099SOL    HW117933   3.583   1.136   3.210 -1.4351 -2.2704  0.4425
 2099SOL    HW217934   3.478   1.242   3.197 -3.1474 -0.9213 -1.8771
 2100SOL     OW17935   3.167   1.805   6.584 -0.7310 -0.4957  0.3985
 2100SOL    HW117936   3.114   1.740   6.539 -2.2379 -0.7273  2.4792
 2100SOL    HW217937   3.202   1.851   6.508 -0.9903 -0.8730  0.0548
 2101SOL     OW17938   4.070   4.090   6.294 -0.3485  0.1583 -0.8765
 2101SOL    HW117939   4.062   4.177   6.255 -0.4829  0.8448  0.6954
 2101SOL    HW217940   4.016   4.112   6.370  0.2648  3.3671 -1.3628
 2102SOL     OW17941   2.854   0.924   2.041 -0.3354 -0.0475  0.2129
 2102SOL    HW117942   2.906   0.962   2.111  0.6325  1.1422 -1.1536
 2102SOL    HW217943   2.869   0.994   1.977  0.2018 -2.1302 -1.9541
 2103SOL     OW17944   4.162   0.274   5.441  0.3425 -0.1983 -0.7613
 2103SOL    HW117945   4.148   0.306   5.352 -0.1709  2.3752  0.2340
 2103SOL    HW217946   4.256   0.259   5.434  1.0063  3.7748 -0.5751
 2104SOL     OW17947   4.347   2.248   9.016 -0.0048  0.3811 -0.7185
 2104SOL    HW117948   4.360   2.339   8.991  0.0812  0.7990  0.8537
 2104SOL    HW217949   4.301   2.259   9.099  0.8019  1.1076 -0.3772
 2105SOL     OW17950   3.343   0.449   5.045  0.1266  0.2080 -0.1946
 2105SOL    HW117951   3.266   0.505   5.055  0.5836  0.7309  0.4550
 2105SOL    HW217952   3.346   0.403   5.129 -1.8540  0.4386 -0.0063
 2106SOL     OW17953   4.150   2.731  11.813 -0.6590 -0.0672 -0.0097
 2106SOL    HW117954   4.145   2.816  11.856 -0.2782 -0.2544  0.3914
 2106SOL    HW217955   4.241   2.738  11.783  0.1700  1.1542  2.8728
 2107SOL     OW17956   1.134   3.100   4.008  0.1964 -0.1627 -0.0311
 2107SOL    HW117957   1.094   3.091   4.094 -1.5954  2.3137 -0.6149
 2107SOL    HW217958   1.191   3.023   3.998  1.6867  1.0069 -0.6695
 2108SOL     OW17959   4.202   3.305  13.172 -0.1568  0.2028 -0.1911
 2108SOL    HW117960   4.166   3.250  13.241  0.4340  0.8406  0.6413
 2108SOL    HW217961   4.202   3.388  13.220  0.1504 -1.7960  3.2651
 2109SOL     OW17962   3.998   1.431   0.620  0.2143  0.4865  0.2262
 2109SOL    HW117963   3.956   1.380   0.689  0.5069 -1.1294 -0.8041
 2109SOL    HW217964   4.000   1.519   0.659 -1.3265  0.7473 -0.2515
 2110SOL     OW17965   4.547   4.174   4.180 -0.3146  0.3665  0.2873
 2110SOL    HW117966   4.597   4.219   4.112 -1.2305 -0.9644 -1.2685
 2110SOL    HW217967   4.567   4.082   4.159 -0.1165 -0.4600  4.1038
 2111SOL     OW17968   3.960   1.850   8.621  0.3761  0.4319  0.7258
 2111SOL    HW117969   4.027   1.785   8.641  0.0167  0.2031  1.1848
 2111SOL    HW217970   3.971   1.925   8.681 -2.6279  1.7639 -0.3758
 2112SOL     OW17971   0.661   3.431   9.300 -0.0132  0.1793 -0.4928
 2112SOL    HW117972   0.720   3.505   9.285  1.4812 -1.5409 -3.0867
 2112SOL    HW217973   0.579   3.478   9.287 -0.4687 -0.3499  0.4548
 2113SOL     OW17974   2.309   3.177   5.404 -0.1467 -0.0647 -0.1802
 2113SOL    HW117975   2.286   3.174   5.497 -1.2123  1.6195 -0.3955
 2113SOL    HW217976   2.309   3.271   5.387 -0.8878  0.0899  0.6723
 2114SOL     OW17977   0.843   4.453   2.949  0.1633  0.1526 -0.4202
 2114SOL    HW117978   0.898   4.455   3.027 -0.1461  1.5400 -0.2313
 2114SOL    HW217979   0.832   4.547   2.937 -1.5972  0.0847  0.6289
 2115SOL     OW17980   3.533   4.081   4.349  0.0258 -0.0816 -0.4756
 2115SOL    HW117981   3.591   4.055   4.278 -0.1320 -0.6500 -0.3988
 2115SOL    HW217982   3.546   3.998   4.396  1.4303  0.5885  0.3192
 2116SOL     OW17983   3.779   4.104   5.578  0.3256 -0.3024 -0.0063
 2116SOL    HW117984   3.733   4.022   5.598 -0.4971  0.2130  0.2062
 2116SOL    HW217985   3.831   4.084   5.499 -0.3523  0.9273 -0.7601
 2117SOL     OW17986   3.143   2.875   4.547  0.6774 -0.1218  0.1136
 2117SOL    HW117987   3.150   2.954   4.600  1.2085 -0.1056  0.0168
 2117SOL    HW217988   3.234   2.845   4.555  0.8079  0.5098  1.0560
 2118SOL     OW17989   1.259   2.313   6.554  0.0166 -0.5638 -0.0904
 2118SOL    HW117990   1.326   2.366   6.510 -0.4745  0.1189 -0.0126
 2118SOL    HW217991   1.198   2.298   6.482 -0.7907  1.5347  0.1727
 2119SOL     OW17992   2.764   4.156  14.270  0.5307 -0.0947 -0.3101
 2119SOL    HW117993   2.779   4.219  14.200  0.7333 -2.2043 -2.1800
 2119SOL    HW217994   2.675   4.181  14.296  0.8636  0.7756 -0.0072
 2120SOL     OW17995   0.536   1.778   3.307 -0.4769  0.2636  0.6162
 2120SOL    HW117996   0.476   1.808   3.375  0.6037  2.7336  0.5050
 2120SOL    HW217997   0.601   1.845   3.330  0.6204 -0.1534 -1.2727
 2121SOL     OW17998   1.976   1.630   2.552  0.0047 -0.0787 -0.3196
 2121SOL    HW117999   2.006   1.541   2.569 -1.1091 -0.8131 -2.1628
 2121SOL    HW218000   1.906   1.601   2.493  1.2377  1.7369 -2.6604
 2122SOL     OW18001   1.866   4.420   9.900  0.0503  0.2970  0.2958
 2122SOL    HW118002   1.955   4.453   9.911  0.0775  0.3533 -0.1030
 2122SOL    HW218003   1.855   4.434   9.806 -0.0571  3.1892  0.7354
 2123SOL     OW18004   4.697   2.730  17.181 -0.0436  0.4277  0.3859
 2123SOL    HW118005   0.014   2.807  17.196 -0.9745  1.4775 -1.6344
 2123SOL    HW218006   4.633   2.723  17.252 -0.0032 -0.4082  0.3417
 2124SOL     OW18007   2.659   0.852   5.472 -0.3600 -0.5182 -0.2835
 2124SOL    HW118008   2.614   0.798   5.407  1.1213 -1.0791 -0.8459
 2124SOL    HW218009   2.731   0.884   5.418 -1.0462 -0.7716 -1.3509
 2125SOL     OW18010   4.276   4.641  16.742  0.1449 -0.5999  0.1489
 2125SOL    HW118011   4.350   4.582  16.730  1.0635  0.7581 -0.8148
 2125SOL    HW218012   4.312   4.728  16.761 -0.3580  0.0649 -1.9253
 2126SOL     OW18013   3.280   4.383   6.871  0.2834  0.0888  0.2976
 2126SOL    HW118014   3.203   4.392   6.816 -0.9827  0.2698  2.1042
 2126SOL    HW218015   3.349   4.386   6.805 -0.1874  2.0543 -0.1046
 2127SOL     OW18016   1.061   3.319   5.615  0.4583  0.7158 -0.0466
 2127SOL    HW118017   0.970   3.288   5.621  0.4552  1.0827  1.6120
 2127SOL    HW218018   1.106   3.247   5.658  0.1966  0.6956  0.1897
 2128SOL     OW18019   2.593   0.806   6.979 -0.3459  0.3326 -0.1531
 2128SOL    HW118020   2.505   0.807   6.940 -0.5048  1.5738  0.2428
 2128SOL    HW218021   2.596   0.898   7.008  3.8748 -0.6269  2.4932
 2129SOL     OW18022   3.833   3.403   6.522 -0.0458  0.8518  0.5046
 2129SOL    HW118023   3.863   3.316   6.547  0.8321  1.2984  1.0040
 2129SOL    HW218024   3.758   3.428   6.575 -0.5855 -0.7703  0.5124
 2130SOL     OW18025   4.167   3.509   4.052  0.0326  0.3387 -0.6109
 2130SOL    HW118026   4.244   3.564   4.066 -0.8278  0.8091  2.1541
 2130SOL    HW218027   4.182   3.477   3.963  0.0655 -1.4498  0.0321
 2131SOL     OW18028   3.155   2.175   7.686 -0.0267  0.1270 -0.5801
 2131SOL    HW118029   3.236   2.123   7.692 -0.1179 -0.2489 -2.8576
 2131SOL    HW218030   3.189   2.259   7.718  1.1671 -0.9704  1.0340
 2132SOL     OW18031   1.976   3.868   3.504  0.5317 -0.6309  0.0593
 2132SOL    HW118032   2.040   3.797   3.498  0.9174 -0.2912  0.1308
 2132SOL    HW218033   1.955   3.855   3.597  0.1432  2.4678  0.4215
 2133SOL     OW18034   3.719   0.480  12.675  0.5010  0.5969  0.3165
 2133SOL    HW118035   3.784   0.431  12.724 -2.3323 -2.2437  1.2324
 2133SOL    HW218036   3.648   0.472  12.739 -0.8725 -0.5216 -1.3310
 2134SOL     OW18037   3.876   3.967   5.361 -0.0304 -0.2914 -0.5456
 2134SOL    HW118038   3.955   3.940   5.314  0.5686  2.3665 -1.0644
 2134SOL    HW218039   3.824   3.993   5.285  0.5497 -1.0506 -1.2044
 2135SOL     OW18040   0.550   0.758   1.728  0.1716  0.3687 -0.5293
 2135SOL    HW118041   0.566   0.696   1.799 -1.0551  2.0313  1.1946
 2135SOL    HW218042   0.503   0.820   1.783  1.3191  0.6024  0.2092
 2136SOL     OW18043   0.420   4.290  13.228 -0.3848  0.3776 -0.1711
 2136SOL    HW118044   0.366   4.233  13.173 -1.3507 -0.1762  1.3520
 2136SOL    HW218045   0.451   4.340  13.152  1.0904  1.3730  1.0886
 2137SOL     OW18046   1.404   4.421   7.915  0.4019 -0.0957  0.1424
 2137SOL    HW118047   1.390   4.399   7.823  0.3334 -2.0737  0.6384
 2137SOL    HW218048   1.471   4.486   7.895 -0.4029  0.0774 -1.9402
 2138SOL     OW18049   0.601   1.918   4.697  0.2983 -0.0432  0.1689
 2138SOL    HW118050   0.693   1.924   4.672  0.5531  0.3274  1.1894
 2138SOL    HW218051   0.573   1.874   4.617 -0.1855  2.2777 -0.9395
 2139SOL     OW18052   2.371   3.711  15.533  0.0340  0.9587 -0.3777
 2139SOL    HW118053   2.307   3.734  15.466  1.5564  2.8683 -1.1921
 2139SOL    HW218054   2.375   3.794  15.580 -1.2749  0.6331  0.2867
 2140SOL     OW18055   1.175   1.445   8.366  0.6929  0.5807 -0.0833
 2140SOL    HW118056   1.224   1.501   8.426 -2.4894  0.1042  2.9926
 2140SOL    HW218057   1.148   1.370   8.418 -0.0839  0.1139 -1.1653
 2141SOL     OW18058   3.894   2.847   6.518  0.4291 -0.1413  0.5192
 2141SOL    HW118059   3.936   2.781   6.462 -1.5642  0.6154 -1.8534
 2141SOL    HW218060   3.890   2.925   6.462 -1.4938 -0.1210  0.6922
 2142SOL     OW18061   1.195   4.184   3.177 -0.1496 -0.5390  0.1072
 2142SOL    HW118062   1.113   4.147   3.211 -0.2438 -0.7657 -0.3599
 2142SOL    HW218063   1.226   4.106   3.130 -1.6155 -1.1144  0.0874
 2143SOL     OW18064   4.006   0.948  14.485  0.4408 -0.1901 -0.3648
 2143SOL    HW118065   4.097   0.976  14.470 -0.4267  1.8611 -1.7696
 2143SOL    HW218066   3.969   0.961  14.397  2.8607  0.6097 -1.2844
 2144SOL     OW18067   4.285   0.687   0.313  0.2444  1.0466  0.0367
 2144SOL    HW118068   4.227   0.763   0.315 -1.0180  0.1520 -3.1778
 2144SOL    HW218069   4.229   0.609   0.309  1.7290 -0.1168  2.0136
 2145SOL     OW18070   1.992   4.062   1.239 -0.1602 -0.2615  0.0846
 2145SOL    HW118071   2.084   4.050   1.263 -0.5427 -0.7034  1.3708
 2145SOL    HW218072   1.989   3.994   1.171 -0.2189  0.9511 -1.1162
 2146SOL     OW18073   0.610   1.151   2.882 -0.0933 -0.0986 -0.0841
 2146SOL    HW118074   0.692   1.199   2.872 -0.4506  0.4243 -0.4966
 2146SOL    HW218075   0.553   1.214   2.838 -0.3274 -0.6462 -0.5620
 2147SOL     OW18076   1.000   4.564   4.967 -0.9897 -0.1354 -0.6274
 2147SOL    HW118077   0.947   4.536   5.041 -0.6249  0.5244 -0.1190
 2147SOL    HW218078   0.953   4.646   4.951 -0.2396  0.4661  0.2264
 2148SOL     OW18079   0.001   1.740   7.417 -0.4218  0.6122 -0.2562
 2148SOL    HW118080   4.680   1.671   7.451  0.6439  0.2954  0.9129
 2148SOL    HW218081   0.004   1.799   7.492  1.3735 -0.1960  0.3009
 2149SOL     OW18082   4.507   3.315   6.432 -0.7384  0.4106  0.5298
 2149SOL    HW118083   4.538   3.310   6.342  1.1892  0.4539  1.2022
 2149SOL    HW218084   4.461   3.231   6.439 -0.3700  0.1963  0.3703
 2150SOL     OW18085   3.289   3.350   4.648  0.1684  0.7539  0.1621
 2150SOL    HW118086   3.363   3.396   4.688  2.5700 -2.9522 -0.0533
 2150SOL    HW218087   3.251   3.419   4.594 -1.8427  0.5102  1.2783
 2151SOL     OW18088   0.528   2.400   8.900  0.0901  0.3097 -0.3066
 2151SOL    HW118089   0.452   2.417   8.956 -0.9680  1.0125 -1.9497
 2151SOL    HW218090   0.519   2.477   8.843 -1.8281  0.8814  0.7540
 2152SOL     OW18091   0.334   2.144  12.313  0.1622  0.2009  0.2457
 2152SOL    HW118092   0.385   2.155  12.393 -2.7494 -0.9450  2.2448
 2152SOL    HW218093   0.365   2.056  12.292  0.5980  0.1167  1.2801
 2153SOL     OW18094   3.894   1.855  11.707 -0.0120  0.1715 -0.4719
 2153SOL    HW118095   3.987   1.866  11.724 -0.1262 -1.1513  1.0468
 2153SOL    HW218096   3.890   1.909  11.628  0.6339  1.6800  0.5330
 2154SOL     OW18097   4.059   1.067   6.049 -0.0179 -0.5015  0.2980
 2154SOL    HW118098   4.044   0.979   6.084 -1.5522  0.3105  1.7103
 2154SOL    HW218099   4.027   1.113   6.127  1.1908 -0.7979  0.9598
 2155SOL     OW18100   1.402   3.807  14.443 -0.1471  0.3342 -0.0720
 2155SOL    HW118101   1.326   3.863  14.428  0.6493  1.4235 -0.0475
 2155SOL    HW218102   1.369   3.721  14.470  1.2885 -0.3548 -0.4549
 2156SOL     OW18103   3.775   4.652  11.181 -0.4062 -0.1093 -0.3970
 2156SOL    HW118104   3.783   4.587  11.111  0.5093  0.7180 -1.0708
 2156SOL    HW218105   3.868   4.675  11.182 -0.1717 -0.9464 -1.7942
 2157SOL     OW18106   3.610   3.422   1.677  0.1030  0.2776  0.4795
 2157SOL    HW118107   3.581   3.513   1.677 -1.7425 -0.3080 -0.9803
 2157SOL    HW218108   3.530   3.375   1.654 -1.4306  2.8205  0.6201
 2158SOL     OW18109   4.367   0.164   1.253  0.0989  0.6179  0.0762
 2158SOL    HW118110   4.366   0.203   1.166  0.9578 -0.0068 -0.2111
 2158SOL    HW218111   4.458   0.167   1.282  0.3998 -2.5941 -0.4534
 2159SOL     OW18112   4.357   0.008  15.952  0.4760 -0.1496 -0.5056
 2159SOL    HW118113   4.274   4.710  15.918  0.8356 -2.4125  0.8808
 2159SOL    HW218114   4.379   4.678  16.017  3.2777  0.2399 -1.0460
 2160SOL     OW18115   0.029   3.326   1.990  0.3689 -0.1790  0.0618
 2160SOL    HW118116   4.685   3.289   2.025 -0.0793  0.7062 -0.0605
 2160SOL    HW218117   0.002   3.417   1.983 -2.1955 -0.6923  3.2491
 2161SOL     OW18118   0.827   0.180   2.232  0.1482  0.1544 -0.2262
 2161SOL    HW118119   0.901   0.239   2.246  0.8105 -0.7517  0.0548
 2161SOL    HW218120   0.798   0.159   2.321 -1.3731 -1.4852 -1.1110
 2162SOL     OW18121   1.641   0.731   6.509 -0.0192 -1.0701 -0.2139
 2162SOL    HW118122   1.635   0.646   6.553  0.0085 -1.2087 -0.4813
 2162SOL    HW218123   1.736   0.747   6.508  0.5481 -4.3936 -0.3404
 2163SOL     OW18124   4.465   1.924   1.479  0.1627 -0.1377 -0.0016
 2163SOL    HW118125   4.490   2.007   1.520 -0.0163 -0.3549  0.5404
 2163SOL    HW218126   4.530   1.868   1.520  1.9520 -0.2790 -3.0742
 2164SOL     OW18127   4.399   0.316   4.434  0.6080  0.3391 -0.1571
 2164SOL    HW118128   4.349   0.373   4.376  0.7603 -1.1984 -1.7934
 2164SOL    HW218129   4.413   0.377   4.507 -0.0493 -0.5144  0.6955
 2165SOL     OW18130   1.255   3.584   8.763  0.5199  0.2372  0.2756
 2165SOL    HW118131   1.232   3.530   8.687  0.0099  1.2175 -0.2613
 2165SOL    HW218132   1.341   3.544   8.779 -0.6678 -1.1427  3.1983
 2166SOL     OW18133   3.421   2.460   3.220  0.6812 -0.3322  0.4764
 2166SOL    HW118134   3.339   2.410   3.212  0.1758  0.3834  1.2468
 2166SOL    HW218135   3.401   2.528   3.156  1.2300 -0.8251 -0.2212
 2167SOL     OW18136   1.195   4.044  11.440 -0.1186 -0.3290 -0.6170
 2167SOL    HW118137   1.279   4.039  11.484 -0.5125 -1.5041  0.0130
 2167SOL    HW218138   1.182   3.955  11.405  1.8314 -1.2131  0.9521
 2168SOL     OW18139   2.470   2.114  17.601 -0.0153 -0.4984  0.4195
 2168SOL    HW118140   2.512   2.028  17.593  0.1824 -0.4240  0.6745
 2168SOL    HW218141   2.506   2.146  17.683  0.3197  0.4563 -0.0975
 2169SOL     OW18142   2.341   0.807   1.699  0.1351  0.1828  0.8424
 2169SOL    HW118143   2.247   0.819   1.689  0.0859 -0.1661  0.8899
 2169SOL    HW218144   2.363   0.896   1.726  1.4666 -0.1690  0.9093
 2170SOL     OW18145   2.084   3.564   1.033  0.4454 -0.4313  0.5536
 2170SOL    HW118146   2.171   3.542   1.067  0.8342  1.7045  0.9595
 2170SOL    HW218147   2.061   3.487   0.981 -3.3638  0.8580  0.3933
 2171SOL     OW18148   1.665   1.644   3.628 -0.3277  0.2770 -0.1898
 2171SOL    HW118149   1.627   1.570   3.582  1.8145 -0.4784 -0.7502
 2171SOL    HW218150   1.685   1.606   3.714  0.5221  2.6504  0.6655
 2172SOL     OW18151   3.162   2.743   6.629 -0.1460 -0.7217 -0.1393
 2172SOL    HW118152   3.168   2.839   6.629 -1.2198 -0.6557  1.6367
 2172SOL    HW218153   3.235   2.718   6.572 -0.8412 -0.8748 -0.9627
 2173SOL     OW18154   0.845   1.787   2.142  0.4737 -0.1211 -0.1291
 2173SOL    HW118155   0.830   1.824   2.228  0.7948 -0.4888  0.0886
 2173SOL    HW218156   0.868   1.694   2.154 -0.8991 -0.7313 -2.1788
 2174SOL     OW18157   4.725   2.564   9.905  0.1541 -0.4130 -0.2898
 2174SOL    HW118158   0.025   2.548   9.818 -2.4305  0.0966 -1.4710
 2174SOL    HW218159   4.734   2.475   9.939  2.2269  0.3748  1.2281
 2175SOL     OW18160   0.066   1.570   4.310 -0.2090  0.3281 -0.2175
 2175SOL    HW118161   0.119   1.649   4.312 -0.9691  0.8176  0.5286
 2175SOL    HW218162   0.125   1.501   4.341  3.0747  3.0847 -0.3162
 2176SOL     OW18163   2.261   4.733   4.008  0.1658 -0.1287  0.4471
 2176SOL    HW118164   2.268   0.037   4.095  0.3304 -1.1056  0.8898
 2176SOL    HW218165   2.168   4.713   3.998 -0.5771  2.9753  0.9368
 2177SOL     OW18166   2.252   2.641   2.179  0.5056  0.4964 -0.2006
 2177SOL    HW118167   2.275   2.574   2.114 -0.8098 -1.4582  1.3891
 2177SOL    HW218168   2.222   2.712   2.122 -1.5925 -1.1022 -1.0864
 2178SOL     OW18169   0.372   1.876   6.954 -0.3534  0.1495  0.4469
 2178SOL    HW118170   0.390   1.917   7.038  2.2383 -0.5415  0.2483
 2178SOL    HW218171   0.433   1.802   6.957  1.9275  1.9861  0.1185
 2179SOL     OW18172   0.620   1.243   1.406  0.0705  0.0080  0.1874
 2179SOL    HW118173   0.564   1.211   1.477 -0.3378 -1.6248 -0.8610
 2179SOL    HW218174   0.623   1.164   1.352  0.4044  0.8943 -1.0831
 2180SOL     OW18175   3.112   0.738   0.288  0.1503 -0.6166  0.4354
 2180SOL    HW118176   3.179   0.689   0.335  2.0623  2.5739  1.0294
 2180SOL    HW218177   3.168   0.780   0.223 -0.2639  0.5258  0.8113
 2181SOL     OW18178   0.783   4.248   1.416  0.1097  0.1369  0.1456
 2181SOL    HW118179   0.839   4.320   1.446 -0.1689 -0.4479  2.0964
 2181SOL    HW218180   0.713   4.250   1.482 -0.6022  0.7762 -0.6236
 2182SOL     OW18181   1.323   4.513   6.592 -0.1275  0.3823  0.3840
 2182SOL    HW118182   1.360   4.557   6.515 -2.5396  1.5656 -0.1079
 2182SOL    HW218183   1.391   4.538   6.655  2.8763 -1.7262 -1.9744
 2183SOL     OW18184   3.192   2.280  16.229  0.6409  0.7919  0.4690
 2183SOL    HW118185   3.260   2.302  16.292  1.2369 -2.3569  0.9205
 2183SOL    HW218186   3.181   2.186  16.241  1.7788  0.5133 -0.5707
 2184SOL     OW18187   2.764   1.364   7.294 -0.1013 -0.1151 -0.2802
 2184SOL    HW118188   2.781   1.379   7.387  2.0273 -1.1885 -0.5062
 2184SOL    HW218189   2.727   1.446   7.260 -0.1456 -0.5710 -1.3175
 2185SOL     OW18190   4.093   0.573  13.633  0.5703  0.2276 -0.1473
 2185SOL    HW118191   4.097   0.645  13.696 -0.6796  1.2662 -1.2510
 2185SOL    HW218192   4.119   0.616  13.551 -0.7689 -0.4203 -0.9176
 2186SOL     OW18193   0.101   4.124   3.233  0.4249  0.3096 -0.3658
 2186SOL    HW118194   0.160   4.170   3.173 -1.3614  0.4809 -1.9689
 2186SOL    HW218195   0.133   4.157   3.317 -1.3813 -1.3904  0.9969
 2187SOL     OW18196   0.327   4.433   5.492  0.1000  0.0631  0.3603
 2187SOL    HW118197   0.385   4.411   5.418 -0.8791 -3.3711  0.6297
 2187SOL    HW218198   0.250   4.470   5.448 -1.6142 -3.3221  0.5811
 2188SOL     OW18199   1.275   3.555   6.081 -0.0611 -0.2407  0.3750
 2188SOL    HW118200   1.230   3.637   6.102 -1.4800 -0.4880 -1.7486
 2188SOL    HW218201   1.234   3.497   6.145 -2.6313  2.3359  1.0556
 2189SOL     OW18202   1.617   1.901   9.024  0.2224 -0.1400 -0.3582
 2189SOL    HW118203   1.524   1.899   9.003 -0.2704  2.4825  1.7282
 2189SOL    HW218204   1.646   1.981   8.980 -0.2535  0.3328  0.1910
 2190SOL     OW18205   3.530   2.008   8.311 -0.0206  0.1594 -0.3409
 2190SOL    HW118206   3.574   2.020   8.227  1.7615 -1.4535  0.3585
 2190SOL    HW218207   3.589   2.064   8.362  1.9559 -1.2971 -1.0373
 2191SOL     OW18208   4.307   3.280  17.386  0.3290 -0.0809  0.1245
 2191SOL    HW118209   4.270   3.368  17.380 -1.1388 -0.6462  0.7036
 2191SOL    HW218210   4.232   3.235  17.425 -1.2708  0.7247 -2.0261
 2192SOL     OW18211   2.852   3.534  17.242 -0.5439 -0.0841 -0.2100
 2192SOL    HW118212   2.803   3.491  17.172 -0.5788 -0.8448  0.2749
 2192SOL    HW218213   2.800   3.612  17.263 -0.2254  0.3051 -0.9131
 2193SOL     OW18214   3.653   0.305  17.232 -0.0883 -0.0237 -0.5711
 2193SOL    HW118215   3.578   0.355  17.263 -1.5957 -0.4608 -3.5408
 2193SOL    HW218216   3.653   0.331  17.140 -2.0119 -0.3749 -0.6639
 2194SOL     OW18217   4.231   2.748   2.946  0.2078  0.0973  0.1903
 2194SOL    HW118218   4.298   2.816   2.957 -1.3212  1.8306 -1.1904
 2194SOL    HW218219   4.157   2.787   2.992  1.4723  1.8946  0.7084
 2195SOL     OW18220   1.691   2.212   9.122 -0.2454  0.0010  0.2474
 2195SOL    HW118221   1.765   2.167   9.082 -1.9758 -1.6596 -1.0424
 2195SOL    HW218222   1.724   2.216   9.213 -3.3274  2.7387  1.2484
 2196SOL     OW18223   4.526   2.462   6.387  0.0334 -0.2118 -0.0787
 2196SOL    HW118224   4.570   2.384   6.422  1.5918  0.8937  0.3822
 2196SOL    HW218225   4.523   2.518   6.465 -0.8091  0.6364 -0.7209
 2197SOL     OW18226   0.398   2.447  14.272 -0.0404  0.4736  0.5340
 2197SOL    HW118227   0.426   2.453  14.181 -0.4313  0.6771  0.4286
 2197SOL    HW218228   0.468   2.399  14.316 -0.6234 -1.7650 -1.0071
 2198SOL     OW18229   1.032   0.870   8.668 -0.3387 -0.4456 -0.3242
 2198SOL    HW118230   1.054   0.875   8.762  0.8890 -2.4788 -0.5013
 2198SOL    HW218231   0.980   0.950   8.669 -0.0939 -0.2854 -1.0803
 2199SOL     OW18232   2.541   0.941   9.347  0.0641  0.4627  0.2964
 2199SOL    HW118233   2.540   0.858   9.396  0.6302 -0.9157 -2.0282
 2199SOL    HW218234   2.495   0.928   9.265  1.6884  1.0597 -0.7043
 2200SOL     OW18235   1.969   2.130   9.089 -0.0465  0.3898 -0.1626
 2200SOL    HW118236   2.036   2.149   9.155  0.0252  0.5866 -0.2936
 2200SOL    HW218237   2.005   2.176   9.013 -0.6969  2.3695  0.7255
 2201SOL     OW18238   3.712   2.381   2.835 -0.1294 -0.1174  0.4941
 2201SOL    HW118239   3.799   2.392   2.797  1.0521 -0.5624  3.1253
 2201SOL    HW218240   3.736   2.399   2.926  1.0297  1.7088 -0.1873
 2202SOL     OW18241   2.863   3.131  16.850 -0.0321 -0.1164 -0.0184
 2202SOL    HW118242   2.958   3.117  16.859 -0.1346 -1.7625 -1.3686
 2202SOL    HW218243   2.828   3.068  16.914 -2.8442 -0.8048 -2.2451
 2203SOL     OW18244   0.851   2.002   0.918 -0.1036  0.3455 -0.3272
 2203SOL    HW118245   0.922   1.992   0.980 -1.0873  0.2234  0.7777
 2203SOL    HW218246   0.815   2.087   0.945  1.5551  0.7021  0.7459
 2204SOL     OW18247   4.084   1.246   8.345 -0.8206  0.2090  0.1200
 2204SOL    HW118248   4.083   1.198   8.428 -1.5117 -1.6965 -1.0002
 2204SOL    HW218249   4.080   1.174   8.282 -1.4393 -0.5546  1.0272
 2205SOL     OW18250   1.702   2.083   8.597 -0.2732  0.2459  0.2271
 2205SOL    HW118251   1.729   2.174   8.587  0.4622 -0.0061 -0.0876
 2205SOL    HW218252   1.612   2.084   8.565  0.2349  1.8601 -1.1195
 2206SOL     OW18253   3.357   1.883  16.643 -0.0854  0.2620  0.0692
 2206SOL    HW118254   3.368   1.791  16.667 -3.1631 -0.3937 -1.0534
 2206SOL    HW218255   3.391   1.925  16.723 -2.8308  1.9688  0.3648
 2207SOL     OW18256   3.000   3.308   0.406  0.0823  0.3118 -0.0029
 2207SOL    HW118257   2.979   3.244   0.475 -0.9290 -1.4449 -1.9419
 2207SOL    HW218258   2.929   3.291   0.344 -0.2522 -2.3726  1.0907
 2208SOL     OW18259   3.631   3.833   4.823  0.6072  0.4328  0.3788
 2208SOL    HW118260   3.673   3.899   4.767  0.2154 -1.9422 -2.6598
 2208SOL    HW218261   3.690   3.758   4.821  2.0203  1.5521 -0.2048
 2209SOL     OW18262   3.855   3.545   8.029 -0.3794  0.3635  0.3316
 2209SOL    HW118263   3.830   3.453   8.040 -0.4892  0.4238  0.5957
 2209SOL    HW218264   3.939   3.542   8.074  0.1169  0.4513 -0.5869
 2210SOL     OW18265   1.390   1.843   7.862 -0.3237  0.5604 -0.2841
 2210SOL    HW118266   1.296   1.827   7.851  0.1009 -1.9243 -0.2620
 2210SOL    HW218267   1.414   1.751   7.853 -1.4206  0.3091 -0.6341
 2211SOL     OW18268   1.211   1.438  16.372  0.5657  0.6814 -0.0738
 2211SOL    HW118269   1.156   1.378  16.321  0.3014  0.4990  0.4162
 2211SOL    HW218270   1.263   1.474  16.301 -0.6632 -1.2385 -1.9448
 2212SOL     OW18271   4.603   4.217   3.648 -0.2593  0.0888  0.3699
 2212SOL    HW118272   4.547   4.263   3.585  0.7240  1.3411  0.4184
 2212SOL    HW218273   4.647   4.160   3.584  0.1492  1.2507 -0.3758
 2213SOL     OW18274   1.870   0.847   7.647  0.0517  0.4617 -0.0335
 2213SOL    HW118275   1.882   0.939   7.668  4.6434  0.4861 -2.8828
 2213SOL    HW218276   1.776   0.855   7.632 -0.0216 -0.3931 -0.0628
 2214SOL     OW18277   4.064   0.631   8.766 -0.1869 -0.2523 -0.4114
 2214SOL    HW118278   4.081   0.668   8.853  1.1418 -0.4924 -0.5661
 2214SOL    HW218279   4.072   0.536   8.767 -1.5838 -0.3627 -0.2818
 2215SOL     OW18280   2.561   2.090   2.871  0.6125 -0.2031  0.4701
 2215SOL    HW118281   2.482   2.143   2.880  1.7407  1.4255  0.7960
 2215SOL    HW218282   2.605   2.126   2.948  0.7144 -0.2754  0.4444
 2216SOL     OW18283   4.618   1.979  12.579  0.0359  0.5644  0.1477
 2216SOL    HW118284   4.620   2.066  12.539 -1.7643  0.3892 -0.3157
 2216SOL    HW218285   4.527   1.950  12.582 -0.1832  0.9566 -2.4402
 2217SOL     OW18286   0.198   2.225   7.443 -1.0066  0.6121  0.2972
 2217SOL    HW118287   0.104   2.232   7.427 -1.5417 -1.8389  2.3202
 2217SOL    HW218288   0.205   2.279   7.522 -0.4386  0.3879  0.4020
 2218SOL     OW18289   1.126   1.906   6.958 -0.1274  0.8919 -0.0440
 2218SOL    HW118290   1.039   1.922   6.921 -0.0552  1.9037  0.2314
 2218SOL    HW218291   1.124   1.953   7.041 -1.2688 -1.4041  1.2221
 2219SOL     OW18292   3.743   4.735   6.582 -0.3704 -0.2017 -0.7499
 2219SOL    HW118293   3.655   0.009   6.616 -0.1466 -0.3665 -0.1061
 2219SOL    HW218294   3.746   4.643   6.558 -1.4530 -1.0700  2.3956
 2220SOL     OW18295   2.799   3.334   7.107  0.3468 -0.4372  0.1703
 2220SOL    HW118296   2.844   3.302   7.185 -0.6109 -1.1044  0.4492
 2220SOL    HW218297   2.861   3.342   7.034 -1.3183 -1.3375 -1.3548
 2221SOL     OW18298   1.434   3.180   5.865 -0.0892  0.2557  0.5713
 2221SOL    HW118299   1.492   3.224   5.803 -0.8908  0.9401  0.3232
 2221SOL    HW218300   1.452   3.240   5.937 -1.8208  0.8557  0.4903
 2222SOL     OW18301   2.496   2.698  13.500  0.1930  0.0996 -0.2904
 2222SOL    HW118302   2.532   2.764  13.441  0.2754  0.4166  0.1157
 2222SOL    HW218303   2.418   2.662  13.458  0.6188 -1.3452  0.1657
 2223SOL     OW18304   1.768   4.285   5.426 -0.0770  0.2938 -0.4812
 2223SOL    HW118305   1.775   4.195   5.394 -1.5155  0.3198 -0.8402
 2223SOL    HW218306   1.702   4.280   5.495 -0.2894  0.5094 -0.6711
 2224SOL     OW18307   3.308   0.207   2.873 -0.2338 -0.0704 -0.1434
 2224SOL    HW118308   3.341   0.264   2.803 -1.4901  0.4052 -0.3471
 2224SOL    HW218309   3.230   0.175   2.827 -0.2959 -0.3768  0.1784
 2225SOL     OW18310   0.079   2.656   0.930  0.3510  0.1576 -0.3628
 2225SOL    HW118311   0.157   2.639   0.877  0.3319 -0.4693 -0.1871
 2225SOL    HW218312   0.056   2.744   0.901  1.4393  0.7338  0.5232
 2226SOL     OW18313   3.425   0.480  12.228 -0.2352  0.5330 -0.5074
 2226SOL    HW118314   3.367   0.445  12.160 -0.7959 -0.4155  0.4542
 2226SOL    HW218315   3.426   0.574  12.206 -1.1477 -0.0521 -3.0750
 2227SOL     OW18316   4.265   0.261   9.140  0.1370  0.6386 -0.6684
 2227SOL    HW118317   4.215   0.189   9.102  0.9405  0.2471 -0.9839
 2227SOL    HW218318   4.335   0.266   9.075  0.4219 -1.9661 -0.5599
 2228SOL     OW18319   2.605   3.142  10.169  0.3217  0.6077 -0.0857
 2228SOL    HW118320   2.542   3.073  10.190  0.0726  0.5846 -0.9093
 2228SOL    HW218321   2.573   3.222  10.212 -1.1022 -0.3956  0.6767
 2229SOL     OW18322   2.146   2.280   2.132  0.1361  0.6421  0.1146
 2229SOL    HW118323   2.177   2.190   2.120 -0.9835  0.1948  0.5754
 2229SOL    HW218324   2.195   2.296   2.213  0.3957  2.5562 -0.4124
 2230SOL     OW18325   4.201   3.075  16.684 -0.6089 -0.3323 -0.3925
 2230SOL    HW118326   4.230   3.166  16.686 -2.8463  0.4360 -2.6841
 2230SOL    HW218327   4.283   3.027  16.693 -2.0960 -2.2974  2.4560
 2231SOL     OW18328   3.284   0.950  12.304 -0.3844 -0.1865 -0.1114
 2231SOL    HW118329   3.282   1.045  12.304  1.4142 -0.1475 -0.5396
 2231SOL    HW218330   3.299   0.930  12.396  3.8554  1.4662 -0.4741
 2232SOL     OW18331   0.989   1.820   2.684  0.3625 -0.0566  0.1349
 2232SOL    HW118332   1.083   1.804   2.699  0.7992  2.1084 -0.3081
 2232SOL    HW218333   0.956   1.737   2.719  2.3853 -1.8381 -2.1008
 2233SOL     OW18334   2.488   2.088   7.414  0.0506  0.0039 -0.2291
 2233SOL    HW118335   2.546   2.128   7.479  1.0387 -0.6679 -0.6976
 2233SOL    HW218336   2.448   2.170   7.385 -0.7253 -0.5144 -0.6284
 2234SOL     OW18337   0.115   2.840   8.768  0.0679  0.0311 -0.0545
 2234SOL    HW118338   0.095   2.917   8.821 -2.8321 -0.5323 -0.3164
 2234SOL    HW218339   0.152   2.773   8.826  0.0451  0.7884  0.8367
 2235SOL     OW18340   1.432   4.542   8.320  0.9310  0.4519 -0.1220
 2235SOL    HW118341   1.451   4.450   8.341 -1.0017  0.0869 -0.0430
 2235SOL    HW218342   1.523   4.568   8.304  1.5312 -2.1882 -0.9675
 2236SOL     OW18343   2.050   1.011   5.259 -0.6902 -0.0698 -0.4128
 2236SOL    HW118344   1.995   0.934   5.276 -0.8667  0.2482  0.4471
 2236SOL    HW218345   1.983   1.077   5.278  0.0945  0.9956 -1.4065
 2237SOL     OW18346   1.781   2.640   7.784  0.4700 -0.0301 -0.1180
 2237SOL    HW118347   1.750   2.550   7.775 -0.5541  0.4017 -0.8085
 2237SOL    HW218348   1.705   2.677   7.739  0.2458 -0.8456 -0.4173
 2238SOL     OW18349   2.553   4.193   5.990 -0.6636 -0.0715  0.8936
 2238SOL    HW118350   2.565   4.192   5.895  1.2494  1.6700  1.1166
 2238SOL    HW218351   2.471   4.148   6.009  0.6846 -2.8584  0.0678
 2239SOL     OW18352   0.867   1.931   6.616 -0.1814 -0.5935  0.4725
 2239SOL    HW118353   0.923   1.888   6.551 -0.4095 -0.1985  0.0218
 2239SOL    HW218354   0.865   2.017   6.574  3.3423 -0.8675 -0.2515
 2240SOL     OW18355   4.555   4.122   8.789 -0.1416  0.2660 -0.3779
 2240SOL    HW118356   4.535   4.029   8.778 -1.1974  0.3983  0.4672
 2240SOL    HW218357   4.478   4.176   8.772 -0.2135 -0.7017 -3.0632
 2241SOL     OW18358   4.495   4.341   2.700  0.0011  0.6568  0.1070
 2241SOL    HW118359   4.454   4.285   2.634  2.4628 -1.7917  0.6554
 2241SOL    HW218360   4.563   4.383   2.648  0.3785  1.5189  1.2783
 2242SOL     OW18361   3.484   3.146   4.641 -0.4041  0.4783 -0.4397
 2242SOL    HW118362   3.429   3.107   4.709 -1.2811  0.2156 -1.3134
 2242SOL    HW218363   3.429   3.221   4.623  1.1711  1.4256 -1.2891
 2243SOL     OW18364   3.742   1.218   8.972  0.0957  0.9152  0.9290
 2243SOL    HW118365   3.795   1.180   8.901 -0.6517  2.8109 -0.6350
 2243SOL    HW218366   3.789   1.301   8.982  0.8142  0.7540 -0.9665
 2244SOL     OW18367   2.273   2.764  17.436  0.2971  0.0741 -0.2078
 2244SOL    HW118368   2.319   2.728  17.360  0.0958  0.4065 -0.4833
 2244SOL    HW218369   2.243   2.678  17.467 -2.1702  0.6762 -0.9039
 2245SOL     OW18370   1.892   2.659   2.176 -0.2501 -0.3886 -0.5926
 2245SOL    HW118371   1.886   2.656   2.271  0.3525 -0.2061 -0.5490
 2245SOL    HW218372   1.986   2.654   2.159  0.5674 -0.3056  4.0739
 2246SOL     OW18373   0.530   0.337   7.779 -1.0653  0.1008 -0.1673
 2246SOL    HW118374   0.519   0.328   7.874 -0.8926  0.2840 -0.1272
 2246SOL    HW218375   0.506   0.251   7.746  2.8432 -0.6772 -1.0194
 2247SOL     OW18376   1.410   1.140  15.485  0.1167  0.2867  0.2157
 2247SOL    HW118377   1.437   1.218  15.533  3.1983  0.5948 -2.0524
 2247SOL    HW218378   1.401   1.181  15.399 -0.0451 -1.0952 -0.4248
 2248SOL     OW18379   4.489   2.903   3.788 -0.0233  0.0767 -0.0569
 2248SOL    HW118380   4.459   2.911   3.697  1.2705 -0.9680 -0.5781
 2248SOL    HW218381   4.465   2.811   3.796  2.1057 -0.3916  1.0216
 2249SOL     OW18382   2.869   1.524   7.884  0.1632 -0.4913 -0.5785
 2249SOL    HW118383   2.822   1.604   7.863 -1.8776 -2.0254 -1.9514
 2249SOL    HW218384   2.849   1.478   7.802 -2.0103  2.6696 -1.8265
 2250SOL     OW18385   2.710   4.437  11.911  0.2746 -0.3888 -0.4283
 2250SOL    HW118386   2.656   4.509  11.880  0.0070 -0.3606  0.1150
 2250SOL    HW218387   2.651   4.366  11.883  0.7452 -0.7167 -0.5888
 2251SOL     OW18388   2.273   0.410   6.417  0.7197 -0.1074 -0.2170
 2251SOL    HW118389   2.319   0.494   6.420 -1.2967  0.8935  2.6815
 2251SOL    HW218390   2.188   0.433   6.380  1.5553 -0.0861 -2.1566
 2252SOL     OW18391   1.742   3.100   4.447  0.4154  0.1990 -0.1802
 2252SOL    HW118392   1.676   3.158   4.484 -1.6403 -2.0825 -0.2321
 2252SOL    HW218393   1.817   3.118   4.503  0.1202  1.9998 -0.3833
 2253SOL     OW18394   3.829   2.758   6.161 -0.9093 -0.7157  0.6157
 2253SOL    HW118395   3.866   2.829   6.107  1.5604 -0.2591  2.8914
 2253SOL    HW218396   3.901   2.722   6.213 -0.4954 -1.4565 -0.4603
 2254SOL     OW18397   0.823   2.968   8.957  0.0383 -1.0027 -0.1716
 2254SOL    HW118398   0.728   2.961   8.973  0.0905 -1.7883 -0.1748
 2254SOL    HW218399   0.856   2.917   9.031  0.6900 -1.0480 -0.4998
 2255SOL     OW18400   1.030   4.607   6.729  0.0341  0.1016  0.2107
 2255SOL    HW118401   0.987   4.526   6.700 -0.8349  0.4637  0.4850
 2255SOL    HW218402   1.044   4.651   6.645 -0.7097 -2.7133 -1.3980
 2256SOL     OW18403   0.757   2.653   7.341 -0.0373  0.2488 -0.1018
 2256SOL    HW118404   0.817   2.589   7.303  0.5821  0.9046 -0.2425
 2256SOL    HW218405   0.708   2.592   7.396  1.6763  1.5475  2.9039
 2257SOL     OW18406   3.569   0.447   2.409  0.3426 -0.7058  0.3017
 2257SOL    HW118407   3.593   0.492   2.328 -0.6436 -0.3017  0.2325
 2257SOL    HW218408   3.544   0.509   2.477  0.7197  0.0380 -0.2387
 2258SOL     OW18409   4.419   3.176  15.313  0.5039  0.3444  0.1446
 2258SOL    HW118410   4.329   3.151  15.293  0.1054  1.9973 -0.1086
 2258SOL    HW218411   4.456   3.093  15.345  2.0324  0.2639 -1.8222
 2259SOL     OW18412   2.237   0.504   4.340  0.3883  0.4293 -0.1749
 2259SOL    HW118413   2.296   0.492   4.415 -0.8126 -0.7133  0.5827
 2259SOL    HW218414   2.245   0.599   4.337 -0.5455  0.4346 -2.3772
 2260SOL     OW18415   3.938   4.559   7.383 -0.5395 -0.5929 -0.1036
 2260SOL    HW118416   3.854   4.601   7.365  0.0947  0.4957 -0.5079
 2260SOL    HW218417   3.937   4.539   7.477 -0.4391 -0.8985 -0.1664
 2261SOL     OW18418   3.676   3.671  10.132  0.1123 -0.0150 -0.1772
 2261SOL    HW118419   3.605   3.609  10.125  0.9413 -1.2911  2.6350
 2261SOL    HW218420   3.726   3.634  10.059  0.5443 -0.4628  0.3465
 2262SOL     OW18421   0.157   2.455   4.412 -0.2534  0.0755  0.3464
 2262SOL    HW118422   0.242   2.486   4.444  1.6540 -2.3243 -2.4318
 2262SOL    HW218423   0.098   2.525   4.439 -0.1875  0.0898  0.4519
 2263SOL     OW18424   2.595   0.972   7.490  0.1446  0.5258  0.1890
 2263SOL    HW118425   2.603   1.028   7.413 -0.9793  0.9527  0.3717
 2263SOL    HW218426   2.541   1.022   7.551 -1.8430 -1.2974 -0.0504
 2264SOL     OW18427   1.827   2.626   2.461  0.2262  0.1694  0.3754
 2264SOL    HW118428   1.771   2.555   2.492 -0.2083  0.5579  0.4785
 2264SOL    HW218429   1.792   2.698   2.513 -2.3269 -0.9491  0.2197
 2265SOL     OW18430   0.644   4.681   6.172 -0.2404  0.1664 -0.3796
 2265SOL    HW118431   0.605   4.652   6.255 -1.3572  3.5404  0.2455
 2265SOL    HW218432   0.730   4.639   6.177 -0.6205 -0.7101 -1.2759
 2266SOL     OW18433   3.561   2.424   8.739 -0.3137 -0.0453  0.3854
 2266SOL    HW118434   3.646   2.448   8.777  1.2513 -0.7708 -2.6686
 2266SOL    HW218435   3.562   2.330   8.757 -2.2500  0.1022  1.3440
 2267SOL     OW18436   2.372   3.187   1.040 -0.3515  0.0096 -0.2392
 2267SOL    HW118437   2.466   3.172   1.042 -0.3972 -0.0607  1.3978
 2267SOL    HW218438   2.362   3.208   0.947 -0.8247 -1.1743 -0.4656
 2268SOL     OW18439   2.802   3.834   5.266 -0.0482  0.7932 -0.0137
 2268SOL    HW118440   2.764   3.850   5.179 -1.7246  1.3449  0.8295
 2268SOL    HW218441   2.886   3.881   5.265  0.1445  0.4486  0.6069
 2269SOL     OW18442   1.737   1.813   6.093  0.2773 -0.7143  0.4245
 2269SOL    HW118443   1.807   1.854   6.042  1.1326 -0.5465  1.7546
 2269SOL    HW218444   1.791   1.743   6.130  0.3122 -0.6079  0.5731
 2270SOL     OW18445   3.845   1.583   6.616  0.1634  0.1659 -0.5091
 2270SOL    HW118446   3.773   1.644   6.631 -0.9107 -1.3518  0.6676
 2270SOL    HW218447   3.797   1.502   6.637  0.9930  0.5202  2.8745
 2271SOL     OW18448   4.142   1.928   7.984  0.2379 -0.7600 -0.3338
 2271SOL    HW118449   4.163   1.891   8.069  0.8376 -0.0853 -0.1949
 2271SOL    HW218450   4.228   1.950   7.949  0.3970  0.6157  0.9462
 2272SOL     OW18451   0.094   2.588  12.217 -0.2557 -0.4442  0.0134
 2272SOL    HW118452   0.118   2.496  12.231 -1.8660 -0.8559  0.0103
 2272SOL    HW218453   0.001   2.589  12.240 -0.9712  0.9134 -3.0206
 2273SOL     OW18454   0.781   4.067  13.985 -0.2013 -0.1688  0.3500
 2273SOL    HW118455   0.781   4.157  13.952 -0.0700 -0.7687 -1.2700
 2273SOL    HW218456   0.736   4.019  13.916 -0.2688 -1.3296  1.2042
 2274SOL     OW18457   3.762   0.479  10.909  0.3374 -0.2802  0.0914
 2274SOL    HW118458   3.802   0.481  10.996  1.9855  0.0441 -0.6725
 2274SOL    HW218459   3.742   0.386  10.897 -0.2002 -0.2146  0.5082
 2275SOL     OW18460   2.167   3.112  11.038 -0.2300  0.1390 -0.1121
 2275SOL    HW118461   2.121   3.084  11.118  0.5182 -0.8769 -0.0467
 2275SOL    HW218462   2.102   3.180  11.021  0.2157  0.2155 -1.4589
 2276SOL     OW18463   0.761   2.030  10.654  0.7516 -0.6121 -0.0125
 2276SOL    HW118464   0.681   2.051  10.702  1.0931  1.4904 -0.3282
 2276SOL    HW218465   0.822   2.036  10.728 -0.9049  0.7687  1.2396
 2277SOL     OW18466   3.859   1.891  14.829  0.6624  0.6479 -0.3947
 2277SOL    HW118467   3.781   1.921  14.876 -0.6317  0.0046 -2.1406
 2277SOL    HW218468   3.906   1.973  14.816  1.3778  0.3547  0.3238
 2278SOL     OW18469   2.442   4.615   5.306  0.2343  0.4540  0.4852
 2278SOL    HW118470   2.375   4.661   5.356  0.0818  0.4235  0.3047
 2278SOL    HW218471   2.430   4.522   5.329 -0.9390  0.5630  0.3116
 2279SOL     OW18472   3.135   3.523  16.917 -0.0796 -0.3032 -0.1292
 2279SOL    HW118473   3.183   3.507  16.998 -0.4081 -1.4751 -0.1715
 2279SOL    HW218474   3.194   3.584  16.872 -0.1657 -0.4959 -0.5048
 2280SOL     OW18475   0.219   3.856  12.379 -0.0899 -0.2318 -0.1298
 2280SOL    HW118476   0.203   3.762  12.363  1.2474 -0.2681 -1.2244
 2280SOL    HW218477   0.281   3.880  12.311 -0.6409  3.1093  0.5713
 2281SOL     OW18478   4.603   0.211   5.185  0.4856 -0.2742  0.0094
 2281SOL    HW118479   4.591   0.287   5.128 -0.7307  0.8319  1.7484
 2281SOL    HW218480   4.625   0.259   5.265  0.6194  1.6828 -1.1988
 2282SOL     OW18481   3.141   2.256   8.496  0.4913 -0.9794  0.5031
 2282SOL    HW118482   3.106   2.274   8.409 -1.7759  1.5388  1.9334
 2282SOL    HW218483   3.198   2.184   8.469  1.7121  1.8205 -4.3030
 2283SOL     OW18484   2.051   0.037   4.844 -0.4391 -0.2331 -0.1286
 2283SOL    HW118485   2.029   4.700   4.901  0.5498  0.0909  0.6682
 2283SOL    HW218486   2.005   0.013   4.763 -1.0899  0.7277 -0.0460
 2284SOL     OW18487   3.855   3.663   3.669 -0.6433 -0.5495 -0.4147
 2284SOL    HW118488   3.792   3.641   3.600  1.3905 -0.7120 -2.2111
 2284SOL    HW218489   3.802   3.645   3.746 -2.6279 -0.5853 -1.7837
 2285SOL     OW18490   0.910   4.503   7.822  0.4185  0.3697 -0.0667
 2285SOL    HW118491   0.830   4.513   7.770 -0.1816  0.9065  0.9775
 2285SOL    HW218492   0.958   4.584   7.809  1.0226 -0.0546 -0.5027
 2286SOL     OW18493   0.651   2.038   6.963  0.0330 -0.3357  0.2873
 2286SOL    HW118494   0.646   1.995   7.048 -2.3673  0.0903  0.3432
 2286SOL    HW218495   0.561   2.037   6.931  0.3794 -0.0010 -0.6946
 2287SOL     OW18496   1.061   4.581   4.108 -0.3490 -0.5932 -0.5806
 2287SOL    HW118497   1.093   4.520   4.174  1.5075 -0.5241 -1.4323
 2287SOL    HW218498   0.967   4.576   4.128 -0.6492  0.2822 -1.7393
 2288SOL     OW18499   4.537   4.247   0.815  0.0230 -0.3006 -0.1441
 2288SOL    HW118500   4.549   4.206   0.729 -0.9692  0.2258 -0.5303
 2288SOL    HW218501   4.442   4.237   0.827 -0.2668  3.2248  0.4982
 2289SOL     OW18502   0.309   1.964   4.130 -0.3526 -0.5101 -0.3374
 2289SOL    HW118503   0.326   2.029   4.062  0.9651 -0.0936  0.3697
 2289SOL    HW218504   0.395   1.923   4.140  0.3117  0.8255 -0.4771
 2290SOL     OW18505   3.595   2.667   3.343 -0.4788 -0.2081  0.0571
 2290SOL    HW118506   3.688   2.648   3.330 -0.2478  1.7604 -1.1710
 2290SOL    HW218507   3.553   2.581   3.349 -0.9783 -0.0138 -0.7402
 2291SOL     OW18508   3.063   2.715   7.567  0.0387 -0.1930 -0.5396
 2291SOL    HW118509   2.990   2.672   7.522 -0.2479 -2.1736  1.8253
 2291SOL    HW218510   3.127   2.644   7.572  1.4367  0.9869 -1.4612
 2292SOL     OW18511   3.918   3.728   9.025  0.8878  0.5615 -0.2466
 2292SOL    HW118512   3.892   3.816   9.052 -0.3863 -0.0755  0.6429
 2292SOL    HW218513   3.906   3.690   9.112  0.1072  0.3311 -0.4516
 2293SOL     OW18514   3.085   2.377  14.900 -0.3191  0.1730 -0.2400
 2293SOL    HW118515   2.995   2.405  14.881 -0.2268  0.8543  0.3426
 2293SOL    HW218516   3.099   2.290  14.861  1.0827  0.7654 -1.0462
 2294SOL     OW18517   0.618   3.493  10.854 -0.4561  0.3267  0.0848
 2294SOL    HW118518   0.691   3.488  10.916  1.7786  1.3913 -2.4493
 2294SOL    HW218519   0.604   3.586  10.839 -1.1792 -0.0652 -1.7140
 2295SOL     OW18520   4.262   4.215   2.950  0.0602  0.1242 -0.0863
 2295SOL    HW118521   4.189   4.172   2.993  1.6064 -1.9845  0.4060
 2295SOL    HW218522   4.287   4.282   3.014  0.6851  0.7664 -0.9915
 2296SOL     OW18523   3.298   0.735   2.280 -0.0035  0.5418 -0.2203
 2296SOL    HW118524   3.253   0.795   2.339 -0.2061  0.1271  0.0433
 2296SOL    HW218525   3.353   0.795   2.229  1.5501  0.5530  1.4983
 2297SOL     OW18526   4.079   0.293   8.766 -0.3150  0.0610  0.2173
 2297SOL    HW118527   3.992   0.263   8.742 -0.7181  1.0195  0.4815
 2297SOL    HW218528   4.116   0.307   8.679 -0.9588 -0.4836 -0.1385
 2298SOL     OW18529   3.507   4.280  10.368 -0.2665 -0.3676 -0.7621
 2298SOL    HW118530   3.599   4.275  10.395 -0.5518  0.9561  0.4470
 2298SOL    HW218531   3.473   4.296  10.456  1.2470 -0.4938 -0.1473
 2299SOL     OW18532   1.835   1.060   5.715 -0.2736 -0.0651 -0.3289
 2299SOL    HW118533   1.892   1.055   5.792 -1.3898 -1.2013  0.4258
 2299SOL    HW218534   1.883   1.004   5.654  1.4892  0.0704  0.9451
 2300SOL     OW18535   1.393   3.720  15.044 -0.5133 -0.4031 -0.5410
 2300SOL    HW118536   1.416   3.632  15.073  0.2253  0.6876  2.2488
 2300SOL    HW218537   1.414   3.764  15.127 -0.1446  0.2641 -0.9889
 2301SOL     OW18538   3.972   1.957   7.141  0.0189  0.2964 -0.2441
 2301SOL    HW118539   3.891   2.000   7.169 -0.7224 -1.0560 -0.3471
 2301SOL    HW218540   3.943   1.915   7.060 -0.6302  0.0668  0.1144
 2302SOL     OW18541   2.360   1.689   4.863  0.0883 -0.0621  0.5227
 2302SOL    HW118542   2.275   1.651   4.885 -0.3762  0.4103 -0.4523
 2302SOL    HW218543   2.420   1.636   4.916  0.5944  1.4529  1.4536
 2303SOL     OW18544   1.308   1.665   5.208 -0.3987 -0.1749  0.0172
 2303SOL    HW118545   1.330   1.675   5.301 -0.8167 -0.6458  0.1649
 2303SOL    HW218546   1.356   1.740   5.173 -0.1966 -0.3418 -0.0621
 2304SOL     OW18547   0.768   3.820   2.588  0.6369 -0.3653 -0.0596
 2304SOL    HW118548   0.681   3.793   2.619 -0.0437  4.1229  1.8787
 2304SOL    HW218549   0.748   3.858   2.502 -0.1422 -0.0532  0.2597
 2305SOL     OW18550   4.711   1.647   3.049  0.2534 -0.3769  0.2169
 2305SOL    HW118551   4.719   1.584   2.977 -1.6772 -0.7566  0.3394
 2305SOL    HW218552   4.619   1.665   3.031 -0.0361 -1.3061  0.7959
 2306SOL     OW18553   0.957   2.451   8.615  0.1738  0.3115  0.4323
 2306SOL    HW118554   0.941   2.525   8.674 -1.5047  2.1671 -2.2907
 2306SOL    HW218555   0.988   2.380   8.670  0.9318  1.0908  1.0080
 2307SOL     OW18556   4.201   0.384   8.564 -0.2786  0.6340 -0.6286
 2307SOL    HW118557   4.268   0.374   8.496  0.3376 -2.3248  0.3951
 2307SOL    HW218558   4.255   0.434   8.625 -0.1023 -0.0202 -0.2446
 2308SOL     OW18559   1.886   3.620   1.320  0.0196  0.1122 -0.0697
 2308SOL    HW118560   1.974   3.649   1.343  0.4057 -0.9921 -0.1794
 2308SOL    HW218561   1.875   3.672   1.241 -0.2739 -0.7330 -0.5826
 2309SOL     OW18562   1.913   2.148   7.705 -0.6803  0.4891 -0.9347
 2309SOL    HW118563   1.898   2.057   7.680  0.0501  0.1909 -0.2778
 2309SOL    HW218564   1.902   2.143   7.799  3.0003 -1.8628 -0.6572
 2310SOL     OW18565   4.467   4.263   9.559  0.8206  0.0571  0.3776
 2310SOL    HW118566   4.478   4.343   9.611 -1.1315  0.2729  0.4596
 2310SOL    HW218567   4.399   4.212   9.604 -0.3330  1.1484 -0.1528
 2311SOL     OW18568   4.361   0.435   6.450 -0.1241 -0.7354  0.1313
 2311SOL    HW118569   4.369   0.488   6.371  0.1782 -1.3187 -0.2264
 2311SOL    HW218570   4.449   0.435   6.488 -0.0599  0.9119 -0.0221
 2312SOL     OW18571   3.627   3.403   2.085 -0.3047  0.1511 -0.2783
 2312SOL    HW118572   3.535   3.388   2.066 -0.1203  0.9784 -1.7704
 2312SOL    HW218573   3.618   3.395   2.180 -0.7045 -0.6322 -0.3876
 2313SOL     OW18574   0.349   0.426   1.977  0.7357  0.1948 -0.1687
 2313SOL    HW118575   0.255   0.425   1.960  0.7134  1.4524 -0.1098
 2313SOL    HW218576   0.364   0.332   1.976  1.6494  0.3367 -0.2985
 2314SOL     OW18577   0.106   0.481  16.399 -0.6367  0.0040  0.8372
 2314SOL    HW118578   0.024   0.519  16.367  0.1125 -1.0107 -2.3007
 2314SOL    HW218579   0.065   0.418  16.458  1.1458 -0.6352  1.3873
 2315SOL     OW18580   1.484   2.420   5.726  0.4065  0.6509 -0.3843
 2315SOL    HW118581   1.412   2.477   5.753  2.4982  2.4250  1.5112
 2315SOL    HW218582   1.459   2.343   5.778  1.9969  0.5006  0.1594
 2316SOL     OW18583   1.874   0.135   8.537 -0.5211  0.2951  0.2469
 2316SOL    HW118584   1.897   0.090   8.618 -0.6746 -1.2697 -0.5742
 2316SOL    HW218585   1.945   0.120   8.474 -1.2763 -0.4725 -0.4218
 2317SOL     OW18586   1.696   1.462   3.824 -0.4577  0.2516 -0.6702
 2317SOL    HW118587   1.747   1.383   3.806  2.0485  1.5899  0.3863
 2317SOL    HW218588   1.682   1.452   3.919 -1.1172 -0.4863 -0.8491
 2318SOL     OW18589   4.349   3.429   7.535  0.1186 -0.1354  0.0272
 2318SOL    HW118590   4.429   3.463   7.496 -0.0948 -1.3407 -1.4648
 2318SOL    HW218591   4.350   3.455   7.627 -1.5793  0.2367 -0.0548
 2319SOL     OW18592   3.303   3.425   6.997 -0.7195 -0.5338  0.6412
 2319SOL    HW118593   3.375   3.476   6.961 -1.2649  1.6716  2.6972
 2319SOL    HW218594   3.252   3.491   7.043 -0.5585 -0.9419  1.4128
 2320SOL     OW18595   2.541   2.329  15.936 -0.3790 -0.4079  0.0342
 2320SOL    HW118596   2.571   2.383  15.863 -0.6405  1.1688  1.0823
 2320SOL    HW218597   2.455   2.305  15.901 -0.6047  1.6768 -0.8633
 2321SOL     OW18598   1.877   1.345   3.587 -0.8007 -0.0605 -0.2694
 2321SOL    HW118599   1.883   1.284   3.660 -0.5146  2.3715  1.7413
 2321SOL    HW218600   1.799   1.317   3.539  0.8416 -3.2267 -1.1425
 2322SOL     OW18601   2.278   4.374   3.235  0.5511  0.1099  0.6160
 2322SOL    HW118602   2.273   4.310   3.305  2.3382  0.4652  1.0587
 2322SOL    HW218603   2.229   4.334   3.163  1.2196 -0.9325  0.7450
 2323SOL     OW18604   3.024   1.695   6.113  0.0062  0.5760  0.0257
 2323SOL    HW118605   3.071   1.725   6.035  1.4867  0.7231  0.9654
 2323SOL    HW218606   2.970   1.768   6.143 -0.4186 -0.1188  0.9334
 2324SOL     OW18607   4.378   2.332   3.945 -0.2559 -0.1011 -0.9020
 2324SOL    HW118608   4.343   2.255   3.991  3.4020 -1.3162 -0.2083
 2324SOL    HW218609   4.352   2.408   3.997 -0.3051 -1.8177  1.5872
 2325SOL     OW18610   1.511   1.435   3.495  0.1904 -0.3146  0.4295
 2325SOL    HW118611   1.464   1.387   3.563  0.4853  0.5132  1.2103
 2325SOL    HW218612   1.544   1.359   3.447  0.5829 -0.2008  0.5189
 2326SOL     OW18613   0.399   3.331  10.466  0.1572  0.5437 -0.1632
 2326SOL    HW118614   0.427   3.330  10.558  2.2315  0.5006 -0.7996
 2326SOL    HW218615   0.349   3.413  10.469 -2.6249 -1.2101  1.9895
 2327SOL     OW18616   2.825   1.731   2.743 -0.2907 -0.2650 -0.3594
 2327SOL    HW118617   2.793   1.785   2.815  1.3643  1.0985 -0.6364
 2327SOL    HW218618   2.819   1.648   2.790 -2.3948  0.1046  0.0160
 2328SOL     OW18619   3.038   1.831   6.802 -0.1505 -0.3100 -0.2465
 2328SOL    HW118620   2.958   1.835   6.749  0.0287 -0.2921 -0.5155
 2328SOL    HW218621   3.104   1.860   6.740 -0.5426  0.8924 -0.0975
 2329SOL     OW18622   3.071   2.342   2.893  0.4687 -0.0002 -0.2299
 2329SOL    HW118623   3.044   2.257   2.858  0.6033 -0.6144  1.1908
 2329SOL    HW218624   3.073   2.393   2.812  0.8441 -1.5438 -1.1862
 2330SOL     OW18625   1.889   1.200   9.040 -0.4113 -0.5321 -0.0313
 2330SOL    HW118626   1.846   1.165   8.962 -1.0339 -0.7068  0.3864
 2330SOL    HW218627   1.943   1.270   9.002 -0.4001 -1.2025 -1.2519
 2331SOL     OW18628   3.183   3.511   3.661 -0.4962  0.3040 -0.2097
 2331SOL    HW118629   3.130   3.434   3.683 -0.1152 -0.2236 -1.1694
 2331SOL    HW218630   3.261   3.515   3.715 -0.4965 -1.5129 -0.0895
 2332SOL     OW18631   4.100   0.921  10.849  0.3954  0.6334 -0.0665
 2332SOL    HW118632   4.056   0.843  10.884  2.2505 -0.7564 -0.8508
 2332SOL    HW218633   4.149   0.957  10.923 -0.4199  2.2310 -0.2943
 2333SOL     OW18634   2.118   3.914   7.889  0.0663 -0.7654  0.4150
 2333SOL    HW118635   2.142   3.957   7.971  2.4953  0.0880 -0.7625
 2333SOL    HW218636   2.201   3.871   7.868 -1.2405 -4.1149  2.0417
 2334SOL     OW18637   1.572   3.366   8.027 -0.2986 -0.2787  0.0511
 2334SOL    HW118638   1.615   3.351   8.111 -0.5293  1.2463  0.4438
 2334SOL    HW218639   1.563   3.275   7.999 -0.6722 -0.0326 -0.6071
 2335SOL     OW18640   3.276   3.484   3.397  0.2524 -0.4787 -0.0248
 2335SOL    HW118641   3.253   3.395   3.371  0.5400 -0.4703 -0.3072
 2335SOL    HW218642   3.250   3.491   3.489 -1.8481 -0.5580 -0.6126
 2336SOL     OW18643   0.632   1.944   2.997  0.1706  0.0067  0.0245
 2336SOL    HW118644   0.643   2.004   3.070  1.1571 -1.4969  1.1050
 2336SOL    HW218645   0.572   1.990   2.938 -0.9022 -2.2014 -0.6114
 2337SOL     OW18646   0.686   2.397   7.605  0.0640 -0.2709  0.7281
 2337SOL    HW118647   0.629   2.471   7.584 -0.3884 -0.5138  1.0920
 2337SOL    HW218648   0.634   2.326   7.568  1.1727  0.4577 -2.2027
 2338SOL     OW18649   1.309   4.675   4.853 -0.4565  0.4551 -0.0760
 2338SOL    HW118650   1.355   4.716   4.927 -0.9806 -1.1201  1.1256
 2338SOL    HW218651   1.229   4.644   4.896  0.1468  0.6771  1.1990
 2339SOL     OW18652   0.151   0.164   5.613 -0.7748 -0.0471 -0.1340
 2339SOL    HW118653   0.241   0.186   5.590 -1.0644  0.5546 -0.6933
 2339SOL    HW218654   0.170   0.110   5.690  0.0362  0.8339  0.2858
 2340SOL     OW18655   2.256   2.110   2.386  1.0128 -0.0871  0.1128
 2340SOL    HW118656   2.200   2.086   2.460  2.1452  1.6001  1.5228
 2340SOL    HW218657   2.264   2.204   2.402  0.3058  0.4428 -2.6417
 2341SOL     OW18658   2.888   3.291   4.153 -0.7603  0.4569 -0.5086
 2341SOL    HW118659   2.817   3.226   4.153 -0.5264  0.2046  0.3577
 2341SOL    HW218660   2.935   3.269   4.233 -0.4224 -0.3317 -0.9224
 2342SOL     OW18661   2.241   2.954   1.450  0.4764  0.2282  0.1501
 2342SOL    HW118662   2.235   3.034   1.398 -0.8424 -0.3351 -0.5675
 2342SOL    HW218663   2.265   2.998   1.531  0.5188  1.7637 -0.6864
 2343SOL     OW18664   0.838   3.293   2.008 -0.2074  0.0545  0.1749
 2343SOL    HW118665   0.797   3.357   2.065  1.6505  0.0569  1.5372
 2343SOL    HW218666   0.795   3.305   1.924  0.3956 -0.3448 -0.1928
 2344SOL     OW18667   3.213   1.643   8.692  0.0953 -0.4841  0.4835
 2344SOL    HW118668   3.192   1.559   8.651 -1.2729  0.1981 -0.2192
 2344SOL    HW218669   3.308   1.635   8.683 -0.3606 -1.2097 -3.3865
 2345SOL     OW18670   4.475   2.761   7.723 -0.0772 -0.0015  0.4633
 2345SOL    HW118671   4.477   2.777   7.629 -0.0499 -0.0246  0.4599
 2345SOL    HW218672   4.509   2.842   7.760  1.9158 -1.0279  0.8710
 2346SOL     OW18673   3.891   1.263   4.769  0.0800  0.2569  0.3134
 2346SOL    HW118674   3.886   1.328   4.839 -1.6006 -1.0495  1.4175
 2346SOL    HW218675   3.815   1.208   4.788 -0.1283  0.9379  1.4287
 2347SOL     OW18676   1.563   2.245   4.785 -0.0201 -0.5735  0.1138
 2347SOL    HW118677   1.653   2.213   4.775 -0.1713 -1.6082  2.1464
 2347SOL    HW218678   1.552   2.293   4.703 -0.4052 -1.3991 -0.3167
 2348SOL     OW18679   1.160   2.096   6.018 -0.2194 -0.3369 -0.5657
 2348SOL    HW118680   1.136   2.054   5.935 -1.2916 -0.5818 -0.1403
 2348SOL    HW218681   1.145   2.026   6.081  0.0668 -0.0483 -0.1794
 2349SOL     OW18682   2.627   2.077   4.409  0.0071 -0.0100 -0.1286
 2349SOL    HW118683   2.693   2.095   4.476 -0.6953 -0.6866  0.7592
 2349SOL    HW218684   2.597   2.166   4.394 -2.5731 -0.8147  0.2598
 2350SOL     OW18685   2.710   3.496   0.557  0.0331  0.0745  0.0495
 2350SOL    HW118686   2.696   3.558   0.628  0.2628 -0.7409  0.7995
 2350SOL    HW218687   2.735   3.554   0.484  1.2596  1.8621  1.9015
 2351SOL     OW18688   4.158   3.901  15.815 -0.2972 -0.7009  0.0702
 2351SOL    HW118689   4.127   3.953  15.890 -0.7061 -3.0901  1.5612
 2351SOL    HW218690   4.211   3.968  15.773  0.2898 -0.0207  1.8830
 2352SOL     OW18691   3.099   4.328   1.930 -0.2512  0.3219 -0.0724
 2352SOL    HW118692   3.074   4.338   2.021 -0.2736  1.7380 -0.2315
 2352SOL    HW218693   3.118   4.236   1.913  0.4939  0.6296 -0.9361
 2353SOL     OW18694   3.119   0.048  13.243 -0.5680  0.2779  0.0711
 2353SOL    HW118695   3.108   0.092  13.159  3.2322  0.9356 -0.0779
 2353SOL    HW218696   3.107   4.692  13.221  2.0703 -0.3594  1.1922
 2354SOL     OW18697   2.929   0.361   7.213 -0.0305  0.3792  0.0753
 2354SOL    HW118698   2.863   0.405   7.266 -1.7286  0.0520 -1.7833
 2354SOL    HW218699   2.867   0.312   7.160  1.5184 -0.4721 -0.9542
 2355SOL     OW18700   2.483   1.644  10.997  0.2207  0.3116  0.4254
 2355SOL    HW118701   2.555   1.583  10.982 -1.1812 -0.7628 -2.1523
 2355SOL    HW218702   2.498   1.665  11.088  1.3768  2.3192 -0.2429
 2356SOL     OW18703   2.149   0.402   1.267 -0.1200 -0.1147  0.1655
 2356SOL    HW118704   2.134   0.493   1.290  1.4694  0.4990 -1.2237
 2356SOL    HW218705   2.078   0.354   1.309  1.2022 -3.7104 -1.6861
 2357SOL     OW18706   4.078   3.203   6.461  0.1825 -0.0747 -0.5995
 2357SOL    HW118707   3.989   3.180   6.432 -0.3877  1.8706 -0.4017
 2357SOL    HW218708   4.117   3.250   6.387  2.3975 -0.4505  0.3290
 2358SOL     OW18709   4.639   1.127   2.831  0.1363  0.7700 -0.0633
 2358SOL    HW118710   4.681   1.111   2.916 -2.8160  0.1570  1.3048
 2358SOL    HW218711   4.559   1.075   2.840  0.4979  0.5232  1.7606
 2359SOL     OW18712   1.558   2.117   2.055  0.1222 -0.1869  0.3699
 2359SOL    HW118713   1.555   2.022   2.044  2.0140  0.4452 -5.5124
 2359SOL    HW218714   1.640   2.132   2.009  0.4986  0.9635  1.4240
 2360SOL     OW18715   4.224   3.570   3.313 -0.0949  0.5309 -1.0254
 2360SOL    HW118716   4.303   3.532   3.350  0.1095 -0.7918 -2.7968
 2360SOL    HW218717   4.154   3.514   3.347  0.1171  0.6906 -0.3332
 2361SOL     OW18718   2.516   3.630   4.268 -0.1241  1.2251 -0.0457
 2361SOL    HW118719   2.474   3.691   4.329 -1.7773 -0.3385  0.3678
 2361SOL    HW218720   2.484   3.669   4.186  1.2499 -0.5914 -1.4145
 2362SOL     OW18721   3.443   4.522  12.416 -0.3867  0.1769  0.0990
 2362SOL    HW118722   3.531   4.504  12.452  1.0254  2.0620 -2.4195
 2362SOL    HW218723   3.460   4.491  12.327  0.6300 -0.9688  0.6778
 2363SOL     OW18724   1.028   4.710   1.910  0.0001 -0.0385 -0.2145
 2363SOL    HW118725   0.943   4.723   1.952  0.6688  0.6533  0.9141
 2363SOL    HW218726   1.070   0.054   1.938 -2.3668  0.3629  2.1868
 2364SOL     OW18727   3.677   1.319  13.632  0.6090  0.3894 -0.3917
 2364SOL    HW118728   3.584   1.339  13.626 -0.0238 -1.8346  1.6138
 2364SOL    HW218729   3.671   1.270  13.715 -0.4036  0.4876 -0.4075
 2365SOL     OW18730   0.266   1.427  11.333 -0.0262 -0.0177  0.4181
 2365SOL    HW118731   0.256   1.351  11.277  0.6598 -2.5217  3.6431
 2365SOL    HW218732   0.331   1.478  11.284  2.0638 -1.8038  1.3275
 2366SOL     OW18733   3.045   2.111   9.513  0.2447 -0.0228  0.4916
 2366SOL    HW118734   2.972   2.063   9.473  0.3387 -0.9600  1.4494
 2366SOL    HW218735   3.117   2.060   9.477 -0.1706  0.6279 -1.2566
 2367SOL     OW18736   3.271   3.495  17.151 -0.2553 -0.1514  0.7041
 2367SOL    HW118737   3.275   3.411  17.198  0.6823  0.5214  1.8191
 2367SOL    HW218738   3.326   3.553  17.203 -1.3968  0.8508  0.7921
 2368SOL     OW18739   1.488   4.457   4.227 -0.0167 -0.3205 -0.1879
 2368SOL    HW118740   1.484   4.365   4.202  0.7131  0.2737 -2.4660
 2368SOL    HW218741   1.461   4.508   4.151 -1.3632  1.3616  1.4269
 2369SOL     OW18742   0.437   1.115   5.474 -0.0589 -0.3795 -0.1242
 2369SOL    HW118743   0.353   1.156   5.492  0.5779  1.0543 -0.4560
 2369SOL    HW218744   0.417   1.060   5.398 -1.4505 -1.2336  0.8577
 2370SOL     OW18745   3.785   2.630   2.424 -0.1402  0.4820  0.5450
 2370SOL    HW118746   3.742   2.711   2.395 -0.2272  0.6412  1.1309
 2370SOL    HW218747   3.712   2.569   2.431  0.8910 -0.6724  1.1213
 2371SOL     OW18748   2.217   2.336  17.030  0.1767 -0.3439  0.6130
 2371SOL    HW118749   2.244   2.390  16.956  1.4227  1.0024  2.0685
 2371SOL    HW218750   2.129   2.369  17.051 -0.0928 -0.2206 -0.7357
 2372SOL     OW18751   0.231   0.094   2.325 -0.5023 -0.2664 -0.1149
 2372SOL    HW118752   0.282   0.013   2.326 -0.4648 -0.1812  2.8347
 2372SOL    HW218753   0.291   0.164   2.348 -2.4925  1.6159 -0.5674
 2373SOL     OW18754   0.312   4.668   0.665 -0.1053 -0.1627 -0.3689
 2373SOL    HW118755   0.362   4.610   0.722 -2.1255 -1.0173  0.5719
 2373SOL    HW218756   0.309   0.014   0.713  0.5985 -0.1178 -0.4143
 2374SOL     OW18757   3.431   4.578   9.793  0.1741  0.9766 -0.5670
 2374SOL    HW118758   3.480   4.640   9.741 -0.0271 -0.1284 -2.0747
 2374SOL    HW218759   3.380   4.533   9.726  1.5083 -1.0269 -0.2710
 2375SOL     OW18760   3.571   1.781   9.315  0.1546 -0.0665  0.1586
 2375SOL    HW118761   3.494   1.779   9.372  0.4501 -1.7871  0.4988
 2375SOL    HW218762   3.610   1.862   9.348 -2.7321  1.0032  0.8929
 2376SOL     OW18763   2.528   4.353   0.599 -0.3120 -0.4274 -0.0747
 2376SOL    HW118764   2.434   4.366   0.587 -0.2350 -1.3826 -1.6387
 2376SOL    HW218765   2.538   4.409   0.676 -0.5257  3.4883 -2.8858
 2377SOL     OW18766   0.412   2.442   2.723 -0.3827 -0.0858 -0.1244
 2377SOL    HW118767   0.418   2.419   2.815  1.3646 -0.1451 -0.2501
 2377SOL    HW218768   0.404   2.358   2.677 -0.3171 -0.4230  0.4874
 2378SOL     OW18769   1.542   2.062  15.904 -0.2042  0.9492  0.5333
 2378SOL    HW118770   1.535   2.155  15.882  2.2763  1.2404  0.9541
 2378SOL    HW218771   1.495   2.049  15.987  1.7469  2.3909  1.8893
 2379SOL     OW18772   0.470   3.010   6.930 -0.0299 -0.2051  0.0043
 2379SOL    HW118773   0.509   3.080   6.981  2.1991  1.8208 -4.4789
 2379SOL    HW218774   0.508   2.936   6.977 -0.8637 -1.2224 -0.9111
 2380SOL     OW18775   1.618   2.429  17.143 -0.0713  0.0183  0.2172
 2380SOL    HW118776   1.683   2.490  17.107  0.1410  0.1392  0.8168
 2380SOL    HW218777   1.541   2.449  17.089 -0.1320  0.2793  0.4046
 2381SOL     OW18778   3.563   3.212   8.827  0.2866 -0.0200 -0.1724
 2381SOL    HW118779   3.505   3.136   8.814 -0.2003  0.7518 -2.4730
 2381SOL    HW218780   3.648   3.171   8.840  0.8997  0.2578 -3.4984
 2382SOL     OW18781   0.483   3.626   6.910  0.5994 -0.0995  0.4712
 2382SOL    HW118782   0.470   3.607   7.003  0.5424 -0.5927  0.3588
 2382SOL    HW218783   0.508   3.718   6.919  0.1351 -0.0926  1.6984
 2383SOL     OW18784   3.451   3.406  13.628  0.1288  0.1431 -0.1911
 2383SOL    HW118785   3.485   3.392  13.716 -0.1672 -0.7162 -0.2138
 2383SOL    HW218786   3.464   3.315  13.601  2.9697  0.1186  1.2139
 2384SOL     OW18787   0.069   4.116   6.874 -0.4272  0.0198 -0.4397
 2384SOL    HW118788   0.004   4.164   6.822 -0.2643 -1.2709 -1.8534
 2384SOL    HW218789   0.055   4.026   6.843  4.1279 -1.1295  0.9293
 2385SOL     OW18790   0.330   0.321   2.411  0.3473 -0.6880  0.5307
 2385SOL    HW118791   0.412   0.364   2.436 -0.1153 -0.3626  1.5099
 2385SOL    HW218792   0.311   0.388   2.346 -0.4095  0.4996  1.9589
 2386SOL     OW18793   2.108   1.630  10.758  0.4179  0.3348  0.1028
 2386SOL    HW118794   2.201   1.606  10.760  0.3126 -0.0034  1.1008
 2386SOL    HW218795   2.078   1.552  10.710 -1.7559  0.8557  0.6641
 2387SOL     OW18796   3.105   3.302   5.275 -0.2012 -0.2093  0.6174
 2387SOL    HW118797   3.010   3.303   5.276 -0.1932  1.9770 -0.3590
 2387SOL    HW218798   3.131   3.258   5.355 -0.7192 -0.7568  0.4827
 2388SOL     OW18799   2.376   3.035   3.157  0.1438 -0.7346  0.1205
 2388SOL    HW118800   2.314   2.966   3.181 -1.2266  0.5036  0.1965
 2388SOL    HW218801   2.452   2.981   3.137  0.3766 -0.4822  0.3238
 2389SOL     OW18802   3.929   0.085   5.509  0.4690 -0.7272  0.6016
 2389SOL    HW118803   3.903   0.118   5.595  0.5474 -0.6229  0.5851
 2389SOL    HW218804   3.981   0.158   5.475  0.3790  0.0087  2.0535
 2390SOL     OW18805   0.785   0.240   3.334  0.3849  0.2518  0.5604
 2390SOL    HW118806   0.795   0.331   3.361  2.8793  0.4834 -1.1045
 2390SOL    HW218807   0.826   0.255   3.248 -2.0733 -0.5605 -0.7579
 2391SOL     OW18808   2.417   3.968   7.819  0.2203 -0.4044 -0.1026
 2391SOL    HW118809   2.494   3.978   7.763 -1.1431  2.0960 -1.5515
 2391SOL    HW218810   2.408   3.876   7.794  2.8772 -0.5899 -0.3631
 2392SOL     OW18811   4.039   2.659   6.292 -0.2926 -0.1933 -0.9391
 2392SOL    HW118812   4.048   2.568   6.321 -2.1540  0.0032  0.2233
 2392SOL    HW218813   4.128   2.678   6.261  0.2599  1.1704  1.5028
 2393SOL     OW18814   3.146   2.020  11.653 -0.0449  0.3223 -0.0530
 2393SOL    HW118815   3.172   2.111  11.644  0.1988  0.2666  0.0835
 2393SOL    HW218816   3.157   2.010  11.748 -1.7207 -0.1159  0.0902
 2394SOL     OW18817   4.595   2.037   8.804  0.0178  0.6137  0.1998
 2394SOL    HW118818   4.548   2.025   8.886 -2.0439 -1.2254 -1.2455
 2394SOL    HW218819   4.575   1.954   8.760 -2.1621  0.2420  1.9290
 2395SOL     OW18820   3.270   4.516   0.366  0.7964  0.4840  0.0888
 2395SOL    HW118821   3.351   4.519   0.316  1.1510 -0.8915  0.5696
 2395SOL    HW218822   3.280   4.431   0.409 -2.1680  0.9745  1.7539
 2396SOL     OW18823   1.700   0.977   3.970 -0.5860  0.1909  0.2419
 2396SOL    HW118824   1.764   0.985   4.040  0.8588  0.0946 -1.0717
 2396SOL    HW218825   1.632   1.033   4.008 -0.6140 -0.0704  0.5757
 2397SOL     OW18826   0.493   0.304  16.337  0.4418 -0.1352  0.2459
 2397SOL    HW118827   0.476   0.307  16.431  0.0857  2.1217  0.1161
 2397SOL    HW218828   0.588   0.307  16.339  0.4032  1.5902 -0.2213
 2398SOL     OW18829   4.367   0.498   3.043  0.4735  0.6939  0.4424
 2398SOL    HW118830   4.353   0.517   2.950 -0.7264  0.0058  0.4826
 2398SOL    HW218831   4.287   0.542   3.073  1.4071  2.3038  0.5403
 2399SOL     OW18832   1.340   2.078   6.694 -0.1878 -0.2191  0.7612
 2399SOL    HW118833   1.417   2.077   6.636 -0.5617  0.2419  0.2597
 2399SOL    HW218834   1.286   2.149   6.661  1.1870  0.1622 -0.6781
 2400SOL     OW18835   0.888   4.426   6.613 -0.2538  0.2940  0.1282
 2400SOL    HW118836   0.963   4.391   6.566 -0.6742 -0.3934 -0.0470
 2400SOL    HW218837   0.834   4.347   6.614  0.2568 -0.0485  0.7387
 2401SOL     OW18838   0.296   1.076   8.443  0.4176 -0.0183 -0.6587
 2401SOL    HW118839   0.224   1.129   8.477 -0.5236 -0.6591 -1.6636
 2401SOL    HW218840   0.254   0.990   8.448  1.3786 -0.5558 -1.7577
 2402SOL     OW18841   2.945   3.880   5.615  0.0854  0.0020 -0.3803
 2402SOL    HW118842   2.927   3.786   5.620 -1.0778  0.1207 -2.3043
 2402SOL    HW218843   2.962   3.885   5.521  0.4172 -2.6545 -0.4427
 2403SOL     OW18844   0.049   2.437   1.504 -0.7394 -0.3054  0.2641
 2403SOL    HW118845   4.698   2.470   1.525  0.2090  2.7778 -0.6041
 2403SOL    HW218846   0.099   2.478   1.574 -1.0018 -2.0040  1.4374
 2404SOL     OW18847   4.118   3.451   5.903 -0.1614  0.2801 -0.2602
 2404SOL    HW118848   4.101   3.513   5.974  2.6942 -1.0330  1.5698
 2404SOL    HW218849   4.207   3.421   5.924 -0.4238 -1.0211 -0.9620
 2405SOL     OW18850   2.878   4.631   1.726 -0.0849  0.1722 -0.3313
 2405SOL    HW118851   2.917   4.583   1.652  1.7353  1.7725 -0.4080
 2405SOL    HW218852   2.956   4.676   1.759 -0.1593  1.7563 -2.3195
 2406SOL     OW18853   3.281   4.168  12.474  0.3908 -0.4087  0.0132
 2406SOL    HW118854   3.225   4.153  12.397 -1.2765 -0.4003  1.2123
 2406SOL    HW218855   3.225   4.193  12.548 -0.0706 -0.1979 -0.3993
 2407SOL     OW18856   4.286   3.225  10.592  0.5116 -0.3596 -0.6256
 2407SOL    HW118857   4.211   3.223  10.651  3.1845  2.2257  2.8463
 2407SOL    HW218858   4.342   3.286  10.640  0.6385 -0.1519 -1.0417
 2408SOL     OW18859   2.260   2.236   0.748  0.6483  0.1947 -0.0205
 2408SOL    HW118860   2.227   2.180   0.678  1.0976  0.1436 -0.1935
 2408SOL    HW218861   2.332   2.282   0.703 -0.8747  1.3693 -1.2414
 2409SOL     OW18862   0.853   1.734   4.971  0.3556 -0.6439  0.0535
 2409SOL    HW118863   0.865   1.697   4.884 -0.6082  1.2205 -0.8599
 2409SOL    HW218864   0.766   1.772   4.964  1.3759  1.5650 -0.8078
 2410SOL     OW18865   0.608   3.348   5.942 -0.6079  0.3461  0.0226
 2410SOL    HW118866   0.703   3.361   5.949 -0.5944  1.9354 -3.3599
 2410SOL    HW218867   0.580   3.330   6.032 -1.7938 -1.0430 -0.6239
 2411SOL     OW18868   0.016   3.207   7.510  0.6166  0.1076 -0.2023
 2411SOL    HW118869   0.052   3.185   7.596  1.4628  2.7652  0.1254
 2411SOL    HW218870   4.703   3.287   7.524  2.5642  1.5432 -1.5653
 2412SOL     OW18871   4.015   1.498   6.257  0.9675  0.2004 -0.6399
 2412SOL    HW118872   4.080   1.430   6.276  0.3421 -0.6738 -1.6598
 2412SOL    HW218873   3.954   1.456   6.196 -1.9369  2.6165  0.6255
 2413SOL     OW18874   3.245   0.132  11.566  0.2681  0.3704  0.3410
 2413SOL    HW118875   3.303   0.059  11.586  0.0735  0.0870 -0.1369
 2413SOL    HW218876   3.217   0.089  11.486 -0.4501 -0.4064  1.0007
 2414SOL     OW18877   3.387   2.394  10.710 -0.1465  0.2936 -0.0312
 2414SOL    HW118878   3.386   2.380  10.615 -1.8594  4.7483 -0.6797
 2414SOL    HW218879   3.299   2.429  10.721  0.5443  2.4624 -1.5048
 2415SOL     OW18880   3.399   4.179   6.347  0.6294  0.1500  0.2911
 2415SOL    HW118881   3.450   4.255   6.319  0.8279 -0.4007 -0.8197
 2415SOL    HW218882   3.460   4.110   6.320 -2.4027 -1.8924 -1.3535
 2416SOL     OW18883   4.480   1.382   5.051  0.1891 -0.6570 -0.0658
 2416SOL    HW118884   4.419   1.409   4.982  0.7978 -0.7957 -0.6596
 2416SOL    HW218885   4.544   1.335   4.997 -1.5680 -2.6473 -0.3845
 2417SOL     OW18886   3.362   3.754   2.015 -0.1203 -0.1485 -0.6303
 2417SOL    HW118887   3.294   3.821   2.026 -2.9274 -2.8683 -1.4200
 2417SOL    HW218888   3.337   3.689   2.081  1.8130  0.1502  0.4067
 2418SOL     OW18889   3.473   0.037  11.050  0.2706  0.6850  0.1197
 2418SOL    HW118890   3.512   4.688  11.066  0.2301  0.2689 -2.0903
 2418SOL    HW218891   3.453   0.057  11.142 -1.0745  1.5557 -0.3572
 2419SOL     OW18892   2.249   3.559  16.276 -0.6515 -0.0046  0.3227
 2419SOL    HW118893   2.208   3.503  16.211 -2.1699  1.1580  0.2787
 2419SOL    HW218894   2.315   3.498  16.311 -0.5106  1.2334  2.2017
 2420SOL     OW18895   3.988   4.619   2.740 -0.1181  0.1831 -0.0206
 2420SOL    HW118896   4.056   4.552   2.753  0.0172  0.4659  0.7190
 2420SOL    HW218897   3.986   4.664   2.824  2.4923 -0.2553  0.2802
 2421SOL     OW18898   1.722   1.122   8.157  0.3998 -0.3218 -0.4992
 2421SOL    HW118899   1.655   1.075   8.206  2.4344 -2.8192 -0.0890
 2421SOL    HW218900   1.723   1.072   8.075 -2.2383 -0.5160 -0.3878
 2422SOL     OW18901   1.328   2.195   7.267 -0.0089 -0.3990  0.2829
 2422SOL    HW118902   1.379   2.130   7.218 -1.2478 -0.3865 -1.0295
 2422SOL    HW218903   1.363   2.273   7.222 -0.8728 -0.5387 -0.6330
 2423SOL     OW18904   3.623   2.499   3.618 -0.6346  0.0854  0.6323
 2423SOL    HW118905   3.679   2.436   3.573  0.1138  1.2165 -0.0103
 2423SOL    HW218906   3.536   2.459   3.608  0.2422 -1.3707 -1.1652
 2424SOL     OW18907   4.542   3.246   2.968  0.2950  0.1131 -0.3058
 2424SOL    HW118908   4.556   3.317   2.905  0.4527  0.1128 -0.2688
 2424SOL    HW218909   4.495   3.294   3.036 -0.1892  0.3158 -0.7763
 2425SOL     OW18910   0.628   2.740   3.277  0.3741  0.6061  0.2954
 2425SOL    HW118911   0.575   2.697   3.211 -1.4806  0.0744  2.1323
 2425SOL    HW218912   0.641   2.830   3.245  1.9010  0.1459 -0.3542
 2426SOL     OW18913   1.515   0.986   7.110 -0.1590 -0.0214  0.0835
 2426SOL    HW118914   1.447   1.027   7.056  2.0962  1.2714 -1.7849
 2426SOL    HW218915   1.601   1.011   7.076  0.2639 -2.4827 -0.7018
 2427SOL     OW18916   0.876   1.129   4.992 -0.5555 -0.8590  0.2781
 2427SOL    HW118917   0.865   1.201   5.054 -0.0822 -1.2407  0.8043
 2427SOL    HW218918   0.967   1.125   4.963 -0.1175 -2.0813  1.8696
 2428SOL     OW18919   2.979   0.792   4.044  0.1265 -0.1108 -0.4768
 2428SOL    HW118920   3.044   0.744   4.097  1.2290  0.2889 -1.4712
 2428SOL    HW218921   2.931   0.718   4.007 -0.0696  0.0084 -0.4595
 2429SOL     OW18922   4.019   1.422  12.496  0.1209  0.3381 -0.9141
 2429SOL    HW118923   3.968   1.501  12.510 -1.6593 -1.3389  1.9086
 2429SOL    HW218924   3.954   1.353  12.489 -0.2695  0.3870  2.5626
 2430SOL     OW18925   1.277   1.073  14.753  0.3310  0.4775  0.1722
 2430SOL    HW118926   1.214   1.140  14.728 -1.0414 -0.3686  1.3196
 2430SOL    HW218927   1.313   1.057  14.666  0.9078  0.1989  0.4637
 2431SOL     OW18928   3.395   4.165   5.273 -0.3228 -0.2473  0.1499
 2431SOL    HW118929   3.477   4.128   5.240  0.1544  0.2090  0.8313
 2431SOL    HW218930   3.341   4.157   5.194  1.8016  2.3780 -1.5825
 2432SOL     OW18931   0.156   1.206   5.482 -0.2591 -0.2915 -0.3799
 2432SOL    HW118932   0.069   1.188   5.446 -1.4645 -0.6517  2.7633
 2432SOL    HW218933   0.178   1.285   5.434  3.0071  0.7647  2.8633
 2433SOL     OW18934   3.276   3.897   6.360 -0.3780  0.0140 -0.0915
 2433SOL    HW118935   3.287   3.940   6.445  1.9091  1.1625 -0.9689
 2433SOL    HW218936   3.267   3.972   6.302  0.0596  1.3581  1.5866
 2434SOL     OW18937   1.777   2.817   8.511  0.7204  0.2564  0.3450
 2434SOL    HW118938   1.694   2.837   8.554  0.4489 -1.4625  0.6198
 2434SOL    HW218939   1.770   2.878   8.438  2.0385 -0.2468 -0.1958
 2435SOL     OW18940   1.717   1.955  10.193 -0.3092  0.0780  0.3959
 2435SOL    HW118941   1.768   1.916  10.264 -0.0080  1.6682  1.0497
 2435SOL    HW218942   1.629   1.920  10.209 -0.1553 -0.5565 -0.0880
 2436SOL     OW18943   2.327   1.795  12.400 -0.0185  0.0800 -0.5898
 2436SOL    HW118944   2.414   1.796  12.440 -0.1487 -1.2992 -0.2509
 2436SOL    HW218945   2.281   1.779  12.483  1.7950 -0.2606  0.3415
 2437SOL     OW18946   1.411   2.275   5.501  0.4480 -0.3908 -0.1587
 2437SOL    HW118947   1.424   2.186   5.534 -0.4162 -0.7082 -0.6770
 2437SOL    HW218948   1.445   2.331   5.571  0.0200 -1.6780  1.0751
 2438SOL     OW18949   0.261   1.363   4.719  0.0090  0.2583  0.0977
 2438SOL    HW118950   0.355   1.343   4.720 -0.1085 -0.2975  0.3439
 2438SOL    HW218951   0.217   1.296   4.771  2.9477 -0.8321  1.1430
 2439SOL     OW18952   4.450   3.305   9.636 -0.4144  0.0405  0.1103
 2439SOL    HW118953   4.433   3.353   9.717 -0.0977  1.1309 -0.4595
 2439SOL    HW218954   4.375   3.329   9.582 -0.2596  0.4872  0.0870
 2440SOL     OW18955   2.914   0.816   3.744  0.1168 -0.0092 -0.2232
 2440SOL    HW118956   2.861   0.895   3.759  1.4024  1.0851 -1.4316
 2440SOL    HW218957   2.953   0.802   3.830 -2.4143  0.0245  0.9273
 2441SOL     OW18958   4.103   2.490   9.481  0.1420 -0.3305  0.2463
 2441SOL    HW118959   4.072   2.403   9.504 -3.8333  1.6457  2.3563
 2441SOL    HW218960   4.123   2.523   9.568 -0.4889 -0.0077  0.2692
 2442SOL     OW18961   3.274   2.756   2.377  0.7413  0.2688  0.1867
 2442SOL    HW118962   3.275   2.849   2.353 -0.1048  0.0928 -0.5222
 2442SOL    HW218963   3.186   2.732   2.349  1.9463 -1.2900 -2.2322
 2443SOL     OW18964   0.786   3.901  10.744  0.4083  0.2701 -0.3554
 2443SOL    HW118965   0.802   3.995  10.741  1.5491  0.0862  0.1392
 2443SOL    HW218966   0.852   3.868  10.683 -0.8974 -0.4250 -1.4117
 2444SOL     OW18967   2.339   3.110   0.133  0.3835  0.0744  0.1614
 2444SOL    HW118968   2.368   3.065   0.054 -1.3684 -0.4563 -0.1751
 2444SOL    HW218969   2.417   3.164   0.142  2.0961 -2.9003  3.1318
 2445SOL     OW18970   1.538   3.872   5.641  0.1585  0.1625  0.0226
 2445SOL    HW118971   1.455   3.829   5.664  1.1398 -2.0602 -0.6534
 2445SOL    HW218972   1.509   3.960   5.614 -1.3291 -0.5087 -0.5840
 2446SOL     OW18973   4.105   0.941   7.171  0.2658 -0.1110  0.1296
 2446SOL    HW118974   4.113   0.919   7.264  0.3133 -0.7600 -0.0297
 2446SOL    HW218975   4.024   0.896   7.144  0.2194  0.4557 -0.6855
 2447SOL     OW18976   3.217   1.308   6.556 -0.2449 -0.0655 -0.4660
 2447SOL    HW118977   3.269   1.241   6.601  1.4410  1.2743 -0.4509
 2447SOL    HW218978   3.132   1.263   6.558  0.2944 -1.1468 -1.5126
 2448SOL     OW18979   1.415   1.374  12.866 -0.7617  0.3733 -0.2603
 2448SOL    HW118980   1.359   1.303  12.897  0.2544 -0.0722  0.5798
 2448SOL    HW218981   1.379   1.449  12.913  0.4754  0.9630 -0.2466
 2449SOL     OW18982   1.115   2.823   9.477  0.2281  0.2039 -0.3302
 2449SOL    HW118983   1.048   2.889   9.465 -2.0300 -1.6267  2.3747
 2449SOL    HW218984   1.060   2.749   9.451  0.9850 -0.1491 -0.9714
 2450SOL     OW18985   2.478   0.979  15.352 -0.7117 -0.8206  0.1395
 2450SOL    HW118986   2.435   0.901  15.387  2.5859 -1.8856  1.8480
 2450SOL    HW218987   2.559   0.955  15.306  0.0404  3.3077 -0.7158
 2451SOL     OW18988   2.398   2.354   7.289 -0.2312  0.6826  0.1870
 2451SOL    HW118989   2.464   2.331   7.224  2.5004  3.5628  1.8987
 2451SOL    HW218990   2.329   2.297   7.255  1.1070  0.8801 -2.8351
 2452SOL     OW18991   3.748   2.407   5.528  0.1771 -0.3517 -0.5210
 2452SOL    HW118992   3.699   2.487   5.549  0.5107 -0.7165  1.7077
 2452SOL    HW218993   3.780   2.387   5.616 -1.6639 -1.1344 -0.0111
 2453SOL     OW18994   0.573   3.471   7.837  0.3076 -0.2922  0.2066
 2453SOL    HW118995   0.660   3.443   7.866  0.6047 -0.4687 -0.8610
 2453SOL    HW218996   0.598   3.530   7.766 -1.8807  0.3193 -0.0328
 2454SOL     OW18997   0.385   0.467   4.169  0.3007 -0.2038  0.0692
 2454SOL    HW118998   0.438   0.535   4.213  1.7508 -1.0694 -0.3307
 2454SOL    HW218999   0.347   0.416   4.240 -1.9651  1.7187  0.2469
 2455SOL     OW19000   2.252   4.428   0.592  0.3073 -0.4924  0.0137
 2455SOL    HW119001   2.188   4.444   0.522 -1.2183  0.2628  1.5638
 2455SOL    HW219002   2.205   4.382   0.662 -1.7891 -0.5146 -1.4076
 2456SOL     OW19003   0.403   2.060   4.394  0.0364 -0.5442  0.1545
 2456SOL    HW119004   0.355   2.053   4.312 -1.5201 -1.2041  1.1159
 2456SOL    HW219005   0.334   2.107   4.441  1.4312  0.7506  0.8916
 2457SOL     OW19006   1.981   2.355   0.761  0.1670  0.0595  0.0937
 2457SOL    HW119007   2.064   2.315   0.789 -0.0875 -1.5894 -1.5527
 2457SOL    HW219008   1.998   2.449   0.756  0.9582  0.1029  3.1444
 2458SOL     OW19009   0.658   2.152   7.300 -0.0438 -0.7765 -0.7164
 2458SOL    HW119010   0.666   2.244   7.273 -0.7576 -1.1299 -2.1411
 2458SOL    HW219011   0.730   2.104   7.257  1.0769 -0.5179  0.8634
 2459SOL     OW19012   0.224   2.617   2.586 -0.1448 -0.6689 -0.8823
 2459SOL    HW119013   0.235   2.589   2.495 -0.2147  1.4304 -1.5433
 2459SOL    HW219014   0.270   2.539   2.618 -0.6477 -0.3283  0.6987
 2460SOL     OW19015   0.124   2.249   9.434 -0.4066  0.5216  0.1778
 2460SOL    HW119016   0.134   2.283   9.523 -0.5537  1.9857 -0.3803
 2460SOL    HW219017   0.056   2.303   9.394 -0.9772  0.5258  1.1527
 2461SOL     OW19018   1.022   2.903   2.086 -0.0320  0.1203  0.0952
 2461SOL    HW119019   0.928   2.912   2.072 -0.0348  0.1671  0.1447
 2461SOL    HW219020   1.016   2.890   2.181 -0.1109  2.1299  0.3607
 2462SOL     OW19021   0.339   3.451  10.865  0.0382 -0.1000 -0.2311
 2462SOL    HW119022   0.354   3.528  10.921 -1.1338 -0.1324  0.1354
 2462SOL    HW219023   0.430   3.439  10.837  0.5418  0.4343  1.1799
 2463SOL     OW19024   0.275   2.573   6.637 -0.1309 -0.3261 -0.5736
 2463SOL    HW119025   0.209   2.636   6.609  0.0436 -0.0558 -0.3786
 2463SOL    HW219026   0.232   2.537   6.715 -0.6214  0.0569 -0.6689
 2464SOL     OW19027   1.200   3.208   6.781  0.0843  0.2293 -0.0675
 2464SOL    HW119028   1.176   3.135   6.839  0.2838  0.4948  0.3511
 2464SOL    HW219029   1.239   3.266   6.846  1.2530 -0.6916  0.0384
 2465SOL     OW19030   0.007   2.673   8.257 -0.1798 -0.6015  0.2016
 2465SOL    HW119031   0.071   2.723   8.309 -0.0044 -0.9409  0.3155
 2465SOL    HW219032   0.057   2.660   8.176  0.0903  0.4233  0.2075
 2466SOL     OW19033   4.302   3.545   1.545 -0.2629 -0.4904 -0.1431
 2466SOL    HW119034   4.244   3.470   1.555 -1.7606  0.5328 -1.1678
 2466SOL    HW219035   4.250   3.597   1.484 -0.8844 -0.2319  0.6033
 2467SOL     OW19036   2.279   0.248  13.508  0.3333  0.2625  0.4058
 2467SOL    HW119037   2.239   0.166  13.536  1.9552  0.2431  2.6915
 2467SOL    HW219038   2.225   0.279  13.435  0.0070  2.9575  1.7877
 2468SOL     OW19039   0.451   1.671   7.918 -0.2593  0.1173 -0.4419
 2468SOL    HW119040   0.489   1.587   7.944  2.9865  1.9253  0.6095
 2468SOL    HW219041   0.531   1.723   7.913  1.5386 -2.4452  1.3299
 2469SOL     OW19042   0.503   3.036   0.591  0.0079 -0.2742 -0.2403
 2469SOL    HW119043   0.475   3.126   0.605  0.6403 -0.0686 -0.3094
 2469SOL    HW219044   0.590   3.060   0.559  0.3248 -1.1046 -0.0072
 2470SOL     OW19045   0.397   4.464   4.570  0.3922  0.4776  0.2803
 2470SOL    HW119046   0.325   4.404   4.551  0.0291  0.2925  2.2454
 2470SOL    HW219047   0.352   4.547   4.563 -1.2431 -0.2998  1.7971
 2471SOL     OW19048   0.294   0.006   7.548 -0.1934 -0.0432  0.4284
 2471SOL    HW119049   0.357   4.727   7.618  1.0378 -0.2753 -0.7317
 2471SOL    HW219050   0.255   4.656   7.539  0.4547 -0.1574 -1.2203
 2472SOL     OW19051   1.867   2.386  15.887  0.3505 -0.2370 -0.0757
 2472SOL    HW119052   1.939   2.434  15.928 -0.0434 -1.3933  1.9365
 2472SOL    HW219053   1.880   2.419  15.798 -2.8941 -0.6097 -0.6815
 2473SOL     OW19054   3.126   1.930   5.711  0.0678 -0.2878  0.1054
 2473SOL    HW119055   3.122   1.857   5.650 -0.3170 -0.2290  0.0610
 2473SOL    HW219056   3.176   1.992   5.659  0.0775 -1.0778 -0.8079
 2474SOL     OW19057   4.557   0.858   5.673 -0.2188  0.0362 -0.7554
 2474SOL    HW119058   4.541   0.838   5.581  0.7751 -1.6015 -0.5615
 2474SOL    HW219059   4.609   0.936   5.655 -1.2232  0.7984 -0.3516
 2475SOL     OW19060   3.986   1.021   1.755 -0.1511 -0.0898 -1.1834
 2475SOL    HW119061   3.994   1.112   1.783  0.9765 -1.3025  2.4137
 2475SOL    HW219062   3.895   1.025   1.724 -1.0305 -0.6283  1.2625
 2476SOL     OW19063   4.074   2.808  14.441  0.2837 -0.5808 -0.0299
 2476SOL    HW119064   4.067   2.896  14.405  0.9794 -0.7385 -0.5478
 2476SOL    HW219065   4.028   2.761  14.372 -0.6275  0.2414  0.0185
 2477SOL     OW19066   2.285   1.527   0.466  0.0867 -0.1799 -0.0456
 2477SOL    HW119067   2.326   1.474   0.534 -0.5620  0.5358  0.9073
 2477SOL    HW219068   2.337   1.501   0.390 -0.1981 -2.7005  0.6069
 2478SOL     OW19069   2.304   1.683   4.420  0.1461 -1.0355  0.5864
 2478SOL    HW119070   2.373   1.749   4.424  0.6898 -1.5365 -0.6895
 2478SOL    HW219071   2.318   1.629   4.499 -0.0812 -1.1120  0.5732
 2479SOL     OW19072   3.379   0.628   7.549  0.3725 -0.2440 -0.4228
 2479SOL    HW119073   3.358   0.542   7.512  0.3173 -0.2518 -0.3727
 2479SOL    HW219074   3.335   0.607   7.631 -0.0208  0.1762 -0.5265
 2480SOL     OW19075   2.857   0.125  10.043 -0.0574  0.1379  0.6217
 2480SOL    HW119076   2.804   0.136  10.123 -0.1154  0.4362  0.5446
 2480SOL    HW219077   2.943   0.104  10.079 -0.2332 -2.1845 -0.3181
 2481SOL     OW19078   4.319   0.687   3.962  0.3570 -0.3593 -0.0277
 2481SOL    HW119079   4.324   0.617   4.027  2.6550  0.2463  0.4372
 2481SOL    HW219080   4.356   0.645   3.885 -0.9641 -0.6374 -0.5244
 2482SOL     OW19081   1.983   3.809   1.094  0.4165 -0.0413  0.1330
 2482SOL    HW119082   2.022   3.731   1.054 -0.9133 -0.5281 -0.2321
 2482SOL    HW219083   2.034   3.874   1.047  0.2554  0.7020  0.9874
 2483SOL     OW19084   1.952   1.385  15.736  0.2226  0.0892  0.2934
 2483SOL    HW119085   1.992   1.390  15.649  1.2018  1.1178  0.8102
 2483SOL    HW219086   1.951   1.479  15.754  1.8093  0.3339 -0.9181
 2484SOL     OW19087   0.930   2.045   7.378 -0.1662  0.1501  0.1386
 2484SOL    HW119088   0.923   2.136   7.409  1.7619  0.4301 -0.2368
 2484SOL    HW219089   0.946   2.008   7.465  1.7115 -1.4153 -0.8711
 2485SOL     OW19090   4.641   0.932   4.405 -0.1696 -0.3073  0.4058
 2485SOL    HW119091   4.587   0.884   4.342 -0.6521  1.9837 -0.9179
 2485SOL    HW219092   4.706   0.866   4.429  0.1792 -0.3197 -0.5768
 2486SOL     OW19093   3.594   3.244   0.886  0.5240  0.2178 -0.8905
 2486SOL    HW119094   3.543   3.182   0.939 -1.5290  2.3912 -0.3155
 2486SOL    HW219095   3.664   3.274   0.945 -2.6211  4.1800  0.8124
 2487SOL     OW19096   1.220   0.797   2.921 -0.1649 -0.7924  0.0323
 2487SOL    HW119097   1.304   0.784   2.877  0.4107  2.3967  0.1746
 2487SOL    HW219098   1.176   0.714   2.905 -0.2125 -1.0144  1.3179
 2488SOL     OW19099   3.758   3.718   7.848  0.4711  0.1441 -0.4017
 2488SOL    HW119100   3.755   3.671   7.932 -0.9106 -1.2104 -1.2071
 2488SOL    HW219101   3.849   3.693   7.829  0.7451  0.1556  0.8504
 2489SOL     OW19102   1.067   4.302   7.860 -0.1479  0.4281  0.0667
 2489SOL    HW119103   1.008   4.375   7.842  0.3450  1.2419  1.7384
 2489SOL    HW219104   1.150   4.326   7.821 -0.9947  1.4975 -1.0687
 2490SOL     OW19105   1.622   4.615   7.170  0.3082 -0.2620  0.3359
 2490SOL    HW119106   1.607   4.523   7.146 -3.1269  0.3959 -0.0227
 2490SOL    HW219107   1.662   4.653   7.092 -2.8275  2.2094 -0.0555
 2491SOL     OW19108   3.820   3.068  14.579  1.2298 -0.5441  0.0447
 2491SOL    HW119109   3.790   3.131  14.645  2.6080 -0.5675  0.6962
 2491SOL    HW219110   3.902   3.111  14.554  0.9345  2.0780  3.4618
 2492SOL     OW19111   2.514   3.609   5.061 -0.4050  0.4223 -0.2201
 2492SOL    HW119112   2.499   3.549   4.988 -1.1111  0.5739 -0.2031
 2492SOL    HW219113   2.599   3.572   5.084  0.7143  3.2291  0.1119
 2493SOL     OW19114   4.573   2.283   1.147  0.2480 -0.1632 -0.5219
 2493SOL    HW119115   4.499   2.282   1.209 -0.3878  2.2153 -1.2407
 2493SOL    HW219116   4.620   2.205   1.178  0.0576  0.2262  0.7623
 2494SOL     OW19117   0.431   0.624  14.824  0.1063  0.3671 -0.0971
 2494SOL    HW119118   0.388   0.663  14.901 -0.9085 -1.8420  0.4557
 2494SOL    HW219119   0.432   0.533  14.852 -1.1362  0.1709 -0.6692
 2495SOL     OW19120   4.253   2.317   9.302  0.4954  0.7653  0.0599
 2495SOL    HW119121   4.316   2.275   9.360  0.3623  1.0708  0.4260
 2495SOL    HW219122   4.242   2.402   9.345 -0.1863 -0.4454  2.2377
 2496SOL     OW19123   0.854   0.439  15.679  0.0013 -0.0856  0.2444
 2496SOL    HW119124   0.791   0.510  15.666  1.5414  0.7871 -2.3387
 2496SOL    HW219125   0.935   0.481  15.651 -0.8526  1.0817 -0.4944
 2497SOL     OW19126   3.947   0.801   6.469 -0.0075 -0.1463 -0.9924
 2497SOL    HW119127   3.873   0.773   6.524 -0.7923 -0.8648 -2.3978
 2497SOL    HW219128   3.961   0.892   6.495  0.6569 -0.9258  1.3180
 2498SOL     OW19129   1.159   3.285   5.891 -0.3287  0.2097 -0.4389
 2498SOL    HW119130   1.235   3.243   5.849  1.4117  0.3491  2.5558
 2498SOL    HW219131   1.177   3.272   5.984 -1.7321 -1.6684 -0.4409
 2499SOL     OW19132   1.805   3.582  14.877 -0.5565  0.1728 -0.3114
 2499SOL    HW119133   1.872   3.604  14.942 -0.8351 -1.8232  0.6716
 2499SOL    HW219134   1.858   3.534  14.813 -0.6741 -0.1699 -0.1503
 2500SOL     OW19135   2.272   0.868  14.422  0.5699  0.2892 -0.4382
 2500SOL    HW119136   2.323   0.876  14.502 -0.8789  0.5485  0.4627
 2500SOL    HW219137   2.329   0.892  14.349  2.4107 -0.4207  0.7774
 2501SOL     OW19138   3.335   0.737  16.326 -0.0944  0.5326 -0.2674
 2501SOL    HW119139   3.367   0.708  16.240 -0.8122 -1.3607  0.1216
 2501SOL    HW219140   3.254   0.786  16.313  0.9834  2.4710  0.3821
 2502SOL     OW19141   0.238   0.969  15.712 -0.0447  0.7513  0.0325
 2502SOL    HW119142   0.233   1.063  15.696 -0.7325  1.0106  1.7597
 2502SOL    HW219143   0.255   0.964  15.807 -1.0105  2.1420  0.2769
 2503SOL     OW19144   2.046   0.211   5.634  0.4261 -0.2290 -0.3268
 2503SOL    HW119145   2.108   0.184   5.701  0.2450  0.1761  0.0001
 2503SOL    HW219146   2.103   0.193   5.559  0.3920  0.3412 -0.4894
 2504SOL     OW19147   1.194   4.024  15.939 -0.4753  0.6210  0.4649
 2504SOL    HW119148   1.100   4.015  15.923 -0.2371  0.1404 -0.6480
 2504SOL    HW219149   1.216   4.088  15.872 -0.1096 -0.9485 -0.9133
 2505SOL     OW19150   2.441   1.190   8.568 -0.1051  0.1637 -0.1237
 2505SOL    HW119151   2.456   1.098   8.587  1.1796  0.5343  0.6274
 2505SOL    HW219152   2.359   1.198   8.618  0.6886 -3.1558  1.7044
 2506SOL     OW19153   3.980   4.188   7.501 -0.5007  0.2608 -0.0304
 2506SOL    HW119154   4.030   4.112   7.532  1.6594  1.7537  0.1263
 2506SOL    HW219155   3.921   4.198   7.576  0.0377  0.4985  0.3665
 2507SOL     OW19156   1.799   3.864   4.594  0.4706  0.3588  0.2474
 2507SOL    HW119157   1.741   3.812   4.650 -0.5509  1.5583  0.3146
 2507SOL    HW219158   1.735   3.917   4.546  0.5907  0.6019  0.3576
 2508SOL     OW19159   0.162   2.545   2.317 -0.0695  0.6465 -0.3637
 2508SOL    HW119160   0.257   2.546   2.304 -0.3336 -0.6963 -2.3652
 2508SOL    HW219161   0.137   2.501   2.236 -3.1928 -0.4517  1.2028
 2509SOL     OW19162   4.115   3.213  16.147  0.0006  0.1692 -0.8062
 2509SOL    HW119163   4.109   3.276  16.075 -0.7956 -0.9475 -1.7111
 2509SOL    HW219164   4.143   3.134  16.101  0.8227  1.3659 -2.3772
 2510SOL     OW19165   3.609   3.571   3.108 -0.2169  0.1940  0.1504
 2510SOL    HW119166   3.526   3.529   3.134 -0.1625  0.0706  0.1237
 2510SOL    HW219167   3.592   3.605   3.020 -1.3892  1.2251  0.7836
 2511SOL     OW19168   2.502   0.481  11.368  0.0982  0.0627 -0.1838
 2511SOL    HW119169   2.490   0.482  11.273 -0.0909 -0.2322 -0.1609
 2511SOL    HW219170   2.474   0.569  11.393  2.5856  0.4029  1.4622
 2512SOL     OW19171   4.524   0.106   2.026  1.2987 -0.0547 -0.6943
 2512SOL    HW119172   4.603   0.060   2.055  1.3671  0.2275 -0.4380
 2512SOL    HW219173   4.552   0.158   1.951  0.1415  1.2497 -0.2241
 2513SOL     OW19174   2.846   2.577  14.103 -0.0465 -0.0503 -0.4934
 2513SOL    HW119175   2.769   2.599  14.052 -1.5003 -1.5103  1.0865
 2513SOL    HW219176   2.883   2.512  14.043  0.4824  0.4963 -0.7663
 2514SOL     OW19177   3.969   4.172  12.270  0.2489 -0.1188 -0.7226
 2514SOL    HW119178   4.016   4.188  12.352  0.8843  0.7660 -1.2581
 2514SOL    HW219179   4.021   4.117  12.211  1.4760  0.0293  0.2109
 2515SOL     OW19180   1.210   1.802   1.763 -0.5660 -0.0781  0.3405
 2515SOL    HW119181   1.145   1.744   1.801  0.2792 -3.0592 -2.6509
 2515SOL    HW219182   1.174   1.887   1.786  0.0892  0.1135  0.6443
 2516SOL     OW19183   0.198   4.347   9.053  0.0225  0.0690  0.1715
 2516SOL    HW119184   0.172   4.438   9.068 -0.0443  0.1782 -0.5912
 2516SOL    HW219185   0.120   4.318   9.006 -0.3770  1.4293 -0.0248
 2517SOL     OW19186   0.658   1.929   1.688  0.0952  0.2607  0.3710
 2517SOL    HW119187   0.679   1.979   1.609 -1.0447 -0.2192 -0.2564
 2517SOL    HW219188   0.700   1.981   1.756 -3.3759  0.7707  2.1242
 2518SOL     OW19189   3.112   4.278   6.380  0.3885  0.6797  0.5317
 2518SOL    HW119190   3.184   4.215   6.378 -0.6509 -0.5013  0.6385
 2518SOL    HW219191   3.100   4.304   6.289  0.3796 -0.6873  0.1465
 2519SOL     OW19192   0.216   3.141   2.806  0.0856  0.0212 -0.0234
 2519SOL    HW119193   0.310   3.155   2.802  0.2973 -1.0795  1.1613
 2519SOL    HW219194   0.190   3.146   2.715 -0.2899  0.3385  0.0998
 2520SOL     OW19195   1.489   2.696   2.413 -0.1365 -0.1745 -0.3736
 2520SOL    HW119196   1.551   2.625   2.395 -0.0975  0.2364 -1.8710
 2520SOL    HW219197   1.405   2.650   2.410 -1.4719  2.3136 -0.6809
 2521SOL     OW19198   2.256   2.571   6.227  0.4718  0.2209 -0.1095
 2521SOL    HW119199   2.220   2.494   6.270 -0.1615  0.0431 -0.9556
 2521SOL    HW219200   2.245   2.553   6.133  0.3108  0.1539 -0.0785
 2522SOL     OW19201   3.161   1.216  13.155  0.3409 -0.5213  0.1051
 2522SOL    HW119202   3.091   1.153  13.172  1.1998 -1.3318  0.6341
 2522SOL    HW219203   3.211   1.168  13.089  0.0231 -0.6319 -0.0578
 2523SOL     OW19204   3.640   1.300  13.358 -0.4617  0.5734 -0.3107
 2523SOL    HW119205   3.578   1.228  13.350 -2.2681  1.8925  1.9576
 2523SOL    HW219206   3.665   1.274  13.447  1.3690 -2.2795 -1.6238
 2524SOL     OW19207   1.729   2.978  12.326  0.2299  0.1334 -0.0759
 2524SOL    HW119208   1.788   3.038  12.373 -0.4081 -0.2594  1.2121
 2524SOL    HW219209   1.786   2.928  12.267  0.2374 -0.3372  0.3373
 2525SOL     OW19210   4.651   4.075   2.988  0.1145 -0.5958 -0.0206
 2525SOL    HW119211   4.727   4.028   3.024 -1.3640 -1.8735  1.4466
 2525SOL    HW219212   4.592   4.064   3.062 -0.3803 -1.9076 -0.6127
 2526SOL     OW19213   4.694   2.874  15.974  0.3219 -0.3189  0.6778
 2526SOL    HW119214   4.639   2.946  15.944  1.5249  0.9710  1.5590
 2526SOL    HW219215   0.010   2.857  15.896 -0.2824  0.1417  0.1726
 2527SOL     OW19216   2.860   1.493   6.177  0.3555  0.1140  0.2927
 2527SOL    HW119217   2.915   1.556   6.129 -0.4544 -1.4703 -2.7504
 2527SOL    HW219218   2.845   1.550   6.252 -2.8823 -0.2867 -0.0668
 2528SOL     OW19219   1.444   1.092   4.005  0.0593  0.6452 -0.0746
 2528SOL    HW119220   1.385   1.039   4.058  0.7332  0.5845  0.6202
 2528SOL    HW219221   1.417   1.182   4.024 -0.9215  0.6322 -1.3837
 2529SOL     OW19222   0.378   4.529   1.394  0.8415 -0.4229 -0.0705
 2529SOL    HW119223   0.358   4.448   1.346  0.7958 -0.2429 -0.3568
 2529SOL    HW219224   0.407   4.477   1.468 -0.0266  0.0681  0.6100
 2530SOL     OW19225   0.848   1.469   9.837  0.5650  0.1703 -1.0515
 2530SOL    HW119226   0.759   1.501   9.855 -0.2146 -1.8360 -1.3205
 2530SOL    HW219227   0.832   1.378   9.813  3.2521  0.0599 -2.3482
 2531SOL     OW19228   3.123   3.882   3.975  0.1511 -0.5465  0.3002
 2531SOL    HW119229   3.061   3.843   4.036 -1.6886  0.4238 -0.9470
 2531SOL    HW219230   3.087   3.955   3.924  1.0863 -1.7276 -2.0749
 2532SOL     OW19231   1.731   2.966   4.954  0.2999  0.2420  0.3089
 2532SOL    HW119232   1.679   3.017   5.016 -1.2435 -0.5633 -0.3369
 2532SOL    HW219233   1.799   3.023   4.919  0.3800  0.2888  0.5405
 2533SOL     OW19234   4.047   2.259   7.855  0.3016 -0.0284  0.0336
 2533SOL    HW119235   4.096   2.288   7.778 -0.3074  0.6531 -0.0918
 2533SOL    HW219236   3.989   2.191   7.819 -3.9564  1.8900  3.2615
 2534SOL     OW19237   3.575   0.449   0.823 -0.3640 -0.2649 -0.4829
 2534SOL    HW119238   3.659   0.493   0.833  0.7885 -2.2161 -1.4322
 2534SOL    HW219239   3.592   0.374   0.880 -1.5303 -1.1359 -1.2917
 2535SOL     OW19240   3.337   4.242   5.534 -0.0806  0.1480 -0.5340
 2535SOL    HW119241   3.384   4.164   5.562 -0.3665  0.0952 -0.1903
 2535SOL    HW219242   3.366   4.243   5.443  2.3852  2.1656  0.2708
 2536SOL     OW19243   1.997   3.401   8.474 -0.1197 -0.9453 -0.2287
 2536SOL    HW119244   1.969   3.418   8.564  1.5672  0.6388  0.0102
 2536SOL    HW219245   2.091   3.414   8.486 -0.1892 -1.5484  0.9813
 2537SOL     OW19246   0.703   2.804   8.254  0.2119  0.0814 -0.1849
 2537SOL    HW119247   0.744   2.846   8.329 -1.5666  1.2068  0.1418
 2537SOL    HW219248   0.646   2.872   8.219  0.2077 -0.1361 -0.6041
 2538SOL     OW19249   1.585   4.152  11.632 -0.9324 -0.0555  0.2855
 2538SOL    HW119250   1.654   4.166  11.696 -2.0669  3.1842  0.7913
 2538SOL    HW219251   1.624   4.205  11.563  1.6206 -0.7984  1.1514
 2539SOL     OW19252   3.931   2.295   8.097 -0.3653  0.1392 -0.5727
 2539SOL    HW119253   4.013   2.336   8.123  0.7060 -1.5328 -1.3551
 2539SOL    HW219254   3.937   2.295   8.002  2.3604  0.6844 -0.3772
 2540SOL     OW19255   2.627   1.772   3.824 -0.0256 -0.5429 -0.0982
 2540SOL    HW119256   2.689   1.765   3.896  0.4499 -0.0947 -0.4598
 2540SOL    HW219257   2.575   1.848   3.850  1.5084  0.6964 -0.6773
 2541SOL     OW19258   3.256   3.195   1.116  0.2650  0.3902  0.4343
 2541SOL    HW119259   3.231   3.130   1.182  0.5921  2.3467  2.4929
 2541SOL    HW219260   3.324   3.135   1.083 -0.1356 -0.6377  1.4526
 2542SOL     OW19261   0.400   0.052   8.897  0.1462  0.3471 -0.8363
 2542SOL    HW119262   0.305   0.043   8.885 -0.0781 -0.6201  1.5534
 2542SOL    HW219263   0.435   0.094   8.818  0.5773 -2.1116 -1.9254
 2543SOL     OW19264   3.888   1.654   7.567  0.3407 -0.0599  0.2604
 2543SOL    HW119265   3.916   1.695   7.649  0.2787 -0.7775  0.6365
 2543SOL    HW219266   3.970   1.606   7.553 -0.4005 -0.7324 -1.8251
 2544SOL     OW19267   3.709   4.314  12.274 -0.3593 -0.1259 -0.4534
 2544SOL    HW119268   3.790   4.265  12.259  0.3541  0.7320  0.5911
 2544SOL    HW219269   3.648   4.244  12.293 -0.0345  0.6286  3.4125
 2545SOL     OW19270   2.872   3.823  12.200  0.3381 -0.5006 -0.0479
 2545SOL    HW119271   2.924   3.854  12.126 -1.0477  0.7529 -0.4841
 2545SOL    HW219272   2.920   3.872  12.266 -0.7014  1.0270 -0.4326
 2546SOL     OW19273   2.474   3.472  14.997  0.3773 -0.2119  0.4325
 2546SOL    HW119274   2.499   3.526  14.922 -0.6731  0.5622  0.6364
 2546SOL    HW219275   2.561   3.435  15.010  0.6721  1.1082  2.1317
 2547SOL     OW19276   0.806   3.629   2.223  0.1536  0.3797 -0.2551
 2547SOL    HW119277   0.786   3.627   2.316 -0.2021 -1.2716 -0.3686
 2547SOL    HW219278   0.752   3.556   2.195  0.8435 -0.1012 -0.3449
 2548SOL     OW19279   2.773   1.244   1.634  0.0608 -0.6716 -0.0105
 2548SOL    HW119280   2.843   1.297   1.596 -0.7395  0.5037  0.1535
 2548SOL    HW219281   2.709   1.312   1.655 -0.0205 -0.3945 -1.1295
 2549SOL     OW19282   0.418   0.913   4.113  0.3784 -0.1174 -0.2195
 2549SOL    HW119283   0.480   0.946   4.178  0.1393  0.2514 -0.1780
 2549SOL    HW219284   0.345   0.884   4.167  0.8816  1.7764  1.4580
 2550SOL     OW19285   0.339   2.150   2.939 -0.0745 -0.1167 -0.2653
 2550SOL    HW119286   0.417   2.205   2.937  0.9546 -1.6507 -2.7018
 2550SOL    HW219287   0.270   2.211   2.916 -0.8547 -0.0805  2.1430
 2551SOL     OW19288   2.124   4.355  15.752  0.5557  0.3862  0.0328
 2551SOL    HW119289   2.034   4.374  15.776 -0.1080  0.0915 -2.2471
 2551SOL    HW219290   2.182   4.374  15.826 -0.7163  1.6926  0.6876
 2552SOL     OW19291   0.707   2.781   6.705 -0.3545 -0.3420  0.1760
 2552SOL    HW119292   0.709   2.720   6.779 -0.8095  1.4097  1.6411
 2552SOL    HW219293   0.782   2.829   6.738 -2.2087  1.0946  2.3076
 2553SOL     OW19294   0.595   0.214   9.281 -0.1412 -0.5415 -0.3583
 2553SOL    HW119295   0.555   0.128   9.295 -2.5676  0.7816  0.8816
 2553SOL    HW219296   0.666   0.204   9.345 -1.3615 -3.4496  0.5433
 2554SOL     OW19297   3.200   3.968   4.925  0.5079 -0.2815 -0.5310
 2554SOL    HW119298   3.272   4.028   4.906  0.4153 -0.4097 -1.2986
 2554SOL    HW219299   3.133   4.037   4.932  0.7354  0.1161 -2.2663
 2555SOL     OW19300   1.485   0.102   5.642  0.2439  0.4791 -0.7482
 2555SOL    HW119301   1.545   0.166   5.604  0.5263  1.3427  1.1294
 2555SOL    HW219302   1.525   0.019   5.615 -2.2341 -0.8743 -0.1720
 2556SOL     OW19303   2.032   1.408  10.639 -0.1662 -0.1200  0.3065
 2556SOL    HW119304   2.070   1.326  10.672  1.7284  1.1795  1.3535
 2556SOL    HW219305   1.961   1.360  10.595  0.3712  0.2829 -0.9789
 2557SOL     OW19306   2.002   3.531   9.018  0.1072 -0.0782 -0.5264
 2557SOL    HW119307   2.068   3.485   9.070 -0.4313 -0.1327  0.1160
 2557SOL    HW219308   1.931   3.545   9.081  0.3927  1.0103 -0.4361
 2558SOL     OW19309   0.416   2.928   6.015  0.2562 -0.4815 -0.1168
 2558SOL    HW119310   0.484   2.982   6.054 -0.0026 -0.2612  0.0321
 2558SOL    HW219311   0.442   2.935   5.923 -2.1905 -0.1170 -0.7986
 2559SOL     OW19312   0.821   1.656   5.705  0.1774 -0.0962  0.2046
 2559SOL    HW119313   0.842   1.563   5.700  0.7122  0.0272  0.1648
 2559SOL    HW219314   0.827   1.673   5.611  0.4159  0.2066  0.2743
 2560SOL     OW19315   1.005   2.375   8.192  0.3582 -0.0593  0.2630
 2560SOL    HW119316   0.943   2.448   8.202 -0.2584 -0.4846 -0.5201
 2560SOL    HW219317   0.979   2.329   8.112 -1.3874  1.4642 -0.0543
 2561SOL     OW19318   1.278   1.880  17.367 -0.1507 -0.0375  0.1567
 2561SOL    HW119319   1.201   1.837  17.328  1.8000 -1.8853 -1.6636
 2561SOL    HW219320   1.267   1.894  17.461  1.4100 -0.7829  0.4500
 2562SOL     OW19321   3.734   1.641   2.295 -0.2911  0.0256 -0.5663
 2562SOL    HW119322   3.819   1.603   2.317 -0.8868 -0.7977  0.3021
 2562SOL    HW219323   3.721   1.620   2.203 -0.0429  0.8297 -0.7813
 2563SOL     OW19324   3.115   1.463   2.582  0.1143 -0.5226 -0.2003
 2563SOL    HW119325   3.134   1.544   2.629 -0.5457 -1.0011  0.9066
 2563SOL    HW219326   3.200   1.448   2.540  1.5373 -0.0043  2.4739
 2564SOL     OW19327   4.598   3.886   3.889 -0.1275  0.2504 -0.2640
 2564SOL    HW119328   4.674   3.945   3.882 -0.8703  1.3982  1.4944
 2564SOL    HW219329   4.644   3.804   3.908 -0.7252 -0.5784 -2.3450
 2565SOL     OW19330   3.652   2.378   6.815  0.1819  0.2443  0.1477
 2565SOL    HW119331   3.685   2.443   6.877 -2.5482  0.7556  1.0623
 2565SOL    HW219332   3.618   2.322   6.884  0.5590 -0.6121 -0.3716
 2566SOL     OW19333   3.143   2.885  10.383  0.2583 -0.0558  0.3405
 2566SOL    HW119334   3.171   2.952  10.320 -1.4069 -0.8863 -1.2989
 2566SOL    HW219335   3.136   2.812  10.321  0.1733 -0.2803  0.6177
 2567SOL     OW19336   3.106   3.157   4.647  0.3663 -0.0206  0.2940
 2567SOL    HW119337   3.048   3.180   4.720  0.4453  1.8369 -0.2281
 2567SOL    HW219338   3.159   3.236   4.643 -2.0500  1.5684  0.2397
 2568SOL     OW19339   3.988   2.926   2.804 -0.0719  0.3986  0.0775
 2568SOL    HW119340   4.068   2.973   2.781  0.5444 -1.8893 -2.5097
 2568SOL    HW219341   3.931   2.980   2.750  0.6717  0.6633 -0.4539
 2569SOL     OW19342   0.827   4.308   5.945  0.1616 -0.1414 -0.0585
 2569SOL    HW119343   0.877   4.293   6.025 -0.7560 -2.0228  0.1548
 2569SOL    HW219344   0.849   4.232   5.891 -1.2617 -2.3465  2.4860
 2570SOL     OW19345   1.930   2.066   6.936  0.2524  0.5656  0.7557
 2570SOL    HW119346   1.950   1.973   6.939  0.1021  0.5079 -0.2140
 2570SOL    HW219347   1.932   2.097   7.027  2.1398  1.0292  0.5479
 2571SOL     OW19348   3.268   0.344  12.044 -0.4171 -0.5209  0.1960
 2571SOL    HW119349   3.228   0.385  11.968 -1.3419  1.1103  1.5570
 2571SOL    HW219350   3.244   0.254  12.023  0.0782 -0.4817 -0.5283
 2572SOL     OW19351   1.579   1.917   1.746 -0.0896  0.6078  0.1541
 2572SOL    HW119352   1.636   1.867   1.689  0.0187  1.9845 -0.9598
 2572SOL    HW219353   1.594   2.004   1.708  0.6900  0.9198  1.1606
 2573SOL     OW19354   0.254   2.074   1.966 -0.3177  0.5290  0.3725
 2573SOL    HW119355   0.261   2.061   1.871  1.6942  1.3888  0.4131
 2573SOL    HW219356   0.347   2.071   1.986 -0.2616  3.5857  0.6126
 2574SOL     OW19357   3.521   3.891   6.674 -0.5265 -0.2231 -0.1843
 2574SOL    HW119358   3.520   3.881   6.579  2.7540 -2.5174  0.0338
 2574SOL    HW219359   3.521   3.987   6.673  0.6744 -0.2157  0.0535
 2575SOL     OW19360   3.292   2.580   2.074 -0.1657 -0.2285  0.3291
 2575SOL    HW119361   3.277   2.596   1.981  1.3682 -1.0917 -0.0709
 2575SOL    HW219362   3.308   2.670   2.104 -1.3780  0.0098  0.2507
 2576SOL     OW19363   3.477   2.206   7.015  0.1546 -0.5412  0.0300
 2576SOL    HW119364   3.431   2.177   6.937  1.6586 -0.5220 -0.8645
 2576SOL    HW219365   3.403   2.238   7.067  0.2474 -2.0625  1.1380
 2577SOL     OW19366   3.001   4.550   7.066  0.4398 -0.0490 -0.3713
 2577SOL    HW119367   2.992   4.562   7.161  0.5785  1.6530 -0.5759
 2577SOL    HW219368   2.909   4.553   7.038  0.4479 -0.7902 -0.4747
 2578SOL     OW19369   1.699   4.370   3.325 -0.4373 -0.3464 -0.1448
 2578SOL    HW119370   1.719   4.412   3.241 -1.0275  3.2199  1.4962
 2578SOL    HW219371   1.604   4.362   3.319 -0.3264 -2.4403  0.9693
 2579SOL     OW19372   1.853   3.331   0.620 -0.1120 -0.4088 -0.3801
 2579SOL    HW119373   1.899   3.262   0.668  1.2634  0.3250 -0.6189
 2579SOL    HW219374   1.898   3.325   0.536 -0.8901  3.5375 -1.0577
 2580SOL     OW19375   4.062   3.291   8.099  0.0583 -0.5124 -0.7249
 2580SOL    HW119376   4.007   3.238   8.042 -0.3023 -0.3325 -0.5442
 2580SOL    HW219377   4.020   3.271   8.182 -0.3543  0.3047 -0.7346
 2581SOL     OW19378   3.601   2.807  16.809 -0.0596  0.0735 -0.2516
 2581SOL    HW119379   3.687   2.784  16.844 -0.0523  1.0007  0.3180
 2581SOL    HW219380   3.585   2.732  16.751 -1.2027  1.4761 -1.7489
 2582SOL     OW19381   3.180   2.757  17.509 -0.1913 -0.2045 -0.3013
 2582SOL    HW119382   3.160   2.767  17.416 -2.7689  0.9911  0.3705
 2582SOL    HW219383   3.169   2.847  17.542 -1.7748 -0.0457 -1.2637
 2583SOL     OW19384   2.535   1.282   6.596 -0.2987 -0.3406  0.2830
 2583SOL    HW119385   2.556   1.286   6.503 -0.3313  0.5275  0.3170
 2583SOL    HW219386   2.625   1.277   6.628 -0.2694  0.4826  0.3142
 2584SOL     OW19387   3.342   2.783  12.897  0.0821 -0.0389  0.1139
 2584SOL    HW119388   3.323   2.873  12.922 -0.2565 -0.3109  0.8598
 2584SOL    HW219389   3.385   2.756  12.978 -0.1053 -2.3145 -0.5440
 2585SOL     OW19390   2.899   1.782   5.087 -0.5424  0.1804 -0.3642
 2585SOL    HW119391   2.815   1.828   5.085 -0.1614  0.9507  1.4096
 2585SOL    HW219392   2.959   1.855   5.102 -1.8816  0.8827  1.5476
 2586SOL     OW19393   3.388   1.188   6.767 -0.4433 -0.0284  0.2875
 2586SOL    HW119394   3.431   1.172   6.850 -1.1390  1.6596  0.9707
 2586SOL    HW219395   3.427   1.112   6.723 -0.9043 -0.0908 -0.0130
 2587SOL     OW19396   0.442   3.609   9.227 -0.1487  0.2892  0.3171
 2587SOL    HW119397   0.397   3.631   9.146  0.4883  0.6807  0.0690
 2587SOL    HW219398   0.382   3.649   9.290  1.5914  0.6594  1.7492
 2588SOL     OW19399   1.217   1.296  11.877  0.1860 -0.1136  0.1043
 2588SOL    HW119400   1.249   1.357  11.942  1.2745  0.2425 -0.7669
 2588SOL    HW219401   1.294   1.241  11.866  0.1398  0.1190 -1.4432
 2589SOL     OW19402   4.659   0.710   2.705  0.4240  0.1267 -0.4064
 2589SOL    HW119403   0.009   0.737   2.674  0.0601 -1.0357 -2.4269
 2589SOL    HW219404   4.682   0.685   2.794 -3.0260  0.6738  0.6511
 2590SOL     OW19405   3.598   2.003  14.879 -0.5556 -0.4424 -0.0967
 2590SOL    HW119406   3.534   2.049  14.825  0.0264  0.2362 -0.2140
 2590SOL    HW219407   3.569   1.915  14.856 -0.3664 -0.8027  1.0559
 2591SOL     OW19408   4.353   0.109  15.607  0.5322 -0.1536 -0.5260
 2591SOL    HW119409   4.308   0.095  15.524  1.0044 -0.0974 -0.7954
 2591SOL    HW219410   4.293   0.065  15.667 -0.4189  0.0651 -1.3087
 2592SOL     OW19411   0.340   2.902  11.077  0.2680  0.0853 -0.0393
 2592SOL    HW119412   0.321   2.818  11.118  2.0593 -1.1333 -1.7491
 2592SOL    HW219413   0.335   2.964  11.150 -1.2899 -2.3023  1.8753
 2593SOL     OW19414   4.235   2.078  11.088 -0.2407  0.2976 -0.5165
 2593SOL    HW119415   4.197   2.061  11.002 -0.6105  2.0240 -0.6848
 2593SOL    HW219416   4.162   2.106  11.143 -0.9040  0.9555 -1.7340
 2594SOL     OW19417   3.070   0.765   6.509  0.1947 -0.2233  1.0121
 2594SOL    HW119418   3.021   0.807   6.439  0.5228 -1.2004  0.1973
 2594SOL    HW219419   2.997   0.720   6.552 -0.6605 -1.5058 -1.7782
 2595SOL     OW19420   1.422   1.691  10.810 -0.2855 -0.5394  0.0235
 2595SOL    HW119421   1.342   1.672  10.859  0.4123 -0.4766  1.1688
 2595SOL    HW219422   1.480   1.734  10.872 -0.3007  0.4408 -0.6492
 2596SOL     OW19423   2.927   2.789   1.905 -0.2260 -0.6207 -0.3989
 2596SOL    HW119424   2.999   2.739   1.867  0.9908 -0.3859  1.5959
 2596SOL    HW219425   2.967   2.874   1.921  0.7012 -0.8900 -1.3420
 2597SOL     OW19426   2.561   3.361   3.264  0.6540 -0.3642 -0.0650
 2597SOL    HW119427   2.530   3.296   3.326 -2.8501  2.1101  0.7868
 2597SOL    HW219428   2.647   3.378   3.302  0.7506  0.6717 -0.7200
 2598SOL     OW19429   3.628   0.983   7.297 -0.1600  0.1296  0.3271
 2598SOL    HW119430   3.535   0.995   7.276 -0.1282 -2.7658 -1.5851
 2598SOL    HW219431   3.638   0.933   7.378 -1.7992 -1.9719 -0.7560
 2599SOL     OW19432   2.108   4.235   4.266  0.6129 -0.2633  0.5184
 2599SOL    HW119433   2.115   4.313   4.211 -0.3560 -1.6710 -1.5930
 2599SOL    HW219434   2.014   4.217   4.274  0.8171 -0.2612  2.9055
 2600SOL     OW19435   2.213   0.931   1.417 -0.6447  0.4183 -0.7754
 2600SOL    HW119436   2.293   0.974   1.446 -0.6335 -0.5224  0.5608
 2600SOL    HW219437   2.250   0.873   1.351  1.0244 -0.4894  0.9840
 2601SOL     OW19438   3.508   2.920   9.223  0.6193 -0.5679 -0.0222
 2601SOL    HW119439   3.421   2.913   9.262 -0.3522  1.3579 -1.8296
 2601SOL    HW219440   3.500   2.882   9.136 -3.2953 -0.0156  0.1090
 2602SOL     OW19441   4.633   1.911  10.647 -0.1817  0.5535  0.3580
 2602SOL    HW119442   4.652   1.919  10.554  0.3135  0.7124  0.4703
 2602SOL    HW219443   4.690   1.836  10.666  0.4611  0.9596  0.0474
 2603SOL     OW19444   3.769   1.079   9.365 -0.2290 -0.0713  0.0946
 2603SOL    HW119445   3.807   1.144   9.424  0.1618 -1.3060  1.2098
 2603SOL    HW219446   3.848   1.032   9.339  0.6760  1.2572  0.4555
 2604SOL     OW19447   2.031   2.811   1.369 -0.2315 -0.2022 -0.3572
 2604SOL    HW119448   2.010   2.781   1.458 -0.6371 -1.2746 -0.8136
 2604SOL    HW219449   2.109   2.859   1.396  0.0222  1.2695 -3.7435
 2605SOL     OW19450   1.613   0.956   3.329 -0.6842 -0.0023 -0.1386
 2605SOL    HW119451   1.582   1.046   3.317  0.8928  0.5971  0.2682
 2605SOL    HW219452   1.559   0.933   3.405 -0.3653  1.4934  0.5499
 2606SOL     OW19453   0.564   2.813   7.077 -0.1086 -0.9297  0.4563
 2606SOL    HW119454   0.594   2.729   7.042  2.9301  1.0509 -1.7327
 2606SOL    HW219455   0.641   2.830   7.132  0.4101 -0.8455 -0.2989
 2607SOL     OW19456   3.370   2.112  16.478  0.8846  0.4644  0.4268
 2607SOL    HW119457   3.425   2.067  16.414 -0.8246  3.2476 -3.0065
 2607SOL    HW219458   3.355   2.041  16.540 -1.1646 -1.3172 -2.1555
 2608SOL     OW19459   2.037   4.404   0.424  0.4242 -0.2001 -0.1301
 2608SOL    HW119460   2.041   4.309   0.409 -1.5354 -0.2515 -0.3751
 2608SOL    HW219461   1.953   4.412   0.470  0.1923  0.5591 -0.6828
 2609SOL     OW19462   4.671   3.804   2.211  0.1811  0.3755  0.2255
 2609SOL    HW119463   4.664   3.810   2.116 -3.4710 -0.7888  0.4196
 2609SOL    HW219464   4.590   3.846   2.240 -0.4813  0.8060 -2.2482
 2610SOL     OW19465   0.477   1.229   8.296 -0.6682 -0.5197 -0.0669
 2610SOL    HW119466   0.450   1.181   8.218  1.7951  1.6715 -2.2642
 2610SOL    HW219467   0.416   1.191   8.360  0.0443 -0.1285  0.8507
 2611SOL     OW19468   4.105   4.553   8.264  0.4825 -0.3121 -0.1180
 2611SOL    HW119469   4.034   4.518   8.210 -1.6569 -0.1966  2.6715
 2611SOL    HW219470   4.089   4.518   8.351  0.5656  0.6453  0.2811
 2612SOL     OW19471   4.437   0.505  13.447 -0.8436 -0.0389 -0.2753
 2612SOL    HW119472   4.489   0.586  13.448 -0.6069 -0.1938 -0.0917
 2612SOL    HW219473   4.449   0.475  13.537 -0.3167  0.4603 -0.1745
 2613SOL     OW19474   0.842   0.607   8.653  0.4274  0.3618 -0.1544
 2613SOL    HW119475   0.919   0.615   8.709  0.9344  2.6411 -1.1661
 2613SOL    HW219476   0.835   0.686   8.600 -0.4774  0.6420  0.3781
 2614SOL     OW19477   1.411   3.056   9.983 -0.1311 -0.2929  0.0768
 2614SOL    HW119478   1.414   2.970  10.024  0.4209 -0.4450 -0.2869
 2614SOL    HW219479   1.341   3.036   9.921  1.6331 -1.6677 -1.4373
 2615SOL     OW19480   0.654   2.708  14.295 -0.4255 -0.1601 -0.3327
 2615SOL    HW119481   0.605   2.708  14.212  0.3050 -1.0115 -0.7625
 2615SOL    HW219482   0.706   2.628  14.292 -2.0567 -1.2482  0.3639
 2616SOL     OW19483   0.747   2.218   1.755  0.2951  0.3051  0.0798
 2616SOL    HW119484   0.772   2.271   1.680 -2.4614  0.6655 -0.5794
 2616SOL    HW219485   0.824   2.220   1.812  0.0098  0.9726  0.4480
 2617SOL     OW19486   0.068   3.093   5.409  0.2625  0.4696  0.1947
 2617SOL    HW119487   0.138   3.028   5.404 -0.2782 -0.0490 -0.7354
 2617SOL    HW219488   4.730   3.033   5.418  0.7353  0.0344  1.1706
 2618SOL     OW19489   3.554   4.634  16.731  0.3221  0.6341 -0.2275
 2618SOL    HW119490   3.642   4.626  16.694  0.3239 -1.4069  0.1833
 2618SOL    HW219491   3.503   4.589  16.663  1.2003  0.0733 -0.5192
 2619SOL     OW19492   2.292   1.270   7.488  0.2113 -0.0587  0.0312
 2619SOL    HW119493   2.221   1.330   7.508  0.1973  0.9038 -2.8947
 2619SOL    HW219494   2.307   1.215   7.565  0.3577  1.1044  0.8247
 2620SOL     OW19495   4.053   3.238  12.620  0.1098 -0.6888 -0.1123
 2620SOL    HW119496   4.023   3.243  12.711 -2.9540  0.8301 -1.1932
 2620SOL    HW219497   3.977   3.273  12.574 -0.0306  1.3410  1.6808
 2621SOL     OW19498   0.628   4.146   8.464  0.1625  0.3676  0.1894
 2621SOL    HW119499   0.634   4.071   8.523 -2.1070  0.0659  0.0389
 2621SOL    HW219500   0.711   4.190   8.483  0.0928  1.5852 -2.3535
 2622SOL     OW19501   0.442   4.299   8.963 -0.0988  0.0506 -0.0162
 2622SOL    HW119502   0.466   4.387   8.933 -2.3348  0.6432 -0.0765
 2622SOL    HW219503   0.358   4.310   9.008  0.6645 -0.2464  1.5092
 2623SOL     OW19504   4.645   4.572  14.496  0.5626  0.0798  0.0712
 2623SOL    HW119505   4.682   4.549  14.411 -0.1620  0.5447 -0.3727
 2623SOL    HW219506   4.561   4.527  14.498 -0.4011  1.9528  2.7576
 2624SOL     OW19507   3.955   0.283  16.412 -0.1760  0.6796  0.5845
 2624SOL    HW119508   3.963   0.346  16.340  2.6244  0.5925  0.7979
 2624SOL    HW219509   4.013   0.331  16.471  0.4506 -1.9936  2.1702
 2625SOL     OW19510   0.244   4.446  10.488  0.1601  0.2147  0.4225
 2625SOL    HW119511   0.314   4.399  10.444 -0.8191  1.0882 -2.0734
 2625SOL    HW219512   0.211   4.369  10.535 -1.8285  2.2787  2.3830
 2626SOL     OW19513   4.496   0.279   6.953  0.0567  0.0084  0.0243
 2626SOL    HW119514   4.533   0.321   6.875  0.2101  1.1574  0.7281
 2626SOL    HW219515   4.402   0.297   6.943 -0.0332 -0.3274  0.2591
 2627SOL     OW19516   0.962   0.039   7.129 -0.4522  0.1778  0.5887
 2627SOL    HW119517   0.899   0.068   7.063 -1.9145 -0.5249  1.6878
 2627SOL    HW219518   0.932   4.690   7.156  0.0815  0.3119  1.6042
 2628SOL     OW19519   1.835   2.934   7.566  0.6245 -0.3347  0.3276
 2628SOL    HW119520   1.841   2.838   7.561 -1.2506 -0.4829  0.7733
 2628SOL    HW219521   1.773   2.945   7.638 -1.1146  0.0761 -1.2286
 2629SOL     OW19522   1.704   1.208   4.195 -0.0226  0.6595  0.2936
 2629SOL    HW119523   1.798   1.202   4.180 -0.3087  0.6761 -1.4917
 2629SOL    HW219524   1.685   1.299   4.170 -0.4303  0.3945 -0.3422
 2630SOL     OW19525   3.264   2.893   9.306 -0.3239 -0.2867  0.3922
 2630SOL    HW119526   3.231   2.893   9.396 -1.5281  0.0585 -0.0487
 2630SOL    HW219527   3.194   2.944   9.266  0.8320 -0.1003 -1.3670
 2631SOL     OW19528   1.529   2.274   2.688  0.0152  0.3428 -0.5024
 2631SOL    HW119529   1.444   2.234   2.666  0.1086 -1.4539  2.4222
 2631SOL    HW219530   1.591   2.202   2.681 -1.0812 -0.4513 -2.0971
 2632SOL     OW19531   0.377   0.007   4.268  0.2717 -0.0415 -0.4514
 2632SOL    HW119532   0.295   0.054   4.281 -0.8891 -2.3979  0.5786
 2632SOL    HW219533   0.417   0.058   4.197 -0.3094  0.3716 -0.4864
 2633SOL     OW19534   1.701   4.581   3.025 -0.4206 -0.4515  0.9372
 2633SOL    HW119535   1.780   4.633   3.010 -2.0381  2.3143  1.9296
 2633SOL    HW219536   1.717   4.515   2.958  2.3269  0.4161  0.7351
 2634SOL     OW19537   0.489   2.800   4.257 -0.7777 -0.3985 -0.4336
 2634SOL    HW119538   0.513   2.892   4.249  0.0494 -0.5914 -0.2148
 2634SOL    HW219539   0.559   2.763   4.312 -1.6183  1.0851  1.6209
 2635SOL     OW19540   3.495   0.754  16.930 -0.9278  0.4638  0.2749
 2635SOL    HW119541   3.486   0.749  17.026  1.9797  1.3959  0.6187
 2635SOL    HW219542   3.436   0.682  16.909 -1.7598  0.5268  2.3169
 2636SOL     OW19543   0.154   1.174  17.323 -0.1781  0.5598 -0.4621
 2636SOL    HW119544   0.236   1.224  17.316 -0.1527  0.4866 -0.6794
 2636SOL    HW219545   0.175   1.088  17.285 -1.3927  0.1988 -0.3205
 2637SOL     OW19546   2.432   2.465  14.383 -0.3544 -0.5245  0.0803
 2637SOL    HW119547   2.516   2.420  14.383  0.6828  1.4079  1.7712
 2637SOL    HW219548   2.393   2.394  14.434 -2.1369  0.1378 -0.3446
 2638SOL     OW19549   4.283   2.852   6.941  0.1567  0.1408  0.0758
 2638SOL    HW119550   4.330   2.912   6.883  0.2174  0.7006  0.7081
 2638SOL    HW219551   4.196   2.855   6.899  1.6197  3.5845 -2.7195
 2639SOL     OW19552   3.454   0.224  16.646 -0.1686  0.0503 -0.3805
 2639SOL    HW119553   3.391   0.267  16.589  1.0721  1.9006 -0.3634
 2639SOL    HW219554   3.538   0.227  16.600  0.1234 -2.7851  0.0045
 2640SOL     OW19555   4.614   0.039   7.008 -0.4234 -0.6008 -0.4466
 2640SOL    HW119556   4.578   0.128   7.007 -0.8216 -0.7855 -1.7140
 2640SOL    HW219557   4.682   0.049   6.941  0.4378  0.0412  0.5141
 2641SOL     OW19558   4.205   1.140   7.658 -0.0334 -0.3725 -0.0390
 2641SOL    HW119559   4.235   1.125   7.568  0.4369 -3.4184  0.6138
 2641SOL    HW219560   4.203   1.235   7.647 -2.4152 -0.1544  2.4545
 2642SOL     OW19561   1.850   4.187  11.770 -0.5520 -0.3135  0.4831
 2642SOL    HW119562   1.892   4.270  11.794 -0.5094 -0.0411 -0.5386
 2642SOL    HW219563   1.878   4.177  11.679  0.5694  1.9069  0.5831
 2643SOL     OW19564   3.199   4.239  13.505  0.0094 -0.2692 -0.5685
 2643SOL    HW119565   3.181   4.264  13.595 -2.0750  0.0910 -1.0895
 2643SOL    HW219566   3.197   4.145  13.521 -1.0859 -0.0662  0.4785
 2644SOL     OW19567   2.118   1.993   5.780 -0.3902 -0.5895 -0.4873
 2644SOL    HW119568   2.136   2.085   5.757  1.4909 -0.9699 -0.5454
 2644SOL    HW219569   2.113   1.964   5.689  1.0755  2.5507 -1.6019
 2645SOL     OW19570   2.008   2.699   8.651 -0.6725  0.3920 -0.7100
 2645SOL    HW119571   2.000   2.773   8.712 -2.8874  0.0859 -0.6159
 2645SOL    HW219572   1.971   2.749   8.578 -0.5523 -1.4759 -2.0421
 2646SOL     OW19573   2.798   0.356  12.794 -0.0954  0.4987 -0.0749
 2646SOL    HW119574   2.775   0.363  12.887 -2.7325  0.6946 -0.7537
 2646SOL    HW219575   2.847   0.437  12.781  0.5228  0.2654  0.7891
 2647SOL     OW19576   2.920   4.647   7.383 -0.9080  0.9887 -0.6184
 2647SOL    HW119577   2.931   4.559   7.418 -0.4067  0.9528 -0.8614
 2647SOL    HW219578   2.825   4.649   7.375 -1.0490 -2.6350  0.3971
 2648SOL     OW19579   1.306   0.074   3.787 -0.1600 -0.4626 -0.1125
 2648SOL    HW119580   1.264   0.070   3.873  0.5001 -1.5293  0.1422
 2648SOL    HW219581   1.323   4.717   3.779 -1.0755 -0.6358 -0.0726
 2649SOL     OW19582   3.545   2.621   8.072  0.4383  0.7927  0.3221
 2649SOL    HW119583   3.593   2.695   8.034  0.5031  0.2911 -0.5837
 2649SOL    HW219584   3.606   2.548   8.074  0.4661  0.6752 -3.4019
 2650SOL     OW19585   4.406   2.652   3.839  0.1229 -0.0992 -0.4287
 2650SOL    HW119586   4.383   2.665   3.931 -0.2879 -1.4253 -0.3520
 2650SOL    HW219587   4.317   2.656   3.803  0.8879 -0.2711 -2.3070
 2651SOL     OW19588   4.514   3.951   5.735  0.3019  0.0005 -0.2912
 2651SOL    HW119589   4.535   3.975   5.826  0.1882  2.8841 -1.0417
 2651SOL    HW219590   4.419   3.947   5.737  0.3855 -1.3689  1.2988
 2652SOL     OW19591   0.569   4.053   2.747 -0.3961 -0.1358  0.3191
 2652SOL    HW119592   0.663   4.037   2.754 -0.2508  0.1496 -0.9784
 2652SOL    HW219593   0.562   4.135   2.697  1.6315 -0.6143 -0.7163
 2653SOL     OW19594   2.171   2.807  16.512  0.1727 -0.9849 -0.2128
 2653SOL    HW119595   2.209   2.865  16.578 -3.4040  1.8579 -0.6065
 2653SOL    HW219596   2.123   2.869  16.457 -0.0427 -0.1652  0.8900
 2654SOL     OW19597   1.694   2.085   3.688  0.3970  0.3036  0.1040
 2654SOL    HW119598   1.782   2.063   3.659 -0.0822  1.0142 -1.8852
 2654SOL    HW219599   1.646   2.056   3.610 -0.7331  0.5249  0.7130
 2655SOL     OW19600   2.678   2.855  15.562 -0.1320 -0.0709 -0.5569
 2655SOL    HW119601   2.701   2.877  15.472  2.0492  0.4198  0.1208
 2655SOL    HW219602   2.720   2.770  15.578 -0.0726 -0.2638 -1.7497
 2656SOL     OW19603   0.842   3.027  11.624 -0.2651 -0.4214  0.5622
 2656SOL    HW119604   0.889   3.027  11.708  0.5383 -0.4325  0.1184
 2656SOL    HW219605   0.911   2.985  11.574 -0.7714  1.0446 -1.3643
 2657SOL     OW19606   3.001   0.239  13.432  0.2931  0.3780 -0.2604
 2657SOL    HW119607   3.057   0.167  13.404 -0.5280 -0.2212 -0.3497
 2657SOL    HW219608   3.066   0.309  13.444  0.6173 -0.2170  1.6045
 2658SOL     OW19609   1.273   4.567  13.753 -0.2799 -0.0169  0.4019
 2658SOL    HW119610   1.343   4.582  13.690 -1.5796 -1.4087 -1.3795
 2658SOL    HW219611   1.313   4.506  13.814  0.8053 -0.5353 -0.8386
 2659SOL     OW19612   4.122   3.639   3.669  0.2545 -0.0871 -0.1581
 2659SOL    HW119613   4.027   3.640   3.682  0.4266  0.9821  1.0865
 2659SOL    HW219614   4.137   3.620   3.576 -1.8700 -2.2866 -0.0346
 2660SOL     OW19615   2.814   2.207   5.365 -0.7648 -0.1696  0.7462
 2660SOL    HW119616   2.835   2.168   5.279 -0.7240 -1.1891  1.2212
 2660SOL    HW219617   2.891   2.183   5.417 -0.1303  2.7033  1.1559
 2661SOL     OW19618   0.944   3.326  13.175 -0.3244  0.0736  0.1733
 2661SOL    HW119619   0.893   3.406  13.161 -0.1277  0.6556  2.7888
 2661SOL    HW219620   0.893   3.285  13.245  0.3654 -0.1184  0.5574
 2662SOL     OW19621   1.742   2.545   8.722 -0.3877  0.0763 -0.4686
 2662SOL    HW119622   1.691   2.582   8.795 -1.6142 -2.6981  0.0489
 2662SOL    HW219623   1.806   2.616   8.713 -1.5092  1.2446  0.7696
 2663SOL     OW19624   0.990   0.756   6.103  0.3084 -0.2470  0.1031
 2663SOL    HW119625   1.016   0.700   6.176  3.2038  0.2578 -0.5397
 2663SOL    HW219626   0.976   0.687   6.038  0.0110 -0.4926  0.4245
 2664SOL     OW19627   2.325   3.145  10.328  0.2818 -0.1745 -0.5121
 2664SOL    HW119628   2.385   3.181  10.394  0.9697 -1.5528 -0.4004
 2664SOL    HW219629   2.320   3.053  10.355  1.8865 -0.3000 -0.6239
 2665SOL     OW19630   3.181   4.041   6.129 -0.0167 -0.0700  0.3352
 2665SOL    HW119631   3.243   4.114   6.121 -0.6903  0.5824  1.0447
 2665SOL    HW219632   3.125   4.052   6.052  3.3448  0.9627 -1.9438
 2666SOL     OW19633   3.778   0.822   5.493 -0.2183  0.0090 -0.1030
 2666SOL    HW119634   3.862   0.852   5.527 -0.2103 -0.4721  0.2969
 2666SOL    HW219635   3.788   0.842   5.399  0.0206  3.1463  0.5900
 2667SOL     OW19636   3.867   0.531  13.114  0.4651 -0.0377  0.2417
 2667SOL    HW119637   3.800   0.598  13.101  0.4155 -0.0034  0.6574
 2667SOL    HW219638   3.850   0.523  13.208 -1.7244 -1.0132 -0.2331
 2668SOL     OW19639   0.272   3.557   3.843  0.3963 -0.4519 -0.2500
 2668SOL    HW119640   0.332   3.631   3.844  0.7261 -0.7321  0.3824
 2668SOL    HW219641   0.322   3.503   3.781  0.0738 -2.3232  1.0992
 2669SOL     OW19642   3.427   1.139  13.805 -0.2016 -0.0015  0.5709
 2669SOL    HW119643   3.489   1.184  13.863 -1.5443  0.9791  1.2315
 2669SOL    HW219644   3.476   1.071  13.759 -0.3341 -1.5562  2.7324
 2670SOL     OW19645   0.803   0.664   7.501 -0.1176  0.4052 -0.1135
 2670SOL    HW119646   0.794   0.568   7.495 -1.7042  0.5451 -0.0813
 2670SOL    HW219647   0.758   0.692   7.421 -0.8360  0.3976  0.2866
 2671SOL     OW19648   0.048   3.936   0.545 -0.3229  0.6105 -0.5893
 2671SOL    HW119649   4.704   3.887   0.526 -0.6383  0.8462  0.1470
 2671SOL    HW219650   0.025   4.023   0.577 -2.6115  0.5457 -2.0127
 2672SOL     OW19651   3.296   0.436   2.144  0.5000 -0.6066 -0.2678
 2672SOL    HW119652   3.337   0.509   2.189 -1.1821  1.5036 -2.1910
 2672SOL    HW219653   3.211   0.470   2.118  0.5349  1.0527  1.8109
 2673SOL     OW19654   1.465   4.270   6.107 -0.5683 -0.0683  0.5966
 2673SOL    HW119655   1.494   4.288   6.196 -1.3770  3.4726  0.1498
 2673SOL    HW219656   1.549   4.266   6.060  0.0704  0.1845  1.7286
 2674SOL     OW19657   1.558   0.668   3.692 -0.0735 -0.4530 -0.0294
 2674SOL    HW119658   1.491   0.661   3.624  0.1416  0.8059 -0.3550
 2674SOL    HW219659   1.518   0.739   3.741 -0.8165 -0.9591  0.0969
 2675SOL     OW19660   0.506   2.057   2.035  0.2925 -0.2041  0.2745
 2675SOL    HW119661   0.600   2.064   2.020  0.0406 -1.0768 -1.6745
 2675SOL    HW219662   0.491   2.095   2.122 -0.9736  0.9228 -0.4291
 2676SOL     OW19663   4.391   0.219   6.173  0.3983 -0.0112 -0.3095
 2676SOL    HW119664   4.306   0.174   6.177  0.3408  0.1784  0.5667
 2676SOL    HW219665   4.418   0.190   6.086  2.0588 -1.2573  0.6270
 2677SOL     OW19666   1.987   3.691   4.856 -0.5654 -0.2696  0.4381
 2677SOL    HW119667   2.032   3.746   4.920 -2.2692  1.3635  0.2167
 2677SOL    HW219668   2.060   3.676   4.795  1.1830  2.8002  1.7470
 2678SOL     OW19669   2.433   1.321   0.551 -0.3001 -0.0751 -0.4958
 2678SOL    HW119670   2.395   1.268   0.480 -1.2780 -1.7560  1.2759
 2678SOL    HW219671   2.519   1.338   0.513  0.0197 -1.8328 -0.5612
 2679SOL     OW19672   0.099   3.913   4.621 -0.5356 -0.2170  0.1914
 2679SOL    HW119673   0.130   3.881   4.537  2.3617  1.3596  0.6825
 2679SOL    HW219674   0.136   3.848   4.680  2.4300  0.9143 -0.4480
 2680SOL     OW19675   2.962   1.597   7.538  0.6435 -0.6603  0.1805
 2680SOL    HW119676   2.930   1.515   7.575  0.0033  0.4589  2.0796
 2680SOL    HW219677   3.028   1.560   7.478  0.3164 -0.3644 -0.3525
 2681SOL     OW19678   1.605   1.156   0.076 -0.0161 -0.4935 -0.3205
 2681SOL    HW119679   1.521   1.142   0.033 -0.2706  0.3119 -0.1013
 2681SOL    HW219680   1.655   1.128  17.744  0.5875 -1.9562  0.6018
 2682SOL     OW19681   2.095   4.132   5.321  0.0097  0.0029  0.3527
 2682SOL    HW119682   2.138   4.054   5.356 -1.2162  0.3434  2.6016
 2682SOL    HW219683   2.068   4.173   5.403  0.4208 -1.3542  1.1498
 2683SOL     OW19684   3.211   0.869   5.520  0.0645 -0.1369 -0.5060
 2683SOL    HW119685   3.228   0.907   5.434 -0.6333  0.8696 -0.1921
 2683SOL    HW219686   3.299   0.864   5.557 -0.1519 -0.8774 -0.0764
 2684SOL     OW19687   3.722   4.242   5.186  0.3694 -0.3546 -0.2442
 2684SOL    HW119688   3.682   4.155   5.183 -0.6668  0.1360 -0.6974
 2684SOL    HW219689   3.805   4.215   5.146  1.5565 -0.3970  2.2508
 2685SOL     OW19690   2.547   2.243   2.040 -0.2092  0.4160  0.3468
 2685SOL    HW119691   2.579   2.166   2.087 -0.3983  0.3373  0.3458
 2685SOL    HW219692   2.584   2.308   2.100 -0.8222  1.3027 -0.2272
 2686SOL     OW19693   1.356   1.527   1.313 -0.7110  0.4506 -0.5465
 2686SOL    HW119694   1.320   1.450   1.358 -0.1951  2.2625  3.0022
 2686SOL    HW219695   1.291   1.536   1.243 -0.6883 -0.3167 -0.6713
 2687SOL     OW19696   0.928   3.434   4.719  0.3612 -0.9161  0.7958
 2687SOL    HW119697   0.848   3.484   4.703  0.5858 -0.6611  0.4774
 2687SOL    HW219698   0.969   3.469   4.799 -1.6683  0.3397  1.2832
 2688SOL     OW19699   1.795   2.608  16.969  0.1549 -0.1284 -0.3992
 2688SOL    HW119700   1.758   2.627  16.882  0.0179  0.3444 -0.2377
 2688SOL    HW219701   1.832   2.695  16.982  0.9557 -0.8190  1.9559
 2689SOL     OW19702   3.604   0.797   7.486  0.0800  0.0950 -0.1384
 2689SOL    HW119703   3.666   0.743   7.534 -1.9731 -0.6497  1.6767
 2689SOL    HW219704   3.523   0.746   7.486  0.1981 -0.0933  1.5891
 2690SOL     OW19705   2.465   1.848   1.471 -0.2571 -0.3777 -0.2042
 2690SOL    HW119706   2.535   1.873   1.410  0.8125  0.7173  1.4898
 2690SOL    HW219707   2.495   1.877   1.557 -0.5361 -0.0406 -0.2195
 2691SOL     OW19708   0.078   0.220   6.239 -0.4005 -0.2546 -0.1903
 2691SOL    HW119709   0.009   0.203   6.304 -0.6469  0.9082 -0.1557
 2691SOL    HW219710   0.139   0.162   6.285 -0.8319  0.9244  1.9091
 2692SOL     OW19711   3.865   4.333   2.094 -0.0579 -0.1954 -0.2458
 2692SOL    HW119712   3.777   4.353   2.062 -0.1657 -2.0035 -1.0751
 2692SOL    HW219713   3.870   4.395   2.167 -0.0339 -1.7239  1.0497
 2693SOL     OW19714   0.990   3.799   5.609 -0.0982 -0.1823  0.7541
 2693SOL    HW119715   0.936   3.777   5.533 -0.5801 -0.1255  1.0825
 2693SOL    HW219716   1.069   3.748   5.591 -0.2535  0.2471 -1.1968
 2694SOL     OW19717   1.645   2.947  16.244  0.0168  0.4540 -0.6299
 2694SOL    HW119718   1.698   2.993  16.180 -0.4464  1.5752 -0.2095
 2694SOL    HW219719   1.579   2.905  16.189 -0.4551 -0.6166  0.7350
 2695SOL     OW19720   2.243   3.281   2.856 -0.7275 -0.4611  0.1060
 2695SOL    HW119721   2.321   3.275   2.911 -0.1558  2.6214 -0.3905
 2695SOL    HW219722   2.193   3.211   2.897 -1.7835  0.0043 -0.3932
 2696SOL     OW19723   1.571   4.594   7.466  0.3437  0.1502 -0.1946
 2696SOL    HW119724   1.527   4.679   7.460 -0.6416 -0.5169 -2.4975
 2696SOL    HW219725   1.591   4.584   7.373  1.3913 -0.0699  0.0622
 2697SOL     OW19726   0.957   3.388   2.697 -0.4693  0.3778 -0.2233
 2697SOL    HW119727   0.952   3.482   2.709 -0.7581  0.2519  0.6455
 2697SOL    HW219728   0.912   3.353   2.774  1.7451 -0.7894  0.5357
 2698SOL     OW19729   2.678   1.891   1.303 -0.1179  0.3425 -0.4320
 2698SOL    HW119730   2.689   1.968   1.247 -0.8324 -0.3917 -1.5909
 2698SOL    HW219731   2.759   1.892   1.353 -0.4366 -0.2563  0.1044
 2699SOL     OW19732   1.855   2.194   9.361  0.5491  0.3640 -0.0886
 2699SOL    HW119733   1.858   2.254   9.435  0.1599  0.9149 -0.5235
 2699SOL    HW219734   1.921   2.131   9.389 -0.2602 -0.9482 -1.0793
 2700SOL     OW19735   4.053   4.218  12.993 -0.1956 -0.1987  0.0425
 2700SOL    HW119736   4.027   4.310  12.995 -1.1378 -0.4111 -2.0907
 2700SOL    HW219737   3.983   4.161  13.024 -0.0739 -0.0185  0.6485
 2701SOL     OW19738   3.132   1.809   4.052 -0.1010 -0.0521 -0.3885
 2701SOL    HW119739   3.135   1.714   4.058  0.6174  0.0194  0.3459
 2701SOL    HW219740   3.225   1.823   4.036 -0.1121  1.0590  0.4936
 2702SOL     OW19741   0.104   0.508  17.283 -0.3390  0.3979 -0.3624
 2702SOL    HW119742   0.038   0.566  17.244  1.5916  2.9560  0.1842
 2702SOL    HW219743   0.058   0.425  17.297 -0.4122  0.4423 -0.3342
 2703SOL     OW19744   4.663   4.297   8.175 -0.5328 -0.2933  0.1018
 2703SOL    HW119745   0.005   4.253   8.142  0.9106  1.4545  1.2358
 2703SOL    HW219746   4.598   4.270   8.110 -1.5545 -1.1993  1.4891
 2704SOL     OW19747   2.524   4.642   3.847 -0.3993  0.3997 -0.5124
 2704SOL    HW119748   2.449   4.677   3.896  0.0137 -1.8889  1.7581
 2704SOL    HW219749   2.477   4.605   3.772 -0.0064 -0.2264 -0.4482
 2705SOL     OW19750   1.951   1.499   5.206  0.0446  0.2695 -0.2241
 2705SOL    HW119751   1.919   1.548   5.282 -1.3325  0.1168 -0.7050
 2705SOL    HW219752   2.005   1.429   5.243  0.8708  0.1408 -1.6599
 2706SOL     OW19753   4.056   4.684  11.160 -0.7404 -0.2059  0.1759
 2706SOL    HW119754   4.146   4.656  11.178  0.0698  0.9564 -2.0826
 2706SOL    HW219755   4.020   4.729  11.236 -0.7472 -0.8630  0.5611
 2707SOL     OW19756   3.269   3.029   2.424 -0.5868  0.2916  0.3796
 2707SOL    HW119757   3.189   3.052   2.471  0.6175  0.1061  2.5537
 2707SOL    HW219758   3.326   3.038   2.501 -0.1262  2.2882 -0.1944
 2708SOL     OW19759   1.887   1.772  14.949  0.2897  0.1013 -0.1350
 2708SOL    HW119760   1.925   1.695  14.992 -0.8192 -1.6074 -2.2249
 2708SOL    HW219761   1.819   1.725  14.900 -0.0881 -1.2660  1.6996
 2709SOL     OW19762   1.657   2.059   3.417  0.5281  0.6088  0.5763
 2709SOL    HW119763   1.661   2.138   3.363 -0.9723  0.1582 -0.2291
 2709SOL    HW219764   1.748   2.031   3.424  0.7570  1.4641  0.9883
 2710SOL     OW19765   3.245   3.505   8.696 -0.5914 -0.4589  0.3193
 2710SOL    HW119766   3.206   3.580   8.741  0.6752  1.5084 -1.8755
 2710SOL    HW219767   3.327   3.496   8.744 -0.1215 -0.0499 -0.4018
 2711SOL     OW19768   3.854   2.249  17.149 -0.5635  0.8099  0.0344
 2711SOL    HW119769   3.897   2.282  17.071 -0.0992  1.4310  0.5554
 2711SOL    HW219770   3.840   2.158  17.121  0.6102  0.6780 -0.0980
 2712SOL     OW19771   0.882   1.124   3.473 -0.4898 -0.0701 -0.6274
 2712SOL    HW119772   0.827   1.150   3.546 -0.1043  2.4290 -1.2207
 2712SOL    HW219773   0.870   1.197   3.412 -0.7684  0.1169 -0.3479
 2713SOL     OW19774   1.364   2.299   2.063 -0.5765 -0.1711 -0.4627
 2713SOL    HW119775   1.410   2.215   2.073  0.1038  0.1808 -0.6584
 2713SOL    HW219776   1.436   2.345   2.020 -1.2589 -0.2099 -1.6722
 2714SOL     OW19777   3.328   4.175   3.043  0.3625  0.2479 -0.1171
 2714SOL    HW119778   3.370   4.126   3.114  0.1174  2.0650  1.3159
 2714SOL    HW219779   3.397   4.168   2.977  1.3613 -0.7687  1.0350
 2715SOL     OW19780   3.464   4.673   3.778  0.1496  0.0474  0.7496
 2715SOL    HW119781   3.465   4.597   3.837 -2.4792  0.7566  1.6815
 2715SOL    HW219782   3.418   4.629   3.706  2.7531 -1.1124 -0.2070
 2716SOL     OW19783   1.892   2.011  14.833  0.4177 -0.3806  0.6292
 2716SOL    HW119784   1.984   2.031  14.815  0.2212  1.5562  1.8297
 2716SOL    HW219785   1.918   1.933  14.882  0.8238  0.9303  2.5248
 2717SOL     OW19786   2.944   2.189   8.747  0.3241  0.6935 -0.2516
 2717SOL    HW119787   2.887   2.260   8.718  0.0428  0.0726 -1.2060
 2717SOL    HW219788   3.009   2.183   8.677  1.3323 -1.7853  0.8949
 2718SOL     OW19789   0.256   3.962   8.543  0.4074  0.4498 -0.1647
 2718SOL    HW119790   0.240   4.052   8.572  0.7148  0.2309  0.6727
 2718SOL    HW219791   0.253   3.972   8.448 -4.0135 -0.6988 -0.1418
 2719SOL     OW19792   2.404   4.038   9.200 -0.2512  0.2897 -0.1342
 2719SOL    HW119793   2.435   4.126   9.181  1.5913 -0.6912 -1.8157
 2719SOL    HW219794   2.471   4.004   9.141 -0.9398 -0.6778 -0.3608
 2720SOL     OW19795   3.815   1.937   9.645  0.2777 -0.4246 -0.4142
 2720SOL    HW119796   3.776   2.011   9.692  1.6880  1.5118 -2.2804
 2720SOL    HW219797   3.788   1.951   9.554  0.6138  1.4476 -0.2128
 2721SOL     OW19798   2.450   0.396   1.690  0.0722 -0.4630  0.0692
 2721SOL    HW119799   2.544   0.379   1.694  0.6520  2.3942 -0.9075
 2721SOL    HW219800   2.426   0.457   1.760  1.0812  0.8903 -0.7501
 2722SOL     OW19801   2.624   1.571   1.416  0.2275  0.2656 -0.4351
 2722SOL    HW119802   2.631   1.663   1.389 -0.2366  1.1934  2.5883
 2722SOL    HW219803   2.626   1.527   1.332 -0.4191  1.1354 -0.9114
 2723SOL     OW19804   3.492   4.361   5.043 -0.0608 -0.6620  0.1950
 2723SOL    HW119805   3.443   4.360   5.125 -0.8975 -0.4178 -0.3033
 2723SOL    HW219806   3.574   4.322   5.075  1.1697  2.8496  1.2438
 2724SOL     OW19807   2.258   1.566   4.172  0.4233  0.1775 -0.6316
 2724SOL    HW119808   2.168   1.543   4.151  1.0140 -1.4716 -1.3508
 2724SOL    HW219809   2.248   1.629   4.243  1.3120  2.0747 -2.1777
 2725SOL     OW19810   0.059   2.902   1.324 -0.6771  0.9000  0.2280
 2725SOL    HW119811   0.135   2.960   1.313 -0.4949  0.6072 -0.0575
 2725SOL    HW219812   0.102   2.817   1.323  0.9623  1.7415 -1.5149
 2726SOL     OW19813   1.340   4.507  10.528 -0.0547  0.1989  0.2926
 2726SOL    HW119814   1.382   4.430  10.490 -0.8080 -0.0791  0.0267
 2726SOL    HW219815   1.368   4.500  10.620 -0.8910  0.8330  0.5906
 2727SOL     OW19816   4.509   3.658   6.348  0.5798 -0.1160  0.0781
 2727SOL    HW119817   4.498   3.724   6.416 -1.2959  0.8460 -1.1424
 2727SOL    HW219818   4.426   3.615   6.370  0.3244  0.2686 -0.1333
 2728SOL     OW19819   0.722   3.380   8.886  0.0864  0.5297  0.1664
 2728SOL    HW119820   0.721   3.475   8.898 -1.3601  0.7501 -1.6141
 2728SOL    HW219821   0.628   3.369   8.898  0.3707 -2.4056 -0.4121
 2729SOL     OW19822   1.913   4.301   3.124 -0.1853  0.2348  0.4844
 2729SOL    HW119823   1.976   4.272   3.057  1.6232  1.2722  1.7606
 2729SOL    HW219824   1.919   4.396   3.114 -1.2711  0.1476 -1.0624
 2730SOL     OW19825   3.935   3.142  12.300  0.2618  0.4253  0.1936
 2730SOL    HW119826   3.886   3.070  12.341  1.1432  0.2490  0.9471
 2730SOL    HW219827   4.027   3.123  12.319  0.1044  0.7179  1.2522
 2731SOL     OW19828   4.534   4.276   3.275 -0.0346 -0.5349  0.1482
 2731SOL    HW119829   4.623   4.306   3.255  0.1418 -1.2360 -0.1149
 2731SOL    HW219830   4.556   4.195   3.321 -0.8881  0.6878  2.6864
 2732SOL     OW19831   3.364   0.515   5.550 -0.0070 -0.1962 -0.1474
 2732SOL    HW119832   3.437   0.544   5.605  1.8817 -1.5575 -1.9816
 2732SOL    HW219833   3.354   0.420   5.562  0.7825 -0.3098 -0.4218
 2733SOL     OW19834   0.689   0.249   3.888  0.1435 -0.2652 -0.4536
 2733SOL    HW119835   0.717   0.233   3.798  0.1275  1.7950 -0.8159
 2733SOL    HW219836   0.761   0.202   3.931  0.4480 -0.1826 -0.8690
 2734SOL     OW19837   0.516   1.545   1.733  0.1677  0.5947  0.2837
 2734SOL    HW119838   0.538   1.574   1.821 -1.7160 -0.5275  1.1012
 2734SOL    HW219839   0.555   1.459   1.741 -1.2689 -0.0641  0.1392
 2735SOL     OW19840   2.896   2.791   9.068  0.5761 -0.1346 -0.6264
 2735SOL    HW119841   2.917   2.734   9.142  0.3061  0.4419 -0.0988
 2735SOL    HW219842   2.802   2.804   9.083  0.3190 -0.2375 -2.1790
 2736SOL     OW19843   4.030   2.130   2.281 -0.0778  0.5472 -0.5072
 2736SOL    HW119844   3.947   2.084   2.270  0.2057 -0.2368  0.6758
 2736SOL    HW219845   4.065   2.102   2.197  1.1525  1.0597 -0.1575
 2737SOL     OW19846   0.483   2.619   6.803 -0.4037  1.2229 -0.0257
 2737SOL    HW119847   0.502   2.668   6.723  1.3460  0.3404 -0.1621
 2737SOL    HW219848   0.398   2.581   6.781 -1.3170  1.5377  3.0340
 2738SOL     OW19849   1.305   3.463   8.099  0.0683 -0.3064 -0.4262
 2738SOL    HW119850   1.394   3.437   8.074  0.0671  0.4880 -1.2385
 2738SOL    HW219851   1.288   3.532   8.034  0.0217  1.3981  1.3970
 2739SOL     OW19852   4.425   2.308   7.416 -0.1054  0.3140 -0.1307
 2739SOL    HW119853   4.347   2.273   7.458 -0.4991  1.0081 -0.2919
 2739SOL    HW219854   4.393   2.344   7.334 -1.5338 -0.1608  0.2252
 2740SOL     OW19855   3.153   3.663   5.376 -0.2431 -0.3885  0.2155
 2740SOL    HW119856   3.099   3.718   5.320 -0.2237 -1.5347 -0.9391
 2740SOL    HW219857   3.084   3.644   5.440 -0.9489  0.0859 -0.4055
 2741SOL     OW19858   2.727   3.231   5.004 -0.7405  0.2558 -0.2299
 2741SOL    HW119859   2.739   3.295   5.074  0.6046 -0.0742 -0.1639
 2741SOL    HW219860   2.641   3.199   5.033 -0.0571  0.1674  1.7321
 2742SOL     OW19861   2.035   3.080   8.662 -0.0853  0.0267 -0.3625
 2742SOL    HW119862   2.006   3.163   8.699 -0.4175  0.4761 -1.6188
 2742SOL    HW219863   2.097   3.053   8.730 -2.7573 -0.9060  1.6873
 2743SOL     OW19864   3.896   2.890  17.560 -0.0686  0.3730  0.4253
 2743SOL    HW119865   3.850   2.807  17.550 -0.9699  0.9570 -0.2470
 2743SOL    HW219866   3.981   2.858  17.589  0.3316  1.1974  0.1495
 2744SOL     OW19867   1.901   4.185   1.934 -0.2199  0.2348 -0.4441
 2744SOL    HW119868   1.928   4.178   1.842  1.8338  0.8872  0.1249
 2744SOL    HW219869   1.882   4.279   1.932  2.0637  0.6436 -2.2566
 2745SOL     OW19870   0.611   4.489   3.782 -0.0277 -0.4037 -0.0850
 2745SOL    HW119871   0.672   4.499   3.708 -0.8845 -0.4436 -0.7989
 2745SOL    HW219872   0.533   4.529   3.745  0.1691  0.2251  0.1788
 2746SOL     OW19873   4.226   0.029   6.459 -0.0329  0.3288  0.2777
 2746SOL    HW119874   4.233   0.056   6.367 -1.0297 -2.5419 -0.6584
 2746SOL    HW219875   4.160   0.090   6.491  1.7914  1.3624  2.0791
 2747SOL     OW19876   0.783   4.176  17.064 -0.2244 -0.5003  0.0519
 2747SOL    HW119877   0.735   4.256  17.083 -0.5012 -0.5709 -0.3453
 2747SOL    HW219878   0.872   4.211  17.071  0.2224 -2.1106  2.4165
 2748SOL     OW19879   3.237   2.505   7.590 -0.2239  0.8128 -0.1234
 2748SOL    HW119880   3.318   2.486   7.544 -0.8538 -1.0803 -0.4736
 2748SOL    HW219881   3.246   2.447   7.666 -0.7254  4.0437  2.4149
 2749SOL     OW19882   3.294   0.307   3.930  0.2246 -0.5293  0.4958
 2749SOL    HW119883   3.271   0.215   3.928 -0.7136 -0.2850 -0.1026
 2749SOL    HW219884   3.354   0.303   3.855 -1.4508  0.3602 -0.9171
 2750SOL     OW19885   1.217   3.226   1.382  0.1069 -0.4285 -0.2558
 2750SOL    HW119886   1.135   3.261   1.415 -0.2140 -2.1439  0.7628
 2750SOL    HW219887   1.248   3.184   1.463 -1.4148  1.4774  1.3124
 2751SOL     OW19888   0.951   2.537   2.126  0.2174 -0.3331  0.4424
 2751SOL    HW119889   0.893   2.611   2.106  2.6010  1.9468  2.0169
 2751SOL    HW219890   0.936   2.474   2.055  1.6163  1.8704 -1.8094
 2752SOL     OW19891   1.726   2.203   5.770 -1.0051 -0.2642 -0.4736
 2752SOL    HW119892   1.792   2.162   5.715  0.2372  1.0651  0.0218
 2752SOL    HW219893   1.716   2.144   5.844 -1.7959  1.2079  0.6024
 2753SOL     OW19894   4.118   0.271   8.261  0.3467 -0.4176 -0.3459
 2753SOL    HW119895   4.157   0.292   8.176 -2.4037  0.9632 -1.2709
 2753SOL    HW219896   4.190   0.283   8.324 -1.4872 -1.1021  1.8643
 2754SOL     OW19897   3.793   1.022  13.125  0.5973  0.1339 -0.5930
 2754SOL    HW119898   3.758   1.083  13.060  0.6746  0.7172 -0.0912
 2754SOL    HW219899   3.765   1.061  13.208 -1.0460 -1.1955 -0.5115
 2755SOL     OW19900   0.520   2.855   2.424  0.6962 -0.1119 -0.3552
 2755SOL    HW119901   0.432   2.883   2.398  0.1062  0.1577  1.8864
 2755SOL    HW219902   0.520   2.847   2.519  0.5821  0.3496 -0.3145
 2756SOL     OW19903   0.032   1.369  10.911  0.6425 -0.3811 -0.2397
 2756SOL    HW119904   0.076   1.429  10.851 -1.7188  0.6967 -0.9157
 2756SOL    HW219905   0.074   1.398  10.991  0.6989  1.1117 -0.8223
 2757SOL     OW19906   4.679   0.747   4.890 -0.1057 -0.2779  0.2965
 2757SOL    HW119907   4.605   0.764   4.948 -0.1732 -0.8665  0.3826
 2757SOL    HW219908   4.665   0.818   4.827  0.6603  0.9343  1.4853
 2758SOL     OW19909   0.564   0.911   6.530 -0.0767  0.0921  0.1245
 2758SOL    HW119910   0.631   0.961   6.578 -1.0332  1.7978 -0.3559
 2758SOL    HW219911   0.519   0.982   6.484 -0.2305  0.4397  0.8097
 2759SOL     OW19912   2.856   0.797   7.979  0.2336 -0.2525 -0.2508
 2759SOL    HW119913   2.893   0.807   7.891 -1.7883  0.3228 -1.0390
 2759SOL    HW219914   2.762   0.808   7.961 -0.3935 -1.5804  2.1697
 2760SOL     OW19915   2.236   0.809   7.469 -0.0213 -0.1143 -0.1628
 2760SOL    HW119916   2.218   0.826   7.377  0.4218 -0.9968 -0.4124
 2760SOL    HW219917   2.320   0.853   7.484 -1.3968  2.5905 -0.4056
 2761SOL     OW19918   1.541   0.455   6.551 -0.0147 -0.1602 -0.1968
 2761SOL    HW119919   1.565   0.432   6.461 -1.6648 -0.3065 -0.5986
 2761SOL    HW219920   1.446   0.454   6.545 -0.0019 -0.6198 -0.3635
 2762SOL     OW19921   3.475   3.025  13.063 -0.5851 -0.2413  0.3931
 2762SOL    HW119922   3.533   2.954  13.035 -0.0329  0.5472 -0.4523
 2762SOL    HW219923   3.534   3.100  13.059 -0.3813 -0.5290 -1.7417
 2763SOL     OW19924   2.121   4.562   8.387 -0.4418  0.5155  0.5412
 2763SOL    HW119925   2.173   4.629   8.342 -0.3690 -0.1128 -0.2899
 2763SOL    HW219926   2.043   4.617   8.398  0.1664  1.6866 -1.0143
 2764SOL     OW19927   2.290   3.304  14.921  0.1074 -0.7416 -0.2774
 2764SOL    HW119928   2.314   3.295  14.829 -0.2799  1.1289 -0.5636
 2764SOL    HW219929   2.344   3.376  14.953 -0.8232  0.4570 -1.3709
 2765SOL     OW19930   3.399   2.075   6.460  0.6626 -0.2368 -0.2942
 2765SOL    HW119931   3.403   2.167   6.435  1.1737 -0.6532 -1.7608
 2765SOL    HW219932   3.363   2.028   6.385 -0.2388 -0.2643  0.1512
 2766SOL     OW19933   0.944   2.666   3.682  0.0755  0.8118 -0.1464
 2766SOL    HW119934   0.934   2.722   3.759 -0.3886 -0.9677  1.0608
 2766SOL    HW219935   0.855   2.641   3.658 -0.4778  1.4430  1.2358
 2767SOL     OW19936   2.774   3.052   3.084  0.4178 -0.1852  0.2632
 2767SOL    HW119937   2.869   3.054   3.072  0.2876  0.4231 -0.5965
 2767SOL    HW219938   2.734   3.061   2.998 -1.8720 -1.3883  1.1950
 2768SOL     OW19939   3.284   1.254   7.392  0.4906 -0.2546 -0.1372
 2768SOL    HW119940   3.213   1.317   7.381  2.3108  1.5744 -1.4902
 2768SOL    HW219941   3.219   1.185   7.392  0.3335 -0.1123 -1.3062
 2769SOL     OW19942   2.509   2.458   8.249 -0.0007  0.1050 -0.5561
 2769SOL    HW119943   2.517   2.396   8.176  2.7513 -2.9754  2.3883
 2769SOL    HW219944   2.564   2.418   8.316  0.5206  0.1326 -0.9713
 2770SOL     OW19945   3.163   1.929   7.204 -0.1226 -0.1353 -0.0059
 2770SOL    HW119946   3.195   1.952   7.291  0.2813  3.9484 -1.2511
 2770SOL    HW219947   3.202   1.992   7.144  1.1406  0.8375  1.8454
 2771SOL     OW19948   0.295   0.482   9.664 -0.2013 -0.4093 -0.3493
 2771SOL    HW119949   0.239   0.519   9.596  0.3835  1.7659  0.3535
 2771SOL    HW219950   0.322   0.565   9.705 -0.7647  0.1288 -1.0682
 2772SOL     OW19951   2.217   3.048   2.452  0.3867  0.3846 -0.0743
 2772SOL    HW119952   2.209   3.140   2.478 -3.4451  0.2521 -0.7773
 2772SOL    HW219953   2.180   3.038   2.365 -1.7311  2.4787  0.5898
 2773SOL     OW19954   4.007   3.156  14.828  0.6159  0.3499  0.0967
 2773SOL    HW119955   3.927   3.192  14.787  0.9306  0.0830 -0.7646
 2773SOL    HW219956   4.037   3.105  14.753  1.1310  1.1078 -0.2151
 2774SOL     OW19957   1.081   2.591   6.526 -0.5290 -0.8034  0.1854
 2774SOL    HW119958   1.020   2.594   6.600  0.8757  1.8652  1.2278
 2774SOL    HW219959   1.160   2.565   6.574 -1.4393  0.5936  2.4363
 2775SOL     OW19960   3.617   2.908   1.598  0.2147  0.1736  0.1578
 2775SOL    HW119961   3.603   2.985   1.543 -0.1397  0.6917  0.9772
 2775SOL    HW219962   3.657   2.942   1.678 -1.2715  0.1440  0.9157
 2776SOL     OW19963   2.998   1.495   9.226 -0.1798  0.0882  0.5036
 2776SOL    HW119964   2.986   1.435   9.300  1.6154 -1.9628 -0.8754
 2776SOL    HW219965   2.951   1.461   9.150  0.2725  1.5677 -0.4322
 2777SOL     OW19966   4.583   3.436  16.485  0.1842  0.1447 -0.6446
 2777SOL    HW119967   4.578   3.349  16.523 -1.7459  0.4446 -0.2153
 2777SOL    HW219968   4.568   3.494  16.560  1.0353 -0.6966  0.1749
 2778SOL     OW19969   4.046   1.516   6.993 -0.2111  0.4069 -0.4800
 2778SOL    HW119970   3.982   1.475   7.051  1.8365 -0.1681  1.3530
 2778SOL    HW219971   4.049   1.451   6.923 -0.2623 -2.7346  2.4258
 2779SOL     OW19972   2.715   2.900  13.534  0.5751  0.0795 -0.3698
 2779SOL    HW119973   2.771   2.854  13.472 -0.8774 -1.0985 -0.7918
 2779SOL    HW219974   2.714   2.839  13.608 -1.4992  0.6985  0.1075
 2780SOL     OW19975   2.782   4.167  13.775  0.0282  0.3694 -0.0049
 2780SOL    HW119976   2.810   4.162  13.684 -0.5918 -1.8124 -0.0852
 2780SOL    HW219977   2.722   4.092  13.772 -0.0036  0.3134  1.7945
 2781SOL     OW19978   4.649   4.620   2.971  0.5474 -0.3898  0.1015
 2781SOL    HW119979   4.653   4.524   2.968  0.7983 -0.3655 -0.3742
 2781SOL    HW219980   4.669   4.637   2.879  1.3181  2.0291  0.7168
 2782SOL     OW19981   0.997   2.329   3.477 -0.4445 -0.0141 -0.0511
 2782SOL    HW119982   0.921   2.353   3.531 -0.7104 -0.5676 -0.1850
 2782SOL    HW219983   1.050   2.407   3.496  1.3438 -1.4391  0.8627
 2783SOL     OW19984   4.181   0.308  13.659  0.6642 -0.0845 -0.3098
 2783SOL    HW119985   4.121   0.382  13.653  0.3140 -0.2756  0.8865
 2783SOL    HW219986   4.263   0.354  13.677  0.8254 -0.1816 -0.7927
 2784SOL     OW19987   0.811   1.917   5.755 -0.1079 -0.1535  0.0817
 2784SOL    HW119988   0.726   1.930   5.796  0.2144  2.7109 -0.1489
 2784SOL    HW219989   0.829   1.823   5.762 -1.7003 -0.4913 -0.2588
 2785SOL     OW19990   1.973   0.743   4.168 -0.4882  0.0907 -0.8013
 2785SOL    HW119991   1.889   0.775   4.201  0.2458  1.2757 -0.0875
 2785SOL    HW219992   1.949   0.657   4.136  1.9341 -1.1378  0.6884
 2786SOL     OW19993   0.081   3.025   0.572 -0.1282 -0.6997 -0.1219
 2786SOL    HW119994   0.033   2.992   0.496  3.0480 -2.4392 -1.4029
 2786SOL    HW219995   0.088   3.119   0.561  0.2523 -0.5928  1.0000
 2787SOL     OW19996   1.924   0.426   3.464 -0.5367 -0.1302  0.5000
 2787SOL    HW119997   1.857   0.493   3.450 -0.3524 -0.4461 -1.9337
 2787SOL    HW219998   1.860   0.354   3.471  0.4908 -0.9289  1.6562
 2788SOL     OW19999   2.859   3.512   2.564 -0.2229  0.2309  0.3821
 2788SOL    HW120000   2.834   3.499   2.655  0.4908 -1.2474  0.3709
 2788SOL    HW220001   2.781   3.557   2.533  0.5441 -0.2114 -2.2393
 2789SOL     OW20002   3.514   0.763   2.844 -0.0687 -0.0953 -0.1115
 2789SOL    HW120003   3.549   0.715   2.769 -0.5575  0.3104 -0.6064
 2789SOL    HW220004   3.569   0.734   2.916 -0.3229  0.0181  0.1271
 2790SOL     OW20005   4.636   4.362   6.065  0.5140 -0.1023  0.3536
 2790SOL    HW120006   4.616   4.341   6.156 -0.6182  0.1145  0.1573
 2790SOL    HW220007   4.729   4.387   6.068  0.5939 -0.4624  0.7488
 2791SOL     OW20008   3.362   1.539  12.763 -0.6988  0.6105 -0.0383
 2791SOL    HW120009   3.361   1.635  12.765 -1.6484  0.5959  0.1525
 2791SOL    HW220010   3.398   1.520  12.849 -0.9537  2.4069  0.4803
 2792SOL     OW20011   4.468   3.492   3.369  0.0195 -0.6911  0.1982
 2792SOL    HW120012   4.467   3.499   3.274 -0.6875  0.1572  0.2740
 2792SOL    HW220013   4.467   3.396   3.380  0.4742 -0.7882 -0.6571
 2793SOL     OW20014   3.255   4.301  12.885  0.1575 -0.2187  0.0775
 2793SOL    HW120015   3.166   4.337  12.879 -0.2258 -0.7669  2.6614
 2793SOL    HW220016   3.258   4.298  12.980  1.4856 -0.7432  0.0091
 2794SOL     OW20017   2.949   0.630   9.840 -0.5157  0.5499  0.1626
 2794SOL    HW120018   2.939   0.583   9.757 -0.3706  1.2332 -0.2375
 2794SOL    HW220019   2.922   0.561   9.901  0.2624 -1.3895 -1.6914
 2795SOL     OW20020   4.021   2.765   1.776  0.0900 -0.0895 -0.1970
 2795SOL    HW120021   4.103   2.743   1.821  1.3276  0.1824 -2.3186
 2795SOL    HW220022   4.045   2.759   1.684 -2.1474  1.2440 -0.8333
 2796SOL     OW20023   2.265   2.551   9.828  0.2502  0.2207  0.8970
 2796SOL    HW120024   2.207   2.527   9.756 -0.5456 -0.7189  1.8493
 2796SOL    HW220025   2.217   2.514   9.902  2.0767 -3.2628  0.3507
 2797SOL     OW20026   0.485   3.712   2.365  0.0746  0.3751  0.3459
 2797SOL    HW120027   0.422   3.772   2.325  0.2094  1.0306  1.1222
 2797SOL    HW220028   0.468   3.741   2.455 -3.5351  0.0689 -0.2433
 2798SOL     OW20029   3.624   2.079  11.524  0.2389 -0.1778 -0.2177
 2798SOL    HW120030   3.637   2.072  11.619 -2.3087 -1.8305  0.0187
 2798SOL    HW220031   3.711   2.055  11.493  1.1729 -0.3210  2.5122
 2799SOL     OW20032   3.391   3.426   5.392 -0.1694  0.2128  1.0684
 2799SOL    HW120033   3.358   3.380   5.315 -3.6026  3.7192  0.4213
 2799SOL    HW220034   3.479   3.451   5.363 -0.4800  1.3010  1.0276
 2800SOL     OW20035   0.040   3.034   8.170  0.4069  0.0156  0.4763
 2800SOL    HW120036   0.018   3.125   8.191 -0.0260 -0.4016  1.8395
 2800SOL    HW220037   0.036   3.003   8.261 -0.3897 -0.9103  0.1203
 2801SOL     OW20038   2.478   3.559  12.848  0.0829  0.4087  0.3922
 2801SOL    HW120039   2.410   3.544  12.914 -0.4288 -2.1884 -0.7217
 2801SOL    HW220040   2.553   3.506  12.876 -0.0856  0.2752  0.5876
 2802SOL     OW20041   2.589   3.822   3.383  0.3318  0.6070  0.3942
 2802SOL    HW120042   2.539   3.776   3.451  0.8441  0.9485  0.9968
 2802SOL    HW220043   2.664   3.848   3.436  0.5109 -2.1416  1.5047
 2803SOL     OW20044   0.793   0.803   4.884 -0.2428 -0.2434  0.1553
 2803SOL    HW120045   0.849   0.843   4.817  1.9897 -0.5246  1.8288
 2803SOL    HW220046   0.757   0.876   4.934 -0.6369  1.1376 -2.1783
 2804SOL     OW20047   1.958   4.626  11.226  0.3484  0.4835  0.4366
 2804SOL    HW120048   2.042   4.670  11.222  0.6754 -0.1986 -0.2359
 2804SOL    HW220049   1.943   4.624  11.132  3.8427 -2.6627 -0.0567
 2805SOL     OW20050   1.283   3.918   5.325 -0.4364 -0.3083  0.2260
 2805SOL    HW120051   1.285   3.960   5.239  2.6227  1.3040  1.0796
 2805SOL    HW220052   1.378   3.909   5.332 -0.2419 -0.2415 -2.1699
 2806SOL     OW20053   3.419   4.647  10.219 -0.4203  0.3632 -0.1618
 2806SOL    HW120054   3.364   4.654  10.298  1.1083 -1.7108  1.0861
 2806SOL    HW220055   3.365   4.600  10.156 -0.5685  1.1768 -0.6297
 2807SOL     OW20056   3.966   4.139   3.361  0.4215  0.0311 -0.5768
 2807SOL    HW120057   4.057   4.118   3.381  0.3183  0.6411  0.5368
 2807SOL    HW220058   3.931   4.135   3.449  1.2557 -0.6175 -0.2744
 2808SOL     OW20059   3.904   1.413   9.175  0.0345 -0.0230  0.2330
 2808SOL    HW120060   3.936   1.480   9.115 -0.7562 -1.8546 -2.2396
 2808SOL    HW220061   3.858   1.463   9.242  1.3205 -0.4191  1.4257
 2809SOL     OW20062   3.496   4.414   3.881 -0.0798  0.0277 -0.6837
 2809SOL    HW120063   3.478   4.321   3.893 -0.3872  0.2922  0.8286
 2809SOL    HW220064   3.567   4.427   3.944  1.8703 -1.1911 -2.6233
 2810SOL     OW20065   0.537   1.372  14.274  0.6511 -0.0245  0.0183
 2810SOL    HW120066   0.598   1.392  14.345  2.3388  1.6808 -1.8994
 2810SOL    HW220067   0.456   1.407  14.310  0.8149 -0.9965  1.3280
 2811SOL     OW20068   0.318   3.110   8.812 -0.5812  0.1024 -0.1497
 2811SOL    HW120069   0.245   3.128   8.753 -0.2969 -0.6980 -0.7530
 2811SOL    HW220070   0.279   3.095   8.898  0.2081  0.6960  0.3144
 2812SOL     OW20071   1.916   0.228   6.785 -0.0244 -0.1396  0.7295
 2812SOL    HW120072   1.871   0.160   6.736  3.5691 -1.5155 -0.7016
 2812SOL    HW220073   1.958   0.286   6.721 -0.2462 -0.6216  0.1570
 2813SOL     OW20074   2.552   0.955   6.698 -0.1574  0.3307  0.0906
 2813SOL    HW120075   2.507   1.013   6.760 -1.2807 -1.7334  1.2034
 2813SOL    HW220076   2.630   0.930   6.748 -0.0749 -0.8579 -0.6424
 2814SOL     OW20077   0.328   4.221   2.585 -0.0477 -0.0218  0.2552
 2814SOL    HW120078   0.331   4.169   2.665  1.7493 -1.7330 -0.9084
 2814SOL    HW220079   0.399   4.283   2.601  0.2244 -0.2622 -0.0063
 2815SOL     OW20080   4.581   3.752  14.511  0.0766 -0.7212 -0.0101
 2815SOL    HW120081   4.570   3.751  14.416 -1.6746 -0.3084  0.2008
 2815SOL    HW220082   4.648   3.684  14.512  1.7652  0.9499  0.4573
 2816SOL     OW20083   0.848   2.886   1.494 -0.3690  0.3245 -0.1391
 2816SOL    HW120084   0.885   2.974   1.494 -1.1027  0.6328 -0.4228
 2816SOL    HW220085   0.930   2.840   1.478  1.1413  1.7919  3.2965
 2817SOL     OW20086   2.314   2.021  12.238 -0.1015  0.1865  0.0107
 2817SOL    HW120087   2.332   1.956  12.305 -1.0931  0.4568  0.5379
 2817SOL    HW220088   2.344   2.107  12.269 -2.6431  0.9197  0.4205
 2818SOL     OW20089   0.058   1.775  12.595  0.0450 -0.1946  0.7466
 2818SOL    HW120090   0.000   1.846  12.567  2.4078  1.4797  0.1696
 2818SOL    HW220091   0.011   1.741  12.671 -0.7142 -1.0476 -0.0997
 2819SOL     OW20092   1.799   0.913  11.184 -0.3104 -0.5277 -0.2091
 2819SOL    HW120093   1.713   0.872  11.187 -0.6442  0.1309 -0.8858
 2819SOL    HW220094   1.789   0.994  11.234 -0.3905  0.2617 -1.4911
 2820SOL     OW20095   4.049   1.930   1.629 -0.6577 -0.2406 -0.4148
 2820SOL    HW120096   4.100   1.860   1.587  0.1490  0.2734 -0.2825
 2820SOL    HW220097   4.092   2.012   1.604  0.7262 -1.1504 -0.9795
 2821SOL     OW20098   2.023   3.087   0.149 -0.0634 -0.2472 -1.0025
 2821SOL    HW120099   2.104   3.103   0.100  0.8018  1.7660  1.1334
 2821SOL    HW220100   1.961   3.103   0.078 -1.3383 -3.0165 -0.5178
 2822SOL     OW20101   3.405   0.570   9.183  0.6279  0.0388  0.2764
 2822SOL    HW120102   3.462   0.606   9.250  2.4381  0.4580 -1.4756
 2822SOL    HW220103   3.393   0.643   9.122 -1.7556 -0.5388  0.0418
 2823SOL     OW20104   0.257   3.089   1.522  0.1847  0.2286  0.3904
 2823SOL    HW120105   0.267   3.095   1.427  0.3834 -0.7344  0.3521
 2823SOL    HW220106   0.275   3.180   1.547  3.3361  0.4899 -2.8756
 2824SOL     OW20107   0.853   1.300   7.032 -0.5908 -0.3426  0.2891
 2824SOL    HW120108   0.860   1.359   7.108 -3.2116  2.1057 -1.3402
 2824SOL    HW220109   0.777   1.341   6.991 -1.5440  0.2448  2.6527
 2825SOL     OW20110   1.481   1.231  10.240 -0.3735 -0.3229 -0.3495
 2825SOL    HW120111   1.513   1.307  10.191  0.7332 -1.5059 -1.4220
 2825SOL    HW220112   1.545   1.244  10.311  1.2216 -2.6175 -1.3686
 2826SOL     OW20113   3.167   2.933   1.265 -0.7085  0.0227 -0.6392
 2826SOL    HW120114   3.125   2.965   1.344 -0.4812  0.1016 -0.5515
 2826SOL    HW220115   3.255   2.915   1.297 -1.7212 -3.9144 -0.1035
 2827SOL     OW20116   4.191   0.872   3.620  0.1884 -0.1445  0.8119
 2827SOL    HW120117   4.116   0.906   3.571  0.2425 -1.5073 -0.2076
 2827SOL    HW220118   4.273   0.913   3.591 -0.3783  0.6605  0.3538
 2828SOL     OW20119   2.577   2.327   7.989  0.1034  0.7660 -0.7305
 2828SOL    HW120120   2.656   2.280   8.015 -0.2510  2.0705  2.6926
 2828SOL    HW220121   2.612   2.406   7.949 -0.2953  0.5844 -1.4461
 2829SOL     OW20122   4.414   0.169   8.160  0.1661 -0.2955 -0.4813
 2829SOL    HW120123   4.485   0.137   8.104  0.4606  2.1442 -1.5039
 2829SOL    HW220124   4.386   0.088   8.203 -2.3347 -0.0285 -1.6206
 2830SOL     OW20125   2.125   1.228   7.072 -0.0051 -0.6355  0.2422
 2830SOL    HW120126   2.055   1.176   7.111 -0.1772 -0.4959  0.1186
 2830SOL    HW220127   2.070   1.302   7.048  3.8844  2.1914 -0.0580
 2831SOL     OW20128   2.026   0.567   1.944 -0.1068 -0.2064 -0.1784
 2831SOL    HW120129   2.111   0.569   1.900  0.0901 -1.7869  0.1326
 2831SOL    HW220130   1.970   0.556   1.868  0.2642  0.1463 -0.5095
 2832SOL     OW20131   1.587   1.988   6.526  0.0559 -0.1345 -0.2927
 2832SOL    HW120132   1.564   2.062   6.471  1.7386 -0.1285 -0.9896
 2832SOL    HW220133   1.653   2.025   6.585 -0.7879  2.1501 -0.7812
 2833SOL     OW20134   2.588   0.111   7.807  0.0769 -0.1673  0.2989
 2833SOL    HW120135   2.516   0.172   7.795 -0.3773 -1.2514 -2.5188
 2833SOL    HW220136   2.550   0.026   7.831 -1.8189  0.1710 -1.5761
 2834SOL     OW20137   2.446   1.916   5.727 -0.3041  0.0936  0.1592
 2834SOL    HW120138   2.496   1.837   5.709  0.9499  0.9835 -0.2817
 2834SOL    HW220139   2.375   1.914   5.663 -1.3890 -1.6223  1.4085
 2835SOL     OW20140   2.033   3.543  15.030 -0.2844  0.1458 -0.1303
 2835SOL    HW120141   2.100   3.556  14.962  0.2644  1.6678  0.7085
 2835SOL    HW220142   2.074   3.561  15.114 -1.7749  2.1518  0.1576
 2836SOL     OW20143   1.840   3.219   2.578  0.3088  0.3901  1.0132
 2836SOL    HW120144   1.806   3.235   2.490  0.6967 -2.0030  0.4255
 2836SOL    HW220145   1.804   3.283   2.639  0.8753  1.4705  0.2265
 2837SOL     OW20146   3.489   2.752  11.807  0.4145 -0.4140 -0.0320
 2837SOL    HW120147   3.461   2.728  11.896  0.4434  4.0323  1.1840
 2837SOL    HW220148   3.552   2.683  11.788  0.5506 -0.2387 -0.2204
 2838SOL     OW20149   0.762   2.417   3.602  0.0858 -0.2553  0.0702
 2838SOL    HW120150   0.701   2.390   3.671  0.2383  0.1086  0.3479
 2838SOL    HW220151   0.720   2.498   3.574  1.5293  0.2241 -0.6675
 2839SOL     OW20152   4.451   1.076   0.241 -0.4653 -0.4127 -0.1463
 2839SOL    HW120153   4.434   1.121   0.324 -3.0780 -3.2496  0.8208
 2839SOL    HW220154   4.520   1.019   0.275  0.4191 -1.3560 -3.4747
 2840SOL     OW20155   1.806   3.995   4.943 -0.3929 -0.2368  0.3062
 2840SOL    HW120156   1.898   3.976   4.923 -0.7537 -1.2663 -0.4081
 2840SOL    HW220157   1.806   4.090   4.945 -1.5098 -0.2088 -1.2101
 2841SOL     OW20158   1.037   4.036   7.664  0.3468 -0.1187  0.0901
 2841SOL    HW120159   1.106   4.052   7.727 -0.0104  1.0469  0.1778
 2841SOL    HW220160   1.010   3.944   7.670 -1.2115  0.2417 -1.2975
 2842SOL     OW20161   0.053   4.184  11.748  0.0808 -0.4022  0.1470
 2842SOL    HW120162   0.029   4.272  11.719 -1.4019 -0.0584  2.4514
 2842SOL    HW220163   0.149   4.182  11.737  0.1730 -0.1700  0.9139
 2843SOL     OW20164   4.572   3.379   6.161 -0.6063  0.1673 -0.4104
 2843SOL    HW120165   4.611   3.316   6.101  0.2748 -1.8231  2.2413
 2843SOL    HW220166   4.651   3.416   6.200 -0.9560  0.8253 -0.3159
 2844SOL     OW20167   3.933   0.537   3.117 -0.4029  0.2845  0.4173
 2844SOL    HW120168   3.996   0.590   3.069 -0.5437 -0.2634 -0.3658
 2844SOL    HW220169   3.985   0.459   3.135  0.6384  1.0747  0.8576
 2845SOL     OW20170   0.762   0.991   5.254 -0.1786  0.2726 -0.7312
 2845SOL    HW120171   0.854   0.976   5.274 -0.5132  0.2158  0.8258
 2845SOL    HW220172   0.742   1.066   5.311 -0.5959 -0.3939 -0.0025
 2846SOL     OW20173   3.444   4.295  13.381  0.5408  0.4246  0.5735
 2846SOL    HW120174   3.361   4.272  13.423  0.8605  1.0929  1.5651
 2846SOL    HW220175   3.514   4.267  13.439 -0.3660 -1.2491  0.8430
 2847SOL     OW20176   1.690   0.023   1.519 -0.2000  0.0084 -0.2250
 2847SOL    HW120177   1.604   0.065   1.524 -0.3746 -0.6671  2.4326
 2847SOL    HW220178   1.753   0.082   1.478  0.0775  0.9707  1.5369
 2848SOL     OW20179   2.406   0.325   3.888  0.6004  0.3051 -0.2173
 2848SOL    HW120180   2.331   0.286   3.843  1.1555  1.7156 -2.3426
 2848SOL    HW220181   2.468   0.252   3.885 -2.0729 -2.0764  2.0809
 2849SOL     OW20182   3.819   1.862   8.367 -0.4436  0.2695  0.6545
 2849SOL    HW120183   3.791   1.775   8.395  0.0776 -0.0808  0.0730
 2849SOL    HW220184   3.864   1.893   8.445  0.4655  2.7784 -0.8727
 2850SOL     OW20185   3.141   3.025  15.857  0.5822  0.7609 -0.0145
 2850SOL    HW120186   3.204   3.064  15.918  0.7745  0.1022  0.2024
 2850SOL    HW220187   3.189   3.025  15.774 -0.8074 -0.6801 -0.8220
 2851SOL     OW20188   3.517   1.753   8.412 -0.7201  0.4434 -0.0155
 2851SOL    HW120189   3.501   1.842   8.381 -0.1373  0.4631 -0.2607
 2851SOL    HW220190   3.563   1.771   8.493 -1.0524 -0.7541  0.4468
 2852SOL     OW20191   1.105   1.908   6.182  0.3631 -0.4089 -0.8603
 2852SOL    HW120192   1.105   1.926   6.276  0.3157 -0.4549 -0.8521
 2852SOL    HW220193   1.012   1.926   6.168  0.6250 -0.2522 -2.4072
 2853SOL     OW20194   2.765   1.184   2.545 -0.2715 -0.3480  0.1250
 2853SOL    HW120195   2.724   1.118   2.601 -0.0227 -1.1954 -0.7032
 2853SOL    HW220196   2.856   1.182   2.576  0.0757 -1.0279 -0.9309
 2854SOL     OW20197   0.996   1.355   2.024  0.0565  0.2598  0.0870
 2854SOL    HW120198   1.080   1.333   2.063  0.6678  1.1205 -0.7326
 2854SOL    HW220199   0.943   1.293   2.073 -1.6391  1.1601 -0.5853
 2855SOL     OW20200   0.340   1.885   7.725 -0.2276  0.3088  0.0656
 2855SOL    HW120201   0.307   1.876   7.815 -3.1957 -2.9250 -1.3416
 2855SOL    HW220202   0.328   1.796   7.693 -3.5667  1.0811 -0.8535
 2856SOL     OW20203   0.155   1.932   5.989  0.5699 -0.1353 -0.1595
 2856SOL    HW120204   0.062   1.928   6.010  0.7396  0.1709  0.6638
 2856SOL    HW220205   0.157   1.869   5.917  3.0304  1.4787 -1.5054
 2857SOL     OW20206   0.401   3.851   4.288 -0.4525  0.5223 -0.1357
 2857SOL    HW120207   0.364   3.925   4.241  0.6186 -0.9130 -3.2029
 2857SOL    HW220208   0.492   3.860   4.259 -0.8591  1.1283 -1.1941
 2858SOL     OW20209   4.049   4.714   2.494  0.2595  0.0020  0.1652
 2858SOL    HW120210   4.048   0.070   2.473 -1.7947  0.0382  0.3983
 2858SOL    HW220211   4.038   4.716   2.590  1.5525 -2.1909  0.3535
 2859SOL     OW20212   3.511   1.803  13.311  0.4565 -0.1379 -0.4179
 2859SOL    HW120213   3.502   1.895  13.287  0.7990 -0.0602 -0.2597
 2859SOL    HW220214   3.592   1.809  13.362  0.0980  1.6474 -0.0683
 2860SOL     OW20215   3.404   0.596   8.547  0.0998  0.3159  0.1217
 2860SOL    HW120216   3.492   0.564   8.529 -0.2977 -0.6061 -0.1861
 2860SOL    HW220217   3.363   0.586   8.461 -0.0395  1.9216 -0.0021
 2861SOL     OW20218   2.774   2.406  10.715  0.1533 -0.0628 -0.2519
 2861SOL    HW120219   2.687   2.379  10.686  0.2214 -0.6231  0.0765
 2861SOL    HW220220   2.818   2.323  10.733  4.4943  1.8749 -1.7940
 2862SOL     OW20221   3.659   2.294   7.456  0.2299  0.2976 -0.3007
 2862SOL    HW120222   3.660   2.201   7.436  1.4739  0.0508  0.9609
 2862SOL    HW220223   3.679   2.295   7.549 -0.5490  3.5689 -0.1600
 2863SOL     OW20224   2.455   4.443  10.870 -0.2781 -0.2396  0.2350
 2863SOL    HW120225   2.502   4.405  10.796  0.9774 -1.1529  1.5040
 2863SOL    HW220226   2.510   4.520  10.885 -2.3969  1.5950 -1.4456
 2864SOL     OW20227   2.166   4.627   0.339 -0.0289 -0.7236 -0.7702
 2864SOL    HW120228   2.202   4.579   0.264  0.2145 -0.9054 -0.5354
 2864SOL    HW220229   2.113   4.557   0.377 -1.2967  0.4450 -0.3793
 2865SOL     OW20230   2.438   3.875   2.033  0.4266  0.3076 -0.1199
 2865SOL    HW120231   2.489   3.909   2.107  0.5921  0.2016 -0.1856
 2865SOL    HW220232   2.375   3.942   2.010  0.0049 -0.3846 -0.9608
 2866SOL     OW20233   2.127   1.445   4.573 -0.1248  0.3207 -0.2707
 2866SOL    HW120234   2.082   1.482   4.497 -2.3524 -1.0033  0.4032
 2866SOL    HW220235   2.060   1.414   4.634 -0.2620  0.9836 -0.0880
 2867SOL     OW20236   3.661   3.051   0.346 -0.4399 -0.0835 -0.3137
 2867SOL    HW120237   3.609   3.131   0.340 -0.5957  0.0421  2.7776
 2867SOL    HW220238   3.693   3.047   0.436 -1.5575 -1.4441  0.0349
 2868SOL     OW20239   2.308   2.168   4.810  0.4188 -0.6245 -0.1132
 2868SOL    HW120240   2.321   2.238   4.745  0.5264  1.1736  1.8285
 2868SOL    HW220241   2.327   2.095   4.751 -0.8784 -1.0795  0.0385
 2869SOL     OW20242   1.221   1.205   5.699 -0.0918 -0.4108 -0.6491
 2869SOL    HW120243   1.172   1.262   5.641 -0.4826 -2.6968 -2.5638
 2869SOL    HW220244   1.149   1.188   5.760  0.9244  1.4567  1.0734
 2870SOL     OW20245   1.475   0.315   4.379  0.2657 -0.4588  0.2677
 2870SOL    HW120246   1.464   0.395   4.328  0.5584 -0.7428 -0.2337
 2870SOL    HW220247   1.500   0.368   4.455 -0.3094  1.6164 -0.9988
 2871SOL     OW20248   3.997   3.474  16.576  0.9060 -0.4498  0.2099
 2871SOL    HW120249   4.049   3.553  16.566  0.1575  0.3146  2.3372
 2871SOL    HW220250   4.026   3.416  16.506  0.1475 -0.1455 -0.3553
 2872SOL     OW20251   2.675   3.239   6.456  0.5303 -0.4616  0.4075
 2872SOL    HW120252   2.635   3.270   6.375 -0.0258  0.4910  1.0549
 2872SOL    HW220253   2.611   3.176   6.489 -2.1108  1.0740 -1.7544
 2873SOL     OW20254   4.490   3.811   9.063 -0.1906  0.1087 -0.9701
 2873SOL    HW120255   4.506   3.734   9.117  1.6899  1.3400  0.2255
 2873SOL    HW220256   4.579   3.824   9.029  0.4855 -1.2512  0.3157
 2874SOL     OW20257   4.043   4.103  15.967 -0.4106  0.0309 -0.1154
 2874SOL    HW120258   4.036   4.164  15.894  2.4057  0.3978 -0.0555
 2874SOL    HW220259   4.110   4.142  16.024 -0.5306  0.2192 -0.1011
 2875SOL     OW20260   0.456   3.121  16.167 -0.1064 -0.5106  0.3644
 2875SOL    HW120261   0.521   3.128  16.097  2.2856  1.3211  2.8028
 2875SOL    HW220262   0.418   3.037  16.140 -1.2687 -0.3169  1.4119
 2876SOL     OW20263   2.865   3.252  16.601 -0.3104 -0.4256  0.1198
 2876SOL    HW120264   2.869   3.215  16.689  0.7042  1.6138  0.9304
 2876SOL    HW220265   2.895   3.342  16.612 -2.6713  0.4392 -0.4712
 2877SOL     OW20266   2.737   2.296  17.516 -0.1239  0.2523  0.1893
 2877SOL    HW120267   2.663   2.357  17.518 -1.6004 -1.6186  2.5177
 2877SOL    HW220268   2.785   2.329  17.440  0.4020  0.0114  0.4140
 2878SOL     OW20269   1.611   0.094   8.169  0.0891  0.4943  0.2061
 2878SOL    HW120270   1.663   0.016   8.148  1.2480  1.0284  1.0804
 2878SOL    HW220271   1.637   0.107   8.260  0.5952  0.2710  0.0938
 2879SOL     OW20272   1.562   1.091   3.716 -0.2646 -0.1052 -0.0719
 2879SOL    HW120273   1.492   1.155   3.722 -0.8878 -0.6557 -1.5429
 2879SOL    HW220274   1.585   1.095   3.809  0.4312 -0.7432 -0.2202
 2880SOL     OW20275   3.902   1.760   4.093  0.0136 -0.5205 -0.1564
 2880SOL    HW120276   3.891   1.748   4.187 -0.9890  2.2320  0.0655
 2880SOL    HW220277   3.934   1.671   4.076 -0.3626 -0.8926  1.0898
 2881SOL     OW20278   0.855   1.397   7.690 -0.3291  0.1597  0.1780
 2881SOL    HW120279   0.945   1.418   7.663 -0.4952  0.4421 -0.1600
 2881SOL    HW220280   0.855   1.409   7.785 -2.2026 -2.1385  0.4478
 2882SOL     OW20281   4.638   4.345   2.952 -1.0257 -0.3907 -0.4345
 2882SOL    HW120282   4.652   4.251   2.962  0.1516 -0.2058 -0.4218
 2882SOL    HW220283   4.589   4.343   2.870 -1.0597  0.2957 -0.4310
 2883SOL     OW20284   0.084   1.981   8.504 -0.2574  0.3890  1.0932
 2883SOL    HW120285   0.066   2.001   8.412 -0.0389 -2.4298  0.4245
 2883SOL    HW220286   0.027   2.047   8.543  0.1597  2.0068 -1.0398
 2884SOL     OW20287   1.699   0.003   6.950 -0.7984 -0.0880  0.1766
 2884SOL    HW120288   1.701   4.718   6.857  2.8606 -1.4796  0.5617
 2884SOL    HW220289   1.782   0.043   6.976 -0.8585  1.4629 -2.0105
 2885SOL     OW20290   4.680   0.670  15.291 -0.1170  0.3449  0.4096
 2885SOL    HW120291   4.630   0.670  15.210  1.4175  2.4465 -0.5526
 2885SOL    HW220292   4.619   0.656  15.364 -1.7262 -0.7161 -1.1458
 2886SOL     OW20293   0.599   2.339   2.379 -0.0509 -0.6442  0.1638
 2886SOL    HW120294   0.616   2.307   2.290  0.2886 -1.1983  0.4282
 2886SOL    HW220295   0.643   2.279   2.438 -0.7252 -1.1226  0.1785
 2887SOL     OW20296   2.052   2.299   7.997 -0.2580 -0.2849  0.6081
 2887SOL    HW120297   2.077   2.364   7.931  0.7657  0.6777  1.9320
 2887SOL    HW220298   2.114   2.232   7.969 -0.8600 -1.7227  2.6663
 2888SOL     OW20299   1.307   3.316   8.941 -0.3213 -0.5174  0.2456
 2888SOL    HW120300   1.233   3.275   8.984 -0.9229  1.0915  0.7297
 2888SOL    HW220301   1.382   3.271   8.981 -1.8112 -2.7889  0.5162
 2889SOL     OW20302   4.323   2.166   2.918  0.2932  0.2177  0.4827
 2889SOL    HW120303   4.288   2.150   2.830 -2.4731  1.2844  1.4050
 2889SOL    HW220304   4.247   2.148   2.973 -0.3703 -0.4432 -0.6657
 2890SOL     OW20305   2.993   1.317   9.441  0.0977 -0.2641  0.0823
 2890SOL    HW120306   3.009   1.322   9.535 -0.3662 -1.7961  0.2439
 2890SOL    HW220307   2.972   1.224   9.429 -0.5622 -0.1271  0.1624
 2891SOL     OW20308   4.292   0.815  17.620  0.0027 -0.3713  0.1145
 2891SOL    HW120309   4.322   0.852  17.703  2.6800 -1.2563 -0.4658
 2891SOL    HW220310   4.370   0.826  17.567 -0.4256  1.6904 -0.0704
 2892SOL     OW20311   0.532   1.314   2.436 -0.9751  0.2352 -0.0896
 2892SOL    HW120312   0.529   1.311   2.532  0.8552 -1.3845 -0.0827
 2892SOL    HW220313   0.462   1.255   2.410 -0.7139  0.0369 -0.3377
 2893SOL     OW20314   3.952   3.075   1.786 -0.1273  0.5001 -0.2547
 2893SOL    HW120315   3.999   3.007   1.739 -0.7251  0.1110 -0.2863
 2893SOL    HW220316   3.964   3.049   1.877  2.3915  0.6959 -0.5090
 2894SOL     OW20317   1.599   4.268  10.924 -0.1409 -0.6356 -0.0548
 2894SOL    HW120318   1.692   4.245  10.921 -0.2714 -0.9948 -1.2860
 2894SOL    HW220319   1.607   4.336  10.991 -1.2401 -1.0972  0.5440
 2895SOL     OW20320   2.654   1.557   4.566  0.4152  0.2891  0.3042
 2895SOL    HW120321   2.560   1.541   4.579  0.7069  0.4873  2.5956
 2895SOL    HW220322   2.688   1.603   4.642  2.1464 -0.3267 -0.1112
 2896SOL     OW20323   3.599   1.244  16.740 -0.3506 -0.0299 -0.5170
 2896SOL    HW120324   3.533   1.273  16.803  0.6830  1.4652 -0.0919
 2896SOL    HW220325   3.550   1.251  16.659 -0.3988 -0.3657 -0.5135
 2897SOL     OW20326   0.970   0.506  16.762  0.3672 -0.4155 -0.6516
 2897SOL    HW120327   0.896   0.566  16.752  1.6412  1.0148 -1.4444
 2897SOL    HW220328   1.007   0.539  16.844  1.9823 -3.0170 -0.3233
 2898SOL     OW20329   0.225   0.242   3.989  0.3671  0.8514 -0.1982
 2898SOL    HW120330   0.187   0.269   4.072 -1.0037 -0.4801 -0.4000
 2898SOL    HW220331   0.202   0.317   3.934 -0.7493  0.1453 -0.6928
 2899SOL     OW20332   4.436   2.738   2.128 -0.2018  0.5813 -0.5359
 2899SOL    HW120333   4.516   2.684   2.134 -0.4229  0.5209  1.6860
 2899SOL    HW220334   4.473   2.825   2.113 -0.1062  0.3378 -1.7137
 2900SOL     OW20335   1.622   2.891   1.615  0.8176  0.2741 -0.6440
 2900SOL    HW120336   1.660   2.808   1.642 -0.3236 -1.2288 -3.6230
 2900SOL    HW220337   1.573   2.918   1.693  0.9808 -2.3542  0.3644
 2901SOL     OW20338   2.014   3.230   0.386  0.3119 -0.0759  0.1765
 2901SOL    HW120339   1.995   3.186   0.303  1.4344 -0.1724 -0.0403
 2901SOL    HW220340   1.981   3.163   0.445  0.4835  0.8178  1.2988
 2902SOL     OW20341   4.152   2.703   8.796 -1.0978 -0.2594  0.2949
 2902SOL    HW120342   4.156   2.608   8.789  0.8983 -0.2013  0.5520
 2902SOL    HW220343   4.101   2.716   8.716  1.2891  0.8091 -1.0580
 2903SOL     OW20344   1.446   1.523  10.297 -0.3402  0.0855  0.5428
 2903SOL    HW120345   1.484   1.581  10.363  0.2053  0.9926 -0.5685
 2903SOL    HW220346   1.480   1.568  10.219  0.9542 -0.9606  0.5100
 2904SOL     OW20347   3.795   0.860   2.219  0.0777  0.1958  0.4925
 2904SOL    HW120348   3.868   0.900   2.266 -0.6754  0.0487  1.8033
 2904SOL    HW220349   3.806   0.896   2.131 -1.2403 -2.9767 -0.9679
 2905SOL     OW20350   4.523   2.727   1.018  0.6634  0.3784 -0.0739
 2905SOL    HW120351   4.602   2.707   0.969  0.7876  0.7225 -0.0109
 2905SOL    HW220352   4.502   2.811   0.977  0.1168 -0.4722 -1.5305
 2906SOL     OW20353   3.039   3.121   3.522  0.5548 -0.2304 -0.7135
 2906SOL    HW120354   3.023   3.033   3.555  2.7573  0.1016  1.2730
 2906SOL    HW220355   2.957   3.147   3.481  0.9454  0.7146 -0.9014
 2907SOL     OW20356   0.699   4.476   3.331 -0.7174 -0.2092 -0.4404
 2907SOL    HW120357   0.756   4.530   3.275 -0.8618  1.3454  0.9242
 2907SOL    HW220358   0.665   4.544   3.388  1.1474  0.6237 -0.3118
 2908SOL     OW20359   4.605   2.148   7.095 -0.0686 -0.4547  0.7912
 2908SOL    HW120360   4.665   2.179   7.162  2.1748 -1.6545 -0.6691
 2908SOL    HW220361   4.614   2.056   7.119  2.0265 -0.6558 -0.8057
 2909SOL     OW20362   2.712   0.069   2.478  0.1614 -0.3601 -0.0413
 2909SOL    HW120363   2.761   0.053   2.559 -0.3760 -1.8483 -0.0065
 2909SOL    HW220364   2.660   4.725   2.479 -0.3079 -0.0653 -0.6574
 2910SOL     OW20365   3.793   4.466   9.603 -0.3339 -0.2374  0.1820
 2910SOL    HW120366   3.770   4.551   9.639  1.0490  0.3428 -0.3107
 2910SOL    HW220367   3.873   4.490   9.557 -0.7725  0.8935  0.0039
 2911SOL     OW20368   2.582   4.441   6.083 -0.6637 -0.1485  0.0357
 2911SOL    HW120369   2.637   4.425   6.160 -3.0155 -1.9281  1.3576
 2911SOL    HW220370   2.577   4.355   6.043  0.6722  0.6618 -1.8518
 2912SOL     OW20371   3.733   0.112  16.305  0.2998  0.4761  0.3037
 2912SOL    HW120372   3.818   0.072  16.289 -0.5711 -0.9135 -0.8686
 2912SOL    HW220373   3.687   0.035  16.338  0.0835  0.7690  0.6820
 2913SOL     OW20374   4.329   0.871  11.978 -0.1597  0.6305 -0.0399
 2913SOL    HW120375   4.264   0.801  11.972  1.0360 -0.4205 -0.7109
 2913SOL    HW220376   4.324   0.889  12.072  1.1300 -0.2770  0.1982
 2914SOL     OW20377   2.830   0.115   4.843  0.3481 -0.1115 -0.3383
 2914SOL    HW120378   2.779   0.098   4.922  0.3171  1.8446  0.0772
 2914SOL    HW220379   2.771   0.175   4.797  1.2535  0.2836 -0.9988
 2915SOL     OW20380   2.083   0.293  13.307  0.3086  0.1944 -0.2042
 2915SOL    HW120381   1.989   0.272  13.307  0.0904  1.1635 -0.2262
 2915SOL    HW220382   2.113   0.245  13.231  0.0029 -0.1618 -0.0994
 2916SOL     OW20383   3.370   2.139   5.850  0.9799  0.0371 -0.1109
 2916SOL    HW120384   3.359   2.196   5.773  0.6395 -0.1979 -0.2365
 2916SOL    HW220385   3.465   2.142   5.857  0.9306 -1.4935  1.2190
 2917SOL     OW20386   0.351   0.149   7.327 -0.1271  0.6311  0.1968
 2917SOL    HW120387   0.377   0.235   7.362  0.3424  0.7099 -0.3557
 2917SOL    HW220388   0.319   0.114   7.410  1.0177  0.3790  0.5255
 2918SOL     OW20389   3.999   3.840  11.592  0.0351  0.0656 -0.2357
 2918SOL    HW120390   4.057   3.861  11.520  2.2817 -1.2294  1.2048
 2918SOL    HW220391   4.031   3.896  11.662  1.2888 -2.2060  1.0201
 2919SOL     OW20392   2.475   3.506   0.936  0.0877  0.4470  0.2151
 2919SOL    HW120393   2.562   3.474   0.912  0.1034 -0.1458  1.0483
 2919SOL    HW220394   2.431   3.444   0.878  0.9596  0.4293 -0.4316
 2920SOL     OW20395   0.843   2.522   7.947  0.0827 -0.5616  0.2102
 2920SOL    HW120396   0.848   2.606   7.993  1.4196 -0.4525 -0.1339
 2920SOL    HW220397   0.756   2.497   7.977  0.1069  1.0426  1.5942
 2921SOL     OW20398   3.747   2.698   6.692  0.2450 -0.1200 -0.2715
 2921SOL    HW120399   3.814   2.644   6.735 -0.2160 -0.1780  0.3805
 2921SOL    HW220400   3.789   2.749   6.623  0.9780  0.6543  0.7505
 2922SOL     OW20401   2.729   1.025   1.472 -0.9175  0.7256 -0.1683
 2922SOL    HW120402   2.730   0.938   1.512  1.0241 -0.0085 -1.8582
 2922SOL    HW220403   2.767   1.072   1.546  1.8693 -0.2056 -1.0177
 2923SOL     OW20404   2.398   2.424   5.056 -0.3049 -0.8290  0.5922
 2923SOL    HW120405   2.436   2.398   5.140 -0.5816  1.9689  1.5755
 2923SOL    HW220406   2.482   2.452   5.020 -0.1374  2.6275  3.7474
 2924SOL     OW20407   3.232   4.334   7.761 -0.4692  0.0847  0.7657
 2924SOL    HW120408   3.187   4.415   7.736  1.8801  0.7399 -1.2879
 2924SOL    HW220409   3.242   4.348   7.855 -2.3441  0.1436  0.9595
 2925SOL     OW20410   1.620   4.580   1.914  0.1155  0.3770  0.7281
 2925SOL    HW120411   1.590   4.533   1.837 -1.8919  1.0115  1.1099
 2925SOL    HW220412   1.654   4.660   1.872  2.1208 -1.0167 -0.2917
 2926SOL     OW20413   4.636   4.314   0.103  0.3924 -0.0392 -0.0607
 2926SOL    HW120414   4.608   4.301   0.012  0.4462  0.3424 -0.1340
 2926SOL    HW220415   4.718   4.266   0.107  0.9925  1.0403  0.6658
 2927SOL     OW20416   4.558   0.814  11.219 -0.4547  0.6545 -0.2480
 2927SOL    HW120417   4.506   0.816  11.300 -1.9170  1.1345 -1.1956
 2927SOL    HW220418   4.506   0.865  11.157  0.7993 -0.0758 -1.8872
 2928SOL     OW20419   3.662   3.531   5.937 -0.6461 -0.2331  1.0181
 2928SOL    HW120420   3.620   3.610   5.971  1.4095  1.9395 -1.4497
 2928SOL    HW220421   3.665   3.471   6.011 -3.0667  1.1921  2.2682
 2929SOL     OW20422   1.230   1.532   6.946 -0.1598  0.0135 -0.2177
 2929SOL    HW120423   1.298   1.530   6.879  0.9874 -1.7247  0.9981
 2929SOL    HW220424   1.153   1.547   6.891 -0.1775 -1.2105 -0.5236
 2930SOL     OW20425   1.586   1.470   7.047 -0.4848 -0.2658 -0.4568
 2930SOL    HW120426   1.676   1.436   7.051 -0.3228  0.1992 -0.1549
 2930SOL    HW220427   1.574   1.483   6.954  0.5641 -1.4633 -0.7699
 2931SOL     OW20428   1.604   4.614   5.585  0.0819 -0.3229  0.1907
 2931SOL    HW120429   1.689   4.599   5.544 -0.9472  0.5249 -2.2269
 2931SOL    HW220430   1.562   4.528   5.580  2.1238 -1.1999 -1.5479
 2932SOL     OW20431   3.460   2.058  14.428 -0.4069  0.0932  0.4887
 2932SOL    HW120432   3.403   2.133  14.443 -2.5297 -1.5374  0.5960
 2932SOL    HW220433   3.542   2.105  14.440  0.8265 -1.7036 -0.9292
 2933SOL     OW20434   4.377   3.536   3.866  0.4358  0.0261 -0.1430
 2933SOL    HW120435   4.349   3.517   3.776 -0.7141 -1.2905  0.4926
 2933SOL    HW220436   4.441   3.606   3.853 -1.3298  1.6961  0.0924
 2934SOL     OW20437   3.621   0.045   5.400 -0.2396  0.7113 -0.0624
 2934SOL    HW120438   3.679   0.121   5.391  0.6809  0.1838  1.3309
 2934SOL    HW220439   3.602   0.025   5.309  0.2202 -1.9003  0.4004
 2935SOL     OW20440   2.624   4.274  16.292 -0.2758  0.1248 -0.3593
 2935SOL    HW120441   2.615   4.222  16.372 -2.0561 -1.0214 -1.3116
 2935SOL    HW220442   2.652   4.211  16.227  1.2486  0.1374  0.2868
 2936SOL     OW20443   1.989   3.606   2.544 -0.2190  0.8453 -0.0361
 2936SOL    HW120444   1.985   3.565   2.457  2.5374  0.8898 -0.1642
 2936SOL    HW220445   1.917   3.568   2.595 -1.6805  1.7342 -1.3996
 2937SOL     OW20446   2.358   1.240   6.299  0.4323 -0.2224 -0.1083
 2937SOL    HW120447   2.329   1.331   6.295  0.8817 -0.1000 -0.5153
 2937SOL    HW220448   2.452   1.256   6.297  0.6462 -1.4581 -0.3333
 2938SOL     OW20449   2.374   1.067   2.480 -0.1742  0.0476 -0.4746
 2938SOL    HW120450   2.284   1.074   2.447 -0.0273  0.9615 -0.6776
 2938SOL    HW220451   2.378   0.972   2.491 -0.4185  0.1474  0.4655
 2939SOL     OW20452   0.562   3.469   9.745  0.0748  0.2245 -0.5871
 2939SOL    HW120453   0.634   3.518   9.705 -0.3863  2.1255  0.9326
 2939SOL    HW220454   0.490   3.532   9.750 -0.5925 -0.4694 -1.4509
 2940SOL     OW20455   2.712   0.143   9.805 -0.1107 -0.4680 -0.2004
 2940SOL    HW120456   2.639   0.177   9.856 -1.9518 -1.4155 -2.2070
 2940SOL    HW220457   2.780   0.158   9.872 -1.0143 -2.6664  1.2139
 2941SOL     OW20458   2.581   4.524   2.724  0.4649 -0.0321 -0.2403
 2941SOL    HW120459   2.487   4.516   2.736  0.7695 -1.5930  1.2172
 2941SOL    HW220460   2.581   4.575   2.644  0.0859 -0.4369 -0.4982
 2942SOL     OW20461   2.350   4.717   2.346  0.1713  0.1658  0.4496
 2942SOL    HW120462   2.288   4.730   2.419 -1.6710 -1.6232 -0.8011
 2942SOL    HW220463   2.295   0.012   2.275 -0.1696 -0.8237  0.2754
 2943SOL     OW20464   2.698   3.982   7.362  0.5429 -0.2658  0.2055
 2943SOL    HW120465   2.736   4.016   7.281  0.2156  0.8373  0.5219
 2943SOL    HW220466   2.759   4.024   7.423  1.5400  0.5141 -1.3364
 2944SOL     OW20467   1.208   1.877  10.964 -0.2245  0.0451 -0.5771
 2944SOL    HW120468   1.211   1.783  10.978  2.1632  0.3923  1.1296
 2944SOL    HW220469   1.218   1.902  11.055 -4.1132 -1.8656  0.3786
 2945SOL     OW20470   1.988   1.183  16.083  0.2015 -0.0518 -0.6207
 2945SOL    HW120471   2.008   1.181  16.176 -1.1610  1.3852 -0.3034
 2945SOL    HW220472   2.055   1.241  16.049 -0.1411  0.2909 -0.7119
 2946SOL     OW20473   2.779   2.437   4.231 -0.7668  0.1078 -0.0722
 2946SOL    HW120474   2.767   2.531   4.219  1.7452  0.3541 -0.6878
 2946SOL    HW220475   2.861   2.429   4.183  0.2020  0.6005  1.4631
 2947SOL     OW20476   1.764   3.809   6.472 -0.0923  0.5828  0.2617
 2947SOL    HW120477   1.760   3.810   6.568  0.4085  0.3364  0.2857
 2947SOL    HW220478   1.860   3.807   6.475 -0.0831 -1.2238 -1.2666
 2948SOL     OW20479   2.264   1.374  14.794 -0.2374 -0.3180  0.2302
 2948SOL    HW120480   2.277   1.420  14.711 -0.2490 -3.3881 -1.4903
 2948SOL    HW220481   2.174   1.401  14.812 -0.9809 -2.4743 -0.1747
 2949SOL     OW20482   1.235   2.218   2.452 -0.2744  0.0553  0.0551
 2949SOL    HW120483   1.234   2.143   2.392 -0.6697 -0.4393  0.6857
 2949SOL    HW220484   1.203   2.286   2.393 -1.3059  1.4718  2.2668
 2950SOL     OW20485   3.098   2.682   8.062 -0.6091  0.4858 -0.4768
 2950SOL    HW120486   3.174   2.718   8.015  0.2248 -0.5017  0.1275
 2950SOL    HW220487   3.043   2.652   7.990 -1.3329 -1.0671  0.7292
 2951SOL     OW20488   4.590   2.070  17.160  0.0643  0.7174  0.2633
 2951SOL    HW120489   4.602   2.165  17.158  0.9751  0.6023  0.5344
 2951SOL    HW220490   4.556   2.048  17.247 -0.3658  1.7965  0.3685
 2952SOL     OW20491   0.287   0.045   6.328  0.2491  0.5637  0.1382
 2952SOL    HW120492   0.368   4.731   6.334 -0.6763 -1.0827 -0.9956
 2952SOL    HW220493   0.235   4.701   6.336  0.7971  0.0652 -1.2375
 2953SOL     OW20494   3.407   3.674   5.580  0.0686  0.1098  0.1328
 2953SOL    HW120495   3.358   3.609   5.529 -0.8226 -0.3394  1.5559
 2953SOL    HW220496   3.474   3.619   5.622  0.1840  0.9934  1.1211
 2954SOL     OW20497   1.153   4.141  10.143 -0.4550 -0.2725 -0.0030
 2954SOL    HW120498   1.199   4.193  10.208 -0.1399  1.0015 -1.2586
 2954SOL    HW220499   1.146   4.210  10.078 -1.7078  1.1834  1.6792
 2955SOL     OW20500   4.425   3.660   2.511  0.2314  0.4111  0.2585
 2955SOL    HW120501   4.342   3.667   2.465  1.0571 -1.0942 -1.4264
 2955SOL    HW220502   4.481   3.722   2.464  0.1506  0.8465  0.7228
 2956SOL     OW20503   2.215   4.622  13.317  0.0205 -0.0385 -0.4385
 2956SOL    HW120504   2.193   4.587  13.403 -2.9020 -1.3048 -1.6806
 2956SOL    HW220505   2.134   4.603  13.270 -0.3103  0.3655 -0.0342
 2957SOL     OW20506   3.517   3.835   4.482  0.3184  0.1319 -0.1337
 2957SOL    HW120507   3.537   3.757   4.533  0.9220  0.1245 -0.3872
 2957SOL    HW220508   3.439   3.867   4.526 -0.3333  0.9995 -1.8903
 2958SOL     OW20509   1.853   4.276   0.596 -0.2610  0.1342  0.3105
 2958SOL    HW120510   1.803   4.328   0.658 -0.3433 -0.5940  0.8530
 2958SOL    HW220511   1.782   4.223   0.560 -1.3211  1.7315  0.0592
 2959SOL     OW20512   3.276   2.292  15.971 -0.4430  0.0866 -0.2452
 2959SOL    HW120513   3.269   2.197  15.955  0.2768 -0.7022  3.9779
 2959SOL    HW220514   3.265   2.284  16.066  0.8628 -0.6420 -0.1545
 2960SOL     OW20515   0.331   1.725   2.993 -0.0334  0.2735  0.6468
 2960SOL    HW120516   0.374   1.783   2.930  0.0203  0.7414  1.1086
 2960SOL    HW220517   0.403   1.699   3.051 -1.0124 -0.5445  1.4850
 2961SOL     OW20518   1.386   1.646  12.974  0.5572 -0.4251  0.1471
 2961SOL    HW120519   1.462   1.611  13.021  2.3496 -0.8679 -3.0428
 2961SOL    HW220520   1.317   1.620  13.035 -0.3252  0.5051 -0.4461
 2962SOL     OW20521   2.196   3.583   4.385  0.3607 -0.1339  0.5107
 2962SOL    HW120522   2.260   3.638   4.431  0.3358 -0.8364  1.3698
 2962SOL    HW220523   2.127   3.646   4.364 -0.2398 -1.2538 -0.8192
 2963SOL     OW20524   4.605   3.966   6.393  0.0500  0.2383 -0.3070
 2963SOL    HW120525   4.562   3.990   6.475  0.9397  0.8925 -0.0294
 2963SOL    HW220526   4.536   3.959   6.327 -1.7699 -0.1332  1.6516
 2964SOL     OW20527   3.225   3.598   6.666  0.1640 -0.0929 -0.0180
 2964SOL    HW120528   3.268   3.647   6.736 -1.3831  3.5798 -1.5931
 2964SOL    HW220529   3.294   3.590   6.600  0.2053  1.5030 -0.1717
 2965SOL     OW20530   2.905   2.965   6.808  0.3218 -0.0067  0.6566
 2965SOL    HW120531   2.962   2.961   6.885  1.6306  0.0288 -0.3326
 2965SOL    HW220532   2.947   3.039   6.767 -0.1482  0.4275  0.9509
 2966SOL     OW20533   4.654   3.914   7.331 -0.4345 -0.0696 -0.0733
 2966SOL    HW120534   4.647   3.982   7.263  0.2080 -1.5646 -1.6245
 2966SOL    HW220535   4.675   3.837   7.279 -0.2074  0.2663 -0.4849
 2967SOL     OW20536   3.354   2.381   3.549  0.1721  0.4306 -0.2607
 2967SOL    HW120537   3.392   2.293   3.547 -0.5656  0.1087 -0.1934
 2967SOL    HW220538   3.261   2.360   3.560  0.8013 -1.7595  0.9551
 2968SOL     OW20539   3.897   2.471  15.674 -0.3677 -0.0512  0.2416
 2968SOL    HW120540   3.948   2.393  15.696 -0.0304 -0.5002 -2.1143
 2968SOL    HW220541   3.823   2.428  15.632  0.4490 -2.6526  1.4748
 2969SOL     OW20542   0.741   1.940   5.158  0.3513  0.1776  0.1331
 2969SOL    HW120543   0.767   2.026   5.124 -1.4457  0.1670 -1.2888
 2969SOL    HW220544   0.717   1.893   5.078  0.4915 -1.0464  0.8295
 2970SOL     OW20545   2.024   3.268  14.974  0.3409  0.1273 -0.3750
 2970SOL    HW120546   2.000   3.357  15.001 -0.2024  0.3518 -1.6200
 2970SOL    HW220547   2.115   3.284  14.952  0.2597  1.8784  0.5608
 2971SOL     OW20548   3.908   2.960   3.134  0.2513  0.2205 -0.3335
 2971SOL    HW120549   3.989   2.986   3.090  1.1202  0.5598  1.4597
 2971SOL    HW220550   3.883   2.878   3.090 -0.4870  1.5015 -2.2954
 2972SOL     OW20551   2.585   0.579   5.442  0.3334 -0.4981  0.3128
 2972SOL    HW120552   2.627   0.609   5.361 -2.0813 -1.0296 -1.1272
 2972SOL    HW220553   2.620   0.643   5.504  1.6986 -0.2719 -0.6959
 2973SOL     OW20554   1.615   0.985   4.472  0.4421  0.4658  0.2639
 2973SOL    HW120555   1.682   0.986   4.404 -0.8568  0.2833 -1.0067
 2973SOL    HW220556   1.614   1.077   4.501  0.6131  0.7347 -0.5872
 2974SOL     OW20557   2.656   2.086  15.270 -0.0524 -0.0129  0.1984
 2974SOL    HW120558   2.694   2.123  15.190 -1.2654 -0.5174 -0.6039
 2974SOL    HW220559   2.641   1.996  15.241  1.1591  0.1812 -1.0620
 2975SOL     OW20560   0.617   3.348   5.489  0.0813  0.2618 -0.5382
 2975SOL    HW120561   0.618   3.402   5.409  0.6087 -0.2150 -0.8525
 2975SOL    HW220562   0.548   3.398   5.534 -0.8648 -0.6874 -0.9462
 2976SOL     OW20563   1.954   1.668  15.728 -0.1566  0.1199 -0.0451
 2976SOL    HW120564   2.002   1.725  15.789 -2.2597  1.4215  0.3926
 2976SOL    HW220565   1.900   1.723  15.671 -0.8431  0.2496  0.7409
 2977SOL     OW20566   3.949   3.765   8.199 -0.0995  0.6087  0.4188
 2977SOL    HW120567   3.962   3.682   8.246  3.9560  0.4875 -0.8889
 2977SOL    HW220568   4.020   3.764   8.135 -0.5468  1.7611 -0.0948
 2978SOL     OW20569   4.636   4.460   2.066  0.0355  0.2212 -0.7309
 2978SOL    HW120570   4.696   4.523   2.106 -0.6652 -1.4591  3.0034
 2978SOL    HW220571   4.684   4.379   2.086  0.0970 -0.1609 -2.4539
 2979SOL     OW20572   0.846   3.481  11.049 -0.3497  0.3211  0.6325
 2979SOL    HW120573   0.882   3.569  11.035  2.6968 -0.9521  0.4530
 2979SOL    HW220574   0.923   3.442  11.007 -1.3475  0.5701 -1.4318
 2980SOL     OW20575   1.205   2.696   5.599 -0.6504 -0.3641  0.1445
 2980SOL    HW120576   1.225   2.631   5.667 -0.3619  3.4353  3.6400
 2980SOL    HW220577   1.185   2.627   5.535  0.0892 -0.3001 -0.1517
 2981SOL     OW20578   3.504   3.172   3.800 -0.6085 -0.4564  1.0855
 2981SOL    HW120579   3.551   3.122   3.734 -1.6136 -1.8434  1.4201
 2981SOL    HW220580   3.421   3.124   3.809 -1.2161  0.1773 -1.0827
 2982SOL     OW20581   3.562   2.078   1.984  0.1914  0.4485  0.3528
 2982SOL    HW120582   3.559   2.004   2.045 -0.8486  1.1735  1.1847
 2982SOL    HW220583   3.505   2.144   2.025  0.1109  0.5469  0.0794
 2983SOL     OW20584   2.197   0.091   5.162  0.3538  0.2602  0.0364
 2983SOL    HW120585   2.200   0.041   5.080  1.5420  1.9492 -0.9370
 2983SOL    HW220586   2.247   0.170   5.143 -0.3201  1.0617  1.6081
 2984SOL     OW20587   0.512   4.649   1.705 -0.2646  0.1643 -0.1138
 2984SOL    HW120588   0.589   4.593   1.691 -0.9049 -0.0183 -2.9480
 2984SOL    HW220589   0.555   4.714   1.760 -1.3771 -0.5566  1.5978
 2985SOL     OW20590   2.868   4.032  10.752  0.4631  0.6231  0.0726
 2985SOL    HW120591   2.951   4.079  10.755  1.5254 -1.3629  1.4971
 2985SOL    HW220592   2.886   3.966  10.818  1.6265  2.6091  1.7468
 2986SOL     OW20593   4.349   0.141   3.800 -0.0064 -0.2942 -0.7839
 2986SOL    HW120594   4.358   0.061   3.852  1.1719  0.1596 -0.2961
 2986SOL    HW220595   4.254   0.148   3.794 -0.1025  0.3689  1.5925
 2987SOL     OW20596   1.452   1.336   2.632 -0.0167 -0.4583 -0.2174
 2987SOL    HW120597   1.502   1.276   2.688 -0.7930 -1.5896 -0.7462
 2987SOL    HW220598   1.506   1.414   2.644 -0.6942 -0.1660  0.8731
 2988SOL     OW20599   4.240   1.581   5.827 -0.2187  0.5594  0.6575
 2988SOL    HW120600   4.292   1.651   5.788 -2.1286  0.8264 -1.4334
 2988SOL    HW220601   4.313   1.539   5.872  0.9928  1.4266 -0.4810
 2989SOL     OW20602   3.360   1.298   2.838  0.0940  0.1890 -0.7088
 2989SOL    HW120603   3.359   1.202   2.829  1.5710  0.3042 -1.9835
 2989SOL    HW220604   3.280   1.310   2.890 -1.4208 -0.3488 -2.9058
 2990SOL     OW20605   1.656   4.567   6.178  0.5233 -0.5610  0.0786
 2990SOL    HW120606   1.629   4.563   6.086  1.6692 -0.1579 -0.2760
 2990SOL    HW220607   1.747   4.550   6.152  0.6735 -1.4275  1.1757
 2991SOL     OW20608   3.332   3.572   2.212  0.4471 -0.2747 -0.1912
 2991SOL    HW120609   3.259   3.570   2.274  0.9122 -2.1325  0.2866
 2991SOL    HW220610   3.399   3.603   2.273  0.4940  1.2592 -1.0119
 2992SOL     OW20611   3.049   1.119   7.136  0.1907  0.3199 -0.1379
 2992SOL    HW120612   2.964   1.076   7.148 -0.1458  0.6630 -1.2250
 2992SOL    HW220613   3.083   1.106   7.224 -2.8122 -0.4653  0.9228
 2993SOL     OW20614   0.726   1.677   6.277  0.2981 -0.4512  0.7228
 2993SOL    HW120615   0.663   1.609   6.299 -1.9199  1.2918 -0.1776
 2993SOL    HW220616   0.737   1.709   6.366  0.0581 -0.5940  0.8022
 2994SOL     OW20617   3.124   3.616   2.447 -0.7734 -0.5790  0.7059
 2994SOL    HW120618   3.053   3.606   2.510 -1.7194  0.8074 -0.1462
 2994SOL    HW220619   3.097   3.696   2.402 -0.3695 -2.0063 -2.0444
 2995SOL     OW20620   3.951   1.694   4.397 -0.2129 -0.1007  0.3368
 2995SOL    HW120621   4.001   1.657   4.470 -0.4133 -1.7375 -0.3721
 2995SOL    HW220622   3.868   1.723   4.435 -1.4113 -1.1437 -1.5215
 2996SOL     OW20623   0.211   2.381   8.136  0.1906  0.9299  0.0517
 2996SOL    HW120624   0.188   2.463   8.092 -0.0114  0.3501 -0.9359
 2996SOL    HW220625   0.272   2.406   8.205  0.5288  2.7634 -0.9126
 2997SOL     OW20626   0.501   2.211   7.513  0.2364 -0.3278 -0.5277
 2997SOL    HW120627   0.414   2.197   7.475  1.0327 -4.1614 -1.0068
 2997SOL    HW220628   0.568   2.173   7.456 -0.7422 -1.2428 -1.0651
 2998SOL     OW20629   3.256   0.595   6.460  0.1780  0.2601  0.3126
 2998SOL    HW120630   3.202   0.517   6.473 -0.7749  0.7699 -0.6137
 2998SOL    HW220631   3.195   0.665   6.487 -1.8237 -1.9467  1.5491
 2999SOL     OW20632   2.793   4.556   3.835  0.1059 -0.0004 -0.0598
 2999SOL    HW120633   2.792   4.550   3.740 -1.3851  1.1860 -0.1121
 2999SOL    HW220634   2.720   4.616   3.849 -1.1084 -1.5982  0.4628
 3000SOL     OW20635   1.095   1.865   4.984 -0.2463 -0.3875  0.1216
 3000SOL    HW120636   1.046   1.921   4.923  0.0272  0.4697  0.6867
 3000SOL    HW220637   1.020   1.810   5.006  0.3137 -0.9430  0.6262
 3001SOL     OW20638   0.576   2.182   6.085 -0.0811  0.0163 -0.4424
 3001SOL    HW120639   0.486   2.209   6.071  0.5007  2.0924 -0.1479
 3001SOL    HW220640   0.568   2.110   6.147  0.3906 -0.0920 -0.5036
 3002SOL     OW20641   4.302   0.269   5.754 -0.0739  0.3722 -0.2908
 3002SOL    HW120642   4.335   0.242   5.669 -2.4788 -0.9603 -0.7994
 3002SOL    HW220643   4.219   0.223   5.763 -0.0750  0.4855  0.2629
 3003SOL     OW20644   0.291   1.319   8.079  0.1286  0.0180  0.1710
 3003SOL    HW120645   0.198   1.313   8.099  0.1264  0.0298  0.1653
 3003SOL    HW220646   0.312   1.402   8.123 -2.0895  0.6728  0.0155
 3004SOL     OW20647   2.891   1.356   7.637  0.5468 -0.1506  0.2101
 3004SOL    HW120648   2.942   1.278   7.660 -1.6202 -1.7105 -0.3292
 3004SOL    HW220649   2.815   1.342   7.693  0.1938  0.9786  0.0258
 3005SOL     OW20650   1.424   4.600   3.992 -0.0670 -0.3474 -0.4992
 3005SOL    HW120651   1.357   4.664   4.017 -0.2390 -0.8137  0.2342
 3005SOL    HW220652   1.420   4.595   3.897  1.2722  0.6137 -0.5999
 3006SOL     OW20653   2.258   2.434   1.967 -0.4424  0.2790  0.6477
 3006SOL    HW120654   2.223   2.355   2.008 -0.8861 -0.3971 -1.0625
 3006SOL    HW220655   2.341   2.402   1.932 -0.9521 -1.1442  0.7278
 3007SOL     OW20656   0.192   0.866   2.954 -0.3555  0.3193  0.0886
 3007SOL    HW120657   0.197   0.904   2.866 -2.1329 -0.4359 -0.3283
 3007SOL    HW220658   0.281   0.831   2.955 -0.2628  0.5613  0.3495
 3008SOL     OW20659   3.371   4.394  15.766 -0.3743  0.1926 -0.0002
 3008SOL    HW120660   3.401   4.482  15.741  0.6879  0.2371  1.3991
 3008SOL    HW220661   3.290   4.387  15.717  0.1380  0.1279 -0.8301
 3009SOL     OW20662   4.365   2.538   2.851 -0.0333 -0.0260 -0.1764
 3009SOL    HW120663   4.333   2.623   2.883  0.2599  0.8637 -2.2290
 3009SOL    HW220664   4.389   2.500   2.935 -0.3849 -0.5089 -0.2992
 3010SOL     OW20665   2.636   2.560   6.505  0.2838 -0.1486 -0.3805
 3010SOL    HW120666   2.583   2.630   6.544  0.4830 -0.3997  0.3511
 3010SOL    HW220667   2.615   2.560   6.412  0.4529  0.9209 -0.4210
 3011SOL     OW20668   3.212   0.060   4.060  0.4680 -0.1596 -0.7971
 3011SOL    HW120669   3.238   4.710   4.092 -1.1895  0.0975  1.3076
 3011SOL    HW220670   3.245   0.108   4.136  0.9053  0.4162 -1.3563
 3012SOL     OW20671   4.652   1.613   6.512 -0.5211 -0.1537  0.5575
 3012SOL    HW120672   4.727   1.659   6.550 -0.5979  1.4674 -1.2558
 3012SOL    HW220673   4.581   1.627   6.576 -1.8536 -1.5291 -0.6204
 3013SOL     OW20674   2.298   2.534   5.532 -1.3360 -0.0016  0.0875
 3013SOL    HW120675   2.308   2.449   5.489 -1.7360 -0.0565  0.1041
 3013SOL    HW220676   2.209   2.535   5.565 -0.3500 -1.6520  2.7943
 3014SOL     OW20677   0.024   0.188  15.752  0.1589 -0.8332  0.2274
 3014SOL    HW120678   4.690   0.191  15.816  0.4692 -0.4537  0.5544
 3014SOL    HW220679   0.080   0.128  15.801  0.2466 -0.6969  0.2943
 3015SOL     OW20680   3.012   1.787   1.472 -0.1173  0.1679  0.6090
 3015SOL    HW120681   2.983   1.789   1.563 -1.6504 -1.4452  0.1687
 3015SOL    HW220682   2.986   1.874   1.443 -0.1438 -0.9749 -2.7464
 3016SOL     OW20683   2.492   4.062   3.040 -0.3941  0.2506 -0.1028
 3016SOL    HW120684   2.558   4.085   3.105  0.2189  0.1679 -0.6976
 3016SOL    HW220685   2.536   4.107   2.968 -0.3394  0.6091  0.1602
 3017SOL     OW20686   3.671   2.816  13.040  0.4665 -0.1065  0.0301
 3017SOL    HW120687   3.743   2.829  13.102 -0.5420 -2.6148  1.7269
 3017SOL    HW220688   3.688   2.724  13.022 -1.6017 -0.1738 -1.5895
 3018SOL     OW20689   0.879   4.609   2.339 -0.0388  0.3067  0.1426
 3018SOL    HW120690   0.837   4.538   2.386  3.6762 -2.1965 -0.3187
 3018SOL    HW220691   0.865   4.684   2.397 -1.4289 -0.3921  0.6986
 3019SOL     OW20692   3.757   3.702   4.301 -0.3939 -0.0677 -0.1117
 3019SOL    HW120693   3.713   3.727   4.382 -1.3248  0.8968 -0.9157
 3019SOL    HW220694   3.758   3.606   4.306  1.6136 -0.0103  0.3239
 3020SOL     OW20695   4.707   3.675   7.153 -0.1228 -0.2059 -0.1488
 3020SOL    HW120696   0.043   3.614   7.167 -1.5895 -2.2395 -1.3496
 3020SOL    HW220697   4.634   3.646   7.208 -0.3469  0.9883  0.1817
 3021SOL     OW20698   1.753   4.068   1.425 -0.0591  0.1587 -0.4808
 3021SOL    HW120699   1.806   4.060   1.504 -1.0894  2.3082  0.4321
 3021SOL    HW220700   1.817   4.046   1.357 -0.8848 -0.3480 -1.1011
 3022SOL     OW20701   1.001   0.424   9.275  0.0667  0.5410  0.8983
 3022SOL    HW120702   1.071   0.387   9.221 -0.7050 -0.8315  0.8515
 3022SOL    HW220703   0.987   0.507   9.229  1.5120  2.2605  3.5829
 3023SOL     OW20704   1.894   4.575   1.995 -0.1161  0.4401  0.4503
 3023SOL    HW120705   1.950   4.612   1.928  0.3136  1.2019  1.2336
 3023SOL    HW220706   1.813   4.560   1.947 -0.4667 -0.9739  1.4552
 3024SOL     OW20707   3.626   0.191   4.336  0.5945  0.5633 -0.2166
 3024SOL    HW120708   3.616   0.258   4.268  1.3701  1.7060  0.8033
 3024SOL    HW220709   3.709   0.156   4.304 -0.7115 -2.7775  0.0281
 3025SOL     OW20710   2.899   3.418   9.485  0.1518  0.2186 -0.0147
 3025SOL    HW120711   2.828   3.479   9.465 -0.7038 -0.9444 -0.4971
 3025SOL    HW220712   2.860   3.332   9.471  0.3895  0.0635  0.2697
 3026SOL     OW20713   2.128   0.135  13.061 -0.1014 -0.2353 -0.6090
 3026SOL    HW120714   2.095   0.064  13.006  1.1856  0.5559 -2.4317
 3026SOL    HW220715   2.218   0.106  13.075  0.0613  0.3702 -0.3851
 3027SOL     OW20716   3.993   3.624   7.453  0.1126  0.0667 -0.6146
 3027SOL    HW120717   4.008   3.719   7.446  0.0513  0.0313 -1.1757
 3027SOL    HW220718   4.072   3.581   7.419 -0.5823 -2.8960  1.5222
 3028SOL     OW20719   0.947   2.461  15.248  0.2827  0.4348  0.0042
 3028SOL    HW120720   0.974   2.502  15.166 -0.7450  0.1554 -0.4729
 3028SOL    HW220721   1.025   2.421  15.286 -1.4289 -1.3936  1.6530
 3029SOL     OW20722   2.247   3.072  16.977 -0.2756  0.2630  0.7242
 3029SOL    HW120723   2.163   3.112  16.953 -0.3814 -0.4244 -0.0486
 3029SOL    HW220724   2.279   3.137  17.040  2.2296  0.6100 -0.8740
 3030SOL     OW20725   0.240   3.353   6.459 -0.4595  0.0012 -0.1439
 3030SOL    HW120726   0.192   3.272   6.440 -0.4303  0.0262 -0.3236
 3030SOL    HW220727   0.198   3.413   6.398  0.4019 -2.3855 -3.0773
 3031SOL     OW20728   0.232   3.024   4.608 -0.0026 -0.4828  0.4176
 3031SOL    HW120729   0.290   3.100   4.619 -1.8666  0.8126  1.3533
 3031SOL    HW220730   0.154   3.066   4.572 -0.4483  0.3113  2.3093
 3032SOL     OW20731   3.874   2.608   8.643  0.7504 -0.5003  0.6200
 3032SOL    HW120732   3.846   2.699   8.654  1.2949 -0.3954  1.1264
 3032SOL    HW220733   3.962   2.624   8.608 -0.7189 -1.7904 -3.6588
 3033SOL     OW20734   2.207   0.707  13.398 -0.2523 -0.3600 -0.1195
 3033SOL    HW120735   2.121   0.710  13.439 -0.2644  1.6551 -0.2889
 3033SOL    HW220736   2.184   0.680  13.309  2.3902  1.4408 -1.3437
 3034SOL     OW20737   1.287   2.166   1.280 -0.2690  0.1781 -0.1850
 3034SOL    HW120738   1.372   2.159   1.323 -0.6392 -2.0390  0.1625
 3034SOL    HW220739   1.304   2.109   1.205  1.4581  0.1311  0.2454
 3035SOL     OW20740   3.010   0.691   1.898 -0.4806  0.6496  0.1074
 3035SOL    HW120741   2.947   0.747   1.943  0.2677  1.8165 -0.3142
 3035SOL    HW220742   3.088   0.745   1.886  0.9059 -1.2222  0.6030
 3036SOL     OW20743   2.068   2.820   1.735  0.1596 -0.0713  0.0799
 3036SOL    HW120744   2.144   2.875   1.716  0.5944  0.0543  2.2261
 3036SOL    HW220745   2.075   2.735   1.690 -0.7041 -0.6675  1.0893
 3037SOL     OW20746   0.261   0.718   9.327 -0.3438 -0.5069  0.6094
 3037SOL    HW120747   0.316   0.797   9.319 -1.0509 -0.0434  0.3535
 3037SOL    HW220748   0.322   0.648   9.302  1.4546  0.4948  2.1518
 3038SOL     OW20749   2.514   3.089  11.722  0.4745 -0.2237 -0.0540
 3038SOL    HW120750   2.467   3.057  11.645  2.5960 -2.8088 -0.2777
 3038SOL    HW220751   2.560   3.168  11.695 -1.3110  1.2586  1.2331
 3039SOL     OW20752   3.565   1.125  10.449 -0.2139  0.2677 -0.3391
 3039SOL    HW120753   3.542   1.198  10.392  2.8394  0.6969 -1.0054
 3039SOL    HW220754   3.512   1.141  10.527 -1.4133 -0.3855 -1.0142
 3040SOL     OW20755   2.867   2.662   9.933 -0.3072  0.2394 -0.0752
 3040SOL    HW120756   2.809   2.660  10.009  0.4057 -0.6857  0.4414
 3040SOL    HW220757   2.821   2.603   9.873 -0.1374  0.8321 -0.7960
 3041SOL     OW20758   4.131   1.211   3.960  0.1173 -0.1837  0.0763
 3041SOL    HW120759   4.155   1.213   4.052  3.9731 -2.5356 -0.8865
 3041SOL    HW220760   4.199   1.159   3.916 -0.3344 -0.2866 -0.4992
 3042SOL     OW20761   1.350   3.681   8.321 -0.3811  0.1087  0.6068
 3042SOL    HW120762   1.289   3.702   8.391 -0.9788 -1.3429  0.5053
 3042SOL    HW220763   1.342   3.587   8.304 -0.8067  0.2844 -0.2004
 3043SOL     OW20764   2.462   0.405  15.048 -0.0047  0.1683 -0.0761
 3043SOL    HW120765   2.416   0.447  14.976 -2.3272 -0.9676  0.7434
 3043SOL    HW220766   2.395   0.410  15.117 -0.2147 -5.5849  0.1176
 3044SOL     OW20767   1.848   3.351   3.021  0.8724 -0.1630  0.3861
 3044SOL    HW120768   1.810   3.294   2.955  2.1461 -1.1677  0.5177
 3044SOL    HW220769   1.878   3.432   2.979 -1.8347  0.8070  0.2919
 3045SOL     OW20770   1.166   2.665   1.863  0.7709 -0.7970  0.2183
 3045SOL    HW120771   1.176   2.753   1.826 -2.0567 -0.3852  0.4577
 3045SOL    HW220772   1.077   2.658   1.898  0.3974  0.5379 -0.4735
 3046SOL     OW20773   4.534   1.235   8.275  0.8960  0.2174  0.4037
 3046SOL    HW120774   4.554   1.170   8.343  1.7813 -0.0408 -0.1049
 3046SOL    HW220775   4.468   1.189   8.223 -0.1508  1.1626  0.8746
 3047SOL     OW20776   3.305   1.944   5.333  0.0029  0.2208  0.3514
 3047SOL    HW120777   3.353   1.862   5.317 -0.1026  0.4471 -1.1183
 3047SOL    HW220778   3.351   1.976   5.410  1.4942 -0.0387 -0.4248
 3048SOL     OW20779   4.635   1.590  13.094 -0.1366  0.4117 -0.2652
 3048SOL    HW120780   4.539   1.585  13.102 -0.0754 -1.0604 -0.5077
 3048SOL    HW220781   4.663   1.543  13.173  0.5487  1.6399  0.2168
 3049SOL     OW20782   1.805   1.809   3.445  0.2323  0.0317 -0.3166
 3049SOL    HW120783   1.759   1.769   3.519 -1.1081 -0.7019 -1.5318
 3049SOL    HW220784   1.839   1.731   3.401 -0.6933 -0.8878  0.6084
 3050SOL     OW20785   2.693   2.355   7.249  0.0685 -0.4151 -0.5406
 3050SOL    HW120786   2.786   2.335   7.262  0.2671  0.4184 -0.7101
 3050SOL    HW220787   2.664   2.300   7.176  1.3214 -0.7459 -0.7975
 3051SOL     OW20788   4.603   3.137   8.467  0.0002  0.2708 -0.2113
 3051SOL    HW120789   4.652   3.191   8.528  0.4909  1.0316 -1.2802
 3051SOL    HW220790   4.640   3.159   8.382 -0.1701  1.4874  0.0390
 3052SOL     OW20791   1.007   2.439   7.714  0.0826  0.3151 -0.0474
 3052SOL    HW120792   1.071   2.372   7.737  0.9930  0.5512 -1.9400
 3052SOL    HW220793   0.949   2.436   7.791 -1.4238 -1.0844 -1.2639
 3053SOL     OW20794   4.707   4.212   7.825 -0.7244 -0.4528 -0.0348
 3053SOL    HW120795   0.021   4.282   7.867 -0.5155 -0.9730  0.5831
 3053SOL    HW220796   4.727   4.234   7.734  0.6938 -0.5933  0.2446
 3054SOL     OW20797   3.884   0.530   6.980  0.1009  0.0428  0.5472
 3054SOL    HW120798   3.971   0.562   7.003  0.6568  0.0892 -1.6303
 3054SOL    HW220799   3.828   0.581   7.039 -2.1698  0.1875 -1.7298
 3055SOL     OW20800   4.161   2.916  15.968 -0.1376 -0.0075  0.3896
 3055SOL    HW120801   4.202   2.964  15.896  0.0154 -0.5794  0.0944
 3055SOL    HW220802   4.070   2.942  15.958 -0.5852 -2.3264 -1.6637
 3056SOL     OW20803   1.381   4.206  12.566 -0.3681  0.1320  0.1505
 3056SOL    HW120804   1.423   4.223  12.650 -0.4776 -1.6484  0.5694
 3056SOL    HW220805   1.347   4.290  12.536 -0.8197  0.8763  2.8078
 3057SOL     OW20806   3.003   2.698   9.326 -0.0561 -0.1224 -0.0921
 3057SOL    HW120807   3.007   2.679   9.419 -1.2958  0.5145  0.0820
 3057SOL    HW220808   3.095   2.678   9.309  0.0183 -0.3702  0.6006
 3058SOL     OW20809   4.520   4.243   9.104 -0.0326 -0.8909  0.2236
 3058SOL    HW120810   4.474   4.160   9.117 -0.4843 -0.5108  1.0669
 3058SOL    HW220811   4.555   4.246   9.193  0.9103  2.4400 -0.2753
 3059SOL     OW20812   1.655   2.375   8.322  0.3286  0.4589  0.2830
 3059SOL    HW120813   1.692   2.462   8.305  0.3414  1.1628  3.7360
 3059SOL    HW220814   1.730   2.354   8.378  1.2695  0.1169 -1.1095
 3060SOL     OW20815   1.471   2.384   7.120  0.7100  0.2702 -0.1560
 3060SOL    HW120816   1.435   2.459   7.166 -0.6563 -1.5607  1.7596
 3060SOL    HW220817   1.455   2.403   7.028  0.8323  1.4015  0.0634
 3061SOL     OW20818   1.741   3.438   4.649 -0.0192 -0.4213  0.0968
 3061SOL    HW120819   1.783   3.379   4.713  0.6019 -0.9803 -0.8235
 3061SOL    HW220820   1.672   3.378   4.621  0.0160 -0.0961 -0.6799
 3062SOL     OW20821   0.039   0.455   6.099  0.4542  1.2029  0.1992
 3062SOL    HW120822   0.104   0.433   6.033  0.4176  2.4550 -0.2415
 3062SOL    HW220823   0.039   0.377   6.155 -0.7746  1.4110  0.4748
 3063SOL     OW20824   0.320   2.437  15.337  0.7960  0.0123 -0.1991
 3063SOL    HW120825   0.335   2.381  15.413  0.2348 -0.4322 -0.4147
 3063SOL    HW220826   0.403   2.435  15.289  0.0000  0.4261 -1.6060
 3064SOL     OW20827   0.358   0.771   4.564  0.0345 -0.2988 -0.2896
 3064SOL    HW120828   0.418   0.841   4.590 -0.5134  1.4378 -3.6335
 3064SOL    HW220829   0.325   0.733   4.645  0.6647  0.8345  0.4926
 3065SOL     OW20830   3.858   1.952   5.614  0.2900  0.0454 -0.1615
 3065SOL    HW120831   3.950   1.932   5.628 -0.2808 -0.5127  2.9544
 3065SOL    HW220832   3.818   1.865   5.617 -1.4268  0.7961 -1.1678
 3066SOL     OW20833   3.540   1.774   1.329  0.0339 -0.3251 -0.2211
 3066SOL    HW120834   3.446   1.788   1.341  0.2305 -0.9018  2.0577
 3066SOL    HW220835   3.570   1.814   1.411  3.3569 -3.4032  0.0487
 3067SOL     OW20836   4.330   1.801  12.625 -0.2792 -0.2431 -0.1599
 3067SOL    HW120837   4.254   1.743  12.619  0.2610 -1.1105  1.1580
 3067SOL    HW220838   4.374   1.744  12.688  0.8689  0.7442 -0.0628
 3068SOL     OW20839   3.395   2.758  15.226 -0.4924  0.4756 -0.1421
 3068SOL    HW120840   3.381   2.667  15.199  2.6623 -1.1045  3.5544
 3068SOL    HW220841   3.489   2.751  15.242 -0.5587 -2.2851 -0.9373
 3069SOL     OW20842   3.306   2.326  10.285  0.8531  0.9453 -0.2417
 3069SOL    HW120843   3.215   2.314  10.256  1.0066 -0.5673 -0.0776
 3069SOL    HW220844   3.281   2.400  10.340  3.7307  2.6315 -1.1943
 3070SOL     OW20845   4.370   2.976   2.989  0.3777 -0.0474 -0.1301
 3070SOL    HW120846   4.410   3.017   3.066  0.7299  0.2537 -0.4737
 3070SOL    HW220847   4.418   3.012   2.914  2.2696 -0.8345  0.7040
 3071SOL     OW20848   3.392   4.697  12.909  0.7909  0.1595 -0.1452
 3071SOL    HW120849   3.377   4.625  12.847  2.2051 -0.5870  0.3885
 3071SOL    HW220850   3.473   0.003  12.879  0.0133  1.6036 -0.2209
 3072SOL     OW20851   1.304   3.479   4.901 -0.2248  0.1268  0.3085
 3072SOL    HW120852   1.295   3.569   4.934  3.0007 -0.2329  2.0726
 3072SOL    HW220853   1.336   3.484   4.811  0.9184  1.8033  0.7961
 3073SOL     OW20854   1.105   3.799   6.145 -0.1160 -0.1783 -0.1916
 3073SOL    HW120855   1.021   3.802   6.191 -1.2651 -0.0123 -2.2930
 3073SOL    HW220856   1.082   3.839   6.061  0.4762 -1.5885 -1.0307
 3074SOL     OW20857   1.315   2.180   9.075 -0.2314  0.3022 -0.1780
 3074SOL    HW120858   1.339   2.105   9.021  0.2927  0.0497  0.3934
 3074SOL    HW220859   1.390   2.238   9.059 -0.7824  1.1069  0.1737
 3075SOL     OW20860   4.207   4.053   3.468 -0.3269  0.0642  0.2575
 3075SOL    HW120861   4.268   3.985   3.441 -2.6120 -1.6658 -0.5390
 3075SOL    HW220862   4.178   4.009   3.547  0.3695  0.0789  0.5175
 3076SOL     OW20863   2.109   3.986   6.188  0.5595  0.3257  0.3463
 3076SOL    HW120864   2.082   4.076   6.170  0.2972  0.2803  0.4982
 3076SOL    HW220865   2.019   3.952   6.187  0.9943 -0.9678  3.1371
 3077SOL     OW20866   3.659   1.102  12.069 -0.4476  0.4791  0.0694
 3077SOL    HW120867   3.661   1.156  11.990  0.0583  0.2250 -0.0894
 3077SOL    HW220868   3.667   1.014  12.033  1.7401  1.2311 -1.3094
 3078SOL     OW20869   1.839   2.026   1.596  0.3123  0.2532 -0.1550
 3078SOL    HW120870   1.872   2.041   1.508  1.2421  0.5781  0.2458
 3078SOL    HW220871   1.844   2.114   1.632  1.9755  0.6523 -1.4161
 3079SOL     OW20872   2.039   1.686   8.414  0.4400  0.0252  0.1594
 3079SOL    HW120873   2.036   1.600   8.456  0.1496  1.0041  2.1579
 3079SOL    HW220874   1.949   1.693   8.380  0.8355 -1.3877 -1.1746
 3080SOL     OW20875   2.161   3.497   5.188 -0.3358 -0.2481  0.5203
 3080SOL    HW120876   2.232   3.435   5.173 -1.2907 -0.9638 -1.0610
 3080SOL    HW220877   2.207   3.581   5.187  3.6198 -2.4177  1.4040
 3081SOL     OW20878   0.591   1.318   5.031 -0.5110  0.1194  0.1009
 3081SOL    HW120879   0.599   1.294   5.123 -2.4692  0.2978  0.3068
 3081SOL    HW220880   0.668   1.375   5.025 -0.2013 -0.4459 -1.1857
 3082SOL     OW20881   2.745   2.366  10.279  0.8395 -0.1515  0.1172
 3082SOL    HW120882   2.667   2.414  10.308  1.5337  0.7950  0.4230
 3082SOL    HW220883   2.715   2.337  10.193 -0.5968  0.8484  0.2962
 3083SOL     OW20884   3.312   0.975   8.698  0.4503  0.0078 -0.5211
 3083SOL    HW120885   3.335   1.015   8.615  0.4311  3.2054  1.0489
 3083SOL    HW220886   3.395   0.968   8.744 -0.2449 -1.6461  0.5057
 3084SOL     OW20887   2.283   3.785  15.072  0.3794 -0.1630  0.1892
 3084SOL    HW120888   2.266   3.735  14.992  1.1391 -0.9099  0.4973
 3084SOL    HW220889   2.332   3.724  15.127 -2.7454 -1.7676  1.1869
 3085SOL     OW20890   1.542   2.370   4.540  0.5796 -0.0054 -0.1283
 3085SOL    HW120891   1.575   2.452   4.574 -0.3401  1.0638 -1.8132
 3085SOL    HW220892   1.448   2.389   4.543  0.7443  0.7969 -0.2840
 3086SOL     OW20893   0.703   2.072   9.314 -0.0329  0.0071 -0.3937
 3086SOL    HW120894   0.737   1.984   9.331 -1.4345 -0.5539 -0.5014
 3086SOL    HW220895   0.638   2.052   9.247 -0.6744  0.8948 -0.0298
 3087SOL     OW20896   0.599   2.364   5.738 -0.0912  0.4400  0.1675
 3087SOL    HW120897   0.628   2.303   5.670 -0.4147 -0.2045  0.6078
 3087SOL    HW220898   0.648   2.441   5.709  0.1074  0.8564  1.6232
 3088SOL     OW20899   0.046   3.064  15.355 -0.0578  0.6142  0.2543
 3088SOL    HW120900   0.018   3.018  15.434  3.2959 -3.1173 -0.7510
 3088SOL    HW220901   0.096   2.989  15.322  1.8950  1.6418  0.8467
 3089SOL     OW20902   4.209   0.494   5.632 -0.0274 -0.1552  0.0301
 3089SOL    HW120903   4.175   0.472   5.546 -1.3324 -0.6460  0.6695
 3089SOL    HW220904   4.253   0.414   5.664  2.1319  1.3768  0.8939
 3090SOL     OW20905   3.669   4.599  15.830 -0.3274  0.1065  0.3281
 3090SOL    HW120906   3.714   4.608  15.914  0.4524  1.5792 -0.2413
 3090SOL    HW220907   3.618   4.680  15.822 -2.1212 -0.8322  2.3895
 3091SOL     OW20908   4.473   2.885  15.397 -0.1212  0.4871  0.1133
 3091SOL    HW120909   4.443   2.795  15.383  0.6058  0.3063 -0.2766
 3091SOL    HW220910   4.557   2.860  15.436  0.0806 -2.7990 -2.4558
 3092SOL     OW20911   1.984   0.461   6.557  0.2085  0.1199 -0.3121
 3092SOL    HW120912   1.977   0.452   6.462  2.1148 -3.0225 -0.1619
 3092SOL    HW220913   1.990   0.556   6.566 -0.2007 -0.0661  1.8354
 3093SOL     OW20914   1.116   1.902   8.885  0.1554 -0.4019  0.7066
 3093SOL    HW120915   1.102   1.828   8.945 -1.9697 -0.7859 -0.2790
 3093SOL    HW220916   1.051   1.954   8.932 -0.9442 -1.2273  0.1231
 3094SOL     OW20917   4.041   1.125  17.463  0.2661  0.1717  0.0201
 3094SOL    HW120918   4.040   1.083  17.549 -1.2067  0.4940  0.1631
 3094SOL    HW220919   4.092   1.204  17.479 -1.6077  1.1113  1.2656
 3095SOL     OW20920   3.665   2.041  11.178 -0.2121  0.0854 -0.0258
 3095SOL    HW120921   3.752   2.076  11.198 -0.3545  0.0883  0.6054
 3095SOL    HW220922   3.691   1.960  11.134 -0.8505  0.5004 -1.1612
 3096SOL     OW20923   1.792   3.422   0.894  0.3673 -0.0336 -0.4773
 3096SOL    HW120924   1.732   3.485   0.933 -0.1815  0.3002 -1.8693
 3096SOL    HW220925   1.740   3.390   0.820 -0.2195 -1.8718  0.7224
 3097SOL     OW20926   4.671   0.128   2.358 -0.8317  0.3832 -0.0095
 3097SOL    HW120927   4.715   0.050   2.323  2.1356  1.3218  1.6220
 3097SOL    HW220928   4.728   0.195   2.320 -1.3773  0.0575 -1.4103
 3098SOL     OW20929   3.129   1.131   3.760  0.0384  0.0144  0.4509
 3098SOL    HW120930   3.034   1.140   3.772  0.0616  2.1232 -0.9075
 3098SOL    HW220931   3.138   1.213   3.711 -0.3560 -0.3670 -0.2710
 3099SOL     OW20932   0.426   3.534   5.653 -0.2705 -0.4286 -0.1213
 3099SOL    HW120933   0.465   3.604   5.602 -1.4096  1.8377  2.0974
 3099SOL    HW220934   0.337   3.565   5.672  0.4818  1.8621 -0.3087
 3100SOL     OW20935   2.831   2.186   4.567  0.2168 -0.7062  0.2950
 3100SOL    HW120936   2.916   2.191   4.611  0.7146  1.1827 -0.8677
 3100SOL    HW220937   2.796   2.272   4.590  1.3518 -0.3512  0.7125
 3101SOL     OW20938   0.088   4.443   4.336 -0.0629  0.6191  0.3570
 3101SOL    HW120939   0.135   4.510   4.387 -0.3822  0.5462  0.7472
 3101SOL    HW220940   0.080   4.374   4.401 -0.7285 -0.9809 -1.4294
 3102SOL     OW20941   1.268   4.351   2.071  0.2678 -0.3856 -0.6667
 3102SOL    HW120942   1.353   4.381   2.105 -0.7922 -0.5252  2.0567
 3102SOL    HW220943   1.215   4.337   2.149 -0.5575  0.7281 -1.0284
 3103SOL     OW20944   4.186   0.077   5.138 -0.6819  0.1309  0.4568
 3103SOL    HW120945   4.247   0.143   5.106 -1.0926  0.6441  0.7143
 3103SOL    HW220946   4.146   0.129   5.209  0.7690 -0.9253  2.0433
 3104SOL     OW20947   4.054   2.618   7.705  0.1236 -0.0351 -0.1112
 3104SOL    HW120948   4.105   2.639   7.627  0.6159  0.3661  0.3199
 3104SOL    HW220949   3.994   2.692   7.697  0.8281  0.5892  0.3997
 3105SOL     OW20950   0.562   2.306   3.801  0.3283  0.5030  0.0722
 3105SOL    HW120951   0.519   2.253   3.869  0.2536  0.3846 -0.0685
 3105SOL    HW220952   0.510   2.386   3.797  0.0460  0.3362  0.3429
 3106SOL     OW20953   1.107   0.680   8.462  0.5453 -0.1779 -0.2950
 3106SOL    HW120954   1.197   0.686   8.493  0.7010  0.2904 -0.8521
 3106SOL    HW220955   1.061   0.721   8.536  0.7465 -1.9394  0.8139
 3107SOL     OW20956   4.555   1.888   4.623 -0.0015 -0.0988  0.5514
 3107SOL    HW120957   4.584   1.958   4.564  0.6302 -0.3221  0.6007
 3107SOL    HW220958   4.528   1.822   4.559  2.1562 -0.2617 -0.1956
 3108SOL     OW20959   2.443   1.869   3.206 -0.4009  0.0638 -0.1147
 3108SOL    HW120960   2.447   1.802   3.138 -0.8087  0.3013 -0.3726
 3108SOL    HW220961   2.515   1.833   3.258 -0.3048 -0.5941 -0.7098
 3109SOL     OW20962   3.307   1.786   1.439  0.3988 -0.3416  0.1227
 3109SOL    HW120963   3.214   1.765   1.450 -0.1553  1.1908 -1.6833
 3109SOL    HW220964   3.339   1.775   1.528 -0.1193  1.7992  0.5873
 3110SOL     OW20965   1.139   1.328   8.137  0.1889 -0.1007  0.1040
 3110SOL    HW120966   1.068   1.284   8.183  1.1542  0.4772  2.1605
 3110SOL    HW220967   1.153   1.387   8.211  1.2483 -0.2019 -0.0110
 3111SOL     OW20968   3.317   2.532   8.193 -0.4193 -0.1931  0.2956
 3111SOL    HW120969   3.401   2.557   8.152 -1.3731  2.9902  0.2492
 3111SOL    HW220970   3.257   2.596   8.155  0.6902  0.9935  0.5179
 3112SOL     OW20971   3.178   0.667  14.656 -0.3850 -0.1809 -0.6038
 3112SOL    HW120972   3.176   0.752  14.701  1.8741 -0.4990  0.1067
 3112SOL    HW220973   3.272   0.655  14.646 -0.1500  1.5024 -0.5002
 3113SOL     OW20974   2.828   1.004   4.112 -0.3256 -0.1829  0.2164
 3113SOL    HW120975   2.897   0.938   4.107 -0.3167  0.2263 -4.3476
 3113SOL    HW220976   2.782   0.979   4.193 -1.0119 -0.6206 -0.3090
 3114SOL     OW20977   1.378   3.364   1.714 -0.3816  0.2766 -0.8341
 3114SOL    HW120978   1.306   3.412   1.754 -0.4719  0.6359 -1.4226
 3114SOL    HW220979   1.446   3.431   1.707 -0.9560  1.0848  1.3945
 3115SOL     OW20980   1.149   3.570   7.097  0.0922  0.0675  0.4373
 3115SOL    HW120981   1.191   3.648   7.061  0.6250 -0.4383 -0.0262
 3115SOL    HW220982   1.060   3.596   7.075 -0.0664 -1.0479 -0.2364
 3116SOL     OW20983   1.311   2.168  10.859  0.3228  0.3456 -0.3532
 3116SOL    HW120984   1.333   2.251  10.901 -1.3353  0.6086 -0.0121
 3116SOL    HW220985   1.401   2.137  10.849  0.2109  0.2766 -1.1900
 3117SOL     OW20986   4.043   3.752   9.544  0.4325 -0.1614  0.2691
 3117SOL    HW120987   3.974   3.795   9.595 -0.9027  0.7936 -2.3284
 3117SOL    HW220988   4.117   3.768   9.603 -0.5483 -0.6989  1.6394
 3118SOL     OW20989   0.087   1.772   2.396  0.4719 -0.4176  0.0724
 3118SOL    HW120990   0.005   1.751   2.350  0.2063 -2.1664  1.3276
 3118SOL    HW220991   0.059   1.815   2.477 -0.8578  3.4666 -2.4260
 3119SOL     OW20992   2.263   3.652   0.726  0.2942  0.5145 -0.0103
 3119SOL    HW120993   2.202   3.578   0.721 -0.0337  0.8354 -0.8292
 3119SOL    HW220994   2.242   3.706   0.649  2.3222  0.3752 -0.6420
 3120SOL     OW20995   0.770   1.879  16.066  0.0033 -0.0940 -0.2064
 3120SOL    HW120996   0.819   1.805  16.030 -2.2442 -2.0607  0.7596
 3120SOL    HW220997   0.693   1.829  16.095 -1.1168  2.4392  1.2362
 3121SOL     OW20998   0.659   2.347   6.301  0.1183  0.4771  0.7449
 3121SOL    HW120999   0.702   2.431   6.284 -2.0060  1.5389  0.6277
 3121SOL    HW221000   0.631   2.329   6.211  1.4537  0.7715  0.2642
 3122SOL     OW21001   1.141   3.119   1.135  0.7414 -0.3109  0.1147
 3122SOL    HW121002   1.135   3.155   1.223 -0.4757 -0.0307 -0.0895
 3122SOL    HW221003   1.224   3.072   1.138  0.8634 -0.1116 -0.1728
 3123SOL     OW21004   3.503   1.498   2.995  0.3331  0.1520  0.1497
 3123SOL    HW121005   3.448   1.420   3.008 -0.8949  0.7332 -1.5813
 3123SOL    HW221006   3.569   1.492   3.065  0.1546 -0.1779  0.2918
 3124SOL     OW21007   4.220   3.487  12.936 -0.6582 -0.7849  0.3465
 3124SOL    HW121008   4.290   3.523  12.990 -0.8980 -0.6363  0.5559
 3124SOL    HW221009   4.193   3.555  12.874 -2.9146 -0.0186  2.1679
 3125SOL     OW21010   1.738   1.512   7.520  0.7509 -0.1640  0.7464
 3125SOL    HW121011   1.757   1.456   7.595 -1.7637 -0.5277  1.1107
 3125SOL    HW221012   1.705   1.591   7.561 -4.0450 -1.5674 -0.3833
 3126SOL     OW21013   0.988   3.530   4.974 -0.5454 -0.3688  0.2469
 3126SOL    HW121014   1.064   3.482   5.006 -0.9293  0.9913  3.1620
 3126SOL    HW221015   0.920   3.503   5.036 -0.9170 -0.6838 -0.2946
 3127SOL     OW21016   0.653   4.446  10.442 -0.1274  0.1398 -0.4260
 3127SOL    HW121017   0.745   4.473  10.444  0.6813 -2.5971 -0.1850
 3127SOL    HW221018   0.645   4.426  10.535 -1.3639  0.5911 -0.4383
 3128SOL     OW21019   2.649   1.193   5.055 -0.5577 -0.5692 -0.1156
 3128SOL    HW121020   2.736   1.168   5.085  0.1256  1.1686 -0.6729
 3128SOL    HW221021   2.626   1.114   5.007  0.1682  0.3204 -1.9356
 3129SOL     OW21022   2.848   4.135  12.472 -0.2544  0.6060 -0.1132
 3129SOL    HW121023   2.837   4.041  12.484 -1.3218  0.5771 -1.3505
 3129SOL    HW221024   2.830   4.154  12.379  0.5396 -0.1196 -0.4116
 3130SOL     OW21025   2.364   0.187  11.127  0.2225 -0.0011 -0.1473
 3130SOL    HW121026   2.423   0.160  11.197 -0.4553 -0.1320  0.3806
 3130SOL    HW221027   2.301   0.114  11.133 -1.0525  1.0531 -0.7866
 3131SOL     OW21028   1.723   4.386  17.110  0.1609 -0.0618 -0.2970
 3131SOL    HW121029   1.807   4.401  17.067  1.1656 -1.1754  1.2508
 3131SOL    HW221030   1.715   4.291  17.097  1.2298  0.1630 -2.6132
 3132SOL     OW21031   1.813   1.205  14.229  0.2637 -0.2412 -0.2976
 3132SOL    HW121032   1.883   1.160  14.275 -0.7232 -1.6027 -0.1171
 3132SOL    HW221033   1.854   1.291  14.226 -1.1837  0.4079 -1.5408
 3133SOL     OW21034   1.880   3.376   9.325  0.0972  0.1282 -0.0306
 3133SOL    HW121035   1.801   3.330   9.301  0.0542 -0.8755  2.0311
 3133SOL    HW221036   1.883   3.382   9.421 -0.0547 -1.5334  0.0734
 3134SOL     OW21037   3.182   4.671   8.324  0.1929 -0.0995  0.4505
 3134SOL    HW121038   3.223   4.732   8.263  1.5139 -1.9007 -0.4685
 3134SOL    HW221039   3.201   4.720   8.405 -1.3935 -1.3393  1.5687
 3135SOL     OW21040   4.499   0.624   3.722 -0.1622 -0.5672 -0.2917
 3135SOL    HW121041   4.517   0.530   3.730 -2.3718 -0.7210  3.1478
 3135SOL    HW221042   4.585   0.657   3.699 -0.7924  0.8742 -0.5860
 3136SOL     OW21043   2.656   2.226  14.107  0.9658 -0.1361 -0.4476
 3136SOL    HW121044   2.612   2.173  14.173  1.9067  1.9498  1.8382
 3136SOL    HW221045   2.714   2.271  14.169  0.0136  0.8992 -0.3083
 3137SOL     OW21046   4.547   1.408  10.097 -0.9092  0.2836  0.4206
 3137SOL    HW121047   4.464   1.456  10.108  0.1250  2.4068 -1.0043
 3137SOL    HW221048   4.510   1.321  10.111  0.3806 -0.1283  1.2472
 3138SOL     OW21049   0.681   0.761  12.110 -0.2486  0.2306 -0.0518
 3138SOL    HW121050   0.735   0.699  12.062  0.7999  0.4141  0.8910
 3138SOL    HW221051   0.721   0.846  12.091 -4.1735  1.6737 -1.8766
 3139SOL     OW21052   0.610   3.953   3.061 -0.2078  0.6353 -0.0335
 3139SOL    HW121053   0.567   3.973   2.978  0.3497  0.1318 -0.4442
 3139SOL    HW221054   0.598   4.035   3.110  0.8328  0.2788  0.8188
 3140SOL     OW21055   3.123   3.934   1.615  0.0819 -0.3258 -0.1011
 3140SOL    HW121056   3.123   3.953   1.521 -0.8847  1.6473  0.3001
 3140SOL    HW221057   3.031   3.952   1.635 -0.6438 -1.6284 -2.1626
 3141SOL     OW21058   4.067   0.737   1.941 -0.0867 -0.1713  0.0026
 3141SOL    HW121059   4.146   0.779   1.975  0.5673 -1.2248 -0.2097
 3141SOL    HW221060   4.085   0.740   1.847 -1.8335  1.1888 -0.2861
 3142SOL     OW21061   0.006   0.463   7.344  0.3717 -0.4469 -0.3102
 3142SOL    HW121062   0.027   0.460   7.437 -3.2700 -2.1102  0.4277
 3142SOL    HW221063   4.665   0.407   7.342  0.7848 -0.9342 -3.3658
 3143SOL     OW21064   3.898   4.683   4.416 -0.1181 -0.2640  0.2066
 3143SOL    HW121065   3.898   4.595   4.378  0.9504  0.1436 -0.7330
 3143SOL    HW221066   3.940   4.672   4.501 -1.7689  0.1267  1.0853
 3144SOL     OW21067   1.361   4.164  11.905 -0.6157  0.4736 -0.3479
 3144SOL    HW121068   1.403   4.101  11.847 -0.3829 -0.2606  0.6256
 3144SOL    HW221069   1.370   4.123  11.991 -0.9621 -1.0057 -1.0204
 3145SOL     OW21070   4.544   1.589   1.194  0.2566  0.2654  0.2270
 3145SOL    HW121071   4.600   1.604   1.270  0.5534  0.0031  0.0573
 3145SOL    HW221072   4.464   1.557   1.235 -0.7112  0.4322 -1.4983
 3146SOL     OW21073   4.322   3.003   3.970 -0.1493  0.6890 -0.1270
 3146SOL    HW121074   4.316   2.909   3.987  2.0705  0.5432 -0.2625
 3146SOL    HW221075   4.394   3.001   3.908  0.3824  0.5278  0.4957
 3147SOL     OW21076   3.362   2.503  15.165 -0.7665 -0.5495  0.6693
 3147SOL    HW121077   3.315   2.460  15.237  0.6521 -0.1058  1.8685
 3147SOL    HW221078   3.387   2.426  15.114  1.3332  0.8689 -0.4542
 3148SOL     OW21079   1.706   3.431   2.713  0.9174  0.1197  0.2813
 3148SOL    HW121080   1.643   3.409   2.780  1.8178  1.2104  1.4976
 3148SOL    HW221081   1.654   3.468   2.642 -0.3514 -1.7029  0.2929
 3149SOL     OW21082   3.729   3.523   8.963  0.1253 -0.3029 -0.2705
 3149SOL    HW121083   3.698   3.476   9.041  3.2101  0.2814  1.3340
 3149SOL    HW221084   3.799   3.574   9.004  0.1951 -1.2919  0.8653
 3150SOL     OW21085   1.901   2.903   5.159 -0.6875  0.1513  0.1259
 3150SOL    HW121086   1.917   2.811   5.136 -1.9877  0.0268 -0.2936
 3150SOL    HW221087   1.833   2.914   5.092  1.2174  1.3696 -1.5907
 3151SOL     OW21088   3.722   3.546  11.006 -0.3216  1.2717  0.6773
 3151SOL    HW121089   3.727   3.633  11.048 -1.2392  0.1219  3.1799
 3151SOL    HW221090   3.691   3.581  10.922  1.7519  2.3148  0.3376
 3152SOL     OW21091   3.552   0.377   4.092 -0.0772  0.1409  0.5029
 3152SOL    HW121092   3.620   0.408   4.032 -1.4756  2.1305 -0.0289
 3152SOL    HW221093   3.477   0.367   4.033  0.0447 -0.3244  0.4225
 3153SOL     OW21094   3.191   2.839   3.076 -0.0968  0.3076 -0.7799
 3153SOL    HW121095   3.285   2.854   3.087  0.2320 -1.1728 -1.5700
 3153SOL    HW221096   3.177   2.750   3.108  2.6530  0.1615 -0.0099
 3154SOL     OW21097   4.117   0.039   4.103 -0.3702 -0.3997 -0.2348
 3154SOL    HW121098   4.183   0.087   4.153 -1.7285  2.0141 -0.7469
 3154SOL    HW221099   4.157   0.029   4.016 -1.4775 -2.3109 -0.5353
 3155SOL     OW21100   3.481   1.611   8.668  0.0063  0.1723 -0.3006
 3155SOL    HW121101   3.498   1.578   8.756  1.4447  0.7850 -0.3335
 3155SOL    HW221102   3.549   1.678   8.663  0.5059 -0.4058 -1.3509
 3156SOL     OW21103   2.801   2.635  13.648  0.6724  0.2626  0.1900
 3156SOL    HW121104   2.806   2.629  13.552 -1.3072 -2.3908  0.2451
 3156SOL    HW221105   2.734   2.567  13.657  0.4469  0.7555  2.0471
 3157SOL     OW21106   0.603   4.299   2.573  0.5628  0.1007 -0.2364
 3157SOL    HW121107   0.615   4.343   2.489  0.6368 -0.2276 -0.4003
 3157SOL    HW221108   0.689   4.305   2.616 -0.2832  2.6832  1.1007
 3158SOL     OW21109   3.508   3.687  13.699 -0.3630 -0.1977 -0.0166
 3158SOL    HW121110   3.493   3.634  13.778  3.7514 -1.5514 -0.1745
 3158SOL    HW221111   3.465   3.629  13.636 -1.5202  2.6281 -1.8434
 3159SOL     OW21112   3.454   4.299  17.417  0.2427 -0.0827 -0.0131
 3159SOL    HW121113   3.525   4.363  17.419  0.8883 -0.7958 -0.3955
 3159SOL    HW221114   3.389   4.358  17.454  0.2229 -0.5219  0.6507
 3160SOL     OW21115   4.017   3.334   5.673 -0.8403  0.0416 -0.3100
 3160SOL    HW121116   4.038   3.365   5.761  0.3836 -0.4500 -0.4309
 3160SOL    HW221117   4.097   3.363   5.629 -1.2626  0.5804 -0.7286
 3161SOL     OW21118   2.831   1.077   3.789 -0.8250 -0.0869  0.2259
 3161SOL    HW121119   2.872   1.163   3.781 -0.9422  0.0951  1.5191
 3161SOL    HW221120   2.834   1.053   3.882  2.1578  0.1195  0.1571
 3162SOL     OW21121   4.033   2.696   4.691  0.2500 -0.2846  0.4304
 3162SOL    HW121122   4.030   2.746   4.609 -0.8833  1.5069  1.5711
 3162SOL    HW221123   3.989   2.763   4.743  0.1748 -1.2946  1.6607
 3163SOL     OW21124   4.397   2.900  11.079  0.5307 -0.4888 -0.4327
 3163SOL    HW121125   4.465   2.891  11.012  2.0778 -0.8619  1.2083
 3163SOL    HW221126   4.320   2.911  11.023 -1.4758 -1.5897  2.1424
 3164SOL     OW21127   0.090   3.516   8.066  0.0960  0.3823 -0.3637
 3164SOL    HW121128   0.165   3.458   8.051  0.9701  0.7196  2.7165
 3164SOL    HW221129   0.131   3.589   8.019  0.1571  0.0964 -0.7531
 3165SOL     OW21130   4.377   3.219  12.854 -0.3914  0.4619  0.1557
 3165SOL    HW121131   4.330   3.188  12.777 -2.1451  2.5741  0.3859
 3165SOL    HW221132   4.306   3.243  12.913  1.1455 -0.2940  2.3188
 3166SOL     OW21133   0.352   2.402   5.340 -0.1391 -0.7771 -0.2848
 3166SOL    HW121134   0.285   2.440   5.397 -0.5601  0.1850 -1.4175
 3166SOL    HW221135   0.432   2.452   5.356  0.1258 -1.2728 -0.0485
 3167SOL     OW21136   4.383   0.707   7.221 -0.2267  0.2600 -0.1793
 3167SOL    HW121137   4.455   0.749   7.268 -0.9378  1.2109  0.0563
 3167SOL    HW221138   4.387   0.623   7.267  0.2371 -0.6795 -1.9399
 3168SOL     OW21139   0.172   2.529   6.065 -0.9022 -0.3566  0.1841
 3168SOL    HW121140   0.153   2.520   6.158 -0.9302 -2.5299 -0.0425
 3168SOL    HW221141   0.251   2.583   6.073 -1.2280 -0.1637  2.1526
 3169SOL     OW21142   0.827   3.740   3.790 -0.1900  0.5364 -0.1990
 3169SOL    HW121143   0.795   3.709   3.875 -1.0853 -2.0647 -1.4899
 3169SOL    HW221144   0.921   3.753   3.802 -0.0758  0.4556 -1.0290
 3170SOL     OW21145   1.870   4.205   7.936 -0.6392  0.1656  0.1041
 3170SOL    HW121146   1.821   4.123   7.933  1.4728 -1.1419  1.4862
 3170SOL    HW221147   1.855   4.226   8.028 -2.2974 -1.9100  0.3187
 3171SOL     OW21148   4.503   0.896  12.529 -0.7214  0.4524 -0.0372
 3171SOL    HW121149   4.409   0.883  12.513 -0.4671 -0.2747 -0.9228
 3171SOL    HW221150   4.509   0.870  12.621  1.0854  0.3747 -0.1844
 3172SOL     OW21151   4.553   4.011  14.460 -0.1344 -0.5626  0.0941
 3172SOL    HW121152   4.551   3.978  14.371 -1.8369  0.5805 -0.2985
 3172SOL    HW221153   4.598   3.937  14.502  2.1089  2.1415  2.4940
 3173SOL     OW21154   2.880   2.654   1.188 -0.4646 -0.0553 -0.1606
 3173SOL    HW121155   2.899   2.706   1.266  2.4777 -0.5164 -0.5715
 3173SOL    HW221156   2.937   2.688   1.120  1.1989 -1.1281  0.6972
 3174SOL     OW21157   1.883   1.600   7.305 -0.1059 -1.1236 -0.2047
 3174SOL    HW121158   1.804   1.648   7.279 -1.1139 -2.0155  1.1444
 3174SOL    HW221159   1.854   1.555   7.385  2.3942 -0.6319  0.9822
 3175SOL     OW21160   3.112   3.911  11.654  0.1603 -0.3474  0.0592
 3175SOL    HW121161   3.059   3.977  11.699 -0.6437  0.6757 -2.3651
 3175SOL    HW221162   3.050   3.839  11.658  0.9592 -0.8970  2.7907
 3176SOL     OW21163   4.602   0.656   8.140  0.0116  0.2676 -0.2749
 3176SOL    HW121164   4.561   0.677   8.056 -0.9701  2.4364  0.7510
 3176SOL    HW221165   4.678   0.605   8.112  1.2382  2.5736 -1.2254
 3177SOL     OW21166   0.497   4.648   6.411 -0.0779 -0.1580 -0.2048
 3177SOL    HW121167   0.517   4.708   6.482 -2.1047  0.8919 -0.5209
 3177SOL    HW221168   0.432   4.597   6.459 -1.0196  1.0982 -0.1236
 3178SOL     OW21169   1.207   1.306   1.355  0.7972  0.8445  0.1812
 3178SOL    HW121170   1.115   1.295   1.329  1.9767 -3.4872 -2.0443
 3178SOL    HW221171   1.209   1.252   1.433  2.5021 -0.1566 -0.5728
 3179SOL     OW21172   1.791   0.181  17.699 -0.0089 -0.6310 -0.6285
 3179SOL    HW121173   1.831   0.096  17.676  1.8088  0.0567 -0.0497
 3179SOL    HW221174   1.774   0.174   0.048  1.7813 -0.5678 -0.2903
 3180SOL     OW21175   4.217   1.683   6.487  0.2401 -0.1663 -0.4269
 3180SOL    HW121176   4.263   1.599   6.490 -0.9381 -0.8670 -2.0463
 3180SOL    HW221177   4.284   1.741   6.451 -0.0613  0.7847  0.5284
 3181SOL     OW21178   3.974   4.313   7.263  0.0448 -0.4001  0.0310
 3181SOL    HW121179   3.967   4.404   7.292 -2.6485 -0.9684  1.1152
 3181SOL    HW221180   3.961   4.269   7.347  0.5601  0.4307  0.5433
 3182SOL     OW21181   1.195   0.216  12.235 -0.9915  0.3581  0.2682
 3182SOL    HW121182   1.266   0.226  12.298 -0.5201 -0.9413 -0.0816
 3182SOL    HW221183   1.121   0.240  12.292  0.0374 -0.4031  1.9156
 3183SOL     OW21184   3.272   3.820   7.406 -0.1870 -0.2617 -0.3982
 3183SOL    HW121185   3.242   3.879   7.476  0.3494 -0.8121  0.2993
 3183SOL    HW221186   3.271   3.739   7.456 -2.2850  1.3507  2.1914
 3184SOL     OW21187   3.141   4.445   0.106  0.0106 -0.9929  0.0813
 3184SOL    HW121188   3.179   4.459   0.193 -1.6534 -1.1958  0.8318
 3184SOL    HW221189   3.145   4.534   0.071  1.0439  0.0053  2.7069
 3185SOL     OW21190   4.558   0.839   6.864  0.0819  0.0287  0.1872
 3185SOL    HW121191   4.471   0.856   6.902  0.9368  1.1905  1.6204
 3185SOL    HW221192   4.609   0.823   6.943  0.3064 -1.5819 -0.2853
 3186SOL     OW21193   0.110   0.717   4.455  0.2752 -0.4415  0.0008
 3186SOL    HW121194   0.179   0.769   4.497  0.6292 -0.4988 -0.5163
 3186SOL    HW221195   0.106   0.653   4.526  0.6778 -0.9753 -0.4569
 3187SOL     OW21196   0.210   1.771   1.724  0.4582 -0.7520  0.2400
 3187SOL    HW121197   0.259   1.851   1.737 -1.6874  0.4404  1.0508
 3187SOL    HW221198   0.207   1.727   1.809  1.9036  1.2955  1.3410
 3188SOL     OW21199   3.483   1.717   2.598  0.0203  0.0703 -0.7323
 3188SOL    HW121200   3.450   1.801   2.565  0.3950  0.2596 -0.6265
 3188SOL    HW221201   3.521   1.745   2.681  1.3241 -3.6033 -0.0628
 3189SOL     OW21202   3.010   1.793   7.897 -0.4123  0.3169 -0.0687
 3189SOL    HW121203   3.103   1.812   7.908 -0.4313  0.0905  0.4903
 3189SOL    HW221204   3.016   1.698   7.889  0.5786  0.3300  0.5355
 3190SOL     OW21205   3.769   1.252   6.650  1.2999 -0.8648  0.5095
 3190SOL    HW121206   3.744   1.194   6.578  0.3025  0.4187 -0.1800
 3190SOL    HW221207   3.689   1.286   6.690  1.7331 -1.1378  1.5896
 3191SOL     OW21208   1.822   3.281   7.785  0.6960  0.1324 -0.0817
 3191SOL    HW121209   1.764   3.268   7.710  1.0202 -3.8352  0.3390
 3191SOL    HW221210   1.839   3.375   7.784 -1.6981  0.5562 -1.1544
 3192SOL     OW21211   0.595   1.268   5.309  0.6827 -0.2195  0.2836
 3192SOL    HW121212   0.596   1.354   5.352 -2.8946  1.1149 -2.2493
 3192SOL    HW221213   0.527   1.226   5.361 -0.3254  1.3079  0.1915
 3193SOL     OW21214   3.695   1.824   8.129 -0.0936 -0.1277 -0.0745
 3193SOL    HW121215   3.734   1.896   8.077  2.4801  0.0554  2.0884
 3193SOL    HW221216   3.729   1.837   8.217 -0.2983  1.7992 -0.2596
 3194SOL     OW21217   0.778   1.771   0.820  0.2304 -0.2951  0.1661
 3194SOL    HW121218   0.810   1.858   0.844 -0.9528  1.3618 -4.1943
 3194SOL    HW221219   0.683   1.776   0.819  0.2770  0.5258  0.2975
 3195SOL     OW21220   0.865   2.606   3.997 -0.5253  0.5357 -0.6284
 3195SOL    HW121221   0.801   2.610   3.926 -0.9082 -1.0918 -0.3798
 3195SOL    HW221222   0.901   2.694   3.994 -2.4862  1.4864  3.2809
 3196SOL     OW21223   0.386   0.292   5.603 -0.5861  0.3305  0.4705
 3196SOL    HW121224   0.387   0.386   5.619  2.0186  0.2408  0.7963
 3196SOL    HW221225   0.459   0.276   5.544  0.1166  0.8837  1.2007
 3197SOL     OW21226   2.141   0.871   7.720  0.1019 -0.2835  0.3892
 3197SOL    HW121227   2.173   0.846   7.633  1.3537  0.2231  0.7041
 3197SOL    HW221228   2.047   0.867   7.702 -0.0731  0.8039  1.0665
 3198SOL     OW21229   3.680   0.689   6.213 -0.1692 -0.2643  0.0796
 3198SOL    HW121230   3.747   0.640   6.259  0.4365 -0.3719 -0.9083
 3198SOL    HW221231   3.611   0.687   6.280 -1.7239 -0.7614 -1.5093
 3199SOL     OW21232   1.737   2.950   8.286  0.4617 -0.3250 -0.0617
 3199SOL    HW121233   1.768   3.032   8.325  0.1199 -1.6434  3.0394
 3199SOL    HW221234   1.810   2.924   8.230  1.6401  0.4998  1.0784
 3200SOL     OW21235   0.776   4.511   8.547 -1.0695  0.4149 -0.3831
 3200SOL    HW121236   0.703   4.495   8.488  0.6700 -0.2774 -2.3697
 3200SOL    HW221237   0.847   4.515   8.483 -0.5777  0.0620  0.1336
 3201SOL     OW21238   0.392   0.047  11.279 -0.0694  0.1452 -0.2741
 3201SOL    HW121239   0.411   0.088  11.195 -1.2554  1.0863 -0.0686
 3201SOL    HW221240   0.317   0.099  11.305 -0.1770  0.3619 -1.0397
 3202SOL     OW21241   3.788   1.953   2.282 -0.6365  0.1352  0.2130
 3202SOL    HW121242   3.803   1.872   2.330 -1.2478  0.6431  1.2624
 3202SOL    HW221243   3.760   2.006   2.356  0.1542  0.1533  0.4978
 3203SOL     OW21244   2.521   2.168  17.324  0.2800 -0.4139  0.8293
 3203SOL    HW121245   2.471   2.249  17.313 -1.1480 -1.3798  0.1852
 3203SOL    HW221246   2.551   2.173  17.415  0.0324  1.3360  0.8101
 3204SOL     OW21247   1.271   0.880   6.384 -0.0077  0.6508 -0.2968
 3204SOL    HW121248   1.311   0.967   6.390  1.7625 -0.2432  0.5154
 3204SOL    HW221249   1.338   0.853   6.321 -0.6168 -0.1860 -0.5843
 3205SOL     OW21250   2.983   0.204  17.050  0.4129  0.1955 -0.1403
 3205SOL    HW121251   2.922   0.169  16.984 -0.3169  0.3667  0.4371
 3205SOL    HW221252   2.996   0.122  17.098  2.0552  0.7511  0.3352
 3206SOL     OW21253   3.118   4.137   7.590  0.3467 -0.2049 -0.4049
 3206SOL    HW121254   3.167   4.075   7.644  2.0777  1.4162 -0.1021
 3206SOL    HW221255   3.134   4.211   7.649  1.0929 -1.4444  0.9467
 3207SOL     OW21256   4.070   4.481   3.333  0.0128 -0.7130 -0.5050
 3207SOL    HW121257   4.127   4.464   3.409  1.9755 -0.9226 -2.0229
 3207SOL    HW221258   3.978   4.466   3.354  0.0744  0.5950  0.7436
 3208SOL     OW21259   0.893   0.034   4.829  0.0744 -0.3373 -0.3746
 3208SOL    HW121260   0.865   0.006   4.742 -0.7996 -0.8649  0.0764
 3208SOL    HW221261   0.831   0.106   4.844 -0.3305 -0.7660  0.0174
 3209SOL     OW21262   4.176   3.629   2.041 -0.1801  0.0079  0.4664
 3209SOL    HW121263   4.242   3.669   1.985  1.9917 -2.6231  1.2093
 3209SOL    HW221264   4.106   3.620   1.975  0.5201  1.8091 -0.5274
 3210SOL     OW21265   2.119   2.891   4.523  0.2171  0.5601 -0.1497
 3210SOL    HW121266   2.027   2.901   4.501 -0.3653 -1.5904  1.2846
 3210SOL    HW221267   2.134   2.932   4.608  0.8129  0.7134 -0.3287
 3211SOL     OW21268   1.867   2.613   8.042 -0.2195  0.2847 -0.3707
 3211SOL    HW121269   1.877   2.653   7.955 -0.4163 -0.9013 -0.9417
 3211SOL    HW221270   1.777   2.580   8.043 -0.5113  1.1653  1.0808
 3212SOL     OW21271   4.633   4.490   8.549  0.3029 -0.1066  0.6883
 3212SOL    HW121272   4.607   4.401   8.524  0.0343  0.0850  0.2670
 3212SOL    HW221273   4.603   4.540   8.473 -0.2985 -2.1016 -0.3947
 3213SOL     OW21274   4.012   1.127   6.568 -0.1999 -0.9903  0.1803
 3213SOL    HW121275   3.943   1.189   6.591  0.9717  0.3530  0.1028
 3213SOL    HW221276   4.062   1.144   6.648 -0.9081 -0.5216  0.5206
 3214SOL     OW21277   3.406   2.664   0.168  0.1879  0.4529 -0.1570
 3214SOL    HW121278   3.340   2.731   0.148  1.1955  2.2206  2.5467
 3214SOL    HW221279   3.461   2.688   0.093  3.8858  0.7819  2.6969
 3215SOL     OW21280   4.065   1.360  12.000 -0.3405  0.0230 -0.7714
 3215SOL    HW121281   4.120   1.293  11.960  0.9709  1.6986 -1.8274
 3215SOL    HW221282   4.124   1.423  12.043 -0.1290 -0.8382  0.1876
 3216SOL     OW21283   0.794   0.756  10.039 -0.6597 -0.2525  0.8634
 3216SOL    HW121284   0.846   0.678  10.057 -4.2552 -2.1753  2.8149
 3216SOL    HW221285   0.791   0.795  10.126  1.1548  0.3592  0.6524
 3217SOL     OW21286   1.793   3.863   0.207 -0.2233  0.4702  0.0804
 3217SOL    HW121287   1.805   3.773   0.238 -0.3942  0.1242 -0.8264
 3217SOL    HW221288   1.814   3.910   0.287  0.9000  1.3788 -0.7488
 3218SOL     OW21289   0.589   0.269  12.286  0.0285 -0.2148  0.6345
 3218SOL    HW121290   0.643   0.292  12.362  3.5830 -1.1590 -1.5704
 3218SOL    HW221291   0.654   0.215  12.240 -0.5805 -1.0922  0.8038
 3219SOL     OW21292   1.056   0.683   3.645  0.3210 -0.0696 -0.0937
 3219SOL    HW121293   1.063   0.676   3.741  0.0742  0.2991 -0.0501
 3219SOL    HW221294   0.988   0.750   3.643  0.3837  0.0888  2.5632
 3220SOL     OW21295   2.346   3.752   5.436 -0.0650  0.4780  0.9812
 3220SOL    HW121296   2.364   3.790   5.350 -0.0638 -1.3684  0.1716
 3220SOL    HW221297   2.251   3.763   5.444 -0.2581  0.9208 -1.8328
 3221SOL     OW21298   1.632   0.707  10.904  0.3663 -0.1264  0.2770
 3221SOL    HW121299   1.575   0.782  10.924  1.6901  0.8827  0.2517
 3221SOL    HW221300   1.717   0.745  10.928 -0.5720  0.1965  3.1887
 3222SOL     OW21301   1.323   4.163  15.709 -0.1443 -1.0362  0.0986
 3222SOL    HW121302   1.322   4.202  15.622  1.2071 -0.0209  0.5419
 3222SOL    HW221303   1.384   4.089  15.703 -1.6576 -2.2180 -0.4643
 3223SOL     OW21304   4.572   3.788  14.791  0.3411 -0.1477  0.3741
 3223SOL    HW121305   4.640   3.855  14.799  0.1602  0.2111 -1.1226
 3223SOL    HW221306   4.564   3.768  14.697 -1.2704 -0.6093  0.6194
 3224SOL     OW21307   0.926   1.608   1.372  0.0068 -0.6976  0.2288
 3224SOL    HW121308   0.928   1.540   1.305  2.4848 -0.1393 -0.2667
 3224SOL    HW221309   0.934   1.555   1.451  1.7619  0.4700  0.8312
 3225SOL     OW21310   1.153   0.305   4.231  0.0868 -0.5510  0.0118
 3225SOL    HW121311   1.211   0.230   4.246 -2.2671 -2.2859  0.5256
 3225SOL    HW221312   1.208   0.365   4.180 -0.5627  2.1856  2.5533
 3226SOL     OW21313   4.178   4.323   6.750 -0.2510  0.5415  0.0205
 3226SOL    HW121314   4.211   4.362   6.669  2.3391  0.5757  1.0934
 3226SOL    HW221315   4.128   4.402   6.773 -0.7176  0.3733 -0.4132
 3227SOL     OW21316   2.561   4.663  12.595  0.0775  0.3170 -0.3576
 3227SOL    HW121317   2.488   4.629  12.647 -0.3936 -0.6401 -1.6143
 3227SOL    HW221318   2.613   4.718  12.653 -2.6893  2.5903 -0.0571
 3228SOL     OW21319   0.020   2.855   2.289 -0.9990 -0.3490  0.2880
 3228SOL    HW121320   0.002   2.854   2.383  0.3362 -1.7071  0.5319
 3228SOL    HW221321   0.109   2.820   2.282 -1.6428 -2.2276  1.6053
 3229SOL     OW21322   3.535   4.383   2.499 -0.2793  0.2819  0.1807
 3229SOL    HW121323   3.585   4.303   2.507 -2.2922 -0.9954 -0.0152
 3229SOL    HW221324   3.597   4.454   2.518  2.0936 -0.8107 -3.3545
 3230SOL     OW21325   2.590   1.026   2.788 -0.0726 -0.1043  0.7245
 3230SOL    HW121326   2.498   1.047   2.773  0.2092  0.6468  0.0305
 3230SOL    HW221327   2.582   0.934   2.764  0.7273 -0.6415  2.5581
 3231SOL     OW21328   0.041   2.501   9.250  0.1637  0.2479 -0.6240
 3231SOL    HW121329   4.711   2.555   9.208 -0.7371 -1.3664 -1.2658
 3231SOL    HW221330   0.001   2.494   9.337 -1.1951 -0.6256 -1.3197
 3232SOL     OW21331   0.731   2.088   1.447 -0.1141  0.4614  0.1249
 3232SOL    HW121332   0.711   2.177   1.420 -0.9989  0.3891  0.5248
 3232SOL    HW221333   0.795   2.050   1.387 -0.2454  0.5103 -0.0459
 3233SOL     OW21334   3.458   2.711   4.884 -0.2214 -0.2053  0.0372
 3233SOL    HW121335   3.373   2.710   4.929  0.1297 -2.2126  0.6676
 3233SOL    HW221336   3.441   2.735   4.793  0.0870  2.4374  0.6556
 3234SOL     OW21337   2.292   0.126   5.773  0.3041 -0.0314 -0.0114
 3234SOL    HW121338   2.380   0.118   5.738  0.2585  1.7982 -0.5514
 3234SOL    HW221339   2.282   0.039   5.812 -0.5468 -0.0829 -0.3498
 3235SOL     OW21340   4.070   2.212   1.762  0.2841  0.6758 -0.6361
 3235SOL    HW121341   3.975   2.201   1.766  0.2753  1.0511  0.0952
 3235SOL    HW221342   4.088   2.305   1.775  2.2223  0.2504 -0.2697
 3236SOL     OW21343   2.781   2.364   9.525 -0.8846  0.4280 -0.2958
 3236SOL    HW121344   2.760   2.439   9.469  0.4609  0.6074 -0.5724
 3236SOL    HW221345   2.717   2.305   9.486 -0.6432 -0.5212  0.7381
 3237SOL     OW21346   0.205   1.033   3.761  0.4050  0.8033  0.0417
 3237SOL    HW121347   0.164   1.062   3.842 -0.6174 -0.3783 -0.0595
 3237SOL    HW221348   0.189   1.109   3.705  0.7625 -0.5929 -1.9566
 3238SOL     OW21349   0.633   2.039   2.719  0.1508  0.5145 -0.3869
 3238SOL    HW121350   0.726   2.034   2.740 -0.3625  0.9637  1.9027
 3238SOL    HW221351   0.626   2.074   2.630  1.5249 -0.7704 -1.0033
 3239SOL     OW21352   0.519   4.494   5.082 -0.2932 -0.0737 -0.3091
 3239SOL    HW121353   0.434   4.537   5.087  0.1137  0.6428  0.4791
 3239SOL    HW221354   0.550   4.496   4.991 -0.1313  2.4160 -0.1982
 3240SOL     OW21355   2.229   0.071  10.257 -0.2669  0.5842 -0.2937
 3240SOL    HW121356   2.228   0.162  10.228 -0.9977  0.8788  0.6447
 3240SOL    HW221357   2.235   0.028  10.172 -0.4001 -0.0334  0.0046
 3241SOL     OW21358   4.100   1.294   2.443  0.0254 -0.5366 -0.1312
 3241SOL    HW121359   4.130   1.286   2.533 -0.7825  1.9974  0.3666
 3241SOL    HW221360   4.168   1.358   2.421  0.8398 -2.0741 -2.1378
 3242SOL     OW21361   3.280   4.018  10.929  0.1407  0.8546 -0.0546
 3242SOL    HW121362   3.308   3.930  10.907 -0.1759  1.1909 -1.8385
 3242SOL    HW221363   3.195   4.000  10.970  0.2143  0.9610  0.1424
 3243SOL     OW21364   4.582   3.200   8.847 -0.1807 -0.2748  0.6052
 3243SOL    HW121365   4.562   3.111   8.816  1.8875 -1.0566  1.5084
 3243SOL    HW221366   4.529   3.250   8.784  0.2293 -1.3264 -0.5820
 3244SOL     OW21367   2.934   1.521   3.565  0.2077  0.1829 -0.0620
 3244SOL    HW121368   2.867   1.456   3.546  0.8987 -0.7218  0.5778
 3244SOL    HW221369   2.900   1.562   3.645 -2.2262 -3.5305  0.7730
 3245SOL     OW21370   3.578   4.044   3.555  0.2122  0.3816  0.5331
 3245SOL    HW121371   3.523   4.041   3.477  0.0030  0.6757  0.6670
 3245SOL    HW221372   3.539   3.990   3.623 -1.5520  0.5783 -0.3182
 3246SOL     OW21373   1.388   3.630   1.858  0.1362 -0.8851 -0.4090
 3246SOL    HW121374   1.444   3.612   1.782  2.2122  0.3813  0.8380
 3246SOL    HW221375   1.311   3.671   1.821 -0.7989  0.6651  3.2570
 3247SOL     OW21376   2.801   1.367   5.802 -0.5821  0.6295  0.3005
 3247SOL    HW121377   2.781   1.459   5.824 -0.8805  0.3712  1.1194
 3247SOL    HW221378   2.857   1.379   5.726  0.2912  0.6923  0.9483
 3248SOL     OW21379   2.889   1.893   5.873  1.2021 -0.0633 -0.5159
 3248SOL    HW121380   2.976   1.913   5.839  0.8968  1.5372 -0.3562
 3248SOL    HW221381   2.861   1.824   5.814 -0.4895 -0.1422  0.3711
 3249SOL     OW21382   0.390   1.325  17.300  0.2551  0.4838  0.2862
 3249SOL    HW121383   0.477   1.292  17.322  0.4152 -0.7212 -2.1198
 3249SOL    HW221384   0.401   1.339  17.206 -2.5661  0.7487 -0.0247
 3250SOL     OW21385   3.008   3.176  17.744 -0.5279 -0.3562  0.3652
 3250SOL    HW121386   2.987   3.091   0.038  0.2560 -0.9188 -0.4498
 3250SOL    HW221387   2.967   3.226   0.069  1.3169 -0.4207  1.4996
 3251SOL     OW21388   1.671   4.099   6.290  0.3228 -0.2951 -0.4589
 3251SOL    HW121389   1.758   4.128   6.317 -0.8253  1.7030  1.0977
 3251SOL    HW221390   1.622   4.083   6.371 -0.2917  0.3630 -0.6958
 3252SOL     OW21391   0.947   0.665   3.890 -0.1767 -0.4327 -0.1844
 3252SOL    HW121392   0.864   0.682   3.934  0.4972  0.0480  0.9076
 3252SOL    HW221393   0.982   0.580   3.913 -0.9244 -0.1780  1.8816
 3253SOL     OW21394   0.476   4.438   0.209  0.0943  0.3569  0.7893
 3253SOL    HW121395   0.454   4.487   0.288  0.0474 -0.5876  1.3581
 3253SOL    HW221396   0.477   4.352   0.251 -2.2510 -0.0640 -0.0270
 3254SOL     OW21397   0.420   3.427   8.667 -0.1756 -0.0852  0.7662
 3254SOL    HW121398   0.486   3.361   8.689 -0.4531 -0.0677  1.6445
 3254SOL    HW221399   0.456   3.464   8.587 -0.3028 -2.1920 -0.2658
 3255SOL     OW21400   4.012   2.746  14.938 -0.5891  0.4297  0.5488
 3255SOL    HW121401   4.071   2.757  15.013  1.9246  1.2692 -1.5692
 3255SOL    HW221402   4.072   2.744  14.864 -2.1929 -0.7701 -0.7160
 3256SOL     OW21403   2.447   2.735   6.602 -0.4375  0.6749  0.0490
 3256SOL    HW121404   2.453   2.821   6.560  0.7566  1.1780  1.2288
 3256SOL    HW221405   2.364   2.705   6.566 -0.3987  0.6574 -0.0266
 3257SOL     OW21406   2.694   2.621   1.996 -0.1663  0.2037  0.0915
 3257SOL    HW121407   2.771   2.676   1.979  0.2000 -0.4877 -0.5219
 3257SOL    HW221408   2.660   2.614   1.907 -1.7677  1.4370  0.6204
 3258SOL     OW21409   3.664   2.783   7.245  0.0705 -0.0014  0.1924
 3258SOL    HW121410   3.661   2.870   7.283  0.6354  0.0348  0.1534
 3258SOL    HW221411   3.570   2.762   7.244 -0.1129  0.8175  1.0073
 3259SOL     OW21412   4.431   3.465   8.439  0.3219 -0.3144 -0.3922
 3259SOL    HW121413   4.358   3.515   8.404  0.5676 -0.8894 -1.7197
 3259SOL    HW221414   4.499   3.483   8.375 -0.3709  0.4914 -0.8898
 3260SOL     OW21415   1.071   4.522   7.305 -0.0134  0.7706 -0.0913
 3260SOL    HW121416   1.125   4.450   7.339 -0.7354  0.7582  1.0284
 3260SOL    HW221417   1.125   4.599   7.324  2.1355 -0.7625 -0.0145
 3261SOL     OW21418   1.335   0.743   8.704  0.2872 -0.2024  0.1582
 3261SOL    HW121419   1.331   0.683   8.779 -1.4635  0.2714  0.4292
 3261SOL    HW221420   1.318   0.829   8.744 -1.5488 -0.4630 -0.0605
 3262SOL     OW21421   4.364   3.025   6.118 -0.0085 -0.6400  0.5498
 3262SOL    HW121422   4.458   3.042   6.121  0.0639 -0.7894 -0.7897
 3262SOL    HW221423   4.351   2.987   6.205 -0.0921  1.4010  1.4457
 3263SOL     OW21424   0.455   0.714  13.888  0.4088 -0.2745 -0.1654
 3263SOL    HW121425   0.386   0.647  13.890  0.3379 -0.2248 -1.1451
 3263SOL    HW221426   0.474   0.734  13.980  2.6969 -2.1294 -0.2482
 3264SOL     OW21427   2.364   3.580  15.222 -0.3371 -0.0575 -0.1259
 3264SOL    HW121428   2.406   3.546  15.143 -0.1981  0.0772 -0.1086
 3264SOL    HW221429   2.319   3.502  15.256  1.1525 -0.8059  0.0952
 3265SOL     OW21430   3.256   4.696   7.388  0.0381 -0.4314 -0.3316
 3265SOL    HW121431   3.339   4.725   7.349  0.7520 -1.8320  0.0999
 3265SOL    HW221432   3.197   0.026   7.356 -0.3819 -0.7874 -0.2987
 3266SOL     OW21433   3.303   1.858   6.300 -0.7467 -0.5273 -0.6962
 3266SOL    HW121434   3.383   1.810   6.280  0.5410  1.0233  0.6894
 3266SOL    HW221435   3.302   1.916   6.223  1.8357 -2.8990 -2.4933
 3267SOL     OW21436   0.866   0.067   8.379 -0.1651  0.5103  0.5464
 3267SOL    HW121437   0.950   0.092   8.419  0.7165 -2.1199  0.3774
 3267SOL    HW221438   0.801   0.099   8.442 -0.3376 -0.8765  1.0739
 3268SOL     OW21439   4.104   2.202   2.550 -0.4660 -0.2417  0.0865
 3268SOL    HW121440   4.074   2.178   2.462 -2.1495  2.9751 -0.2170
 3268SOL    HW221441   4.145   2.287   2.531 -0.2819 -0.0657  1.3070
 3269SOL     OW21442   3.057   0.454   2.017  0.2839  0.2656 -0.0713
 3269SOL    HW121443   3.067   0.533   1.964  1.9528 -0.6304 -1.1352
 3269SOL    HW221444   3.008   0.502   2.083  2.3324 -0.4081  1.9432
 3270SOL     OW21445   2.310   3.692   7.822  0.3316 -0.2594  0.2895
 3270SOL    HW121446   2.267   3.679   7.737  1.4067  0.1307 -0.3162
 3270SOL    HW221447   2.291   3.603   7.851  1.4941 -0.2064  1.1897
 3271SOL     OW21448   2.954   0.423   5.563  0.2412  0.6312 -0.5657
 3271SOL    HW121449   2.943   0.342   5.614 -0.9262  0.0444 -1.7507
 3271SOL    HW221450   2.884   0.472   5.606  0.0781 -0.3733  0.3252
 3272SOL     OW21451   2.102   0.330   8.385  0.3711  0.5739  0.5377
 3272SOL    HW121452   2.119   0.257   8.325 -3.6188 -0.6030  0.8529
 3272SOL    HW221453   2.100   0.406   8.327  0.1065  1.0984  1.2247
 3273SOL     OW21454   4.145   3.537   7.936  0.4584  0.0447 -0.0969
 3273SOL    HW121455   4.239   3.525   7.941  0.8270  1.9544 -2.3046
 3273SOL    HW221456   4.121   3.448   7.959  0.5867 -0.7363 -3.0198
 3274SOL     OW21457   3.382   3.585   4.292  0.0821  0.8000  0.6294
 3274SOL    HW121458   3.465   3.561   4.335 -0.3358 -1.9004 -0.1103
 3274SOL    HW221459   3.314   3.561   4.355  0.1171 -0.7082  0.0889
 3275SOL     OW21460   0.258   2.272   0.970 -0.0671  0.4832  1.1066
 3275SOL    HW121461   0.185   2.324   1.003  0.8564  2.1904  0.4356
 3275SOL    HW221462   0.248   2.185   1.010 -2.1018  0.4460  0.4671
 3276SOL     OW21463   2.011   0.550   2.422  0.5019  0.4994  0.3465
 3276SOL    HW121464   2.068   0.619   2.457 -0.6413  1.0083  1.2158
 3276SOL    HW221465   2.066   0.513   2.353  2.5892  2.2909  1.0501
 3277SOL     OW21466   2.057   4.118   2.937  0.7076 -0.1939  0.6105
 3277SOL    HW121467   2.097   4.036   2.964 -2.5944 -2.3370 -1.1019
 3277SOL    HW221468   1.974   4.092   2.898  0.2016  1.9341  0.2320
 3278SOL     OW21469   1.487   3.159   2.037 -0.5363 -0.1899  0.5733
 3278SOL    HW121470   1.558   3.213   2.070  0.2618 -0.8395 -0.0967
 3278SOL    HW221471   1.426   3.217   1.992  0.1261  1.0906  1.3334
 3279SOL     OW21472   0.540   0.371   3.072  0.1374  0.3473  0.6238
 3279SOL    HW121473   0.468   0.363   3.135  1.5349  1.5844  2.3784
 3279SOL    HW221474   0.546   0.467   3.073 -0.0913  0.3398  2.3880
 3280SOL     OW21475   1.114   1.000   6.047 -0.5843  0.1397 -0.2165
 3280SOL    HW121476   1.030   1.046   6.041 -0.4626  0.2276 -1.2075
 3280SOL    HW221477   1.089   0.918   6.091 -1.3189  1.5190  1.9150
 3281SOL     OW21478   1.995   3.927   1.984 -0.1375  0.2382 -0.1663
 3281SOL    HW121479   1.981   4.022   1.982 -0.0753  0.2397 -0.5027
 3281SOL    HW221480   1.922   3.914   1.924 -0.8598 -3.4424  1.5360
 3282SOL     OW21481   1.128   3.314   4.999 -0.4295 -0.3478 -0.0991
 3282SOL    HW121482   1.168   3.229   4.982  2.1845  0.6659  0.8549
 3282SOL    HW221483   1.202   3.370   4.972 -0.0719 -0.0883  1.4436
 3283SOL     OW21484   2.414   3.394   7.208 -0.3968 -0.4321  0.0142
 3283SOL    HW121485   2.487   3.404   7.269  1.1043 -2.1556 -1.5036
 3283SOL    HW221486   2.449   3.418   7.123  0.2783  3.4317  1.3920
 3284SOL     OW21487   1.431   2.632   3.920  0.5538  0.8573  0.2693
 3284SOL    HW121488   1.388   2.552   3.889 -0.3755  0.8551  1.5755
 3284SOL    HW221489   1.495   2.656   3.853  0.6927 -0.7438 -0.1904
 3285SOL     OW21490   4.515   2.392   5.398 -0.1429 -0.1377  0.1238
 3285SOL    HW121491   4.516   2.296   5.404 -1.5134 -0.1075  0.6683
 3285SOL    HW221492   4.512   2.402   5.303 -0.9364  0.7938  0.2479
 3286SOL     OW21493   3.203   0.661   3.745  0.0512 -0.5245 -0.8876
 3286SOL    HW121494   3.145   0.587   3.762  0.5279 -0.2435  2.0729
 3286SOL    HW221495   3.176   0.683   3.656  0.5998  0.6489 -0.7733
 3287SOL     OW21496   2.884   3.922   0.734 -0.2241  0.1595  0.4864
 3287SOL    HW121497   2.921   3.917   0.823  0.3561 -1.2933  0.1694
 3287SOL    HW221498   2.811   3.977   0.762 -0.7387 -0.4385  0.3099
 3288SOL     OW21499   0.557   4.685  10.544  0.3420 -0.8782  0.7053
 3288SOL    HW121500   0.547   4.652  10.633 -0.9941 -0.5557  0.6703
 3288SOL    HW221501   0.582   4.605  10.497 -2.1460 -0.3377 -1.5431
 3289SOL     OW21502   0.939   3.383   0.066 -0.2783  0.2086 -0.0513
 3289SOL    HW121503   0.952   3.390   0.160 -3.0057  1.1834  0.2497
 3289SOL    HW221504   1.028   3.360   0.039  0.5421  2.6238  0.6267
 3290SOL     OW21505   1.644   2.429   0.978 -0.0780 -0.0504 -0.1167
 3290SOL    HW121506   1.635   2.375   0.900 -0.8473 -0.1683  0.0621
 3290SOL    HW221507   1.608   2.515   0.956  0.4291 -0.0448 -0.9135
 3291SOL     OW21508   0.248   3.690   4.440 -0.3400 -0.3253 -0.6451
 3291SOL    HW121509   0.286   3.705   4.526  0.9026 -0.1018 -1.2291
 3291SOL    HW221510   0.310   3.746   4.393  0.9700  0.4315  2.0092
 3292SOL     OW21511   0.668   2.968  14.381 -0.3610  0.3544 -0.7168
 3292SOL    HW121512   0.697   3.016  14.303 -0.0460  1.7653  0.2624
 3292SOL    HW221513   0.637   2.883  14.351  0.2301 -0.4135  0.8499
 3293SOL     OW21514   2.900   1.116   1.855 -0.7731 -0.2804  0.4293
 3293SOL    HW121515   2.977   1.170   1.868 -1.5352  0.7511  0.6305
 3293SOL    HW221516   2.856   1.169   1.789  0.1494 -1.1376 -0.8595
 3294SOL     OW21517   1.978   0.888  16.859 -0.8374  0.4809  0.3099
 3294SOL    HW121518   1.893   0.932  16.859 -1.2020 -0.2417 -0.1458
 3294SOL    HW221519   1.985   0.849  16.946 -1.3020  1.2154  0.6821
 3295SOL     OW21520   3.373   3.909  12.569  0.0481  0.1075 -0.6410
 3295SOL    HW121521   3.334   3.932  12.653 -2.0558 -2.4486 -0.9172
 3295SOL    HW221522   3.352   3.987  12.518  1.8176  0.4697 -0.8345
 3296SOL     OW21523   2.508   1.870   0.272  0.3115  0.4507 -0.6293
 3296SOL    HW121524   2.420   1.833   0.270  0.2373  0.6126 -0.4540
 3296SOL    HW221525   2.553   1.804   0.325 -1.0460 -0.3972 -0.5466
 3297SOL     OW21526   1.514   1.406  10.013  0.1941  0.0568 -0.1761
 3297SOL    HW121527   1.592   1.414   9.959  0.5131 -3.0957 -0.1748
 3297SOL    HW221528   1.494   1.498  10.031  0.8187 -0.1961  1.8996
 3298SOL     OW21529   1.371   2.076   7.004 -0.1608 -0.3603  0.1591
 3298SOL    HW121530   1.298   2.035   6.957  0.5154 -0.4358 -0.8235
 3298SOL    HW221531   1.428   2.110   6.935  0.7030 -0.1531  0.9784
 3299SOL     OW21532   4.057   4.240  12.518  0.1501  0.0561  0.2458
 3299SOL    HW121533   4.138   4.213  12.562 -0.5039 -2.2357  0.0395
 3299SOL    HW221534   4.055   4.333  12.541 -0.8167 -0.0836  0.7290
 3300SOL     OW21535   1.249   0.122   1.185 -0.1749 -0.8359 -0.1236
 3300SOL    HW121536   1.229   0.168   1.267 -3.2899 -1.2222 -0.6511
 3300SOL    HW221537   1.223   0.192   1.124  0.1678 -0.5722  0.0316
 3301SOL     OW21538   1.935   3.160   5.754 -0.3200  0.6050  0.4532
 3301SOL    HW121539   1.865   3.178   5.691  1.3464 -0.3828 -1.6847
 3301SOL    HW221540   1.940   3.231   5.818  0.3749 -0.8179  1.9986
 3302SOL     OW21541   4.187   2.768   3.245 -0.6662  0.0604  0.5174
 3302SOL    HW121542   4.242   2.743   3.171 -0.2342 -2.6584  1.7552
 3302SOL    HW221543   4.226   2.851   3.272 -1.6381  0.7752 -0.2718
 3303SOL     OW21544   2.733   3.921   5.823  0.4882 -0.1484  0.2990
 3303SOL    HW121545   2.690   3.867   5.757 -0.2417 -0.2056  0.8144
 3303SOL    HW221546   2.823   3.918   5.790  0.7997  0.2210  1.1228
 3304SOL     OW21547   1.979   4.426  11.707  0.0812 -0.8882  0.6150
 3304SOL    HW121548   2.021   4.459  11.627  0.3885  2.5469  2.1655
 3304SOL    HW221549   1.907   4.489  11.706 -0.8153 -1.9828 -2.2570
 3305SOL     OW21550   0.865   2.259   7.004  0.1187 -0.3238 -0.3669
 3305SOL    HW121551   0.795   2.203   6.973  1.4736 -0.9550 -2.2460
 3305SOL    HW221552   0.852   2.337   6.950 -0.8149  0.2823  0.7228
 3306SOL     OW21553   1.200   2.016   2.284 -0.2017 -0.3339  0.3147
 3306SOL    HW121554   1.118   2.008   2.334  1.0552 -1.1892  2.2139
 3306SOL    HW221555   1.175   1.966   2.206  0.2858 -0.6582  0.3695
 3307SOL     OW21556   2.298   2.760   0.153  0.4168 -0.2417  0.3091
 3307SOL    HW121557   2.332   2.677   0.189  1.8055  0.1949 -0.0231
 3307SOL    HW221558   2.219   2.779   0.203 -0.0524  1.8001 -1.2228
 3308SOL     OW21559   4.151   4.026  10.776  0.3755 -0.1966  0.0327
 3308SOL    HW121560   4.213   3.954  10.764 -0.3152 -0.5048 -1.7519
 3308SOL    HW221561   4.111   4.019  10.689  0.3008  0.9478 -0.0187
 3309SOL     OW21562   4.452   2.133  10.835 -0.0348  0.1949  0.2696
 3309SOL    HW121563   4.524   2.130  10.898 -0.8909  0.5003  1.2703
 3309SOL    HW221564   4.384   2.196  10.861 -0.0679 -0.6893  2.3432
 3310SOL     OW21565   4.482   0.156   2.574  0.0108 -0.4255 -0.3251
 3310SOL    HW121566   4.551   0.159   2.509  0.4769 -0.8154  0.1527
 3310SOL    HW221567   4.420   0.216   2.532  0.3304  1.2404  1.5283
 3311SOL     OW21568   4.031   1.726   2.499 -0.2190  0.3247  0.0642
 3311SOL    HW121569   4.036   1.692   2.410 -0.5556 -1.7291  0.8137
 3311SOL    HW221570   3.945   1.690   2.520 -0.2745  0.0603 -0.6141
 3312SOL     OW21571   3.472   2.618   2.524 -0.0183  0.3019  0.0281
 3312SOL    HW121572   3.538   2.668   2.476  0.7196  1.3080  2.0958
 3312SOL    HW221573   3.394   2.639   2.471 -2.0023 -1.8652  2.0817
 3313SOL     OW21574   2.113   1.439  15.523  0.0765 -0.2677  0.3168
 3313SOL    HW121575   2.085   1.527  15.496  1.7545 -0.1679 -1.1430
 3313SOL    HW221576   2.208   1.436  15.507 -0.2805  1.6599 -2.3648
 3314SOL     OW21577   0.915   3.208   9.751 -0.3208  0.2389 -0.2354
 3314SOL    HW121578   0.932   3.284   9.806  1.4931 -1.3295  1.4009
 3314SOL    HW221579   0.823   3.205   9.775 -0.7014  2.5354 -1.4581
 3315SOL     OW21580   0.027   3.883   5.077  0.4643  0.4889 -0.2942
 3315SOL    HW121581   4.724   3.797   5.063 -0.6160  1.0987 -0.9806
 3315SOL    HW221582   0.088   3.858   5.147  1.5608  2.7441 -0.4706
 3316SOL     OW21583   1.718   0.523   1.010  0.2062 -0.3508  0.5749
 3316SOL    HW121584   1.710   0.559   0.922  0.4111  0.9967  1.1068
 3316SOL    HW221585   1.787   0.583   1.037  0.9682  0.1880 -2.6570
 3317SOL     OW21586   0.598   4.188   3.197  0.3903 -0.0256 -0.5487
 3317SOL    HW121587   0.642   4.239   3.266 -0.6676 -0.1147  0.2018
 3317SOL    HW221588   0.560   4.261   3.148  1.0397  1.1904  0.7451
 3318SOL     OW21589   0.127   0.437   3.473  0.0817  0.3603  0.0911
 3318SOL    HW121590   0.081   0.465   3.552  0.8713  0.9731  0.3318
 3318SOL    HW221591   0.062   0.378   3.434  0.5014  0.0755 -0.1725
 3319SOL     OW21592   4.477   4.094   5.273  0.0093  0.5721  0.3877
 3319SOL    HW121593   4.518   4.083   5.360  1.6066  3.8681  0.0325
 3319SOL    HW221594   4.485   4.003   5.244  0.3385  0.1467  1.7986
 3320SOL     OW21595   3.773   2.912   0.134  0.3902 -0.0869 -0.7808
 3320SOL    HW121596   3.789   2.993   0.086 -0.4833  0.2168 -0.5600
 3320SOL    HW221597   3.735   2.957   0.210  0.6307  0.4292 -0.9659
 3321SOL     OW21598   0.580   2.665  15.604 -0.3399 -0.0703 -0.4368
 3321SOL    HW121599   0.589   2.607  15.680 -1.2060  0.4047  0.0321
 3321SOL    HW221600   0.617   2.608  15.537 -0.7700 -1.1019  0.2022
 3322SOL     OW21601   1.325   1.730   7.121 -0.3751  0.0749 -0.3046
 3322SOL    HW121602   1.276   1.788   7.063  0.1847  1.3008  0.4602
 3322SOL    HW221603   1.286   1.653   7.078 -3.4369  1.0733  0.6488
 3323SOL     OW21604   0.870   3.868   8.250  0.2865 -0.4757  0.8093
 3323SOL    HW121605   0.881   3.960   8.274 -2.7654 -0.1986  1.2310
 3323SOL    HW221606   0.774   3.865   8.250  0.1537  2.8935 -0.9182
 3324SOL     OW21607   2.147   0.544  13.180  0.3927  0.6197 -0.4434
 3324SOL    HW121608   2.138   0.476  13.247  1.5212  1.2884  0.3773
 3324SOL    HW221609   2.070   0.530  13.124 -0.1936 -3.9871  1.5485
 3325SOL     OW21610   4.478   1.813  16.899 -0.4138 -0.0108 -0.4149
 3325SOL    HW121611   4.514   1.772  16.820  0.0428 -1.3353  0.4951
 3325SOL    HW221612   4.456   1.900  16.865 -2.1077 -0.0812  0.5289
 3326SOL     OW21613   0.584   0.986   4.619  0.0439  0.2130  0.4150
 3326SOL    HW121614   0.676   0.992   4.646 -0.6342  0.6770  2.6126
 3326SOL    HW221615   0.554   1.065   4.664 -0.4821  0.6329 -0.6920
 3327SOL     OW21616   1.242   0.600   4.480  0.2015 -0.5131  0.0469
 3327SOL    HW121617   1.254   0.693   4.500 -1.3420 -0.3152  0.0066
 3327SOL    HW221618   1.331   0.565   4.491  1.3091  2.1358 -0.4275
 3328SOL     OW21619   1.723   0.788   4.268  0.4193  0.0961 -0.5097
 3328SOL    HW121620   1.708   0.731   4.344  1.0316  2.0779  1.1006
 3328SOL    HW221621   1.672   0.738   4.204  1.7146  0.3864 -1.7612
 3329SOL     OW21622   0.872   2.238   2.569 -0.1351  0.1025  0.4970
 3329SOL    HW121623   0.891   2.251   2.662  3.1615 -3.3246  0.2958
 3329SOL    HW221624   0.895   2.320   2.526  0.7755 -0.4214 -0.0242
 3330SOL     OW21625   1.182   2.717  17.114  0.1758  0.0508 -0.0711
 3330SOL    HW121626   1.191   2.813  17.118 -3.4735  0.3836  0.3588
 3330SOL    HW221627   1.158   2.693  17.203  1.2260  0.9420  0.4467
 3331SOL     OW21628   1.270   0.327   5.678 -0.3161  0.4221 -0.2513
 3331SOL    HW121629   1.264   0.234   5.658  1.8382  0.1169  0.4256
 3331SOL    HW221630   1.179   0.355   5.676 -0.4831 -0.0544  1.0871
 3332SOL     OW21631   2.204   3.736   7.253  0.5107 -0.0538 -0.8125
 3332SOL    HW121632   2.287   3.745   7.207 -0.5443  1.0811 -2.4998
 3332SOL    HW221633   2.198   3.640   7.261 -2.2495  0.2004  0.2737
 3333SOL     OW21634   4.467   0.910  12.872 -0.2024 -0.2742 -0.5155
 3333SOL    HW121635   4.395   0.946  12.819 -1.8662 -1.5135  0.9237
 3333SOL    HW221636   4.472   0.818  12.844 -0.8475 -1.1823  2.3605
 3334SOL     OW21637   1.794   0.534   4.944  0.0663  0.3258  0.1382
 3334SOL    HW121638   1.798   0.450   4.990  1.4326  0.0360 -0.5035
 3334SOL    HW221639   1.715   0.525   4.890 -0.1027  0.8273  0.3045
 3335SOL     OW21640   0.391   3.506   8.195  0.3807  0.1956  0.0621
 3335SOL    HW121641   0.358   3.567   8.129 -0.1913 -1.1660 -0.9133
 3335SOL    HW221642   0.483   3.530   8.206  0.9192 -2.1487  0.5395
 3336SOL     OW21643   1.149   1.604   5.576  0.3024 -0.2683 -0.1703
 3336SOL    HW121644   1.088   1.530   5.570  1.1457 -0.9451 -0.3044
 3336SOL    HW221645   1.125   1.658   5.501 -0.6537  0.8983  0.9810
 3337SOL     OW21646   2.445   3.137   7.968  0.9825 -0.1964 -0.6292
 3337SOL    HW121647   2.409   3.138   8.057  1.9994  1.1059 -0.2252
 3337SOL    HW221648   2.373   3.103   7.916 -0.0833 -0.4668  1.0169
 3338SOL     OW21649   4.140   3.313   6.745  0.3611  0.0260 -0.0523
 3338SOL    HW121650   4.158   3.248   6.813 -0.8397 -1.0988 -0.8037
 3338SOL    HW221651   4.129   3.249   6.675 -2.1653  0.7003 -0.2751
 3339SOL     OW21652   1.498   2.703   6.978 -0.5473  0.8128 -0.0173
 3339SOL    HW121653   1.584   2.663   6.970 -0.6927  0.8608 -1.9565
 3339SOL    HW221654   1.489   2.695   7.073  0.2468 -1.5953 -0.1489
 3340SOL     OW21655   3.816   2.261   5.143 -0.0845 -0.0930 -0.4531
 3340SOL    HW121656   3.809   2.185   5.201 -0.9190 -0.8516 -1.5617
 3340SOL    HW221657   3.860   2.327   5.196  0.0661 -0.0109 -0.6819
 3341SOL     OW21658   3.570   2.641   6.241 -0.6450  0.2193  0.0636
 3341SOL    HW121659   3.594   2.558   6.283  1.1907  0.3007 -0.8083
 3341SOL    HW221660   3.656   2.684   6.237  0.5098 -2.1681 -0.7422
 3342SOL     OW21661   2.525   2.930   4.854 -0.2511  0.6640  0.1752
 3342SOL    HW121662   2.601   2.972   4.815  0.5331 -0.5783  0.3632
 3342SOL    HW221663   2.568   2.901   4.934  0.3356  0.2624 -0.2891
 3343SOL     OW21664   0.022   3.983   9.095  0.0726  0.1340 -0.6787
 3343SOL    HW121665   0.011   3.910   9.155  0.7228  1.4045  0.9718
 3343SOL    HW221666   4.700   4.047   9.134 -0.2079  0.6142 -1.8724
 3344SOL     OW21667   2.785   0.244   6.638 -0.3105 -0.4084 -0.4555
 3344SOL    HW121668   2.750   0.194   6.564  0.6140 -2.1853  0.3002
 3344SOL    HW221669   2.798   0.331   6.600 -3.2394  0.7253  1.1947
 3345SOL     OW21670   0.563   1.399   7.948  0.0509 -0.1569 -0.0884
 3345SOL    HW121671   0.621   1.408   8.024  0.2750  0.4988 -0.3362
 3345SOL    HW221672   0.566   1.305   7.933  1.5250  0.0898 -1.3662
 3346SOL     OW21673   3.655   2.010  16.538  0.3937 -0.1419  0.3180
 3346SOL    HW121674   3.596   1.939  16.563 -0.9524  0.4448 -1.1737
 3346SOL    HW221675   3.671   1.996  16.444 -0.8671  1.2741 -0.0996
 3347SOL     OW21676   4.412   2.156   5.552 -0.2179  0.4428  0.1200
 3347SOL    HW121677   4.477   2.184   5.615  1.3733 -1.8097 -0.4920
 3347SOL    HW221678   4.336   2.142   5.608  0.1050 -2.2236 -0.0790
 3348SOL     OW21679   3.389   1.112   8.466  0.3938 -0.0755 -0.0606
 3348SOL    HW121680   3.436   1.186   8.504  1.0889 -0.7839  0.4557
 3348SOL    HW221681   3.462   1.079   8.413 -1.4623  1.1756 -3.4126
 3349SOL     OW21682   3.968   3.307   3.023 -0.3133 -0.1669 -0.2442
 3349SOL    HW121683   4.030   3.236   3.038 -0.4758 -0.5879 -1.5711
 3349SOL    HW221684   4.010   3.353   2.949  1.7524 -0.7290  0.5838
 3350SOL     OW21685   2.400   0.123  13.093  0.1250  0.4221 -0.3040
 3350SOL    HW121686   2.433   0.162  13.174 -1.9469  2.2053 -0.3279
 3350SOL    HW221687   2.451   0.161  13.021  0.3254  0.1230 -0.3181
 3351SOL     OW21688   0.955   1.353   1.531 -0.6762 -0.0227  0.0352
 3351SOL    HW121689   0.935   1.263   1.508 -1.1467  0.3569 -1.0840
 3351SOL    HW221690   0.951   1.348   1.626 -0.2287 -0.3295  0.0402
 3352SOL     OW21691   2.521   3.059   3.935  0.5204  0.4077  0.1662
 3352SOL    HW121692   2.443   3.005   3.928 -0.1542  1.1319  2.1060
 3352SOL    HW221693   2.538   3.088   3.845  0.6387  1.4102  0.5165
 3353SOL     OW21694   2.801   0.074   1.165 -0.3947 -0.2061  0.3489
 3353SOL    HW121695   2.872   0.059   1.228  0.9819  2.3861 -0.5822
 3353SOL    HW221696   2.757   0.154   1.191  0.3501 -0.3161  1.9674
 3354SOL     OW21697   1.274   4.170   4.460 -0.4669  0.2717  0.1072
 3354SOL    HW121698   1.342   4.134   4.402  0.6554 -0.4106  1.8384
 3354SOL    HW221699   1.321   4.202   4.537  0.2705  1.5360 -0.8796
 3355SOL     OW21700   4.381   1.044   6.345  0.0989  0.2753  0.1570
 3355SOL    HW121701   4.410   0.963   6.386 -0.5899  0.8682  1.8265
 3355SOL    HW221702   4.386   1.009   6.256 -0.8334 -1.0529  0.6336
 3356SOL     OW21703   0.303   1.817  15.562 -0.1415 -0.3334 -0.4709
 3356SOL    HW121704   0.359   1.741  15.544  0.2134 -0.8599  2.9319
 3356SOL    HW221705   0.329   1.865  15.484 -1.7471  1.4957  0.1301
 3357SOL     OW21706   3.986   4.450   6.891 -0.5573  0.5308 -0.0699
 3357SOL    HW121707   3.893   4.447   6.866 -0.5256  0.2576 -0.1652
 3357SOL    HW221708   4.006   4.540   6.865  0.7459 -0.1111 -1.3299
 3358SOL     OW21709   0.647   1.340  14.842 -0.0951  0.2285  0.1992
 3358SOL    HW121710   0.689   1.322  14.927 -0.0415 -0.9763 -0.0858
 3358SOL    HW221711   0.716   1.393  14.802 -0.4623 -0.4163 -1.2842
 3359SOL     OW21712   3.033   2.531   4.633  0.7720  0.6535  0.7090
 3359SOL    HW121713   3.027   2.626   4.640 -0.4608  0.4748  2.0712
 3359SOL    HW221714   2.943   2.499   4.631  0.2520  2.0643  1.3882
 3360SOL     OW21715   1.770   3.603  11.815 -0.1682  0.8914 -0.1011
 3360SOL    HW121716   1.728   3.624  11.898  0.1114  0.5980  0.1129
 3360SOL    HW221717   1.857   3.579  11.847  1.1476  1.2708 -3.4211
 3361SOL     OW21718   0.812   2.169   4.117 -0.2890  0.6331 -0.3285
 3361SOL    HW121719   0.841   2.177   4.026  1.3862 -0.8593  0.0760
 3361SOL    HW221720   0.879   2.117   4.162 -1.7880 -2.5894 -1.8124
 3362SOL     OW21721   3.925   2.179  13.891  0.2793  0.0086 -0.4580
 3362SOL    HW121722   3.978   2.187  13.813 -2.2348  2.8874 -1.8690
 3362SOL    HW221723   3.948   2.089  13.916  1.4228  0.7865  1.2576
 3363SOL     OW21724   0.966   2.878   9.192 -0.0469  0.4882  0.2470
 3363SOL    HW121725   0.974   2.785   9.211  1.7673  0.7195  0.5622
 3363SOL    HW221726   0.978   2.929   9.273  1.0937  1.8181 -0.7562
 3364SOL     OW21727   4.344   0.067  13.606 -0.2211 -0.3425 -0.5981
 3364SOL    HW121728   4.301   0.153  13.611  1.3790  0.3670  0.8694
 3364SOL    HW221729   4.403   0.078  13.680 -1.0318  2.7507 -0.3736
 3365SOL     OW21730   0.102   3.714  16.231  0.2131  0.0037  0.2157
 3365SOL    HW121731   0.109   3.761  16.314  2.6148 -0.8487  0.4887
 3365SOL    HW221732   0.035   3.646  16.244  0.1128  0.1260  0.3453
 3366SOL     OW21733   1.528   4.349   7.065  0.0718  0.3380 -0.0406
 3366SOL    HW121734   1.434   4.347   7.078 -0.3172  0.5393 -2.6857
 3366SOL    HW221735   1.524   4.407   6.988 -0.3905  0.2585 -0.0763
 3367SOL     OW21736   0.108   1.259   8.497  0.2289  0.0734  0.2368
 3367SOL    HW121737   0.014   1.249   8.507  0.2146 -0.8610 -0.8392
 3367SOL    HW221738   0.114   1.354   8.488  1.1149 -0.2564 -2.8605
 3368SOL     OW21739   2.166   1.094   6.137  0.0856 -0.1465 -0.4106
 3368SOL    HW121740   2.234   1.028   6.120  0.6706  0.1131  0.9555
 3368SOL    HW221741   2.217   1.162   6.180 -3.0424  1.6923  0.2997
 3369SOL     OW21742   0.788   4.729   2.879 -0.6835 -0.2820  0.2485
 3369SOL    HW121743   0.725   4.708   2.948  0.0767  0.1845  1.0891
 3369SOL    HW221744   0.730   0.008   2.804  0.7824 -2.6762 -1.3963
 3370SOL     OW21745   1.270   2.878   3.901  0.1779 -0.5217 -0.5298
 3370SOL    HW121746   1.333   2.899   3.832 -0.2487  2.5462  0.0415
 3370SOL    HW221747   1.304   2.789   3.912 -1.1216 -0.9030  0.4728
 3371SOL     OW21748   3.431   0.508  14.197 -0.2061  0.0594  0.2096
 3371SOL    HW121749   3.473   0.423  14.180 -1.9265 -0.9471  0.9588
 3371SOL    HW221750   3.339   0.488  14.179 -0.4657  4.0649 -2.7751
 3372SOL     OW21751   3.175   3.453  11.149  0.3641 -0.5750 -0.6215
 3372SOL    HW121752   3.202   3.381  11.206  0.0516  0.9423  1.4303
 3372SOL    HW221753   3.254   3.492  11.111  1.1918 -0.7183  0.9408
 3373SOL     OW21754   3.980   4.690   8.823  0.2894  0.3041  0.0895
 3373SOL    HW121755   3.972   4.609   8.773 -0.6488 -0.6762  1.8197
 3373SOL    HW221756   3.942   4.659   8.905 -1.0911  0.9090 -0.3161
 3374SOL     OW21757   1.374   0.406   3.786  0.3383 -0.2981 -0.6472
 3374SOL    HW121758   1.349   0.458   3.710 -0.2663  0.1855 -0.1227
 3374SOL    HW221759   1.290   0.367   3.812 -0.5575  2.4604  0.5619
 3375SOL     OW21760   1.082   3.679  17.184  0.7493 -0.2108  0.1438
 3375SOL    HW121761   1.076   3.585  17.165 -1.6315 -0.4979  2.3839
 3375SOL    HW221762   1.011   3.689  17.247  0.5636  1.6667 -0.3722
 3376SOL     OW21763   0.565   0.511   2.553 -0.5539 -0.5840 -0.0549
 3376SOL    HW121764   0.529   0.589   2.595 -0.4989 -0.3732 -0.3925
 3376SOL    HW221765   0.619   0.484   2.627 -3.2563  0.6125  2.3227
 3377SOL     OW21766   3.518   1.821   3.177 -0.1420 -0.3509  0.5689
 3377SOL    HW121767   3.442   1.775   3.213 -1.0809  1.9027  1.4780
 3377SOL    HW221768   3.476   1.905   3.197  1.7317  0.6553  0.2576
 3378SOL     OW21769   2.174   2.222   1.693  0.4020  0.1345 -0.0348
 3378SOL    HW121770   2.221   2.146   1.727 -0.4385  0.2290  1.3308
 3378SOL    HW221771   2.242   2.289   1.698  1.4291 -0.9534  0.5755
 3379SOL     OW21772   2.903   2.840   6.478 -0.1048 -0.1909 -0.0469
 3379SOL    HW121773   2.980   2.839   6.535  0.2552 -0.8307 -0.5403
 3379SOL    HW221774   2.892   2.931   6.449 -0.5715 -0.1647  0.2087
 3380SOL     OW21775   4.521   3.161   4.241  0.3061  0.2370 -0.1699
 3380SOL    HW121776   4.557   3.072   4.240  1.2075  0.6175 -1.0341
 3380SOL    HW221777   4.499   3.166   4.148 -3.5401 -0.9124  0.6691
 3381SOL     OW21778   2.203   3.932   6.696  0.4944 -0.4824 -0.0999
 3381SOL    HW121779   2.255   3.945   6.775 -1.0343  1.0829  0.6464
 3381SOL    HW221780   2.215   3.840   6.672 -1.0330 -0.9925  1.1096
 3382SOL     OW21781   2.926   0.464   8.753 -0.2440 -0.2668 -0.1574
 3382SOL    HW121782   2.901   0.372   8.761 -2.3233  0.1101 -2.2758
 3382SOL    HW221783   3.021   0.454   8.754 -0.4274 -2.2107 -0.6945
 3383SOL     OW21784   1.530   3.654   6.024 -0.4065  0.0316 -0.6147
 3383SOL    HW121785   1.436   3.650   6.039 -0.5914  0.0001 -1.7604
 3383SOL    HW221786   1.566   3.667   6.111  2.8978 -0.9276 -1.8156
 3384SOL     OW21787   1.678   0.135   4.414 -0.0232 -0.1073  0.3000
 3384SOL    HW121788   1.593   0.178   4.407  0.4373  0.2520 -2.9387
 3384SOL    HW221789   1.688   0.099   4.326 -0.2568 -0.3083  0.3526
 3385SOL     OW21790   1.859   1.449   7.801 -0.7189  0.0620 -0.3247
 3385SOL    HW121791   1.894   1.375   7.852 -0.7252 -0.8674 -1.6638
 3385SOL    HW221792   1.920   1.516   7.830  1.7211 -1.7001 -1.3976
 3386SOL     OW21793   0.130   3.640  10.851 -0.3379 -0.1981 -0.0946
 3386SOL    HW121794   0.190   3.710  10.877 -1.5816  0.2272  1.6603
 3386SOL    HW221795   0.190   3.569  10.828 -2.4559 -2.8414  2.4693
 3387SOL     OW21796   3.256   2.472  14.647  0.1246 -0.1151 -0.3803
 3387SOL    HW121797   3.218   2.410  14.710 -2.3682  1.3107 -0.4742
 3387SOL    HW221798   3.345   2.494  14.674  0.0865 -1.0962  0.5525
 3388SOL     OW21799   3.656   3.017   9.574  0.4609  0.0351 -0.3976
 3388SOL    HW121800   3.571   3.055   9.599 -1.1240 -1.9038 -2.8416
 3388SOL    HW221801   3.657   2.927   9.606  0.4022 -0.2866 -1.3043
 3389SOL     OW21802   3.085   4.514   4.981  0.0628 -0.2024 -0.1725
 3389SOL    HW121803   3.157   4.492   4.922 -0.0066  0.2188 -0.4127
 3389SOL    HW221804   3.073   4.606   4.959  1.3531 -0.1306 -0.5589
 3390SOL     OW21805   3.378   1.670   5.274 -0.0876 -0.4091 -0.2405
 3390SOL    HW121806   3.313   1.601   5.290 -0.7554  0.8398  2.3977
 3390SOL    HW221807   3.389   1.667   5.179 -0.8118 -1.3732 -0.3029
 3391SOL     OW21808   3.079   4.681  11.731 -0.4498  0.8108  0.2855
 3391SOL    HW121809   3.054   4.611  11.792  1.3738  0.4332  0.5962
 3391SOL    HW221810   3.059   4.641  11.647  3.3795 -0.0005 -0.2422
 3392SOL     OW21811   2.313   4.119   1.562  0.0372 -0.2042  0.3759
 3392SOL    HW121812   2.299   4.099   1.655 -2.1802  1.1087  0.3182
 3392SOL    HW221813   2.311   4.033   1.520  0.1768  2.3971 -4.8318
 3393SOL     OW21814   4.164   3.168   6.988  0.2137  0.1451 -0.5538
 3393SOL    HW121815   4.230   3.117   6.942 -0.3878 -0.0474 -1.2100
 3393SOL    HW221816   4.190   3.173   7.080 -2.2691  2.8179 -0.0172
 3394SOL     OW21817   3.294   0.075   6.777 -0.6315 -0.6541 -0.2006
 3394SOL    HW121818   3.284   0.016   6.852  0.7843 -1.2503 -0.4859
 3394SOL    HW221819   3.352   0.146   6.805  0.4737 -0.5269 -2.8702
 3395SOL     OW21820   0.698   3.587   6.416  0.0351 -0.6819 -0.3086
 3395SOL    HW121821   0.612   3.546   6.412  0.7192 -2.1357 -0.0956
 3395SOL    HW221822   0.759   3.515   6.401 -0.4530 -1.0217 -0.6688
 3396SOL     OW21823   1.368   1.485  16.609  0.1319 -0.2847 -0.1954
 3396SOL    HW121824   1.452   1.491  16.564 -0.0315 -4.1612 -0.9878
 3396SOL    HW221825   1.319   1.450  16.535 -2.6865  1.4735  0.8149
 3397SOL     OW21826   2.945   0.960   6.335 -0.2731 -0.4929  0.2646
 3397SOL    HW121827   2.897   1.041   6.321 -0.8650 -0.5890  1.7690
 3397SOL    HW221828   2.980   0.942   6.248  2.3378  0.4077  1.1303
 3398SOL     OW21829   4.132   4.715   8.614 -0.0468  0.0690  0.0348
 3398SOL    HW121830   4.103   4.705   8.704 -1.5485  0.1649 -0.4394
 3398SOL    HW221831   4.051   0.010   8.574 -1.0805 -0.6510  1.5772
 3399SOL     OW21832   4.190   1.878   0.424 -0.6473 -0.1182 -0.0427
 3399SOL    HW121833   4.194   1.958   0.372  0.8417 -0.3521 -0.2712
 3399SOL    HW221834   4.115   1.896   0.482  0.4807 -1.2476  1.7667
 3400SOL     OW21835   0.583   3.884   5.858 -0.0425  0.6192 -0.2888
 3400SOL    HW121836   0.561   3.876   5.951 -1.4954 -0.0550 -0.6871
 3400SOL    HW221837   0.649   3.817   5.840  0.6931  1.5358 -1.0186
 3401SOL     OW21838   1.824   2.843   8.872  0.3071  0.3245  0.2843
 3401SOL    HW121839   1.866   2.768   8.912 -1.3358 -1.2370 -0.9403
 3401SOL    HW221840   1.866   2.912   8.923  1.5002  0.6786 -1.1748
 3402SOL     OW21841   0.158   2.638  15.380  0.1633 -0.0713 -0.1052
 3402SOL    HW121842   0.075   2.599  15.408  1.0347 -1.8509  0.0392
 3402SOL    HW221843   0.217   2.562  15.375  1.8668  1.1938  0.6727
 3403SOL     OW21844   0.708   4.444  15.605 -0.1227 -0.2999  0.1763
 3403SOL    HW121845   0.748   4.530  15.618  0.0543 -0.7644  2.8095
 3403SOL    HW221846   0.621   4.455  15.644 -1.3005 -4.6383 -1.2537
 3404SOL     OW21847   3.206   2.572   4.344  0.8118  0.0773 -0.0546
 3404SOL    HW121848   3.286   2.524   4.365 -0.3774 -1.2400  1.4810
 3404SOL    HW221849   3.172   2.564   4.433  1.7949 -1.0397  0.2221
 3405SOL     OW21850   2.976   1.804  11.643 -0.3358 -0.1255 -0.4832
 3405SOL    HW121851   3.000   1.895  11.659 -0.9884  0.2968 -1.8756
 3405SOL    HW221852   3.007   1.790  11.553  0.5798 -1.1964  0.0000
 3406SOL     OW21853   2.994   0.026   0.848  0.4184 -0.4420 -0.3960
 3406SOL    HW121854   3.033   4.707   0.916  0.9053 -0.5683 -0.7814
 3406SOL    HW221855   3.068   0.081   0.822 -0.4721  0.6863 -0.5214
 3407SOL     OW21856   0.847   3.496   7.420  0.2246  0.0172 -0.5538
 3407SOL    HW121857   0.834   3.461   7.508 -3.1142  0.6914 -0.8016
 3407SOL    HW221858   0.942   3.505   7.412  0.3801 -1.1137 -0.0666
 3408SOL     OW21859   2.166   1.802  17.079  0.1293  0.3033  0.2987
 3408SOL    HW121860   2.165   1.898  17.088 -0.3151  0.4393 -1.1880
 3408SOL    HW221861   2.249   1.789  17.033  0.3250  2.9793 -0.1041
 3409SOL     OW21862   0.355   1.863   2.395  0.3207 -0.3780 -0.0494
 3409SOL    HW121863   0.366   1.792   2.458  3.2407  1.1006  1.0829
 3409SOL    HW221864   0.259   1.870   2.397  0.4327  1.2486  0.2168
 3410SOL     OW21865   3.895   3.176   7.883  0.3708 -0.1426  0.3189
 3410SOL    HW121866   3.904   3.236   7.809  0.6244 -0.9329 -0.2964
 3410SOL    HW221867   3.944   3.098   7.855 -0.0751 -0.8654  1.5354
 3411SOL     OW21868   4.063   3.394   4.272  0.0395  0.1534 -0.3057
 3411SOL    HW121869   4.099   3.307   4.256 -0.0671 -0.3703  2.4344
 3411SOL    HW221870   4.113   3.429   4.198 -1.2682  1.3298 -0.6452
 3412SOL     OW21871   3.490   1.373   8.158 -0.1092 -0.1906 -0.1741
 3412SOL    HW121872   3.583   1.359   8.175 -0.0264  0.8445  0.1757
 3412SOL    HW221873   3.495   1.467   8.140 -2.2040  0.0338  0.4432
 3413SOL     OW21874   0.124   4.518   6.915 -0.3041  0.1042  0.3546
 3413SOL    HW121875   0.063   4.460   6.869  1.6083 -1.7763  0.2405
 3413SOL    HW221876   0.175   4.559   6.845  1.0929  0.3303  1.5051
 3414SOL     OW21877   2.549   4.202   4.212 -0.5403  0.1015 -0.5757
 3414SOL    HW121878   2.543   4.294   4.237 -0.5454 -0.0809  0.0940
 3414SOL    HW221879   2.555   4.203   4.117  1.8966  0.9782 -0.4054
 3415SOL     OW21880   2.537   0.546   3.800  0.2577  0.2443 -1.1153
 3415SOL    HW121881   2.501   0.622   3.846 -0.6991 -1.2480  0.6032
 3415SOL    HW221882   2.483   0.470   3.819  1.8867 -0.5535  0.3231
 3416SOL     OW21883   2.933   1.622   3.808  0.1885 -0.7687 -0.2044
 3416SOL    HW121884   2.898   1.700   3.851  0.7838 -0.6482  0.0650
 3416SOL    HW221885   3.013   1.612   3.859 -1.2739 -1.4350  1.9408
 3417SOL     OW21886   4.154   3.999   5.254  0.2747  0.0693  0.2908
 3417SOL    HW121887   4.157   4.093   5.235 -1.2283 -0.1648 -1.1011
 3417SOL    HW221888   4.227   3.956   5.209  1.1174 -0.2826  1.9938
 3418SOL     OW21889   1.594   3.309   4.998 -0.0401  0.1975  0.6283
 3418SOL    HW121890   1.572   3.399   4.976 -0.3094 -0.6931 -2.7700
 3418SOL    HW221891   1.688   3.300   4.983  0.3668  2.8376  1.6793
 3419SOL     OW21892   2.062   3.066   4.907 -0.0900 -0.3004 -0.1718
 3419SOL    HW121893   2.135   3.040   4.851  1.2039  2.7645  0.1353
 3419SOL    HW221894   2.077   3.011   4.984  1.4802 -0.1271 -0.3636
 3420SOL     OW21895   1.715   2.581  13.324 -0.3569  0.6412 -0.3772
 3420SOL    HW121896   1.669   2.502  13.352 -1.1873  2.1326  2.4650
 3420SOL    HW221897   1.728   2.569  13.230  2.1873 -0.1791  0.0840
 3421SOL     OW21898   0.415   2.331  11.916 -0.4183  0.3573  0.5463
 3421SOL    HW121899   0.434   2.262  11.853 -2.9008 -0.9385  1.2309
 3421SOL    HW221900   0.391   2.403  11.856 -0.4597 -1.1567 -1.2549
 3422SOL     OW21901   4.212   3.719  13.532 -0.5997 -0.7269  0.0212
 3422SOL    HW121902   4.121   3.747  13.544 -0.6866 -1.7034  1.5372
 3422SOL    HW221903   4.244   3.805  13.503 -2.5748  0.2440  0.6782
 3423SOL     OW21904   1.323   2.386   3.798 -0.2746 -0.4544 -0.2163
 3423SOL    HW121905   1.376   2.391   3.718  0.3325  0.3887  0.2377
 3423SOL    HW221906   1.240   2.398   3.753 -0.4067 -1.6976 -0.2799
 3424SOL     OW21907   0.533   0.031   7.162 -0.1157 -0.0754 -0.4159
 3424SOL    HW121908   0.621   0.065   7.175  0.4910 -1.3541 -1.1843
 3424SOL    HW221909   0.486   0.067   7.237  1.0768  3.0711 -1.2053
 3425SOL     OW21910   0.983   1.409   2.622 -0.0419 -0.3090  0.1751
 3425SOL    HW121911   1.011   1.389   2.532 -1.5827 -2.5119  0.1936
 3425SOL    HW221912   1.068   1.437   2.658  0.5855  1.0678 -2.3511
 3426SOL     OW21913   3.886   3.968   1.942 -0.2735 -0.7444 -0.4381
 3426SOL    HW121914   3.969   4.009   1.920 -1.6046  2.4214  0.4129
 3426SOL    HW221915   3.900   3.943   2.034  1.6130  2.8396  0.2502
 3427SOL     OW21916   4.182   3.656   2.342  0.0086 -0.4656 -0.2908
 3427SOL    HW121917   4.118   3.586   2.356 -0.8822  0.0491 -1.7514
 3427SOL    HW221918   4.185   3.641   2.247 -0.1912  1.5046 -0.6102
 3428SOL     OW21919   2.346   1.993  14.342 -0.0451 -0.0770  0.6683
 3428SOL    HW121920   2.262   2.028  14.369  0.2678  1.4402 -0.2956
 3428SOL    HW221921   2.336   1.969  14.250  2.2887 -2.6213  1.0868
 3429SOL     OW21922   0.995   0.995   6.404 -0.9597 -0.2037 -0.1768
 3429SOL    HW121923   0.996   1.033   6.491  1.2277 -0.0244 -0.2757
 3429SOL    HW221924   1.080   0.953   6.391 -0.9466 -0.1339 -0.3170
 3430SOL     OW21925   1.359   1.189  14.129  0.0906  0.0235 -0.6825
 3430SOL    HW121926   1.360   1.106  14.178  0.3175 -0.1628 -1.0084
 3430SOL    HW221927   1.443   1.193  14.084 -0.1023  1.8730 -0.8797
 3431SOL     OW21928   0.266   3.195   0.757  0.2807 -0.6075  0.3791
 3431SOL    HW121929   0.200   3.155   0.814  0.0156  0.1112  0.5812
 3431SOL    HW221930   0.212   3.223   0.683 -0.0249  0.9039  1.1786
 3432SOL     OW21931   0.999   1.117   4.441 -0.3106  0.0680  0.2410
 3432SOL    HW121932   0.997   1.211   4.455 -1.5919  0.4117 -2.1743
 3432SOL    HW221933   0.991   1.123   4.346 -0.9366  1.4833  0.3820
 3433SOL     OW21934   3.528   4.243  10.108  0.4099 -0.3273 -0.0768
 3433SOL    HW121935   3.552   4.332  10.082 -1.3227 -0.5276 -2.3118
 3433SOL    HW221936   3.509   4.252  10.201 -1.7085  0.5547 -0.5987
 3434SOL     OW21937   0.459   3.517   7.186  0.4143 -0.4586 -0.2236
 3434SOL    HW121938   0.503   3.433   7.185 -0.2010 -0.7980  0.4617
 3434SOL    HW221939   0.517   3.575   7.236  0.3216 -0.3239 -0.2723
 3435SOL     OW21940   3.935   1.060  14.693  0.9949  0.6744 -0.3576
 3435SOL    HW121941   3.963   1.144  14.658 -0.5161  0.6904 -1.4820
 3435SOL    HW221942   3.964   1.011  14.616  1.3415  2.3159 -1.2581
 3436SOL     OW21943   3.290   4.366   4.145 -0.3372 -0.1659  0.4140
 3436SOL    HW121944   3.345   4.440   4.170  0.5348  0.2808 -2.8371
 3436SOL    HW221945   3.225   4.356   4.214  0.0128 -2.8172  0.3770
 3437SOL     OW21946   0.330   1.924   7.447 -0.2743 -0.2439  0.0884
 3437SOL    HW121947   0.344   1.934   7.541  0.7330  2.4064 -0.3292
 3437SOL    HW221948   0.277   2.002   7.428 -1.6728 -1.0775  0.6060
 3438SOL     OW21949   1.922   4.043  12.126 -0.5540 -0.3628 -0.5996
 3438SOL    HW121950   1.867   4.115  12.095  0.4682 -0.0770 -1.7329
 3438SOL    HW221951   1.859   3.995  12.181 -1.9896  0.5944 -1.4212
 3439SOL     OW21952   4.294   2.359   5.820  0.0683  0.2268 -0.2707
 3439SOL    HW121953   4.331   2.399   5.741 -0.4603 -2.0702 -1.6846
 3439SOL    HW221954   4.208   2.325   5.793  0.5133  1.6627 -3.4788
 3440SOL     OW21955   4.731   4.322   7.584 -0.0657  0.3435 -0.1017
 3440SOL    HW121956   0.045   4.313   7.503 -1.7736 -0.9377 -1.0165
 3440SOL    HW221957   4.660   4.261   7.564 -0.5535  0.3787  1.5533
 3441SOL     OW21958   3.924   0.567  15.740 -0.4204 -0.0799 -0.3252
 3441SOL    HW121959   3.952   0.638  15.682  1.7417 -2.1681 -1.8329
 3441SOL    HW221960   3.832   0.571  15.716 -0.4515 -0.5829 -0.2926
 3442SOL     OW21961   1.048   4.688  16.824  0.0625 -0.0311 -0.1958
 3442SOL    HW121962   1.130   4.705  16.869  0.3214  0.8062 -0.9923
 3442SOL    HW221963   1.065   4.596  16.802 -0.7431 -0.3556  0.5012
 3443SOL     OW21964   2.945   4.548  10.366  0.0556  0.2946  0.3218
 3443SOL    HW121965   3.029   4.507  10.346 -0.5162 -1.7348  2.1131
 3443SOL    HW221966   2.937   4.628  10.313 -0.3807 -0.8576 -1.3612
 3444SOL     OW21967   4.643   1.273  12.010 -0.5789  0.6147  0.4730
 3444SOL    HW121968   4.681   1.260  12.097  1.6901  1.2178 -0.4110
 3444SOL    HW221969   4.645   1.185  11.973 -1.1124 -0.7398  3.6831
 3445SOL     OW21970   1.650   2.324  16.061  0.0144 -0.0987  0.9075
 3445SOL    HW121971   1.705   2.376  16.002 -1.5415  1.6765  1.0499
 3445SOL    HW221972   1.722   2.280  16.106  0.2253  0.5015  1.1572
 3446SOL     OW21973   2.072   0.884   2.677  0.2090 -0.2812  0.5631
 3446SOL    HW121974   2.074   0.800   2.723 -3.1117 -0.6313  0.1038
 3446SOL    HW221975   2.085   0.856   2.586  1.4250 -0.9399  0.9479
 3447SOL     OW21976   1.748   3.999   7.780 -0.5517 -0.2996  0.2156
 3447SOL    HW121977   1.685   4.006   7.709  0.1896  1.0451 -0.3013
 3447SOL    HW221978   1.687   3.999   7.854 -0.0019  1.2434  0.6730
 3448SOL     OW21979   3.181   2.880   4.934  0.1519 -0.1486 -0.2669
 3448SOL    HW121980   3.243   2.947   4.904 -1.4601 -0.1812 -3.6790
 3448SOL    HW221981   3.232   2.843   5.006 -0.4116 -0.2913  0.0531
 3449SOL     OW21982   2.419   2.052  12.608 -0.0345 -0.6556  0.3323
 3449SOL    HW121983   2.452   2.130  12.564 -0.3972 -0.1881  0.8952
 3449SOL    HW221984   2.441   2.076  12.698 -1.8423  2.2096  0.0102
 3450SOL     OW21985   4.562   0.776  17.476  0.3577 -0.6484  0.0221
 3450SOL    HW121986   4.535   0.719  17.404 -0.1589  0.7724 -0.9148
 3450SOL    HW221987   4.613   0.713  17.526  1.7199 -1.2488 -2.1159
 3451SOL     OW21988   1.723   1.126   8.838 -0.2810  0.3920  0.1494
 3451SOL    HW121989   1.650   1.116   8.778 -1.2995  1.1432  1.2612
 3451SOL    HW221990   1.790   1.163   8.780  0.6331 -3.1524 -1.0708
 3452SOL     OW21991   3.587   0.286   8.237 -0.3873  0.1899 -0.6650
 3452SOL    HW121992   3.668   0.321   8.200 -0.0938 -0.1530 -0.3529
 3452SOL    HW221993   3.515   0.308   8.179 -1.1748  1.5872  0.8485
 3453SOL     OW21994   1.666   4.437  10.250  0.1408  0.4297  0.6435
 3453SOL    HW121995   1.707   4.355  10.224 -1.0718 -0.1011  0.4555
 3453SOL    HW221996   1.678   4.440  10.345  0.6488  3.1562  0.5022
 3454SOL     OW21997   0.484   0.843   1.483  0.3135 -0.0145 -0.0512
 3454SOL    HW121998   0.396   0.806   1.487  0.7699 -1.2396 -1.5506
 3454SOL    HW221999   0.517   0.796   1.560  2.4343 -1.7721 -2.0587
 3455SOL     OW22000   0.254   1.452   2.585  0.8895  0.0880  0.1008
 3455SOL    HW122001   0.334   1.413   2.620  1.0327 -0.5662 -0.9526
 3455SOL    HW222002   0.223   1.502   2.660 -0.5757 -2.4431  1.1898
 3456SOL     OW22003   2.432   3.116  17.525 -0.1671 -0.0701  0.3259
 3456SOL    HW122004   2.340   3.134  17.505  0.1271  0.0432 -0.9291
 3456SOL    HW222005   2.418   3.039  17.580 -0.6665 -0.2562 -0.0690
 3457SOL     OW22006   2.894   4.323   3.933 -1.1353 -0.3611  0.0844
 3457SOL    HW122007   2.906   4.305   3.840  1.7626 -0.1378  0.4198
 3457SOL    HW222008   2.867   4.415   3.934 -0.2871 -0.1019 -1.4016
 3458SOL     OW22009   0.297   2.095   5.033 -0.4395 -0.5362  0.0224
 3458SOL    HW122010   0.352   2.043   5.092 -1.3726 -1.5310  0.0287
 3458SOL    HW222011   0.221   2.124   5.082  0.9708  1.6074  0.9114
 3459SOL     OW22012   3.831   2.551   0.032 -0.1147 -0.0939 -0.1206
 3459SOL    HW122013   3.828   2.551   0.127 -0.4023 -0.2630 -0.1296
 3459SOL    HW222014   3.787   2.636   0.022 -0.6547 -0.6795 -2.9461
 3460SOL     OW22015   4.391   0.051   9.745 -0.2184  0.1938  0.0352
 3460SOL    HW122016   4.470   0.105   9.732  0.5072 -0.4671  1.6498
 3460SOL    HW222017   4.384   4.734   9.666  1.1361  0.8649 -0.5526
 3461SOL     OW22018   3.572   3.010   5.861  0.0495 -0.0665  0.7583
 3461SOL    HW122019   3.500   3.072   5.868  0.7144  0.7074  0.6936
 3461SOL    HW222020   3.642   3.065   5.894  1.3315 -1.5660  0.5081
 3462SOL     OW22021   2.589   1.780  10.787  0.2834 -0.3580 -0.1460
 3462SOL    HW122022   2.550   1.758  10.872  0.9128 -2.5737 -0.4069
 3462SOL    HW222023   2.550   1.866  10.773  1.0713 -0.0353 -0.3598
 3463SOL     OW22024   2.604   3.838   8.061  0.7410 -0.3891 -0.1717
 3463SOL    HW122025   2.512   3.864   8.073  1.3512  1.9574 -0.6349
 3463SOL    HW222026   2.605   3.764   8.001 -0.1214  0.6047 -1.4027
 3464SOL     OW22027   1.523   4.191   1.367 -0.5128  0.6735  0.1951
 3464SOL    HW122028   1.545   4.282   1.347 -0.3163  0.7174  0.6037
 3464SOL    HW222029   1.604   4.144   1.386 -0.5293  1.1235  1.3688
 3465SOL     OW22030   2.002   3.343   6.814 -0.4241  0.6301  0.0155
 3465SOL    HW122031   2.073   3.279   6.806  0.2158  1.6842 -2.5927
 3465SOL    HW222032   2.052   3.423   6.803  1.6973 -0.8018 -0.8699
 3466SOL     OW22033   2.008   3.928   9.442  0.0832 -0.0171 -0.2003
 3466SOL    HW122034   1.927   3.891   9.407  0.4792 -1.7720  0.7356
 3466SOL    HW222035   2.001   3.916   9.537 -0.5238 -0.2815 -0.2806
 3467SOL     OW22036   2.605   0.819   2.415 -0.1826  0.4030 -0.0741
 3467SOL    HW122037   2.611   0.914   2.405 -0.8538  0.3045 -1.4187
 3467SOL    HW222038   2.623   0.792   2.325  0.4626 -1.1704  0.5145
 3468SOL     OW22039   0.275   2.286   6.287 -0.2751 -0.3754  0.3848
 3468SOL    HW122040   0.199   2.228   6.299  0.6575 -2.3298 -2.9896
 3468SOL    HW222041   0.231   2.370   6.290  0.7688  0.1671  0.4256
 3469SOL     OW22042   3.638   1.617   6.972 -0.6947  0.0944  0.3121
 3469SOL    HW122043   3.714   1.665   6.938 -0.9316  1.3166  1.5000
 3469SOL    HW222044   3.568   1.682   6.979  1.3334  2.3168 -0.0239
 3470SOL     OW22045   4.331   0.553   6.073  0.0807 -0.3255 -0.4738
 3470SOL    HW122046   4.411   0.545   6.124 -0.3054 -1.2032 -0.0030
 3470SOL    HW222047   4.357   0.620   6.009 -1.4629  0.4984 -0.2467
 3471SOL     OW22048   1.481   0.901   3.548 -0.1075 -0.3311 -0.5383
 3471SOL    HW122049   1.501   0.975   3.606 -1.7413  0.5301 -1.0744
 3471SOL    HW222050   1.385   0.905   3.551  0.0265  2.9299 -0.6425
 3472SOL     OW22051   3.507   1.998   3.799 -0.7469  0.0591  0.1671
 3472SOL    HW122052   3.443   2.022   3.866  0.3900 -0.5824  1.4629
 3472SOL    HW222053   3.586   1.976   3.848  0.0094  2.9115  0.2208
 3473SOL     OW22054   1.155   1.208   0.682 -0.1515 -0.2095 -0.2036
 3473SOL    HW122055   1.074   1.247   0.651 -0.2272 -1.5208 -1.6604
 3473SOL    HW222056   1.225   1.245   0.628 -0.6037  0.2264 -0.4827
 3474SOL     OW22057   4.604   2.947   4.911  0.7225 -0.0959  0.3332
 3474SOL    HW122058   4.694   2.939   4.940  1.6131 -2.4368 -3.0734
 3474SOL    HW222059   4.566   2.909   4.989 -1.8358  1.0648 -0.3227
 3475SOL     OW22060   2.959   4.246   3.697 -0.1305 -0.4656  0.4638
 3475SOL    HW122061   2.914   4.241   3.613 -0.8272  0.0623  0.8122
 3475SOL    HW222062   3.051   4.230   3.672 -0.1248  0.0757  0.1407
 3476SOL     OW22063   3.009   0.657  15.048  0.0556  0.1464 -0.1369
 3476SOL    HW122064   2.943   0.717  15.013 -0.6220  0.0349  0.9457
 3476SOL    HW222065   3.008   0.589  14.981  1.0002  0.8389 -0.8693
 3477SOL     OW22066   4.418   1.670   2.156  0.0836  0.5142 -0.0293
 3477SOL    HW122067   4.359   1.597   2.137  0.8955 -0.3882  0.9543
 3477SOL    HW222068   4.353   1.741   2.153 -0.2068  0.3174  1.6510
 3478SOL     OW22069   2.497   3.111   5.085  0.2907 -0.0783 -0.2796
 3478SOL    HW122070   2.403   3.129   5.086  0.6076  1.5916 -0.9383
 3478SOL    HW222071   2.499   3.037   5.146 -2.2587  0.8026  0.8686
 3479SOL     OW22072   2.143   2.353   6.472  0.3949  0.7757  0.3978
 3479SOL    HW122073   2.094   2.404   6.536 -0.0991  1.5009 -0.5592
 3479SOL    HW222074   2.076   2.290   6.446 -0.4538  1.1892  1.5707
 3480SOL     OW22075   1.776   2.629   8.315  0.0275 -0.3903 -0.1827
 3480SOL    HW122076   1.789   2.681   8.394  4.2014 -2.3436  0.3750
 3480SOL    HW222077   1.860   2.626   8.270 -0.1468  0.7052 -0.5878
 3481SOL     OW22078   4.642   0.175   9.699  0.5382  0.6655 -0.0417
 3481SOL    HW122079   4.680   0.250   9.653  0.1626  1.0923  0.3423
 3481SOL    HW222080   4.681   0.189   9.785  0.9199  3.1811 -0.6207
 3482SOL     OW22081   2.536   3.898   2.678  0.4657  0.3959 -0.7391
 3482SOL    HW122082   2.596   3.925   2.747 -2.1196  1.8654  0.9349
 3482SOL    HW222083   2.453   3.934   2.709  1.1221  1.1301  0.1367
 3483SOL     OW22084   3.713   4.556  13.100  0.7333 -0.1700  0.9869
 3483SOL    HW122085   3.634   4.569  13.152 -1.3898 -1.9847 -1.7486
 3483SOL    HW222086   3.703   4.466  13.068 -0.4237 -1.2342  4.3167
 3484SOL     OW22087   2.207   3.011   6.020  0.0480  0.0442 -0.0373
 3484SOL    HW122088   2.277   3.072   5.993 -0.0394  0.2923  0.2995
 3484SOL    HW222089   2.186   2.973   5.935  2.4033 -1.9610  0.2822
 3485SOL     OW22090   1.474   2.027  17.227  0.0409  0.7571 -0.0347
 3485SOL    HW122091   1.389   2.052  17.192 -0.3045 -2.2103 -1.3394
 3485SOL    HW222092   1.437   1.978  17.300  1.2248  1.0971  0.8000
 3486SOL     OW22093   4.339   2.912   4.424 -0.5892  0.0923  0.4118
 3486SOL    HW122094   4.377   2.923   4.511 -0.1431  0.9209  0.1056
 3486SOL    HW222095   4.417   2.925   4.370 -0.3139 -3.2934 -0.0014
 3487SOL     OW22096   2.789   2.384  14.760 -0.3526  0.1628  0.6105
 3487SOL    HW122097   2.728   2.450  14.794  0.6142  1.4720 -0.2121
 3487SOL    HW222098   2.839   2.431  14.694  0.9665  1.5948  2.6298
 3488SOL     OW22099   1.595   2.338   8.740  0.1368 -0.7871 -0.3617
 3488SOL    HW122100   1.541   2.354   8.663  0.3104 -0.6529 -0.4566
 3488SOL    HW222101   1.655   2.413   8.736  0.3137 -1.0757 -3.4361
 3489SOL     OW22102   2.255   1.667   6.078  0.2635  0.2961 -0.2554
 3489SOL    HW122103   2.320   1.656   6.148  2.2045 -0.7712 -2.2180
 3489SOL    HW222104   2.295   1.746   6.042  3.0036 -0.5881  0.8143
 3490SOL     OW22105   2.207   0.338   3.627  0.0741  0.1541 -0.3189
 3490SOL    HW122106   2.227   0.278   3.699  3.2732  1.3020 -0.2614
 3490SOL    HW222107   2.152   0.402   3.674  0.6481  0.1582  0.3537
 3491SOL     OW22108   0.780   4.645  14.969 -0.0119 -0.0480 -0.9647
 3491SOL    HW122109   0.736   4.686  15.044  1.1116  0.6436 -0.6826
 3491SOL    HW222110   0.718   4.589  14.922  0.1609  1.0844 -2.5802
 3492SOL     OW22111   3.186   4.350  10.564  0.0314 -0.2880  0.5394
 3492SOL    HW122112   3.146   4.277  10.612 -0.8811 -0.0944  0.0773
 3492SOL    HW222113   3.271   4.348  10.607  0.4103 -0.7194 -0.2333
 3493SOL     OW22114   2.535   1.942   1.979 -0.1624  0.1136  0.5900
 3493SOL    HW122115   2.504   1.961   2.067 -0.7783  0.2861  0.3357
 3493SOL    HW222116   2.474   1.978   1.914  0.6029  1.8527  0.8062
 3494SOL     OW22117   3.428   4.314   8.392 -0.3355 -0.5270 -0.7482
 3494SOL    HW122118   3.375   4.286   8.467  1.3796  0.3301  0.7783
 3494SOL    HW222119   3.466   4.231   8.364  2.0639 -0.1239  1.2954
 3495SOL     OW22120   2.402   2.313  11.583 -0.4231 -0.0603 -0.6310
 3495SOL    HW122121   2.353   2.269  11.514 -0.7792 -3.6034  1.9085
 3495SOL    HW222122   2.354   2.389  11.614 -1.0183 -0.6073 -0.2266
 3496SOL     OW22123   4.505   1.403  12.543 -0.4219  0.7673  0.3784
 3496SOL    HW122124   4.425   1.406  12.490  0.2507 -1.8516 -0.7551
 3496SOL    HW222125   4.470   1.376  12.628  1.0808  1.2175  1.1263
 3497SOL     OW22126   4.576   4.247  17.579 -0.2158  0.2783 -0.0021
 3497SOL    HW122127   4.496   4.214  17.539  0.2234 -1.9376  0.9166
 3497SOL    HW222128   4.637   4.253  17.505  0.5564  3.4950  0.8763
 3498SOL     OW22129   0.367   2.241   4.071  1.3157 -0.1146  0.0459
 3498SOL    HW122130   0.427   2.260   4.142  0.7832  0.4041  0.3597
 3498SOL    HW222131   0.287   2.290   4.090  1.0076 -0.4259 -0.4071
 3499SOL     OW22132   3.649   0.703   2.586  0.5223 -0.1071 -0.0623
 3499SOL    HW122133   3.604   0.767   2.530 -2.3288 -1.5833  0.5418
 3499SOL    HW222134   3.738   0.715   2.552 -0.0118  0.5409 -1.2233
 3500SOL     OW22135   2.610   1.132   7.278 -0.4127  0.1134 -0.0551
 3500SOL    HW122136   2.663   1.209   7.258 -0.8346  0.7144  1.1548
 3500SOL    HW222137   2.536   1.143   7.218  0.5300  0.7271 -1.1020
 3501SOL     OW22138   2.099   1.447   6.033  0.0511  0.5246  0.0004
 3501SOL    HW122139   2.160   1.517   6.055 -1.3505  1.5551  0.6083
 3501SOL    HW222140   2.064   1.433   6.121 -0.3855  0.2117 -0.2215
 3502SOL     OW22141   4.059   0.644   4.266 -0.6679  0.0907  0.1822
 3502SOL    HW122142   4.004   0.566   4.269  0.1218 -0.5090 -0.6776
 3502SOL    HW222143   4.004   0.712   4.227 -1.4353 -0.1541  0.8477
 3503SOL     OW22144   0.938   0.885  15.493 -0.2667 -0.0007  0.1562
 3503SOL    HW122145   0.905   0.957  15.547 -1.1614  0.2421 -0.7080
 3503SOL    HW222146   0.875   0.897  15.422 -2.7631 -2.1171  1.9882
 3504SOL     OW22147   4.614   2.955   7.062  0.1079 -0.3843 -0.2659
 3504SOL    HW122148   4.692   2.961   7.118 -1.1744 -1.3884  1.5985
 3504SOL    HW222149   4.641   2.890   6.997  1.1013  0.3485 -0.5818
 3505SOL     OW22150   1.097   0.239   9.501 -0.1596 -0.2904  0.1249
 3505SOL    HW122151   1.163   0.292   9.456 -0.0534  0.8313  1.6050
 3505SOL    HW222152   1.026   0.300   9.479  2.9204  2.2000 -3.0288
 3506SOL     OW22153   1.230   3.873   1.488  0.8437  0.0821 -0.7015
 3506SOL    HW122154   1.324   3.861   1.503  0.8499  1.2879  0.2450
 3506SOL    HW222155   1.218   3.968   1.496  4.5580  0.3376  2.1381
 3507SOL     OW22156   3.532   3.344   3.277 -0.0298 -0.5852 -0.0717
 3507SOL    HW122157   3.480   3.272   3.313 -0.3688 -0.6619 -0.7105
 3507SOL    HW222158   3.600   3.292   3.234 -0.2383  0.6980 -1.9138
 3508SOL     OW22159   4.566   2.963   3.231  0.0542  0.0558 -0.1460
 3508SOL    HW122160   4.643   2.985   3.179 -0.1030 -0.5623 -0.6375
 3508SOL    HW222161   4.534   2.883   3.191  1.8382 -1.9719  2.5172
 3509SOL     OW22162   3.981   0.745   8.524 -0.7689  0.0141  0.1874
 3509SOL    HW122163   3.916   0.775   8.588 -1.9177 -1.0965 -0.4682
 3509SOL    HW222164   4.051   0.719   8.583 -1.1518 -0.8109  0.2681
 3510SOL     OW22165   4.394   0.433   3.984 -0.5960  0.0886 -0.1568
 3510SOL    HW122166   4.310   0.409   3.947 -0.2084 -0.4930 -0.6602
 3510SOL    HW222167   4.463   0.398   3.928 -0.3690  4.0203 -2.3677
 3511SOL     OW22168   4.704   4.133   5.091  0.0847  0.0083  0.1567
 3511SOL    HW122169   4.714   4.039   5.076 -2.7012 -0.2733  0.0146
 3511SOL    HW222170   4.630   4.139   5.152  0.2716  0.0554  0.3805
 3512SOL     OW22171   4.057   2.043   4.629  0.1939  0.4397 -0.0784
 3512SOL    HW122172   4.072   2.013   4.718 -0.9151 -0.4706 -0.1972
 3512SOL    HW222173   4.149   2.052   4.604  0.5863  2.0069  1.9176
 3513SOL     OW22174   1.387   2.806   4.522  0.8139 -0.0081 -0.5415
 3513SOL    HW122175   1.292   2.803   4.511  0.9160  0.2484 -1.5049
 3513SOL    HW222176   1.398   2.859   4.601  2.1030 -1.1096  0.0346
 3514SOL     OW22177   1.951   2.533   6.004 -0.4114 -0.2991 -0.6604
 3514SOL    HW122178   2.015   2.589   5.960 -0.5745 -0.9705 -1.7507
 3514SOL    HW222179   2.008   2.463   6.036  0.9314  1.6259  1.1159
 3515SOL     OW22180   0.283   1.188   2.422  0.0772 -0.2509  0.4554
 3515SOL    HW122181   0.222   1.262   2.431 -0.0281 -0.4067  1.0303
 3515SOL    HW222182   0.212   1.123   2.421 -0.8299  0.7251  0.6165
 3516SOL     OW22183   0.524   0.035   9.620 -0.2839 -0.0771 -0.5571
 3516SOL    HW122184   0.522   0.111   9.678 -1.3276  1.6919 -2.9163
 3516SOL    HW222185   0.466   4.713   9.670 -1.8552  0.7706 -1.3705
 3517SOL     OW22186   2.561   2.606   8.938 -0.2423 -0.3583 -0.6686
 3517SOL    HW122187   2.650   2.573   8.947 -0.4069  0.1632  2.9750
 3517SOL    HW222188   2.528   2.530   8.890 -3.8339  0.1082  1.0572
 3518SOL     OW22189   2.115   2.821   2.008 -0.1981 -0.0968  0.0779
 3518SOL    HW122190   2.044   2.762   1.981  1.0503 -1.5633  0.0219
 3518SOL    HW222191   2.126   2.885   1.938 -1.9824 -0.0347 -0.1490
 3519SOL     OW22192   3.564   4.703   0.076  0.0710  0.0872 -0.2326
 3519SOL    HW122193   3.656   4.724   0.057 -0.1423  0.3748 -0.9722
 3519SOL    HW222194   3.559   4.646   0.152  0.1265  0.2577 -0.1003
 3520SOL     OW22195   1.580   2.651   4.397 -0.0114 -0.5368 -0.0660
 3520SOL    HW122196   1.525   2.707   4.452  1.6429  0.0807  0.9683
 3520SOL    HW222197   1.639   2.611   4.461  1.7417 -1.6596 -2.3984
 3521SOL     OW22198   3.629   2.868   0.662 -0.0307 -0.0639 -0.2268
 3521SOL    HW122199   3.678   2.792   0.629  1.6746  0.3773  1.3021
 3521SOL    HW222200   3.686   2.919   0.719 -0.1842  0.5694 -0.6381
 3522SOL     OW22201   2.715   2.189   3.081  0.0112  0.0260 -0.1708
 3522SOL    HW122202   2.741   2.249   3.151  0.1949  0.8504 -0.9518
 3522SOL    HW222203   2.737   2.109   3.129  1.2119 -0.1324 -0.9844
 3523SOL     OW22204   4.285   1.014   5.918  0.1256  0.1443  0.0693
 3523SOL    HW122205   4.193   1.024   5.943 -0.2101  2.1657 -2.0499
 3523SOL    HW222206   4.335   1.057   5.988 -0.4648  0.5242  0.2588
 3524SOL     OW22207   0.692   1.770   7.953  0.5853  0.1078 -0.5932
 3524SOL    HW122208   0.671   1.863   7.948  2.0021  0.3775 -1.5181
 3524SOL    HW222209   0.767   1.779   8.012 -0.8482  2.0584  0.9406
 3525SOL     OW22210   0.770   1.013  17.146  0.1194  0.3598  0.3383
 3525SOL    HW122211   0.840   1.005  17.211  1.9755 -0.3434 -1.7521
 3525SOL    HW222212   0.718   0.938  17.176 -0.5237  1.0555  0.9825
 3526SOL     OW22213   3.957   3.519   0.690  0.2079 -0.1527  0.7382
 3526SOL    HW122214   3.862   3.529   0.689  0.3907  1.4387 -0.3083
 3526SOL    HW222215   3.955   3.432   0.650  0.2608  1.0538 -1.9385
 3527SOL     OW22216   3.409   4.565   8.655  1.0680 -0.2494 -0.4739
 3527SOL    HW122217   3.369   4.508   8.589 -0.4291 -0.2702  0.4673
 3527SOL    HW222218   3.439   4.501   8.720 -2.4308 -0.6654  0.7230
 3528SOL     OW22219   2.112   0.112   3.441  0.5311  0.3778  0.3084
 3528SOL    HW122220   2.143   0.192   3.482  1.2408 -0.3304  1.1545
 3528SOL    HW222221   2.074   0.155   3.364  0.9513  3.5616  1.8669
 3529SOL     OW22222   0.119   1.646   5.489  0.2974  0.4849  0.7504
 3529SOL    HW122223   0.153   1.560   5.464 -0.3296  0.0928  1.2208
 3529SOL    HW222224   0.113   1.684   5.402  1.2308 -0.5218  0.2493
 3530SOL     OW22225   1.652   0.283   5.507  0.5504 -0.6602  0.6497
 3530SOL    HW122226   1.614   0.348   5.448  2.4575 -0.4237 -0.3337
 3530SOL    HW222227   1.702   0.225   5.449  0.6257 -2.0327  2.0915
 3531SOL     OW22228   4.179   1.966  11.694  0.1145  0.4712 -0.5972
 3531SOL    HW122229   4.194   2.060  11.692  0.9545  0.3541 -0.0187
 3531SOL    HW222230   4.267   1.929  11.681 -0.1970 -0.5530  0.1894
 3532SOL     OW22231   0.473   0.722   5.210 -0.8494 -0.4040  0.0712
 3532SOL    HW122232   0.424   0.715   5.292 -0.8351 -0.6945  0.0539
 3532SOL    HW222233   0.562   0.732   5.243 -0.6140  0.5029 -0.8633
 3533SOL     OW22234   2.067   3.172  16.645  0.2079 -0.5366  0.0135
 3533SOL    HW122235   2.090   3.220  16.565  0.2759 -0.6384 -0.0280
 3533SOL    HW222236   2.027   3.245  16.693  2.0437 -1.1950  2.5331
 3534SOL     OW22237   2.409   2.634   4.725 -0.0353  0.3852 -0.5367
 3534SOL    HW122238   2.471   2.579   4.773 -0.0060  0.3928 -0.5657
 3534SOL    HW222239   2.366   2.675   4.800  2.2258 -0.9419  1.4822
 3535SOL     OW22240   2.653   3.550   3.075 -0.2598 -0.3399 -0.0887
 3535SOL    HW122241   2.624   3.494   3.147 -0.8578 -0.7115 -0.6184
 3535SOL    HW222242   2.570   3.567   3.030  0.4509 -2.3518 -2.1515
 3536SOL     OW22243   0.945   2.196   9.328 -0.8075 -0.1810 -0.1199
 3536SOL    HW122244   0.873   2.171   9.386 -0.6249  0.2826  0.3091
 3536SOL    HW222245   0.902   2.194   9.242  0.2085  1.3938 -0.6649
 3537SOL     OW22246   3.164   3.940   2.036 -0.0521  0.1973 -0.5300
 3537SOL    HW122247   3.163   3.986   2.120 -1.1644 -1.8907  0.5946
 3537SOL    HW222248   3.174   4.012   1.973 -1.3247 -1.6055 -2.7914
 3538SOL     OW22249   3.647   1.122   6.419  0.1449 -0.1215 -0.2699
 3538SOL    HW122250   3.636   1.217   6.418 -0.8996 -0.2210  2.0597
 3538SOL    HW222251   3.639   1.104   6.325  1.6172 -0.9688 -0.2375
 3539SOL     OW22252   4.372   1.594  13.123 -0.0955  0.2317  0.5649
 3539SOL    HW122253   4.372   1.688  13.110 -0.0050 -0.1007 -1.9323
 3539SOL    HW222254   4.334   1.596  13.210 -1.4704  0.1511 -0.0449
 3540SOL     OW22255   2.439   1.758  14.421  0.2375 -0.5032  0.1171
 3540SOL    HW122256   2.422   1.852  14.418  0.3693 -0.3704  2.8365
 3540SOL    HW222257   2.490   1.736  14.344 -1.1437 -2.3151 -0.2719
 3541SOL     OW22258   0.431   0.204  17.684  0.6874  0.5869 -0.0606
 3541SOL    HW122259   0.428   0.296  17.711 -0.5657  0.0024  1.7797
 3541SOL    HW222260   0.340   0.201  17.653  0.5347 -0.9723  0.5820
 3542SOL     OW22261   0.491   3.516   2.877  0.1128 -0.3028  0.1493
 3542SOL    HW122262   0.436   3.502   2.801  0.5258 -0.5435 -0.1046
 3542SOL    HW222263   0.435   3.573   2.930 -0.2302 -0.4191 -0.0898
 3543SOL     OW22264   2.343   0.940  13.788 -0.1853  0.3202 -0.8804
 3543SOL    HW122265   2.257   0.980  13.792 -0.1104  0.4229 -0.3127
 3543SOL    HW222266   2.330   0.847  13.809  0.8455  0.1127 -1.1300
 3544SOL     OW22267   0.874   1.664   4.448  0.1951  0.3505 -0.0530
 3544SOL    HW122268   0.861   1.656   4.354  0.4252 -0.7772  0.0199
 3544SOL    HW222269   0.797   1.714   4.478  0.5255  0.8744 -0.0670
 3545SOL     OW22270   3.821   0.148   9.110  0.3440  0.4456 -0.0867
 3545SOL    HW122271   3.885   0.218   9.126 -0.1682  0.5197  1.5355
 3545SOL    HW222272   3.740   0.192   9.133 -0.9634 -1.7602 -0.5128
 3546SOL     OW22273   4.045   3.821   2.527 -0.3715  0.9424 -0.0626
 3546SOL    HW122274   4.098   3.772   2.464 -0.1829  1.1326 -0.0502
 3546SOL    HW222275   3.972   3.842   2.469 -1.6081 -0.7114  0.8699
 3547SOL     OW22276   1.268   3.778   6.988 -0.3996 -0.6870 -0.6130
 3547SOL    HW122277   1.340   3.836   7.014 -2.9295  2.4079 -0.5911
 3547SOL    HW222278   1.294   3.746   6.902  1.4507 -1.9929  0.4307
 3548SOL     OW22279   1.132   1.326   4.703 -0.6805  0.1871  0.3553
 3548SOL    HW122280   1.193   1.254   4.720  0.0432  0.7588  0.2082
 3548SOL    HW222281   1.172   1.404   4.744  1.2645 -0.9720  0.6703
 3549SOL     OW22282   4.307   3.881  17.593  0.3317 -0.4792 -0.1408
 3549SOL    HW122283   4.252   3.899  17.670  0.8714  3.2550 -0.6334
 3549SOL    HW222284   4.332   3.970  17.568  1.1751 -0.7006 -0.0882
 3550SOL     OW22285   0.855   3.592   7.076  0.1922 -0.1510  0.5672
 3550SOL    HW122286   0.797   3.572   7.150 -0.7996 -0.3417 -0.2662
 3550SOL    HW222287   0.854   3.687   7.083  0.4288 -0.2870  2.3486
 3551SOL     OW22288   3.395   2.753   7.294 -0.1191  0.1877  0.1671
 3551SOL    HW122289   3.330   2.698   7.250  2.0941 -0.6542 -2.0189
 3551SOL    HW222290   3.341   2.830   7.314 -1.5385 -0.8687  0.3551
 3552SOL     OW22291   2.115   3.010   2.200 -0.4148  0.4818  0.6950
 3552SOL    HW122292   2.086   3.084   2.147 -1.1901 -0.6905 -0.5331
 3552SOL    HW222293   2.112   2.938   2.137  0.0836 -0.6030  1.8965
 3553SOL     OW22294   1.792   4.132   0.127  0.6111  0.3427  0.3532
 3553SOL    HW122295   1.700   4.139   0.099 -0.0749 -0.4115  2.4263
 3553SOL    HW222296   1.805   4.040   0.153  2.6420  0.9305  1.3565
 3554SOL     OW22297   4.106   3.585   6.711 -0.8335 -0.1272  0.2106
 3554SOL    HW122298   4.198   3.604   6.730 -1.0407 -1.5194  2.6620
 3554SOL    HW222299   4.115   3.490   6.720  0.4629  0.3031  3.6920
 3555SOL     OW22300   3.493   4.630  14.646 -0.2439  0.6634 -0.6623
 3555SOL    HW122301   3.460   4.672  14.725 -0.5986 -0.8556 -0.0027
 3555SOL    HW222302   3.514   4.548  14.690 -1.3294  1.5095  1.4238
 3556SOL     OW22303   4.733   4.479  10.317  0.5057  0.2772  0.0399
 3556SOL    HW122304   0.042   4.410  10.269 -0.9474 -0.3427 -0.4551
 3556SOL    HW222305   0.069   4.488  10.378  1.7452  0.8280 -1.5305
 3557SOL     OW22306   2.112   1.317   5.311  0.3325  0.5217  0.2521
 3557SOL    HW122307   2.178   1.284   5.371 -2.1568  0.8280  3.1505
 3557SOL    HW222308   2.041   1.310   5.375  0.4044  0.1797  0.2944
 3558SOL     OW22309   4.087   3.021   7.781  0.3047  0.0617  0.3783
 3558SOL    HW122310   4.042   2.969   7.714 -0.0083  0.1004  0.5591
 3558SOL    HW222311   4.156   2.960   7.807  0.6650  1.5371  2.8364
 3559SOL     OW22312   0.594   3.943   8.632  0.3642 -0.3595 -0.4273
 3559SOL    HW122313   0.566   3.867   8.683 -0.8253 -0.6765 -1.5692
 3559SOL    HW222314   0.533   4.009   8.666 -1.2564 -2.0604 -0.0778
 3560SOL     OW22315   0.080   3.144   3.038 -0.3132  0.2256  0.1790
 3560SOL    HW122316   0.129   3.187   2.969 -0.7412 -0.3340 -0.4713
 3560SOL    HW222317   4.726   3.166   3.015 -0.7155  0.3114  1.8113
 3561SOL     OW22318   1.545   3.344   0.769  0.1840  0.4083  0.2891
 3561SOL    HW122319   1.576   3.286   0.699 -2.6313  0.9910 -1.4442
 3561SOL    HW222320   1.506   3.419   0.723  0.0270 -0.7245 -1.4460
 3562SOL     OW22321   4.142   3.535  15.529  0.1168 -0.0912 -0.4808
 3562SOL    HW122322   4.158   3.614  15.476  1.2527 -0.4365 -0.6662
 3562SOL    HW222323   4.085   3.486  15.470  0.1663  0.6319 -1.1308
 3563SOL     OW22324   3.762   0.640   7.639 -0.2229 -0.4336  0.3867
 3563SOL    HW122325   3.785   0.582   7.711 -1.5310 -1.4238 -0.0022
 3563SOL    HW222326   3.846   0.681   7.619 -0.3386 -0.8277 -0.8655
 3564SOL     OW22327   0.650   2.030   7.972  0.6536  0.2479 -0.0696
 3564SOL    HW122328   0.602   2.082   7.907 -0.5047  0.5492  1.0352
 3564SOL    HW222329   0.628   2.082   8.049 -0.7837  0.3528 -0.5387
 3565SOL     OW22330   4.711   3.669   3.281  0.4345  0.2129  0.1713
 3565SOL    HW122331   4.648   3.684   3.351  1.5803 -2.0753  1.6672
 3565SOL    HW222332   0.059   3.686   3.323  0.4891 -0.4149  0.3108
 3566SOL     OW22333   1.469   3.072   8.128 -0.6461 -0.0228 -0.5763
 3566SOL    HW122334   1.468   2.989   8.177 -0.6216  0.3541  0.0594
 3566SOL    HW222335   1.526   3.128   8.180  0.6310 -0.5360 -1.4175
 3567SOL     OW22336   3.392   1.660   4.992 -0.5106  0.8713 -0.2293
 3567SOL    HW122337   3.313   1.681   4.942  0.2594 -0.4500 -2.0207
 3567SOL    HW222338   3.454   1.730   4.972  0.3107  0.5040  1.0381
 3568SOL     OW22339   1.758   0.613   7.721 -0.3137  0.4793  0.1590
 3568SOL    HW122340   1.828   0.678   7.727  1.9132 -1.9472  0.8539
 3568SOL    HW222341   1.738   0.617   7.627  0.2735  0.6447  0.0392
 3569SOL     OW22342   3.267   3.308   5.051 -0.0417  0.5507 -0.2637
 3569SOL    HW122343   3.205   3.291   5.121  2.1077 -1.1215  1.2529
 3569SOL    HW222344   3.254   3.403   5.047 -0.3345  0.4453 -1.8235
 3570SOL     OW22345   0.900   4.095   5.796 -0.5661  0.2678 -0.4654
 3570SOL    HW122346   0.908   4.004   5.826 -1.9964  0.7267  1.3299
 3570SOL    HW222347   0.839   4.087   5.723 -0.6933  1.8128 -0.5233
 3571SOL     OW22348   0.646   4.321   6.249  0.6600 -0.2399 -0.1291
 3571SOL    HW122349   0.578   4.267   6.289 -0.1389  0.1690 -0.9354
 3571SOL    HW222350   0.677   4.263   6.180  1.8431 -0.4256  0.5654
 3572SOL     OW22351   3.080   1.372   0.093 -0.3405 -0.8480 -0.7860
 3572SOL    HW122352   3.168   1.404   0.078  0.3496 -2.9554 -1.1954
 3572SOL    HW222353   3.089   1.276   0.092  2.4650 -0.5437 -5.3917
 3573SOL     OW22354   2.640   4.314   7.202 -0.1287  0.4556  0.0366
 3573SOL    HW122355   2.675   4.390   7.155 -1.1159  0.7858 -0.1569
 3573SOL    HW222356   2.695   4.238   7.184 -0.4168 -0.0297  1.2312
 3574SOL     OW22357   0.844   0.951   1.677 -0.7127 -0.4230  0.2965
 3574SOL    HW122358   0.894   0.976   1.755 -0.5853  0.9883 -0.2361
 3574SOL    HW222359   0.859   1.034   1.633 -1.0990 -0.8372 -0.6149
 3575SOL     OW22360   4.638   3.938   2.608 -0.3594 -0.6054  0.0578
 3575SOL    HW122361   4.564   3.954   2.667  0.5493  2.0411  0.4660
 3575SOL    HW222362   4.633   4.012   2.548  0.2494 -1.9377 -1.6302
 3576SOL     OW22363   4.393   0.215  12.828 -0.4168  0.6398  0.4150
 3576SOL    HW122364   4.451   0.160  12.774 -2.9964 -1.8129  0.1173
 3576SOL    HW222365   4.318   0.242  12.775 -0.6960  1.4153  1.2089
 3577SOL     OW22366   1.408   2.974  15.185  0.4689 -0.5415  0.4858
 3577SOL    HW122367   1.501   2.954  15.176  0.6977  1.6864 -2.1445
 3577SOL    HW222368   1.391   2.974  15.279 -2.4751  2.7214 -0.0305
 3578SOL     OW22369   1.816   4.009   9.889 -0.2307  0.1896  0.1551
 3578SOL    HW122370   1.873   4.034   9.962 -4.4941  3.7853  2.2578
 3578SOL    HW222371   1.877   3.965   9.830 -1.3241 -0.6346 -0.3396
 3579SOL     OW22372   1.864   0.445  17.358  0.4296 -0.0197  0.4004
 3579SOL    HW122373   1.938   0.506  17.366  1.4224 -1.3455  1.3170
 3579SOL    HW222374   1.862   0.421  17.265  2.0909 -0.6837  0.5240
 3580SOL     OW22375   3.846   3.098  17.725  0.3566 -0.2063  0.0383
 3580SOL    HW122376   3.903   3.159  17.678 -0.5680 -0.3784 -1.3252
 3580SOL    HW222377   3.854   3.023  17.666  0.2423 -0.7657  0.7283
 3581SOL     OW22378   1.640   2.604   0.437  0.6056 -0.1902  0.1395
 3581SOL    HW122379   1.700   2.536   0.466  1.6477  0.7910  0.3062
 3581SOL    HW222380   1.556   2.559   0.436  0.6016 -0.1743 -0.1761
 3582SOL     OW22381   3.792   2.036   8.971  0.0453  0.0680 -0.5754
 3582SOL    HW122382   3.730   1.976   9.013  0.9919  0.6631  1.6844
 3582SOL    HW222383   3.844   2.072   9.043 -1.3631  2.6507 -0.8481
 3583SOL     OW22384   3.918   3.652   2.687 -0.8844 -0.0112  0.4102
 3583SOL    HW122385   3.884   3.702   2.761 -1.8154  0.6373 -0.4562
 3583SOL    HW222386   3.966   3.718   2.637 -0.3880 -0.9801 -0.4010
 3584SOL     OW22387   4.170   3.114   5.957 -0.1919  0.2559  0.2975
 3584SOL    HW122388   4.238   3.077   6.013  0.9011  0.9434 -0.5878
 3584SOL    HW222389   4.225   3.191   5.943 -0.2818  0.0403 -1.2875
 3585SOL     OW22390   2.914   3.916  16.358  0.6990 -0.0547 -0.8749
 3585SOL    HW122391   2.987   3.949  16.305 -0.2174  1.2267 -1.3572
 3585SOL    HW222392   2.834   3.932  16.309  0.4393 -0.5801 -0.6240
 3586SOL     OW22393   0.719   0.677   2.925 -0.0497 -0.5820 -0.4143
 3586SOL    HW122394   0.683   0.628   2.999  0.4270 -1.3873 -0.7063
 3586SOL    HW222395   0.784   0.612   2.898 -0.8242 -1.2032 -0.7833
 3587SOL     OW22396   4.450   1.897   8.998  0.3512  0.0314  0.2227
 3587SOL    HW122397   4.411   1.832   8.939  0.9345 -1.2046  1.1817
 3587SOL    HW222398   4.384   1.907   9.067  0.2106 -2.6467  0.4836
 3588SOL     OW22399   3.974   4.175   4.187  0.9295  1.0908  0.7681
 3588SOL    HW122400   3.921   4.154   4.110 -1.2088  2.3384  1.8994
 3588SOL    HW222401   4.056   4.199   4.144  1.7306 -0.6363  1.3433
 3589SOL     OW22402   2.168   0.807   2.433  0.2957  0.1129  0.1418
 3589SOL    HW122403   2.237   0.776   2.374  0.5195  0.1867  0.3695
 3589SOL    HW222404   2.157   0.895   2.397 -0.6910  0.8720  2.3453
 3590SOL     OW22405   0.488   3.704   8.733  0.3658  0.0184 -0.3402
 3590SOL    HW122406   0.495   3.615   8.700 -2.2607 -0.6668  0.9603
 3590SOL    HW222407   0.534   3.699   8.817 -0.0184  0.1028 -0.1258
 3591SOL     OW22408   3.426   0.012  11.318  0.1319 -0.1372  0.3791
 3591SOL    HW122409   3.337   4.728  11.349 -0.3502 -0.4313 -1.1812
 3591SOL    HW222410   3.417   0.107  11.319 -0.4961 -0.1970  1.9138
 3592SOL     OW22411   1.094   0.987   7.228  0.1309 -0.1972 -0.5575
 3592SOL    HW122412   1.059   0.991   7.317  1.0416  0.0392 -0.2108
 3592SOL    HW222413   1.071   0.897   7.205  0.2210 -0.7845  1.6457
 3593SOL     OW22414   3.574   1.475  15.055  0.5285 -0.1034  0.6619
 3593SOL    HW122415   3.647   1.534  15.072  2.6317 -2.6300  0.5842
 3593SOL    HW222416   3.575   1.477  14.959  2.1422 -4.0376  0.5902
 3594SOL     OW22417   2.001   2.934   3.459 -0.3978 -0.2101 -0.5391
 3594SOL    HW122418   1.979   2.859   3.513  2.4797 -0.3379  0.4609
 3594SOL    HW222419   2.038   2.998   3.520 -1.0593 -0.6075  0.2715
 3595SOL     OW22420   3.220   1.932   3.200 -0.0237  0.0154 -0.7675
 3595SOL    HW122421   3.155   1.861   3.198 -1.4046  1.2541  0.0340
 3595SOL    HW222422   3.178   1.976   3.127  0.1621  1.0682 -0.2359
 3596SOL     OW22423   2.145   2.202   4.030  0.6225 -0.4153 -0.9019
 3596SOL    HW122424   2.225   2.256   4.031 -1.2875  2.4021  2.7243
 3596SOL    HW222425   2.176   2.117   4.060  2.4770 -0.2425 -2.3094
 3597SOL     OW22426   1.102   1.345   7.525  0.0622 -0.0275 -0.0832
 3597SOL    HW122427   1.153   1.341   7.606 -0.2702  2.3015  0.2316
 3597SOL    HW222428   1.145   1.287   7.461  0.1337  0.3039 -0.3350
 3598SOL     OW22429   3.773   3.823   1.737 -0.9694 -0.7409 -0.3669
 3598SOL    HW122430   3.743   3.771   1.811 -1.8320 -0.9332 -0.8497
 3598SOL    HW222431   3.844   3.874   1.776 -0.8574  1.2708 -3.1431
 3599SOL     OW22432   1.388   2.879   6.463  0.4229  0.1795  0.2135
 3599SOL    HW122433   1.449   2.842   6.399  0.3674  1.7027 -0.7083
 3599SOL    HW222434   1.384   2.810   6.529  0.2672  0.0900  0.1108
 3600SOL     OW22435   2.114   2.349   3.009 -0.0101  0.2875  0.5662
 3600SOL    HW122436   2.207   2.371   3.002 -0.5599  2.0239 -1.4561
 3600SOL    HW222437   2.108   2.334   3.103 -0.2367 -0.2825  0.4578
 3601SOL     OW22438   0.438   1.600   8.691  0.3243  0.5748 -0.1455
 3601SOL    HW122439   0.368   1.663   8.678  0.6572  1.0748  0.4707
 3601SOL    HW222440   0.497   1.651   8.636  1.8370  0.9517  1.8113
 3602SOL     OW22441   3.366   2.759   5.464  0.3996  0.0330  0.1747
 3602SOL    HW122442   3.426   2.831   5.444 -0.5954  0.5431 -0.9560
 3602SOL    HW222443   3.311   2.803   5.528 -1.2221  0.3834 -1.4593
 3603SOL     OW22444   1.323   2.358  12.969  0.4379  0.4450  0.2017
 3603SOL    HW122445   1.332   2.411  12.890  2.4486  1.6439  1.2244
 3603SOL    HW222446   1.267   2.413  13.024  1.6016 -0.6246  2.4645
 3604SOL     OW22447   0.895   1.595   4.735 -0.4066 -0.3808  0.1067
 3604SOL    HW122448   0.965   1.639   4.688 -0.0424 -0.7079  0.3377
 3604SOL    HW222449   0.834   1.573   4.664  1.1887  0.8578 -1.6398
 3605SOL     OW22450   1.639   1.604   7.925  0.7578  0.0935 -0.2947
 3605SOL    HW122451   1.698   1.533   7.899 -1.0887 -0.6702 -2.4335
 3605SOL    HW222452   1.615   1.645   7.842  0.1207 -0.9288 -0.6255
 3606SOL     OW22453   2.522   4.546   4.342  0.5849  0.2247  0.6179
 3606SOL    HW122454   2.429   4.566   4.347  1.1010  3.1108 -0.7831
 3606SOL    HW222455   2.564   4.630   4.365 -0.6974  1.6361 -2.1856
 3607SOL     OW22456   3.795   2.746  10.064  0.5799 -0.1611  0.6118
 3607SOL    HW122457   3.792   2.658  10.027 -2.1009  0.4638 -0.6159
 3607SOL    HW222458   3.810   2.788   9.979 -1.5089 -0.4616  0.1046
 3608SOL     OW22459   4.019   3.113   0.216 -0.3583  0.1581 -0.0491
 3608SOL    HW122460   4.021   3.062   0.135  1.2020 -0.4464  0.3732
 3608SOL    HW222461   4.091   3.173   0.199  2.0144 -2.1260  1.9683
 3609SOL     OW22462   1.721   2.366   7.670 -0.5255  0.0956  0.2999
 3609SOL    HW122463   1.807   2.332   7.693 -0.8363 -0.1239  1.1174
 3609SOL    HW222464   1.703   2.285   7.622 -3.0342  1.6377 -1.3948
 3610SOL     OW22465   2.654   0.299   4.748  0.1748 -0.1081 -0.4393
 3610SOL    HW122466   2.724   0.362   4.728 -0.0294  0.3411  0.2613
 3610SOL    HW222467   2.604   0.352   4.810 -0.3442 -1.7128  0.4991
 3611SOL     OW22468   1.696   0.744  16.844 -0.0943  0.1780  0.4414
 3611SOL    HW122469   1.607   0.766  16.818  0.3943  0.6559 -0.7941
 3611SOL    HW222470   1.749   0.798  16.786  2.5901 -1.5648  1.2478
 3612SOL     OW22471   0.405   2.729  16.594  0.4427  0.1871  0.2452
 3612SOL    HW122472   0.447   2.716  16.509  1.4885  3.9060  0.1766
 3612SOL    HW222473   0.447   2.808  16.629  2.5343 -0.3008 -1.1461
 3613SOL     OW22474   3.719   4.218  14.359 -0.0348 -0.4108  0.0435
 3613SOL    HW122475   3.673   4.302  14.362 -2.2285 -1.7505  3.2143
 3613SOL    HW222476   3.655   4.161  14.317 -2.2507  2.0162  0.1679
 3614SOL     OW22477   4.535   3.258   2.084  0.2318 -0.4131 -0.1383
 3614SOL    HW122478   4.482   3.297   2.154 -0.1068  0.6476 -0.9804
 3614SOL    HW222479   4.487   3.257   2.001  3.3913 -3.4064 -1.9307
 3615SOL     OW22480   1.994   3.748   8.268  0.3108  0.1096 -0.6413
 3615SOL    HW122481   2.045   3.724   8.344 -0.0907 -4.0314 -1.6873
 3615SOL    HW222482   2.068   3.751   8.208  1.3609 -1.3766  0.6047
 3616SOL     OW22483   0.495   0.427   6.841 -0.1998 -0.1031 -0.4709
 3616SOL    HW122484   0.589   0.430   6.821  0.4149 -1.4291  2.1591
 3616SOL    HW222485   0.494   0.474   6.924  2.6440 -0.7405 -0.0528
 3617SOL     OW22486   1.461   2.390   6.203  0.0462 -0.2372 -0.1382
 3617SOL    HW122487   1.373   2.397   6.166  0.5920  1.7242 -1.0276
 3617SOL    HW222488   1.510   2.376   6.122  0.8008 -1.3334  0.4942
 3618SOL     OW22489   0.775   0.946  14.192  0.2859 -0.5490  0.4677
 3618SOL    HW122490   0.783   0.981  14.281  1.1294  3.2706 -1.1088
 3618SOL    HW222491   0.682   0.924  14.191 -0.2403  1.6928  0.4765
 3619SOL     OW22492   1.836   3.715  17.216 -0.4939 -0.2258  0.3012
 3619SOL    HW122493   1.844   3.725  17.121  4.0863 -1.5722  0.5467
 3619SOL    HW222494   1.740   3.712  17.208 -0.6740  0.4197  2.3473
 3620SOL     OW22495   4.425   0.848   2.677 -0.3509  0.3866 -0.1765
 3620SOL    HW122496   4.386   0.765   2.654 -1.8261  0.4774  1.9787
 3620SOL    HW222497   4.518   0.826   2.666 -0.0940  1.4342 -0.1256
 3621SOL     OW22498   0.291   1.585  15.366 -0.3685 -0.2939  0.3163
 3621SOL    HW122499   0.197   1.581  15.347 -1.1240  1.8579  3.7455
 3621SOL    HW222500   0.314   1.663  15.315  2.3266 -2.7421 -2.1735
 3622SOL     OW22501   2.569   4.562   0.880 -0.0846  0.1310  0.2656
 3622SOL    HW122502   2.633   4.634   0.877  1.0481 -0.8042  1.9834
 3622SOL    HW222503   2.523   4.581   0.798  2.5988  3.0227 -0.5706
 3623SOL     OW22504   2.491   1.639  13.412 -0.2934 -0.0381 -0.1867
 3623SOL    HW122505   2.517   1.661  13.501  0.7157 -0.4325 -0.3872
 3623SOL    HW222506   2.507   1.725  13.374 -2.1766 -0.6903 -2.5330
 3624SOL     OW22507   1.624   4.634  17.464 -0.2578 -0.5570  0.5350
 3624SOL    HW122508   1.632   4.729  17.456  2.0826 -0.9453 -1.9180
 3624SOL    HW222509   1.585   4.629  17.551 -1.3527  0.9058  0.1265
 3625SOL     OW22510   2.606   4.659   0.020  0.1545 -0.1202 -0.1795
 3625SOL    HW122511   2.624   4.613   0.102  2.2266 -0.6005 -0.8849
 3625SOL    HW222512   2.612   4.593  17.696  1.4712 -0.3973  0.1952
 3626SOL     OW22513   2.509   2.987  12.152 -0.7335 -0.1817 -0.4388
 3626SOL    HW122514   2.461   2.947  12.080  0.0495  0.4383 -1.2930
 3626SOL    HW222515   2.509   3.080  12.129  1.5847  0.4044  1.8475
 3627SOL     OW22516   3.313   2.161   2.837 -0.2696 -0.1647  0.2961
 3627SOL    HW122517   3.219   2.169   2.819  0.0304 -2.2550 -2.2068
 3627SOL    HW222518   3.339   2.229   2.774 -0.0434 -0.7208 -0.2092
 3628SOL     OW22519   2.038   3.178   1.992  0.0536 -0.6219  0.3160
 3628SOL    HW122520   1.960   3.145   1.948 -0.1197  0.5931 -0.2799
 3628SOL    HW222521   2.067   3.237   1.923 -0.4587  0.8804  1.3621
 3629SOL     OW22522   1.537   3.827   6.792 -0.2472  0.0448  0.2177
 3629SOL    HW122523   1.625   3.798   6.814 -0.1089  2.5596  2.9991
 3629SOL    HW222524   1.491   3.745   6.778 -0.6976 -0.1220  2.6943
 3630SOL     OW22525   1.793   2.881   1.243  0.6272 -0.0425  0.1412
 3630SOL    HW122526   1.820   2.952   1.184 -0.9302  1.0346  0.7100
 3630SOL    HW222527   1.877   2.861   1.286 -0.0820  0.9611  1.9932
 3631SOL     OW22528   1.758   2.891   2.854 -0.2300  0.4964 -0.0531
 3631SOL    HW122529   1.821   2.825   2.883  0.7352  2.7075  2.9053
 3631SOL    HW222530   1.743   2.865   2.763 -0.3076  0.3752 -0.0059
 3632SOL     OW22531   3.938   2.966   2.390  0.3839  0.3171  0.6862
 3632SOL    HW122532   3.873   2.983   2.457  1.2092  2.3768  0.9559
 3632SOL    HW222533   3.966   3.053   2.361  0.6335 -0.0861 -0.3015
 3633SOL     OW22534   4.393   1.133  12.679  0.3061 -0.4629 -0.5150
 3633SOL    HW122535   4.376   1.217  12.721  4.8439 -0.1771  0.7236
 3633SOL    HW222536   4.345   1.140  12.596  0.2711  0.9611 -0.3801
 3634SOL     OW22537   2.739   4.620   5.013  0.5608  0.1959  0.1121
 3634SOL    HW122538   2.742   4.566   4.935 -0.7162  0.6867 -0.2826
 3634SOL    HW222539   2.796   4.570   5.071 -0.7007  0.2416  1.3923
 3635SOL     OW22540   4.051   2.715   5.163 -0.3295 -0.4062 -0.1500
 3635SOL    HW122541   4.090   2.766   5.093 -0.3485  1.6920  1.3626
 3635SOL    HW222542   4.115   2.647   5.185 -0.0478 -0.7354 -2.0256
 3636SOL     OW22543   1.988   4.441  10.896 -0.4514 -0.2175 -0.5191
 3636SOL    HW122544   1.971   4.369  10.956 -0.4238 -0.6137 -0.9859
 3636SOL    HW222545   2.083   4.451  10.895 -0.5036  0.6515  2.5170
 3637SOL     OW22546   3.405   3.998  13.047 -0.7744 -0.3517 -0.1515
 3637SOL    HW122547   3.440   4.080  13.079  1.3376 -1.0377 -0.7462
 3637SOL    HW222548   3.453   3.937  13.102  0.4399  0.5253 -0.2477
 3638SOL     OW22549   1.464   2.506   6.435  0.7449  0.6191 -0.2286
 3638SOL    HW122550   1.483   2.455   6.356 -0.7021  1.2844 -1.0048
 3638SOL    HW222551   1.519   2.583   6.420 -0.2949  1.4501  0.2152
 3639SOL     OW22552   1.561   0.635   1.702 -0.2948 -0.1663 -0.2090
 3639SOL    HW122553   1.466   0.622   1.696 -0.2400  0.1690 -1.8652
 3639SOL    HW222554   1.590   0.581   1.628 -0.2366  0.9810 -1.0211
 3640SOL     OW22555   1.291   3.088   5.212  0.1093 -0.3736 -0.3657
 3640SOL    HW122556   1.281   3.171   5.258  0.4803 -0.3830 -0.2618
 3640SOL    HW222557   1.228   3.041   5.266  1.2445  0.9198  2.1074
 3641SOL     OW22558   0.385   0.456   0.066  0.4460 -0.5769 -0.2669
 3641SOL    HW122559   0.471   0.491   0.093  0.5854 -1.4772  0.4344
 3641SOL    HW222560   0.352   0.413   0.144 -1.2010  1.8881  0.4144
 3642SOL     OW22561   0.669   2.508  16.048  0.0146  0.0439  0.1128
 3642SOL    HW122562   0.706   2.431  16.091 -2.6352 -0.3794  1.6168
 3642SOL    HW222563   0.740   2.536  15.990 -0.4541  1.4361  0.2253
 3643SOL     OW22564   4.402   0.788   4.316  0.2052 -0.2054  0.3107
 3643SOL    HW122565   4.373   0.802   4.406 -0.2068  1.3051 -0.0687
 3643SOL    HW222566   4.377   0.695   4.309 -1.1518  0.1020  1.1505
 3644SOL     OW22567   0.072   2.254   5.489 -0.1506 -0.2086  0.6933
 3644SOL    HW122568   0.036   2.309   5.419  2.0559  1.4959  0.9095
 3644SOL    HW222569   0.146   2.306   5.520 -1.2201  1.0156  1.2286
 3645SOL     OW22570   1.831   2.435   1.472  0.3333  0.0551  0.2087
 3645SOL    HW122571   1.782   2.427   1.391 -0.8398 -2.1779  1.1459
 3645SOL    HW222572   1.914   2.461   1.432  0.0820 -1.1699 -1.1086
 3646SOL     OW22573   1.625   2.439   2.496 -0.4096  0.5465 -0.1241
 3646SOL    HW122574   1.613   2.386   2.575 -1.3367  0.2163 -0.4893
 3646SOL    HW222575   1.658   2.376   2.432 -0.9529  1.4439 -1.2712
 3647SOL     OW22576   0.041   4.552   8.220 -0.0045 -0.0310 -0.5588
 3647SOL    HW122577   0.105   4.526   8.286  0.0701 -1.9617 -1.4189
 3647SOL    HW222578   4.732   4.469   8.206 -1.9945  0.7307  1.3867
 3648SOL     OW22579   1.004   4.384   3.401 -0.6525 -0.2598 -0.3278
 3648SOL    HW122580   0.990   4.389   3.306 -3.2836  0.2561  0.1154
 3648SOL    HW222581   0.972   4.297   3.425  0.4597 -0.6785 -0.3514
 3649SOL     OW22582   0.300   0.795   7.532  0.0305 -0.3186 -0.3355
 3649SOL    HW122583   0.333   0.881   7.506  0.6199  0.1078  1.8634
 3649SOL    HW222584   0.356   0.783   7.608 -0.5057 -0.4675  0.0371
 3650SOL     OW22585   0.890   1.633   7.048  0.2942  0.5692 -0.2352
 3650SOL    HW122586   0.916   1.648   6.957 -1.2218 -1.9909 -1.1083
 3650SOL    HW222587   0.957   1.573   7.082  0.5818  1.3450  0.5649
 3651SOL     OW22588   4.664   2.527   5.915 -0.2924 -0.1166  0.3168
 3651SOL    HW122589   4.709   2.459   5.865  2.8406  0.6916  2.0441
 3651SOL    HW222590   4.727   2.544   5.985  0.9695 -2.1878 -0.3198
 3652SOL     OW22591   2.878   1.199   8.596 -0.4599  0.0880 -0.6076
 3652SOL    HW122592   2.910   1.200   8.686 -2.0426 -0.8177 -0.0331
 3652SOL    HW222593   2.854   1.289   8.572  0.3000  1.2386  2.8690
 3653SOL     OW22594   0.618   1.234   7.321 -0.3590  0.0200 -0.6327
 3653SOL    HW122595   0.705   1.206   7.291  0.1889 -1.0264  1.8820
 3653SOL    HW222596   0.621   1.310   7.263 -0.1433 -0.3684 -1.1332
 3654SOL     OW22597   3.929   1.623   2.990 -0.2253  0.1583  0.7049
 3654SOL    HW122598   3.973   1.540   3.008  0.7282  0.4595 -0.2125
 3654SOL    HW222599   3.961   1.644   2.902  1.3513 -0.4061  1.1622
 3655SOL     OW22600   0.946   2.342   1.911  0.8063  0.4317  0.1543
 3655SOL    HW122601   1.004   2.283   1.958  1.7241  2.3690  1.4433
 3655SOL    HW222602   1.015   2.383   1.859  0.2371  2.1654  0.7773
 3656SOL     OW22603   0.831   3.455   6.827 -0.1807  0.3677 -0.1720
 3656SOL    HW122604   0.829   3.508   6.907 -1.0119 -0.2156  0.1909
 3656SOL    HW222605   0.835   3.365   6.859  1.2856  0.4191 -0.2132
 3657SOL     OW22606   0.170   1.317   6.966  0.1996 -0.8406 -0.4417
 3657SOL    HW122607   0.229   1.387   6.938 -0.2856  0.4325  1.7689
 3657SOL    HW222608   0.090   1.354   6.928  0.1194 -0.6541 -0.0938
 3658SOL     OW22609   0.905   1.111   8.709  0.5495 -0.4297 -0.2266
 3658SOL    HW122610   0.892   1.158   8.792  0.3132 -0.7069 -0.1057
 3658SOL    HW222611   0.815   1.093   8.680  0.3278 -0.8292  0.6989
 3659SOL     OW22612   2.532   2.542  13.734  0.3066 -0.5114 -0.9747
 3659SOL    HW122613   2.485   2.462  13.708  1.1625 -0.4077 -2.8046
 3659SOL    HW222614   2.499   2.606  13.671  0.7696  0.0154 -0.6773
 3660SOL     OW22615   4.194   1.775   9.113  0.5004  0.3144 -0.1244
 3660SOL    HW122616   4.163   1.690   9.083  0.2977 -0.8525  3.4021
 3660SOL    HW222617   4.276   1.760   9.160 -0.7563  2.2910  2.7043
 3661SOL     OW22618   4.217   2.491   1.783  0.3073  0.1201  0.2437
 3661SOL    HW122619   4.258   2.553   1.843 -1.3936  1.0930  0.3966
 3661SOL    HW222620   4.186   2.544   1.710 -0.1678  1.9906  1.7844
 3662SOL     OW22621   3.636   1.768   6.680 -0.2655  0.5217 -0.2900
 3662SOL    HW122622   3.642   1.840   6.617  1.8816  0.7036  0.1228
 3662SOL    HW222623   3.630   1.822   6.759  1.0784  0.6599 -0.2731
 3663SOL     OW22624   0.607   0.996   1.280 -0.5666  0.0060 -0.0800
 3663SOL    HW122625   0.568   0.944   1.350  1.1155  0.4412  1.1680
 3663SOL    HW222626   0.564   0.961   1.202  0.0976  0.4340 -0.6380
 3664SOL     OW22627   2.926   2.301   9.990 -0.0728 -0.1578  1.1833
 3664SOL    HW122628   2.911   2.295   9.896 -1.0367 -1.1927  1.4097
 3664SOL    HW222629   2.838   2.279  10.022 -1.2619  0.3209 -1.7698
 3665SOL     OW22630   3.327   0.879   0.126  0.0445  0.2971  0.0768
 3665SOL    HW122631   3.399   0.934   0.095  1.8116 -0.9955  1.8750
 3665SOL    HW222632   3.359   0.869   0.216 -0.9713 -0.7703  0.3095
 3666SOL     OW22633   1.246   3.521   6.361 -0.4013 -0.7817 -0.2426
 3666SOL    HW122634   1.228   3.601   6.409  1.5826 -0.1591 -0.5162
 3666SOL    HW222635   1.159   3.482   6.359 -0.6743 -0.1205 -0.6661
 3667SOL     OW22636   4.348   3.660   6.794  0.0563  0.0860 -0.2059
 3667SOL    HW122637   4.391   3.607   6.862 -1.3192 -3.2642 -1.9890
 3667SOL    HW222638   4.385   3.747   6.810  0.1284 -0.5427  3.0653
 3668SOL     OW22639   2.537   2.958   1.287 -0.2914  0.4233 -0.2711
 3668SOL    HW122640   2.610   2.944   1.226  1.7759  0.3323  2.2436
 3668SOL    HW222641   2.585   2.981   1.367 -0.1675 -1.5461  0.2104
 3669SOL     OW22642   4.425   0.727   0.583 -0.0794  0.3590  0.5302
 3669SOL    HW122643   4.340   0.716   0.541  0.1285 -1.1470  0.4670
 3669SOL    HW222644   4.473   0.666   0.526 -1.8273 -0.0120 -0.5520
 3670SOL     OW22645   3.613   4.145   6.634 -0.2414 -0.1153 -0.5312
 3670SOL    HW122646   3.656   4.100   6.706  1.1113  2.9372  0.5764
 3670SOL    HW222647   3.578   4.225   6.674  0.1780 -0.0782 -0.2372
 3671SOL     OW22648   1.838   4.263   1.098  0.2450 -0.1780  0.0958
 3671SOL    HW122649   1.903   4.210   1.145 -0.2035 -2.7803 -2.2624
 3671SOL    HW222650   1.894   4.332   1.064 -1.3308  1.9648  1.8714
 3672SOL     OW22651   3.996   2.188   3.618 -0.3059  0.1322 -0.0355
 3672SOL    HW122652   3.932   2.233   3.563 -0.0267  0.6021  0.0278
 3672SOL    HW222653   3.982   2.098   3.588  0.0616 -0.4607  1.5966
 3673SOL     OW22654   2.176   2.377   8.270  0.4056 -0.4315 -0.0318
 3673SOL    HW122655   2.151   2.361   8.179  0.2546  3.3930 -0.6668
 3673SOL    HW222656   2.105   2.435   8.300 -0.0298 -0.6075 -0.7076
 3674SOL     OW22657   1.743   1.878   3.142  0.0069 -0.3465 -0.1869
 3674SOL    HW122658   1.751   1.785   3.119 -1.7289 -0.4301 -0.4638
 3674SOL    HW222659   1.780   1.870   3.230  0.0575 -0.4392 -0.2161
 3675SOL     OW22660   1.073   1.580   3.307 -0.0667  0.3231 -0.1980
 3675SOL    HW122661   1.075   1.582   3.211  0.2957  2.3396 -0.1613
 3675SOL    HW222662   1.162   1.605   3.332  0.5521 -2.8794  0.7747
 3676SOL     OW22663   4.341   0.814   9.360  0.2583  0.5242  0.2435
 3676SOL    HW122664   4.276   0.842   9.425 -0.5990  0.1512 -0.4379
 3676SOL    HW222665   4.310   0.872   9.290 -2.1552  0.2807  1.0959
 3677SOL     OW22666   0.466   2.718  13.470 -0.5630 -0.3188  0.1522
 3677SOL    HW122667   0.451   2.664  13.392  0.5810 -1.6813  0.8720
 3677SOL    HW222668   0.559   2.707  13.488 -0.5579  3.7675  2.6711
 3678SOL     OW22669   2.981   2.828   5.627 -0.0271 -0.4116  0.3776
 3678SOL    HW122670   2.894   2.864   5.637 -0.7616 -1.7291 -1.1894
 3678SOL    HW222671   2.994   2.752   5.685  0.2702 -0.7167 -0.0871
 3679SOL     OW22672   2.778   1.514   5.085  0.0706 -0.2661 -0.0623
 3679SOL    HW122673   2.830   1.594   5.094  1.4651 -1.4014  1.9169
 3679SOL    HW222674   2.846   1.447   5.087 -1.1062 -1.4778 -1.9947
 3680SOL     OW22675   0.729   3.632   5.823 -0.0868  0.0305 -0.1167
 3680SOL    HW122676   0.736   3.538   5.807  0.6521  0.2578 -1.1166
 3680SOL    HW222677   0.701   3.646   5.913 -0.9911 -4.0686  0.2723
 3681SOL     OW22678   3.585   2.712   2.032  0.1719  0.1135 -0.0365
 3681SOL    HW122679   3.672   2.673   2.036  0.4677  0.5615 -2.1297
 3681SOL    HW222680   3.598   2.785   1.971  0.6828  0.1383  0.1018
 3682SOL     OW22681   1.826   0.020   8.819  0.0698 -0.0153 -0.2282
 3682SOL    HW122682   1.794   0.043   8.907 -0.9108  1.5525 -0.9989
 3682SOL    HW222683   1.771   4.683   8.793 -1.1425  0.5802  0.6681
 3683SOL     OW22684   2.006   4.476   6.345 -0.0166 -0.2238  0.3391
 3683SOL    HW122685   2.085   4.423   6.354  0.0459 -0.0159  0.9912
 3683SOL    HW222686   1.987   4.478   6.251  1.7637 -1.0379 -0.0300
 3684SOL     OW22687   4.094   3.624   6.178  0.5898 -0.5078 -0.3361
 3684SOL    HW122688   4.075   3.713   6.150 -0.7192 -0.1725  1.6228
 3684SOL    HW222689   4.052   3.619   6.264  0.7415 -1.2185 -0.3006
 3685SOL     OW22690   3.726   4.606   3.086  0.1096  0.2052  0.1930
 3685SOL    HW122691   3.741   4.543   3.015 -1.0984  1.3805 -1.0660
 3685SOL    HW222692   3.667   4.559   3.145 -0.0538 -1.2624 -1.1292
 3686SOL     OW22693   3.438   3.989  13.628  0.2908 -0.4760  0.3773
 3686SOL    HW122694   3.342   3.983  13.621  0.1318  0.0568  2.1828
 3686SOL    HW222695   3.467   3.898  13.633 -0.8670 -0.7955  1.3245
 3687SOL     OW22696   2.995   2.372   4.052  0.1897 -0.2793 -0.1760
 3687SOL    HW122697   3.031   2.284   4.042  0.9481  0.1625 -1.2564
 3687SOL    HW222698   3.070   2.429   4.070  1.2185 -1.2946 -1.2665
 3688SOL     OW22699   1.972   0.399  12.407  0.1603  0.3797  0.0342
 3688SOL    HW122700   1.965   0.494  12.411 -1.6043  0.2711 -0.5897
 3688SOL    HW222701   2.019   0.387  12.325 -0.7238 -0.5106 -0.3499
 3689SOL     OW22702   1.346   4.505   2.811  0.3720  0.0803 -0.0953
 3689SOL    HW122703   1.359   4.488   2.717  3.0453 -0.3224  0.3495
 3689SOL    HW222704   1.400   4.438   2.852 -0.2039 -0.7677 -0.7279
 3690SOL     OW22705   1.005   0.491   8.283  0.1374 -0.7998  0.0326
 3690SOL    HW122706   0.939   0.458   8.344  0.8378 -2.3736 -0.0630
 3690SOL    HW222707   1.036   0.562   8.339  0.6766  0.7057 -2.1729
 3691SOL     OW22708   2.235   3.762  14.508  0.2753  0.0597 -0.5558
 3691SOL    HW122709   2.229   3.722  14.421  0.3723 -0.8805 -0.1244
 3691SOL    HW222710   2.300   3.827  14.480  0.5032 -0.4556 -1.2146
 3692SOL     OW22711   1.688   1.114   1.794  0.4478 -0.5258 -0.2535
 3692SOL    HW122712   1.711   1.035   1.745  2.4238 -1.2124  1.7673
 3692SOL    HW222713   1.724   1.184   1.739  0.1425 -1.8980 -2.1866
 3693SOL     OW22714   2.449   1.189   8.883  0.0851 -0.0465  0.0555
 3693SOL    HW122715   2.380   1.225   8.826 -0.1834 -0.7032 -0.0307
 3693SOL    HW222716   2.517   1.248   8.849 -0.1137 -0.2158 -0.6400
 3694SOL     OW22717   3.432   0.846   3.725  0.0237  0.1265 -0.4221
 3694SOL    HW122718   3.510   0.794   3.742  0.0444 -0.0560 -1.0709
 3694SOL    HW222719   3.364   0.779   3.730  1.1293 -0.8274  1.8969
 3695SOL     OW22720   3.247   2.852   8.793  0.4802  0.1021  0.0715
 3695SOL    HW122721   3.158   2.817   8.787  0.2272  0.7708  0.0411
 3695SOL    HW222722   3.295   2.773   8.821  0.5476 -0.0882 -0.5791
 3696SOL     OW22723   3.516   2.665   1.657  0.1165 -0.0947 -0.4507
 3696SOL    HW122724   3.588   2.708   1.703 -2.2554  1.6738  1.6137
 3696SOL    HW222725   3.490   2.746   1.612  2.3547  0.4348 -0.8029
 3697SOL     OW22726   1.012   4.355   6.919 -0.2066  0.3649  0.3682
 3697SOL    HW122727   1.069   4.327   6.848  1.7070 -0.2444  2.1398
 3697SOL    HW222728   1.013   4.449   6.905 -0.8019  0.2805 -0.2398
 3698SOL     OW22729   4.133   2.707   8.508 -0.4940  0.2482  0.4036
 3698SOL    HW122730   4.113   2.675   8.420  1.0090  0.3530  0.0297
 3698SOL    HW222731   4.227   2.725   8.499 -0.1108 -1.5786  0.7899
 3699SOL     OW22732   2.515   0.154   3.383  0.1227 -0.2476  0.2058
 3699SOL    HW122733   2.594   0.106   3.407  0.6284 -0.4119 -1.8316
 3699SOL    HW222734   2.518   0.234   3.436 -0.5600 -0.9093  1.2373
 3700SOL     OW22735   2.755   0.066  17.397 -0.4979 -0.1449 -0.2789
 3700SOL    HW122736   2.682   0.123  17.424 -0.6126 -0.3324 -0.1985
 3700SOL    HW222737   2.768   0.012  17.474 -3.8503  1.2685  1.2941
 3701SOL     OW22738   3.374   1.106  11.590 -0.7392 -0.4511 -0.4018
 3701SOL    HW122739   3.364   1.025  11.639 -0.9557  0.1331  0.5190
 3701SOL    HW222740   3.468   1.089  11.581 -0.4551  1.3751 -0.8645
 3702SOL     OW22741   4.281   1.214   4.196 -0.2257 -0.3160  0.5387
 3702SOL    HW122742   4.244   1.178   4.276 -0.3004  0.5470  0.8952
 3702SOL    HW222743   4.363   1.166   4.188 -0.3404 -0.4104 -0.0701
 3703SOL     OW22744   3.996   2.503  12.792  0.4799  0.8202 -0.0255
 3703SOL    HW122745   3.963   2.413  12.799 -3.7964  2.5294  1.6703
 3703SOL    HW222746   4.091   2.496  12.796  0.4237  0.6115  1.0088
 3704SOL     OW22747   2.261   0.855  11.144  0.6387 -0.0668 -0.2881
 3704SOL    HW122748   2.284   0.767  11.113  1.3307 -0.7396  2.1109
 3704SOL    HW222749   2.174   0.864  11.106  0.8328 -1.3740 -1.0435
 3705SOL     OW22750   0.218   2.947  14.756 -0.6743 -0.6992 -0.5873
 3705SOL    HW122751   0.234   2.971  14.847 -1.2170  2.0889 -1.2317
 3705SOL    HW222752   0.312   2.940  14.740 -0.8593 -2.0479 -1.1241
 3706SOL     OW22753   2.629   2.020   7.789  0.3953  0.1420  0.0985
 3706SOL    HW122754   2.712   2.031   7.836  0.5783  0.3187 -0.2633
 3706SOL    HW222755   2.648   2.058   7.704  0.5750  1.1958  0.6022
 3707SOL     OW22756   3.374   4.710  17.122  0.5066 -0.2082  0.3679
 3707SOL    HW122757   3.388   4.627  17.075  1.5799  0.4422 -0.4436
 3707SOL    HW222758   3.373   0.025  17.042 -0.3019  2.4227  2.0958
 3708SOL     OW22759   2.536   1.189  15.508 -0.2560 -0.2101 -0.2813
 3708SOL    HW122760   2.524   1.270  15.460 -2.6507  0.0408  0.7588
 3708SOL    HW222761   2.522   1.119  15.444 -0.0536  1.4356 -2.1076
 3709SOL     OW22762   3.895   3.001   6.007 -0.0418  0.6935 -0.4249
 3709SOL    HW122763   3.858   3.081   5.970 -0.9230  0.9610  1.0912
 3709SOL    HW222764   3.988   3.026   6.008  0.2024 -0.2629  1.1210
 3710SOL     OW22765   0.724   3.163   1.243 -0.3083  0.4313 -0.0226
 3710SOL    HW122766   0.790   3.163   1.173  1.9631 -3.6918  2.1108
 3710SOL    HW222767   0.694   3.074   1.228 -0.2733  0.5747 -0.9294
 3711SOL     OW22768   3.338   3.130  12.284 -0.1469 -0.4345 -0.2382
 3711SOL    HW122769   3.398   3.074  12.235  1.4679  0.3542  0.8388
 3711SOL    HW222770   3.258   3.104  12.239 -1.0628 -1.5709  2.0617
 3712SOL     OW22771   0.736   3.812   1.453 -0.0863  0.0062 -0.7176
 3712SOL    HW122772   0.749   3.850   1.367 -1.9119 -1.2120 -1.5291
 3712SOL    HW222773   0.827   3.814   1.481  0.0719  3.1288 -1.4972
 3713SOL     OW22774   2.718   3.860   1.915 -0.1567 -0.2921 -0.0240
 3713SOL    HW122775   2.640   3.899   1.877  0.0711 -0.2210 -0.4206
 3713SOL    HW222776   2.687   3.839   2.003  0.5393 -1.5444 -0.0733
 3714SOL     OW22777   2.720   0.018   3.456 -0.1487  0.6808 -0.1578
 3714SOL    HW122778   2.799   4.732   3.406 -0.2318  1.9817 -0.8832
 3714SOL    HW222779   2.698   4.672   3.499 -1.0145 -0.1288 -2.1543
 3715SOL     OW22780   4.378   0.358   8.382 -0.1914 -0.6008  0.5401
 3715SOL    HW122781   4.404   0.312   8.302 -2.2241 -0.9662  0.0985
 3715SOL    HW222782   4.365   0.444   8.343 -1.2767 -0.4615  1.2025
 3716SOL     OW22783   3.725   0.831   0.799 -0.2435 -0.1034 -0.4880
 3716SOL    HW122784   3.724   0.908   0.856 -3.1443  0.2430 -1.0433
 3716SOL    HW222785   3.637   0.801   0.821 -0.3724  1.7354  1.5627
 3717SOL     OW22786   4.629   2.554   2.374  0.2069 -0.1287 -0.1612
 3717SOL    HW122787   4.606   2.552   2.281 -3.9210  1.3523  0.8405
 3717SOL    HW222788   4.721   2.581   2.374  1.1874 -3.4094 -0.3077
 3718SOL     OW22789   2.047   2.541   1.344  0.0136  0.1257  0.4298
 3718SOL    HW122790   2.098   2.500   1.275 -0.2836 -2.0720  1.5217
 3718SOL    HW222791   2.069   2.634   1.340 -0.8252  0.2665 -0.9080
 3719SOL     OW22792   1.868   4.554   7.271 -0.4365  0.3226 -0.3281
 3719SOL    HW122793   1.790   4.609   7.263 -0.5096  0.2449 -0.1382
 3719SOL    HW222794   1.922   4.612   7.324  0.6672 -2.2710  1.3992
 3720SOL     OW22795   0.945   3.867   5.187 -0.1315  0.4709 -0.1387
 3720SOL    HW122796   0.933   3.947   5.137  0.3842  0.7030  0.1142
 3720SOL    HW222797   0.985   3.823   5.112  0.9928 -0.4573  1.0009
 3721SOL     OW22798   4.590   1.952   2.750  0.4229  0.2001 -0.5167
 3721SOL    HW122799   4.537   2.015   2.701 -2.3020 -2.4102 -0.9376
 3721SOL    HW222800   4.525   1.885   2.772  2.1836 -0.8934  1.3988
 3722SOL     OW22801   4.475   2.772   5.367 -0.0572 -0.0086  0.6604
 3722SOL    HW122802   4.447   2.768   5.458 -0.3979  1.3772  0.6195
 3722SOL    HW222803   4.415   2.727   5.308  0.1951  0.2694  0.1831
 3723SOL     OW22804   1.601   1.221  14.412 -0.3020  0.6692  0.0826
 3723SOL    HW122805   1.673   1.204  14.352 -0.5903 -1.2719  0.3056
 3723SOL    HW222806   1.564   1.292  14.359  0.4528  1.0465  0.0634
 3724SOL     OW22807   1.987   0.167   6.383 -0.3321  0.6588  0.0380
 3724SOL    HW122808   1.935   0.087   6.394  0.8175  0.2934  2.6651
 3724SOL    HW222809   2.058   0.161   6.446 -0.5692 -0.0032  0.2434
 3725SOL     OW22810   2.903   2.144   4.983 -0.1542  0.4381  0.1378
 3725SOL    HW122811   2.808   2.140   4.986 -0.2153  0.6430 -1.3740
 3725SOL    HW222812   2.924   2.228   5.023 -2.8362  1.8938 -1.5023
 3726SOL     OW22813   0.753   0.803   8.437  0.4815 -0.5971  0.3895
 3726SOL    HW122814   0.674   0.852   8.461 -0.0849 -1.6304  0.6323
 3726SOL    HW222815   0.826   0.856   8.470  0.5241 -1.3124  1.4560
 3727SOL     OW22816   0.492   2.968  12.278  0.1792  0.8270 -0.0728
 3727SOL    HW122817   0.428   3.016  12.330  1.3374 -0.0904  2.2095
 3727SOL    HW222818   0.554   3.040  12.269  1.4328 -0.3765 -1.1098
 3728SOL     OW22819   1.211   3.629  14.564  0.0372  0.5338  0.3427
 3728SOL    HW122820   1.206   3.714  14.520 -1.0925  0.2390 -0.1014
 3728SOL    HW222821   1.174   3.646  14.651  0.3536 -0.2369  0.6263
 3729SOL     OW22822   2.388   2.992  16.273 -0.5728 -0.5774 -0.0495
 3729SOL    HW122823   2.432   2.943  16.342 -2.4295 -0.1691  1.4271
 3729SOL    HW222824   2.448   2.984  16.199  0.8771  2.2770  0.8377
 3730SOL     OW22825   1.603   1.213   6.108  0.2937  0.2818  0.2388
 3730SOL    HW122826   1.637   1.192   6.021 -0.5141  2.4850 -0.6102
 3730SOL    HW222827   1.623   1.304   6.129 -2.6558  0.5823  1.7734
 3731SOL     OW22828   3.944   3.266  11.769 -0.7338 -0.4052  0.5992
 3731SOL    HW122829   3.947   3.248  11.863  0.3046 -2.9530  0.0888
 3731SOL    HW222830   4.032   3.303  11.759 -1.6574  1.8117  0.7467
 3732SOL     OW22831   0.594   3.746  14.386  0.3302  0.4375 -0.1115
 3732SOL    HW122832   0.562   3.728  14.297  1.3877  0.6570 -0.5430
 3732SOL    HW222833   0.673   3.692  14.389 -0.7511 -0.9278  3.0371
 3733SOL     OW22834   0.266   1.112   6.646  0.2950 -0.6034 -0.6378
 3733SOL    HW122835   0.205   1.185   6.636 -1.9471 -2.2177  1.2869
 3733SOL    HW222836   0.218   1.047   6.697  0.7207 -0.1701  0.3098
 3734SOL     OW22837   1.718   1.133   2.737  0.0607  0.4145 -0.1625
 3734SOL    HW122838   1.738   1.191   2.663  0.5233 -0.0966 -0.4479
 3734SOL    HW222839   1.707   1.049   2.691  1.5430 -0.0604  0.3266
 3735SOL     OW22840   2.229   3.613  13.958 -0.4521 -0.4311  0.1903
 3735SOL    HW122841   2.155   3.672  13.967 -0.9680 -0.7778 -1.8326
 3735SOL    HW222842   2.189   3.531  13.987  1.2179 -2.2914 -2.7616
 3736SOL     OW22843   4.667   1.855   7.637  0.2182  0.7120  0.0559
 3736SOL    HW122844   4.663   1.923   7.704  0.1211 -0.4404  1.2417
 3736SOL    HW222845   4.603   1.792   7.670 -0.3796  0.2135 -2.0570
 3737SOL     OW22846   4.133   4.213   4.495 -0.0488 -0.4131 -0.0803
 3737SOL    HW122847   4.121   4.249   4.407  1.7079  0.6961  0.1433
 3737SOL    HW222848   4.188   4.137   4.476  0.6429  0.4762 -1.5805
 3738SOL     OW22849   2.023   4.057   7.693 -0.1503  0.2996  0.3413
 3738SOL    HW122850   2.067   3.997   7.754 -2.6150 -0.3690  1.4515
 3738SOL    HW222851   1.933   4.060   7.724 -0.8338  1.8506 -1.8206
 3739SOL     OW22852   2.280   4.431   6.084 -0.7310  0.0004 -0.4387
 3739SOL    HW122853   2.374   4.433   6.065 -0.7952 -3.2816 -1.1864
 3739SOL    HW222854   2.281   4.410   6.178  2.1499 -0.1160 -0.5045
 3740SOL     OW22855   3.710   0.444   3.289 -0.1176  0.0573 -0.1620
 3740SOL    HW122856   3.806   0.436   3.295 -0.2690 -0.4660  1.4079
 3740SOL    HW222857   3.690   0.364   3.240 -1.4461 -0.1722  0.7689
 3741SOL     OW22858   0.657   1.137  13.024 -0.4359  0.0472  0.2968
 3741SOL    HW122859   0.615   1.220  13.002 -1.1723 -0.5231 -0.4450
 3741SOL    HW222860   0.605   1.086  12.962 -1.7992  1.5597  0.1976
 3742SOL     OW22861   3.614   0.861   9.085 -0.1000  0.0548 -0.1091
 3742SOL    HW122862   3.664   0.793   9.039 -0.6732  0.1339 -0.8543
 3742SOL    HW222863   3.683   0.913   9.124  0.6166 -1.1921  0.2748
 3743SOL     OW22864   2.457   1.681   8.464 -0.0169  0.7579  0.1528
 3743SOL    HW122865   2.444   1.750   8.399  2.6529  0.8130 -0.3367
 3743SOL    HW222866   2.397   1.718   8.528  1.0636  0.3006  1.4476
 3744SOL     OW22867   0.929   1.426  14.429  0.5857  0.0325 -0.0368
 3744SOL    HW122868   0.970   1.344  14.401  0.4391 -0.7212  1.9468
 3744SOL    HW222869   1.007   1.481  14.417  0.8044 -0.6453 -1.7682
 3745SOL     OW22870   1.616   0.227  12.855  0.3173 -0.2016 -0.5301
 3745SOL    HW122871   1.640   0.230  12.947  0.3986 -2.0031 -0.4841
 3745SOL    HW222872   1.558   0.302  12.844  0.4884 -0.1005 -0.7398
 3746SOL     OW22873   3.689   0.226  10.997  0.3587 -0.3519 -0.1828
 3746SOL    HW122874   3.751   0.171  10.950  0.5684  0.2379 -0.6075
 3746SOL    HW222875   3.622   0.175  11.042  1.2341 -0.7023  0.7294
 3747SOL     OW22876   2.235   3.244   3.965 -0.0507  0.0650 -0.2420
 3747SOL    HW122877   2.311   3.228   4.021 -1.2320 -0.3280  1.2368
 3747SOL    HW222878   2.187   3.308   4.017  1.3277 -0.4538  1.6702
 3748SOL     OW22879   3.815   0.438   2.680 -0.2925  0.1835  0.0854
 3748SOL    HW122880   3.758   0.453   2.755  0.3475  1.6303  0.2810
 3748SOL    HW222881   3.789   0.504   2.617 -1.3463 -1.6447 -1.4013
 3749SOL     OW22882   1.307   1.343   2.406  0.8836  0.0644  0.4059
 3749SOL    HW122883   1.381   1.365   2.463  0.4503  0.1918  0.9189
 3749SOL    HW222884   1.321   1.249   2.409 -0.1554 -0.0688  1.1284
 3750SOL     OW22885   4.259   1.472  10.106  0.1027 -0.7201  0.1819
 3750SOL    HW122886   4.226   1.402  10.049  0.6585  0.3544 -1.4725
 3750SOL    HW222887   4.205   1.549  10.093  3.1662  1.5162  0.7422
 3751SOL     OW22888   2.960   3.419   1.689  0.0239  0.0572 -0.4768
 3751SOL    HW122889   2.904   3.437   1.765  0.2401  1.8951 -0.7564
 3751SOL    HW222890   3.050   3.434   1.717 -1.0547  2.4154  1.7621
 3752SOL     OW22891   2.929   1.412   5.566 -0.3958  0.3789  0.9237
 3752SOL    HW122892   3.010   1.377   5.530 -0.8704 -0.9707  1.1589
 3752SOL    HW222893   2.870   1.414   5.490 -0.2341 -1.4176  0.7409
 3753SOL     OW22894   1.559   3.974   5.317  0.0538 -0.0650 -0.3205
 3753SOL    HW122895   1.540   4.052   5.264 -0.2956  0.4672  0.5805
 3753SOL    HW222896   1.655   3.972   5.314 -0.0651 -2.3955 -2.7209
 3754SOL     OW22897   3.672   2.537   4.255 -0.7442 -0.4803  0.0609
 3754SOL    HW122898   3.721   2.615   4.229  0.0969 -0.3383  2.1237
 3754SOL    HW222899   3.686   2.475   4.183 -1.8456 -0.5852 -0.0705
 3755SOL     OW22900   2.808   3.616   6.550 -0.1309  0.3397 -0.1549
 3755SOL    HW122901   2.892   3.636   6.592 -0.3191 -2.7035  1.6786
 3755SOL    HW222902   2.768   3.551   6.608 -0.0446  1.2395  0.9265
 3756SOL     OW22903   0.306   2.560   9.360  0.3815 -0.1865  0.0206
 3756SOL    HW122904   0.302   2.633   9.421  1.2379 -0.1751  0.0655
 3756SOL    HW222905   0.225   2.564   9.309 -0.1423  1.7710  1.0401
 3757SOL     OW22906   3.970   2.102  15.166  0.7385 -0.0083  0.0536
 3757SOL    HW122907   4.061   2.076  15.157  0.7412  0.0395 -0.0489
 3757SOL    HW222908   3.954   2.140  15.080 -0.9982 -0.9197 -0.0397
 3758SOL     OW22909   2.194   1.295   5.066 -0.4512 -0.0494 -0.0016
 3758SOL    HW122910   2.126   1.301   5.133  0.3452 -0.0636  0.8027
 3758SOL    HW222911   2.263   1.331   5.122 -0.1298  0.8150 -0.9609
 3759SOL     OW22912   4.288   0.938   2.900  0.0448 -0.2200  0.4393
 3759SOL    HW122913   4.324   1.020   2.932 -0.7952 -0.3894  1.8002
 3759SOL    HW222914   4.352   0.900   2.839 -0.3700 -1.1836  0.6041
 3760SOL     OW22915   4.458   3.923   4.128  0.2092  0.1635 -0.1108
 3760SOL    HW122916   4.365   3.948   4.134  0.2778  0.3179  0.2735
 3760SOL    HW222917   4.467   3.913   4.033  1.8010 -1.0722  0.1762
 3761SOL     OW22918   2.812   4.103   6.076  0.3487  0.0358 -0.3802
 3761SOL    HW122919   2.725   4.135   6.051 -0.3382 -0.1933  1.6800
 3761SOL    HW222920   2.810   4.026   6.020  0.0760  1.3151 -2.1112
 3762SOL     OW22921   4.529   3.450  12.666 -0.0581  0.0535 -0.0576
 3762SOL    HW122922   4.598   3.386  12.647 -1.2470 -0.6002 -2.2666
 3762SOL    HW222923   4.470   3.390  12.711  0.2842  1.8512  2.7380
 3763SOL     OW22924   2.598   2.270   9.319 -0.2245  0.1973 -0.2430
 3763SOL    HW122925   2.511   2.268   9.279 -0.9777 -0.2366  1.4431
 3763SOL    HW222926   2.653   2.291   9.243  1.5506 -1.0726  0.7042
 3764SOL     OW22927   0.526   1.077  14.237  0.1277 -0.2108 -0.1947
 3764SOL    HW122928   0.542   1.170  14.257 -1.4379  0.0218 -0.0239
 3764SOL    HW222929   0.457   1.088  14.172  0.0161 -0.6222 -0.1462
 3765SOL     OW22930   4.174   3.120   2.332 -0.1243  0.0533  0.0152
 3765SOL    HW122931   4.243   3.057   2.349 -0.5092  0.1811  1.9888
 3765SOL    HW222932   4.187   3.142   2.239 -0.6530 -1.2843 -0.3733
 3766SOL     OW22933   4.266   0.575   9.237 -0.5873 -0.1714  0.1460
 3766SOL    HW122934   4.270   0.645   9.302 -1.7711 -0.2899  0.3558
 3766SOL    HW222935   4.244   0.496   9.286  0.3390 -1.8507 -2.1431
 3767SOL     OW22936   1.019   1.617   1.837 -0.1572 -0.0789 -0.7664
 3767SOL    HW122937   0.983   1.558   1.904  1.1260 -1.2078 -1.0631
 3767SOL    HW222938   0.935   1.649   1.803  0.1069  2.4539  0.9946
 3768SOL     OW22939   0.401   1.422   7.444 -0.0539 -0.2063  0.3525
 3768SOL    HW122940   0.453   1.501   7.423  2.0548 -2.0374 -1.3465
 3768SOL    HW222941   0.470   1.377   7.492  1.1839  1.7713  0.4470
 3769SOL     OW22942   3.866   0.184  12.727 -0.0444 -0.0958 -0.2043
 3769SOL    HW122943   3.939   0.126  12.751 -1.8052 -1.0580  2.7986
 3769SOL    HW222944   3.803   0.156  12.794 -1.3568  2.2473 -0.4508
 3770SOL     OW22945   2.996   2.914  10.616 -0.6780 -0.1278  0.9882
 3770SOL    HW122946   3.028   2.905  10.526 -2.9686 -1.3671  0.2769
 3770SOL    HW222947   2.953   3.000  10.616 -2.0292 -0.8074  1.4571
 3771SOL     OW22948   1.736   3.039   0.996 -0.5347 -0.4768 -0.4716
 3771SOL    HW122949   1.660   3.097   0.997  0.0856  0.2651  2.1620
 3771SOL    HW222950   1.711   2.948   0.979  0.2251 -1.0331  1.4250
 3772SOL     OW22951   3.762   1.803   3.866 -0.0951 -0.5988  0.4625
 3772SOL    HW122952   3.788   1.814   3.958 -0.2260  1.8645  0.2259
 3772SOL    HW222953   3.842   1.838   3.825 -0.7117 -0.0867 -0.2855
 3773SOL     OW22954   1.483   2.740  10.468 -0.4448  0.5146  0.0941
 3773SOL    HW122955   1.540   2.775  10.400  0.9668 -0.9366  0.5381
 3773SOL    HW222956   1.402   2.793  10.471 -0.4630  0.5398 -1.0760
 3774SOL     OW22957   1.895   1.552   6.512  0.7203 -0.0906 -0.0689
 3774SOL    HW122958   1.804   1.581   6.516  0.2708 -1.0717 -2.7037
 3774SOL    HW222959   1.892   1.481   6.576 -0.3402  0.4331  0.4574
 3775SOL     OW22960   4.413   4.390   4.595  0.1101  0.6973 -0.1638
 3775SOL    HW122961   4.402   4.367   4.688  1.6266  1.5528  0.2195
 3775SOL    HW222962   4.352   4.462   4.581 -1.4368  0.0374  3.1319
 3776SOL     OW22963   0.472   3.311   8.943 -0.1368 -0.5524 -0.3144
 3776SOL    HW122964   0.441   3.305   9.033 -1.3306  1.2942 -0.5791
 3776SOL    HW222965   0.390   3.291   8.898 -0.1432  2.5584 -1.6741
 3777SOL     OW22966   3.134   2.411   5.573 -0.0863 -0.4464 -0.1167
 3777SOL    HW122967   3.122   2.468   5.497  0.3272 -1.8517 -1.2365
 3777SOL    HW222968   3.229   2.405   5.579 -0.1406 -0.7655  0.4069
 3778SOL     OW22969   3.964   2.380   3.806  0.2306  1.0723 -0.0970
 3778SOL    HW122970   4.045   2.431   3.801  0.6839  0.3543 -0.1086
 3778SOL    HW222971   3.981   2.307   3.746  2.6073 -0.4289  2.4449
 3779SOL     OW22972   1.445   4.585   3.711  0.3617  0.0473 -0.2618
 3779SOL    HW122973   1.467   4.492   3.721  2.3708  0.7001  1.4301
 3779SOL    HW222974   1.504   4.598   3.636  1.7134 -1.5461  0.5329
 3780SOL     OW22975   2.556   0.443   3.022  0.4243 -0.2790  0.2880
 3780SOL    HW122976   2.539   0.365   3.077 -0.2264  0.2950  0.9063
 3780SOL    HW222977   2.533   0.517   3.078 -2.2206 -1.5405  0.9127
 3781SOL     OW22978   0.867   4.094   5.001  0.1063 -0.5052  0.1750
 3781SOL    HW122979   0.794   4.149   4.972 -0.7132 -1.9447 -0.4793
 3781SOL    HW222980   0.918   4.084   4.921 -1.7714  2.5117 -1.4084
 3782SOL     OW22981   2.184   3.791   4.696  0.0523 -0.4279  0.5018
 3782SOL    HW122982   2.265   3.840   4.707 -0.3698  1.0365 -2.8754
 3782SOL    HW222983   2.125   3.866   4.695  1.6626  0.8101 -0.6965
 3783SOL     OW22984   0.528   4.210   0.327 -0.3393  0.2889 -0.0421
 3783SOL    HW122985   0.477   4.187   0.405  0.0857 -0.5418 -0.0121
 3783SOL    HW222986   0.579   4.131   0.307  0.0382  0.3737  0.5837
 3784SOL     OW22987   4.298   2.364   3.678  0.3511  0.2054 -0.0220
 3784SOL    HW122988   4.340   2.386   3.761 -2.2088 -2.0999  1.8790
 3784SOL    HW222989   4.367   2.351   3.613 -0.9989 -0.4461 -1.3370
 3785SOL     OW22990   4.607   1.554   5.557  0.5282 -0.2163 -0.1474
 3785SOL    HW122991   4.696   1.580   5.581  0.7006 -1.1231  0.1939
 3785SOL    HW222992   4.586   1.620   5.491  2.7455 -0.0971 -0.7164
 3786SOL     OW22993   1.131   2.081   5.366  0.1705  0.6627 -0.1045
 3786SOL    HW122994   1.166   2.111   5.282  0.3144  0.0872 -0.2511
 3786SOL    HW222995   1.211   2.080   5.418  0.5316  0.2432 -0.6711
 3787SOL     OW22996   4.604   2.507   7.567 -0.4182  0.2193  0.4323
 3787SOL    HW122997   4.673   2.463   7.616 -0.4226 -0.1838  0.0798
 3787SOL    HW222998   4.528   2.476   7.616  1.0255 -0.0212  2.5322
 3788SOL     OW22999   4.332   0.625   1.680 -0.5253  0.1891  1.0993
 3788SOL    HW123000   4.312   0.717   1.666  1.9372  0.6343  0.5342
 3788SOL    HW223001   4.338   0.591   1.591 -3.7433 -0.4316  1.1405
 3789SOL     OW23002   2.347   0.211   6.234  0.3428 -0.7303  0.6220
 3789SOL    HW123003   2.336   0.279   6.300 -0.9235  1.2896 -1.6610
 3789SOL    HW223004   2.307   0.137   6.280 -3.0393 -0.4050 -1.7456
 3790SOL     OW23005   4.391   1.124   8.968  0.0466  0.1455 -0.5729
 3790SOL    HW123006   4.445   1.096   8.894  1.3655  1.7937 -0.2220
 3790SOL    HW223007   4.364   1.210   8.936  0.1856  0.6892  0.7769
 3791SOL     OW23008   3.996   2.260  11.611  0.4763  0.2026  0.1574
 3791SOL    HW123009   3.994   2.305  11.526  1.7738 -1.1644 -0.6122
 3791SOL    HW223010   4.083   2.276  11.649 -0.4182  1.8132  1.5273
 3792SOL     OW23011   4.430   3.395   4.366  0.7370 -0.5128 -0.8032
 3792SOL    HW123012   4.437   3.304   4.337  0.8056 -0.6422 -0.3846
 3792SOL    HW223013   4.495   3.427   4.304  0.3490  0.2015 -0.8429
 3793SOL     OW23014   2.144   1.347   2.357 -0.3634 -0.3680  0.6014
 3793SOL    HW123015   2.222   1.343   2.302  0.7610 -0.2782  2.2065
 3793SOL    HW223016   2.094   1.422   2.324  1.2048  0.1974 -0.4652
 3794SOL     OW23017   4.486   3.314   3.998  0.1290 -0.4725  0.0395
 3794SOL    HW123018   4.527   3.355   4.074 -0.0315 -0.7618  0.2790
 3794SOL    HW223019   4.465   3.386   3.938  3.9117 -0.0932 -0.7962
 3795SOL     OW23020   3.745   3.277   8.599  0.2634 -0.1964 -0.1244
 3795SOL    HW123021   3.798   3.350   8.565 -0.0451  0.0911  0.0132
 3795SOL    HW223022   3.666   3.323   8.627  0.7704  1.2710 -1.0569
 3796SOL     OW23023   3.760   4.545   4.891  0.1086 -0.1208  0.2547
 3796SOL    HW123024   3.758   4.542   4.987  1.0287 -1.5941  0.2286
 3796SOL    HW223025   3.793   4.460   4.861  0.9648  1.0896 -2.2876
 3797SOL     OW23026   1.677   4.369   5.941 -0.2489 -0.5521  0.0910
 3797SOL    HW123027   1.649   4.460   5.930 -0.1504 -0.3327  1.7062
 3797SOL    HW223028   1.744   4.365   5.873  1.2191  1.5778  1.3854
 3798SOL     OW23029   2.278   2.459   0.471  0.0291 -0.3457  0.1273
 3798SOL    HW123030   2.296   2.399   0.543  3.2666  0.5360  0.0582
 3798SOL    HW223031   2.326   2.536   0.500  0.4274 -0.6810  0.3621
 3799SOL     OW23032   3.396   3.718   4.837 -0.5402 -0.4273  0.1322
 3799SOL    HW123033   3.328   3.782   4.814 -0.1989 -0.4474 -0.9283
 3799SOL    HW223034   3.475   3.760   4.803 -2.2680  2.6066 -0.1605
 3800SOL     OW23035   4.338   3.160   8.364  0.0960  0.2165  0.0681
 3800SOL    HW123036   4.346   3.196   8.276  0.0313  0.5162  0.1803
 3800SOL    HW223037   4.429   3.155   8.393  0.6126  0.4749 -1.5490
 3801SOL     OW23038   2.259   1.398   8.459  0.0171  0.3446  0.5503
 3801SOL    HW123039   2.220   1.406   8.546 -2.3282  1.4161 -0.5817
 3801SOL    HW223040   2.352   1.418   8.468  0.2506  0.0143 -1.0991
 3802SOL     OW23041   1.501   0.383   3.419  0.4456 -0.6642  0.2234
 3802SOL    HW123042   1.425   0.399   3.363  0.6862 -0.7642 -0.1287
 3802SOL    HW223043   1.499   0.288   3.428  1.1408 -0.7865 -0.9228
 3803SOL     OW23044   2.197   3.997   9.047  0.1257  0.6038  0.2538
 3803SOL    HW123045   2.278   3.999   9.098  0.5287  0.7356 -0.3960
 3803SOL    HW223046   2.138   3.937   9.094  1.5302 -1.9059 -1.1875
 3804SOL     OW23047   3.336   0.803   6.754 -0.1647 -0.2675 -0.1122
 3804SOL    HW123048   3.293   0.750   6.686  1.8520 -2.6218  0.4510
 3804SOL    HW223049   3.394   0.739   6.795 -1.6178 -0.5656  1.4863
 3805SOL     OW23050   3.644   1.134  14.784 -0.3872 -0.0346  0.1786
 3805SOL    HW123051   3.645   1.164  14.875  0.5011 -2.4415  0.9524
 3805SOL    HW223052   3.707   1.187  14.735 -1.8791  0.1130 -1.6073
 3806SOL     OW23053   2.556   1.826  12.540 -0.1715 -0.2804 -0.2922
 3806SOL    HW123054   2.648   1.855  12.537 -0.5160  0.8947  0.3977
 3806SOL    HW223055   2.511   1.902  12.578 -0.0043  0.5699 -1.8100
 3807SOL     OW23056   3.526   0.530  13.854 -0.5257 -0.5899  0.1778
 3807SOL    HW123057   3.435   0.515  13.830 -0.9676  1.1592  0.7378
 3807SOL    HW223058   3.539   0.493  13.941 -0.3358 -1.4781 -0.2311
 3808SOL     OW23059   2.468   1.306   3.919  0.1992 -0.4416 -0.2782
 3808SOL    HW123060   2.459   1.280   3.828 -0.7467 -0.7120 -0.1005
 3808SOL    HW223061   2.501   1.223   3.952  1.6329  0.1920 -0.0772
 3809SOL     OW23062   3.033   4.441  11.558  0.2825  0.4681 -0.0335
 3809SOL    HW123063   2.952   4.401  11.589  1.2647 -1.4580  0.0719
 3809SOL    HW223064   3.032   4.419  11.465  0.9469 -0.2872  0.1392
 3810SOL     OW23065   2.996   4.321   2.661 -0.5998  0.1612 -0.4887
 3810SOL    HW123066   3.021   4.246   2.608  0.7502  0.9602 -1.0039
 3810SOL    HW223067   2.908   4.332   2.626 -0.8358  2.5736  0.8683
 3811SOL     OW23068   2.667   2.536  13.141  0.5268 -0.3893 -0.3537
 3811SOL    HW123069   2.732   2.558  13.207 -2.1095  2.7830  1.2072
 3811SOL    HW223070   2.610   2.611  13.162  0.0780 -0.6505 -0.6481
 3812SOL     OW23071   2.503   3.263   3.027 -0.2365 -0.0558 -0.4801
 3812SOL    HW123072   2.533   3.318   3.099  0.3696  0.3372 -1.0347
 3812SOL    HW223073   2.479   3.187   3.080 -1.9748  1.1554  0.4663
 3813SOL     OW23074   0.077   0.610   0.141  0.0455  0.1409 -0.3755
 3813SOL    HW123075   0.108   0.529   0.183  2.0763  1.5758  0.8792
 3813SOL    HW223076   0.123   0.684   0.180 -0.1075  0.4584 -0.7931
 3814SOL     OW23077   0.688   4.661   8.749  0.0396 -0.0296 -0.2502
 3814SOL    HW123078   0.596   4.644   8.732 -0.2162  0.7459  0.3464
 3814SOL    HW223079   0.728   4.585   8.707  0.3323  0.6523 -1.2093
 3815SOL     OW23080   3.413   2.077   1.663  0.1682 -0.0444 -0.0043
 3815SOL    HW123081   3.412   2.135   1.739 -0.6068 -1.4789  1.0804
 3815SOL    HW223082   3.507   2.070   1.645 -0.0306 -2.2257 -0.2208
 3816SOL     OW23083   4.051   4.231   2.759 -0.1268 -0.0502  0.3416
 3816SOL    HW123084   4.123   4.279   2.801 -0.6240  1.7037 -0.8319
 3816SOL    HW223085   4.035   4.295   2.690 -1.0110 -0.3553  0.2642
 3817SOL     OW23086   3.279   0.248   7.102 -0.3734  0.5530  0.3771
 3817SOL    HW123087   3.285   0.329   7.051  3.8905 -1.5684 -2.5113
 3817SOL    HW223088   3.351   0.196   7.067  1.7102  2.5484  1.6509
 3818SOL     OW23089   0.441   3.632   3.286  0.1311 -0.0560 -0.4233
 3818SOL    HW123090   0.431   3.689   3.210  3.5956  1.4991  0.3029
 3818SOL    HW223091   0.508   3.670   3.342  0.0817  0.1601 -0.5099
 3819SOL     OW23092   4.323   0.849   2.074  0.2846 -0.3591  0.1804
 3819SOL    HW123093   4.386   0.869   2.006  1.0416 -1.1185  0.6665
 3819SOL    HW223094   4.351   0.761   2.101  1.4208  0.1072  0.5110
 3820SOL     OW23095   0.835   2.728   5.973 -0.5041  0.2034 -0.5650
 3820SOL    HW123096   0.885   2.797   5.928  0.1863  0.7779  1.1044
 3820SOL    HW223097   0.834   2.765   6.061 -0.3254  1.5033 -1.1045
 3821SOL     OW23098   0.135   0.553   8.504  0.0720 -0.7617 -0.8879
 3821SOL    HW123099   0.133   0.529   8.412 -2.3879  1.2919 -1.3769
 3821SOL    HW223100   0.207   0.500   8.539 -0.7246 -0.7348  0.7917
 3822SOL     OW23101   2.893   2.266   0.330  0.2305  0.1387 -0.4944
 3822SOL    HW123102   2.979   2.296   0.358  0.0358 -0.4116  0.6890
 3822SOL    HW223103   2.830   2.309   0.388 -1.1089 -2.0914 -0.2882
 3823SOL     OW23104   3.603   3.740   2.298  0.0736 -0.6541 -0.5125
 3823SOL    HW123105   3.682   3.793   2.285 -1.6883  1.5581 -2.1913
 3823SOL    HW223106   3.631   3.688   2.373  0.3062  0.3430  0.0910
 3824SOL     OW23107   0.526   2.824   2.700 -0.4667  0.3231  0.1308
 3824SOL    HW123108   0.577   2.842   2.779 -3.7325 -1.7756  2.7701
 3824SOL    HW223109   0.460   2.772   2.746 -0.2271 -0.8974 -0.9000
 3825SOL     OW23110   2.030   3.882   2.737  0.8110  0.1538 -0.3150
 3825SOL    HW123111   2.033   3.795   2.695  0.2247 -0.5739  1.1529
 3825SOL    HW223112   1.942   3.914   2.721  0.1497 -0.5678  1.9375
 3826SOL     OW23113   4.181   0.353   6.032 -0.8904  1.0584 -0.3669
 3826SOL    HW123114   4.252   0.415   6.047 -0.0314 -0.5998  2.4655
 3826SOL    HW223115   4.215   0.307   5.955  0.9945  0.3136  0.9061
 3827SOL     OW23116   2.067   0.168   9.222 -0.0342  0.4825 -0.8677
 3827SOL    HW123117   2.031   0.101   9.282  1.2407  1.5481  1.0813
 3827SOL    HW223118   2.058   0.238   9.286  0.6525 -1.6681  1.5948
 3828SOL     OW23119   0.063   1.730   8.266 -0.2608  0.2629  0.4935
 3828SOL    HW123120   0.046   1.663   8.332 -0.8010  0.0727  0.1666
 3828SOL    HW223121   0.157   1.744   8.263 -0.2306 -0.1893 -0.9103
 3829SOL     OW23122   4.263   1.387   9.186 -0.5149  0.3095 -0.0368
 3829SOL    HW123123   4.278   1.397   9.092  1.2229 -0.0182  0.2066
 3829SOL    HW223124   4.310   1.464   9.218 -1.4522  1.0251 -0.3698
 3830SOL     OW23125   0.088   0.541   5.410 -0.0725 -0.4505  0.2646
 3830SOL    HW123126   0.114   0.603   5.342  0.0870 -1.2287 -0.3945
 3830SOL    HW223127   0.106   0.588   5.491  0.5790  2.4425 -1.5592
 3831SOL     OW23128   4.137   2.693   3.826  0.1004 -0.0697 -0.0305
 3831SOL    HW123129   4.114   2.686   3.918 -1.4829 -0.3897 -0.4569
 3831SOL    HW223130   4.056   2.734   3.798  1.4319  2.6358  0.0887
 3832SOL     OW23131   2.214   4.600   5.858 -0.1319 -0.0700 -0.3236
 3832SOL    HW123132   2.148   4.643   5.913  1.9830  0.5495  1.7685
 3832SOL    HW223133   2.243   4.527   5.913 -0.7162 -1.0379 -1.3000
 3833SOL     OW23134   4.552   3.091  15.871  0.1452 -0.0974  0.4954
 3833SOL    HW123135   4.523   3.140  15.947 -0.0819  0.9264 -0.2597
 3833SOL    HW223136   4.479   3.050  15.825  0.2662  1.2537 -0.8907
 3834SOL     OW23137   2.816   1.446  17.669 -0.3146  0.0707  0.5567
 3834SOL    HW123138   2.860   1.406  17.594  1.1719 -0.8756  1.9265
 3834SOL    HW223139   2.887   1.493  17.713 -1.7393  2.1559  0.6417
 3835SOL     OW23140   1.334   0.948  16.181 -0.2363 -0.7414 -0.0307
 3835SOL    HW123141   1.285   1.008  16.237 -1.9591 -0.7221 -1.5428
 3835SOL    HW223142   1.416   0.996  16.178 -0.1408 -1.0106 -1.6580
 3836SOL     OW23143   0.933   0.116   1.238 -0.3041  0.0432 -0.1159
 3836SOL    HW123144   0.989   0.189   1.263 -1.0210 -0.2846  2.4704
 3836SOL    HW223145   0.862   0.155   1.186 -0.0101  1.0704  0.2638
 3837SOL     OW23146   2.724   2.577  11.137 -0.3238 -0.5731  0.1897
 3837SOL    HW123147   2.812   2.539  11.138  0.4080  1.1515  0.3445
 3837SOL    HW223148   2.689   2.534  11.215 -1.2011  1.9490  1.1770
 3838SOL     OW23149   0.548   4.715   1.227 -0.0682  0.1543 -0.1154
 3838SOL    HW123150   0.496   0.039   1.175  1.0243  1.9893  0.9467
 3838SOL    HW223151   0.495   4.703   1.306 -0.3426  0.5118 -0.2441
 3839SOL     OW23152   1.158   0.835   4.629 -0.1094 -0.2744  0.3130
 3839SOL    HW123153   1.118   0.764   4.680 -0.9144  0.4009  0.6063
 3839SOL    HW223154   1.076   0.883   4.620  0.3221  0.4856  0.4694
 3840SOL     OW23155   0.194   0.106  16.411  0.0289 -0.5845 -0.3664
 3840SOL    HW123156   0.190   0.159  16.492 -3.2930 -0.1201 -0.8345
 3840SOL    HW223157   0.263   0.156  16.369 -0.8078  0.9509  0.0741
 3841SOL     OW23158   0.564   1.661   8.438 -0.5532  0.3950 -0.6891
 3841SOL    HW123159   0.622   1.728   8.401  0.4192  0.6195  1.2734
 3841SOL    HW223160   0.633   1.597   8.455  0.7074  1.9719  0.0578
 3842SOL     OW23161   1.316   1.136   8.658 -0.3117 -0.0600 -0.0970
 3842SOL    HW123162   1.306   1.081   8.736  0.0515  1.0920  0.7569
 3842SOL    HW223163   1.411   1.130   8.645 -0.2729  1.5505 -0.5662
 3843SOL     OW23164   3.380   0.439  16.486 -0.4223  0.0171 -0.4331
 3843SOL    HW123165   3.346   0.370  16.429  0.3999 -1.1757  0.4942
 3843SOL    HW223166   3.427   0.490  16.420  0.4144  0.2322  0.3171
 3844SOL     OW23167   2.635   3.037   6.082 -0.1538  0.2878 -0.2656
 3844SOL    HW123168   2.592   3.119   6.055 -2.1059 -0.8882 -0.7099
 3844SOL    HW223169   2.591   3.007   6.161 -0.9544 -1.7519 -1.4949
 3845SOL     OW23170   2.989   4.003  13.480 -0.2190 -0.3498 -0.1980
 3845SOL    HW123171   3.064   3.967  13.528  0.5699  0.5474 -0.7570
 3845SOL    HW223172   2.963   3.934  13.419 -0.3020 -0.9422  0.5144
 3846SOL     OW23173   2.214   1.933   4.025 -0.2016  0.1939  0.0980
 3846SOL    HW123174   2.304   1.909   4.002 -0.2286  0.6947 -0.5214
 3846SOL    HW223175   2.176   1.897   3.946 -1.7945  0.1256  0.9085
 3847SOL     OW23176   0.331   0.650   3.646 -0.1001  0.0174  0.0244
 3847SOL    HW123177   0.318   0.736   3.605 -1.0640 -0.4569 -0.6580
 3847SOL    HW223178   0.290   0.673   3.730 -2.7479 -2.3597 -0.6257
 3848SOL     OW23179   1.941   3.871   9.704  0.4959 -0.9356 -0.4189
 3848SOL    HW123180   1.884   3.799   9.677 -2.0572  0.6778  0.6499
 3848SOL    HW223181   2.001   3.822   9.761 -0.9997  0.0682  1.9989
 3849SOL     OW23182   1.910   1.069  11.624  0.3987  0.0347 -0.5167
 3849SOL    HW123183   1.944   1.045  11.538  0.9473  1.4283 -0.6918
 3849SOL    HW223184   1.985   1.051  11.681 -0.3959 -0.7014  0.2939
 3850SOL     OW23185   2.081   2.809   0.577  0.2583  0.8032 -0.0072
 3850SOL    HW123186   2.112   2.824   0.488 -0.2297  0.7447 -0.1859
 3850SOL    HW223187   2.140   2.868   0.626  0.7170  0.5915 -0.3045
 3851SOL     OW23188   4.542   1.413   4.326 -0.6463  0.7021 -0.4474
 3851SOL    HW123189   4.602   1.364   4.382 -0.9872 -0.4340 -1.0670
 3851SOL    HW223190   4.597   1.487   4.303 -0.8279  0.4737 -1.6135
 3852SOL     OW23191   3.932   2.624  11.109  0.5624  0.4219  0.2224
 3852SOL    HW123192   3.868   2.597  11.042  1.2242  0.5976 -0.4846
 3852SOL    HW223193   3.882   2.696  11.147 -0.0599 -0.5250  1.1977
 3853SOL     OW23194   4.682   0.448   6.471 -0.1360 -0.5383  0.4250
 3853SOL    HW123195   0.018   0.387   6.462 -0.9473 -1.5186  0.5084
 3853SOL    HW223196   4.665   0.455   6.565  1.2501  0.5820  0.5908
 3854SOL     OW23197   1.189   2.879   6.728  0.3524  0.2854  0.0985
 3854SOL    HW123198   1.263   2.923   6.769  0.2372 -2.3213  3.1052
 3854SOL    HW223199   1.228   2.799   6.693  0.5117 -0.1092  1.1817
 3855SOL     OW23200   0.911   2.888   4.932 -0.4879 -0.4056  0.1777
 3855SOL    HW123201   0.958   2.882   4.849  3.5154 -0.4006  2.4118
 3855SOL    HW223202   0.856   2.965   4.926 -0.7142 -0.5591  0.2870
 3856SOL     OW23203   4.714   3.728   8.795  0.4766  0.0091  0.0399
 3856SOL    HW123204   4.710   3.683   8.879  3.3345 -0.3509 -0.0409
 3856SOL    HW223205   0.071   3.742   8.781  0.1398  1.7991 -0.4261
 3857SOL     OW23206   1.160   1.175   3.488 -0.2345  0.0701  0.2165
 3857SOL    HW123207   1.214   1.209   3.416  4.0592 -0.6024  3.1247
 3857SOL    HW223208   1.072   1.180   3.452  0.0618  1.0606 -0.3869
 3858SOL     OW23209   0.483   1.276   9.538  0.0296 -0.7834  0.6683
 3858SOL    HW123210   0.466   1.349   9.598 -0.3488  0.3507 -0.8186
 3858SOL    HW223211   0.397   1.235   9.528 -0.3655  0.7871 -2.2862
 3859SOL     OW23212   4.196   3.529   7.285  0.1513 -0.0168 -0.2264
 3859SOL    HW123213   4.162   3.590   7.219 -1.5572  1.1189  1.7058
 3859SOL    HW223214   4.266   3.492   7.231 -2.3745 -1.5383 -2.4376
 3860SOL     OW23215   1.081   2.194   7.839  0.1373  0.0658 -0.0132
 3860SOL    HW123216   1.054   2.157   7.923  1.2608 -1.2062 -0.2193
 3860SOL    HW223217   1.064   2.122   7.779 -0.4792  0.7249 -0.6202
 3861SOL     OW23218   1.358   0.694   5.207  0.7317  0.0316 -0.3874
 3861SOL    HW123219   1.338   0.698   5.300  1.0701 -0.5992 -0.2855
 3861SOL    HW223220   1.428   0.757   5.187 -0.6909  1.7407  0.0496
 3862SOL     OW23221   1.914   2.318   2.563 -0.3313  0.4883  0.0324
 3862SOL    HW123222   1.881   2.387   2.620  0.5400  1.5900 -0.8150
 3862SOL    HW223223   1.946   2.265   2.636  1.2868  0.5611 -0.6390
 3863SOL     OW23224   4.281   4.009   5.527  0.7405 -0.0332 -0.0051
 3863SOL    HW123225   4.245   4.019   5.439  1.2307  1.4705 -0.0347
 3863SOL    HW223226   4.216   3.952   5.568 -1.2965  1.5574 -0.9948
 3864SOL     OW23227   2.132   3.181  17.538 -0.1723 -0.4850 -0.4334
 3864SOL    HW123228   2.073   3.112  17.506 -1.0546  0.5674 -1.0645
 3864SOL    HW223229   2.067   3.226  17.592  0.3455  1.3346 -1.3618
 3865SOL     OW23230   2.108   0.161  16.497 -0.5627 -0.0982 -0.1091
 3865SOL    HW123231   2.039   0.111  16.541 -0.4221 -3.0878 -3.3489
 3865SOL    HW223232   2.145   0.216  16.567 -1.3287 -2.1983  1.9519
 3866SOL     OW23233   4.211   2.020  12.160  0.1493  0.0122 -0.3854
 3866SOL    HW123234   4.252   1.962  12.224  0.2598  1.2215  0.6350
 3866SOL    HW223235   4.118   2.013  12.182 -0.0698 -0.8627 -1.5435
 3867SOL     OW23236   3.998   1.886   3.147 -0.0520 -0.1613 -0.4707
 3867SOL    HW123237   3.926   1.942   3.174  2.0229  1.8137  1.0267
 3867SOL    HW223238   3.956   1.814   3.100 -0.6656 -0.5720  0.7166
 3868SOL     OW23239   3.228   4.613  10.493  0.1495  0.2834  0.0211
 3868SOL    HW123240   3.170   4.601  10.418  0.7312 -0.6590 -0.2851
 3868SOL    HW223241   3.209   4.533  10.543 -1.0405  0.6986  0.2457
 3869SOL     OW23242   3.253   3.439  15.999 -0.0141  0.0154  0.5920
 3869SOL    HW123243   3.158   3.449  15.987  0.0383 -0.1057  0.0720
 3869SOL    HW223244   3.289   3.497  15.932 -1.6411 -0.6758 -0.8986
 3870SOL     OW23245   2.300   4.124   3.325 -0.2505 -0.0156  0.2005
 3870SOL    HW123246   2.251   4.142   3.405 -0.8977  1.7352 -0.5906
 3870SOL    HW223247   2.285   4.029   3.325 -1.2985  0.1497  2.0256
 3871SOL     OW23248   0.119   3.640   4.206 -0.0101 -0.2089 -0.1325
 3871SOL    HW123249   0.158   3.664   4.289  1.1673 -0.9246 -0.4818
 3871SOL    HW223250   0.128   3.722   4.157 -0.1150 -0.2234 -0.1761
 3872SOL     OW23251   3.235   4.654   6.075  0.5257  0.2672 -0.1161
 3872SOL    HW123252   3.146   4.683   6.054  0.0576  0.0752  1.5672
 3872SOL    HW223253   3.282   4.650   5.992 -0.7013 -1.9048 -0.6888
 3873SOL     OW23254   3.323   0.817  13.694 -0.1791  0.5702  0.3155
 3873SOL    HW123255   3.326   0.722  13.701  0.4295  0.6182  0.6818
 3873SOL    HW223256   3.325   0.846  13.785 -2.0584  0.0943  0.5119
 3874SOL     OW23257   0.905   3.127   4.462  0.2222 -0.3493  0.5068
 3874SOL    HW123258   0.917   3.096   4.372 -0.2342 -0.5682  0.5213
 3874SOL    HW223259   0.940   3.213   4.440  1.4911 -0.8591  0.5656
 3875SOL     OW23260   3.256   1.226   4.327 -0.1329 -0.2971 -0.1348
 3875SOL    HW123261   3.331   1.186   4.283 -0.4461 -0.6645 -0.3340
 3875SOL    HW223262   3.225   1.159   4.389 -1.6832 -0.3304 -0.9472
 3876SOL     OW23263   4.684   0.772   1.279 -0.4569 -0.1746 -0.0743
 3876SOL    HW123264   4.712   0.859   1.251 -3.2139  0.9512  0.7620
 3876SOL    HW223265   4.601   0.764   1.232 -0.4688  1.7682 -0.3663
 3877SOL     OW23266   1.210   3.101   4.601 -0.1155 -0.1879  0.3000
 3877SOL    HW123267   1.178   3.184   4.567 -1.2003 -0.9225 -0.4729
 3877SOL    HW223268   1.136   3.041   4.590 -0.1475 -0.3060  1.1828
 3878SOL     OW23269   4.063   4.113   6.890 -0.1444 -0.1707 -0.0577
 3878SOL    HW123270   4.114   4.179   6.843 -0.2669 -0.2546 -0.3133
 3878SOL    HW223271   4.046   4.056   6.814 -0.5493 -0.0908 -0.0292
 3879SOL     OW23272   0.215   2.639   7.442 -0.2314 -0.2786 -0.7031
 3879SOL    HW123273   0.130   2.676   7.421 -0.2565  0.2543  0.3439
 3879SOL    HW223274   0.268   2.717   7.461 -1.8609  1.0311 -1.5903
 3880SOL     OW23275   3.257   4.675   9.059 -0.2397 -0.3708 -0.4210
 3880SOL    HW123276   3.341   4.700   9.020  0.6473  0.3353  1.9586
 3880SOL    HW223277   3.193   4.709   8.997  0.2154  1.0153 -0.1186
 3881SOL     OW23278   3.120   0.745   2.865  0.3382  0.2382  0.3418
 3881SOL    HW123279   3.152   0.748   2.955 -0.5154  0.5396  0.6266
 3881SOL    HW223280   3.031   0.740   2.897  0.5460 -1.6869  0.5938
 3882SOL     OW23281   0.435   0.335   8.060 -0.2260 -0.3715  0.0770
 3882SOL    HW123282   0.372   0.264   8.062  2.5009 -2.7909  0.6192
 3882SOL    HW223283   0.463   0.335   8.152  1.4543 -0.1695 -0.4256
 3883SOL     OW23284   2.552   3.376   4.380  0.2078 -0.0006 -0.2447
 3883SOL    HW123285   2.524   3.346   4.293 -1.3519 -0.5990  0.4670
 3883SOL    HW223286   2.527   3.469   4.387 -0.1016 -0.1927  1.0482
 3884SOL     OW23287   4.334   0.999  16.250  0.0740 -0.0516 -0.0423
 3884SOL    HW123288   4.322   0.905  16.236 -0.7020  0.0617 -0.1527
 3884SOL    HW223289   4.295   1.009  16.337  0.2118 -1.6732  0.2035
 3885SOL     OW23290   2.820   0.250   5.210  0.3141 -0.0071 -1.0785
 3885SOL    HW123291   2.734   0.211   5.192  0.8279 -1.2770 -0.8290
 3885SOL    HW223292   2.861   0.184   5.266 -1.5615  1.1288  1.5912
 3886SOL     OW23293   3.670   3.895  14.213 -0.0375  0.5592  0.2864
 3886SOL    HW123294   3.642   3.908  14.122  1.4136  1.1076 -0.0896
 3886SOL    HW223295   3.599   3.921  14.272  0.1564  1.4201  0.1463
 3887SOL     OW23296   1.219   2.141   9.334 -0.2225  0.3674 -0.3255
 3887SOL    HW123297   1.126   2.155   9.352 -0.1191 -1.0400  1.3100
 3887SOL    HW223298   1.222   2.160   9.240 -2.1006  1.4070 -0.1562
 3888SOL     OW23299   1.878   4.290   7.385  0.3335  0.4113  0.1085
 3888SOL    HW123300   1.858   4.325   7.472 -0.4292  0.6915 -0.1884
 3888SOL    HW223301   1.864   4.366   7.329 -2.5920  0.9781  1.6246
 3889SOL     OW23302   0.793   0.776   3.257 -0.3937 -0.0046  0.1421
 3889SOL    HW123303   0.865   0.715   3.270 -1.5259 -1.5189 -0.6686
 3889SOL    HW223304   0.848   0.851   3.236  0.0996 -0.4417 -0.1398
 3890SOL     OW23305   1.409   1.574   5.662  0.2118  0.3069  0.1402
 3890SOL    HW123306   1.321   1.598   5.635  0.1458 -0.0165  0.0700
 3890SOL    HW223307   1.394   1.502   5.723  0.2319 -2.5424 -3.2077
 3891SOL     OW23308   3.833   1.327  14.490  0.1170  0.1416  0.6532
 3891SOL    HW123309   3.844   1.372  14.407 -1.6937 -0.8858 -0.1307
 3891SOL    HW223310   3.738   1.333  14.499  0.3121  0.3209  2.7469
 3892SOL     OW23311   2.220   1.237   0.740 -0.3138 -0.0463 -0.0787
 3892SOL    HW123312   2.154   1.301   0.712 -0.4142 -0.9998 -2.0157
 3892SOL    HW223313   2.302   1.284   0.723 -0.6148  0.9096  1.1085
 3893SOL     OW23314   3.847   2.408   7.683  0.1549  0.3741  0.1754
 3893SOL    HW123315   3.849   2.476   7.615  2.2521 -1.5419 -1.6770
 3893SOL    HW223316   3.915   2.440   7.743  0.8677 -1.6618  0.4528
 3894SOL     OW23317   0.283   3.262   1.069 -0.4176  0.2832  0.7814
 3894SOL    HW123318   0.349   3.293   1.008 -0.9394  2.9777  1.5866
 3894SOL    HW223319   0.212   3.246   1.007 -0.2884 -0.4928  0.8302
 3895SOL     OW23320   0.350   1.482   8.309  0.4833  0.0784 -0.3695
 3895SOL    HW123321   0.408   1.406   8.321  0.8963  0.5546  0.6843
 3895SOL    HW223322   0.407   1.556   8.328 -0.8516  1.3711 -1.4270
 3896SOL     OW23323   1.479   4.458   6.828 -0.0648  0.2533 -0.3036
 3896SOL    HW123324   1.551   4.406   6.793 -1.3844 -1.2385 -0.8095
 3896SOL    HW223325   1.500   4.543   6.790 -1.3397  0.0763 -1.3781
 3897SOL     OW23326   4.601   2.475  11.043  0.5139 -0.1124 -0.5517
 3897SOL    HW123327   4.562   2.398  11.000 -1.6424 -0.4066  1.9270
 3897SOL    HW223328   4.595   2.552  10.986  0.4252  0.4319  0.1905
 3898SOL     OW23329   4.475   1.784   9.483  0.3069  0.4817  0.0465
 3898SOL    HW123330   4.539   1.793   9.553  1.2703 -1.0126 -0.6355
 3898SOL    HW223331   4.416   1.716   9.515 -0.6478  0.9143 -0.7775
 3899SOL     OW23332   2.111   0.434   7.925  0.0247 -0.0595 -0.0825
 3899SOL    HW123333   2.190   0.487   7.930  0.9151 -1.2834 -1.2551
 3899SOL    HW223334   2.106   0.425   7.830  0.5898 -1.6658  0.0428
 3900SOL     OW23335   3.432   0.947  15.881 -0.5800  0.2928  0.3685
 3900SOL    HW123336   3.394   1.010  15.942  0.1413  0.5925  0.4998
 3900SOL    HW223337   3.477   0.885  15.939  1.1356  0.3260 -0.9301
 3901SOL     OW23338   1.970   0.276   8.108 -0.4961  0.1404  0.1941
 3901SOL    HW123339   1.911   0.350   8.122 -0.0063  0.7067 -0.6711
 3901SOL    HW223340   2.035   0.326   8.057 -0.2031 -0.4024  0.0274
 3902SOL     OW23341   1.765   2.824   0.326 -0.3806 -0.1632 -0.8295
 3902SOL    HW123342   1.724   2.834   0.240 -1.8279  2.6158  0.1868
 3902SOL    HW223343   1.709   2.760   0.369  1.5042  0.5665  2.6430
 3903SOL     OW23344   3.712   1.566   4.923 -0.5193  0.2414 -0.2434
 3903SOL    HW123345   3.653   1.531   4.856 -0.0794  0.1435 -0.5788
 3903SOL    HW223346   3.676   1.655   4.921  0.1004  0.4650 -1.4027
 3904SOL     OW23347   1.024   0.296   7.180  0.7093  0.2013 -0.3918
 3904SOL    HW123348   1.105   0.274   7.133  0.4398 -0.8124 -0.3980
 3904SOL    HW223349   0.969   0.219   7.162  0.4795  1.0965 -3.5835
 3905SOL     OW23350   2.398   2.164   3.304  0.6663 -0.1223  0.8360
 3905SOL    HW123351   2.349   2.135   3.381 -0.8993 -1.2040 -0.5577
 3905SOL    HW223352   2.445   2.087   3.272  0.5011 -0.3069  1.0376
 3906SOL     OW23353   0.783   3.161   2.659  0.3637  0.0228  0.1023
 3906SOL    HW123354   0.855   3.098   2.653  0.7043  0.3078  1.0792
 3906SOL    HW223355   0.788   3.200   2.746 -0.5021  0.1353  0.0960
 3907SOL     OW23356   4.243   1.105  11.856  0.3828 -0.0467 -0.2749
 3907SOL    HW123357   4.270   1.024  11.901 -1.7459  1.0102  2.9429
 3907SOL    HW223358   4.150   1.085  11.851  0.0506  1.7887 -1.1500
 3908SOL     OW23359   1.446   3.567   9.082  0.2475 -0.7767  0.1044
 3908SOL    HW123360   1.378   3.536   9.021  0.3156  2.9843 -1.8844
 3908SOL    HW223361   1.406   3.569   9.169 -0.4169 -1.2350 -0.1896
 3909SOL     OW23362   1.742   0.522   2.296 -0.0783 -0.4427  0.9941
 3909SOL    HW123363   1.797   0.522   2.374 -2.0974 -0.0400  2.4238
 3909SOL    HW223364   1.775   0.602   2.255 -1.3564 -0.9189 -0.9401
 3910SOL     OW23365   3.154   2.360   5.138  0.0912 -0.3072 -0.1928
 3910SOL    HW123366   3.155   2.378   5.044 -1.2499 -0.3834 -0.2225
 3910SOL    HW223367   3.149   2.264   5.136  1.0319 -0.3225 -1.5824
 3911SOL     OW23368   3.994   1.138  11.025 -0.3156  0.1073  0.3163
 3911SOL    HW123369   3.950   1.115  10.943  0.4338 -0.1087 -0.0326
 3911SOL    HW223370   4.073   1.182  10.992 -0.2134 -1.6603 -1.8251
 3912SOL     OW23371   4.286   4.510   5.843  0.0902 -0.0550 -0.7880
 3912SOL    HW123372   4.205   4.468   5.873  0.4439 -0.9984 -1.1766
 3912SOL    HW223373   4.254   4.575   5.780 -0.7021  0.3283  0.0030
 3913SOL     OW23374   2.953   2.856   5.106  0.1398 -0.0091  0.6011
 3913SOL    HW123375   3.042   2.865   5.072 -0.3082  1.9227 -0.0807
 3913SOL    HW223376   2.975   2.854   5.199 -0.6112  1.0625  0.8068
 3914SOL     OW23377   4.192   3.496  13.373 -0.2992 -0.1809 -0.1407
 3914SOL    HW123378   4.103   3.522  13.397  1.4490  3.7005  2.1517
 3914SOL    HW223379   4.233   3.574  13.412 -2.4079  0.1471  1.4004
 3915SOL     OW23380   0.506   2.693  16.361  0.0404  0.7079  0.0767
 3915SOL    HW123381   0.499   2.710  16.267 -0.1471 -1.4246 -0.2861
 3915SOL    HW223382   0.585   2.640  16.361  0.3544  1.1710  0.1606
 3916SOL     OW23383   3.156   0.039   1.726  0.6412  0.5047 -0.3012
 3916SOL    HW123384   3.199   4.698   1.763 -0.8555  0.0828  0.5106
 3916SOL    HW223385   3.170   0.104   1.794  1.1053  0.7420 -0.6206
 3917SOL     OW23386   0.648   3.563   1.521 -0.2224 -0.4087  0.8707
 3917SOL    HW123387   0.662   3.655   1.501  3.6730 -0.9212  1.2542
 3917SOL    HW223388   0.691   3.516   1.450 -0.1388  0.4692  0.3538
 3918SOL     OW23389   4.072   0.194   1.262  0.4051 -0.4121  0.0218
 3918SOL    HW123390   4.160   0.160   1.246  1.1142  1.4247  0.1299
 3918SOL    HW223391   4.085   0.188   1.356 -0.2612 -0.6695  0.0971
 3919SOL     OW23392   2.984   0.165   6.175 -0.1940  0.6170 -0.4147
 3919SOL    HW123393   2.957   0.076   6.152 -0.4810  0.4182  0.7080
 3919SOL    HW223394   3.003   0.207   6.091  0.4203  0.3208 -0.4249
 3920SOL     OW23395   3.623   4.074   6.254 -0.0749 -0.1074  0.4415
 3920SOL    HW123396   3.634   3.982   6.279  0.3757  0.0019  0.6636
 3920SOL    HW223397   3.641   4.054   6.162 -0.1100  3.3896 -0.3270
 3921SOL     OW23398   2.903   4.155   5.088  0.5272  0.1250 -0.6151
 3921SOL    HW123399   2.854   4.073   5.078  1.3030 -0.4012 -0.0433
 3921SOL    HW223400   2.868   4.209   5.017 -0.9275 -2.3369 -1.7811
 3922SOL     OW23401   4.655   4.710   6.101 -0.3329  0.1220  0.4514
 3922SOL    HW123402   4.637   4.716   6.194  0.2122  0.5422  0.5322
 3922SOL    HW223403   4.673   0.065   6.081  1.6858 -0.8273 -2.1296
 3923SOL     OW23404   0.918   2.073   8.019 -0.5234  0.2823 -0.2533
 3923SOL    HW123405   0.889   2.002   8.076  0.9227 -0.4466 -0.4268
 3923SOL    HW223406   0.841   2.085   7.963  0.3140  0.3069 -1.4011
 3924SOL     OW23407   3.776   1.425  15.547 -0.2961  0.1332 -0.1009
 3924SOL    HW123408   3.756   1.333  15.565 -0.2573  0.2291  0.4164
 3924SOL    HW223409   3.853   1.441  15.602 -0.0531  1.4092 -0.8250
 3925SOL     OW23410   2.399   0.581   8.502 -0.4346  0.3902 -0.5994
 3925SOL    HW123411   2.455   0.611   8.573  1.0922 -1.1896 -1.1319
 3925SOL    HW223412   2.314   0.618   8.527 -0.8301 -1.1394  0.3866
 3926SOL     OW23413   3.667   1.596  13.555 -0.2129 -0.0348 -0.1562
 3926SOL    HW123414   3.685   1.521  13.611 -0.7711  2.1749  3.0099
 3926SOL    HW223415   3.695   1.557  13.472  0.2138 -0.7033  0.2977
 3927SOL     OW23416   3.616   3.529   7.684  0.1304  0.0921  0.0037
 3927SOL    HW123417   3.549   3.511   7.750  1.0375  4.2185  2.0879
 3927SOL    HW223418   3.671   3.596   7.725 -0.5690  1.9971 -2.1731
 3928SOL     OW23419   0.928   3.712   3.124 -0.2512 -0.0873  0.2702
 3928SOL    HW123420   0.933   3.624   3.162  0.6091  0.5748  1.7076
 3928SOL    HW223421   0.870   3.686   3.053  0.2390 -0.3375 -0.0409
 3929SOL     OW23422   3.932   2.013  15.841  0.3161 -0.4242 -0.0711
 3929SOL    HW123423   3.932   2.097  15.888  0.7315 -0.0790 -0.7035
 3929SOL    HW223424   3.920   2.043  15.751  0.1559 -0.0254  0.0821
 3930SOL     OW23425   2.056   0.381   7.635  0.0075 -0.0040 -0.4188
 3930SOL    HW123426   2.082   0.440   7.564  0.1915  0.9655  0.4478
 3930SOL    HW223427   1.981   0.342   7.589  0.8861 -0.8430 -1.1271
 3931SOL     OW23428   3.316   0.277   3.532  0.0753  0.3007  0.1186
 3931SOL    HW123429   3.223   0.300   3.534 -0.0591 -0.3452  1.7546
 3931SOL    HW223430   3.350   0.362   3.506 -2.0554  0.3637 -2.4239
 3932SOL     OW23431   3.770   2.750   5.580 -0.4134 -0.4755  0.0370
 3932SOL    HW123432   3.814   2.802   5.647 -0.9815 -0.3081  0.2874
 3932SOL    HW223433   3.818   2.776   5.502  0.2578  0.8918  0.9058
 3933SOL     OW23434   2.221   3.192  16.409  0.3941  0.1752 -0.4187
 3933SOL    HW123435   2.275   3.271  16.405 -2.2498  1.9420 -1.3957
 3933SOL    HW223436   2.295   3.132  16.401 -1.3031 -2.0809  0.7636
 3934SOL     OW23437   2.094   0.226  17.237  0.5584  0.2312 -0.3819
 3934SOL    HW123438   2.124   0.311  17.204  0.3332  0.5073  0.1220
 3934SOL    HW223439   2.070   0.251  17.326  1.6281  2.0784 -0.6045
 3935SOL     OW23440   2.172   0.966   3.005 -0.0039 -0.1148 -0.2044
 3935SOL    HW123441   2.089   1.004   2.976  0.5883  2.4064  1.4281
 3935SOL    HW223442   2.182   1.019   3.084  2.5782 -0.6042 -0.2038
 3936SOL     OW23443   1.159   0.879   3.927 -0.1512 -0.1417 -0.4072
 3936SOL    HW123444   1.088   0.816   3.911 -0.6494  0.0908  0.8349
 3936SOL    HW223445   1.164   0.881   4.023  1.8925 -0.9768 -0.5100
 3937SOL     OW23446   1.814   2.356   5.209 -0.0446 -0.4040  0.0667
 3937SOL    HW123447   1.748   2.287   5.207 -1.1738  0.7401 -1.2475
 3937SOL    HW223448   1.815   2.382   5.117 -0.9951 -2.2150 -0.4489
 3938SOL     OW23449   1.456   1.839   4.276 -0.0137 -0.2771  0.0940
 3938SOL    HW123450   1.473   1.909   4.340  0.1464  0.6717 -0.9864
 3938SOL    HW223451   1.364   1.820   4.295  0.3980 -2.8250 -0.4456
 3939SOL     OW23452   1.162   3.260   7.520  0.0538  0.5841 -0.1521
 3939SOL    HW123453   1.196   3.329   7.465  3.3997 -0.5351  0.4792
 3939SOL    HW223454   1.082   3.305   7.547 -1.5421 -1.7145 -1.0580
 3940SOL     OW23455   3.761   1.687  14.665  0.2707 -0.3234 -0.4055
 3940SOL    HW123456   3.825   1.750  14.696  0.3072 -0.3474 -0.4332
 3940SOL    HW223457   3.695   1.752  14.643  0.2602 -0.1664  0.0812
 3941SOL     OW23458   2.247   3.434   8.838 -0.3064  0.1846  0.1633
 3941SOL    HW123459   2.205   3.520   8.829 -1.8661 -1.0243 -3.6719
 3941SOL    HW223460   2.254   3.420   8.744  1.2105 -0.2141  0.3428
 3942SOL     OW23461   4.355   2.645   6.209 -0.0167  0.1027  0.0628
 3942SOL    HW123462   4.408   2.581   6.256 -0.8221 -0.1985  0.5558
 3942SOL    HW223463   4.395   2.638   6.122 -0.6406  0.0241 -0.2225
 3943SOL     OW23464   3.469   0.724   6.403 -0.0206  0.4366  0.2563
 3943SOL    HW123465   3.384   0.681   6.404  0.1624  0.0608 -0.6410
 3943SOL    HW223466   3.508   0.696   6.487 -2.9418 -1.4520  0.9864
 3944SOL     OW23467   4.613   2.175   5.722 -0.1747 -0.0883  0.0393
 3944SOL    HW123468   4.662   2.105   5.680  0.5119  0.0434  0.6197
 3944SOL    HW223469   4.687   2.234   5.736  0.8671 -1.1744 -1.0216
 3945SOL     OW23470   2.493   1.384   7.762  0.2275 -0.4462  0.3697
 3945SOL    HW123471   2.537   1.424   7.687 -0.2596  0.9739  0.8479
 3945SOL    HW223472   2.442   1.459   7.794  2.9647  1.8457 -0.6768
 3946SOL     OW23473   2.580   2.289   6.119  0.4276 -0.2326 -0.4025
 3946SOL    HW123474   2.503   2.314   6.170  0.3809 -1.5179  0.1660
 3946SOL    HW223475   2.627   2.239   6.185  0.6769  0.8630  0.2495
 3947SOL     OW23476   4.317   0.830   3.340 -0.7137 -0.3978  0.3905
 3947SOL    HW123477   4.342   0.876   3.420  0.4140  1.1223 -0.8349
 3947SOL    HW223478   4.402   0.813   3.300 -1.0390 -1.0226 -0.0308
 3948SOL     OW23479   4.168   3.316   6.247  0.0713  0.0487 -0.6172
 3948SOL    HW123480   4.182   3.406   6.218  0.2833 -0.3448 -1.7369
 3948SOL    HW223481   4.195   3.264   6.171 -0.7375 -1.4221  0.1039
 3949SOL     OW23482   3.899   0.407   4.242  0.1539 -0.0696  0.1698
 3949SOL    HW123483   3.894   0.457   4.161  1.0287 -3.0843 -1.7508
 3949SOL    HW223484   3.890   0.316   4.212  0.5233 -0.3543  0.9021
 3950SOL     OW23485   1.049   4.636   2.631 -0.3590 -0.8227  0.1159
 3950SOL    HW123486   1.102   4.704   2.591 -1.7789  1.5840  2.2768
 3950SOL    HW223487   1.089   4.635   2.718  1.0100 -0.6632 -0.5106
 3951SOL     OW23488   0.256   4.176   4.977  0.4734  0.2213 -0.3909
 3951SOL    HW123489   0.166   4.151   4.996  0.3383  0.8062 -0.2602
 3951SOL    HW223490   0.268   4.263   5.014 -1.9818  1.1277 -1.6978
 3952SOL     OW23491   0.500   4.362   1.564 -0.2703  0.0495 -0.4509
 3952SOL    HW123492   0.503   4.269   1.588  0.5547 -0.2219 -1.5752
 3952SOL    HW223493   0.591   4.387   1.580 -0.1093  0.6998 -2.3681
 3953SOL     OW23494   1.112   1.095   2.154 -0.1034  0.3372 -0.1423
 3953SOL    HW123495   1.171   1.170   2.163 -2.1793  1.7727  1.4484
 3953SOL    HW223496   1.113   1.059   2.243  1.7266  0.6588 -0.0283
 3954SOL     OW23497   4.522   3.659   5.389 -0.1731  0.0053  0.1079
 3954SOL    HW123498   4.526   3.753   5.407 -0.4226  0.1269 -0.4820
 3954SOL    HW223499   4.431   3.633   5.402  0.2191 -0.2836  2.3370
 3955SOL     OW23500   3.321   2.748   7.921 -0.1338  0.9426  0.4073
 3955SOL    HW123501   3.330   2.781   7.832 -0.9279 -1.7896 -0.6740
 3955SOL    HW223502   3.406   2.703   7.925  1.1952  3.2879 -1.0216
 3956SOL     OW23503   0.063   3.555   1.519 -0.2523 -0.2145  0.4786
 3956SOL    HW123504   0.074   3.617   1.591 -0.6792  0.9766 -0.4797
 3956SOL    HW223505   0.098   3.602   1.444 -0.2614 -0.0093  0.6032
 3957SOL     OW23506   3.228   3.443   0.482  0.1238 -0.0947  0.1823
 3957SOL    HW123507   3.144   3.399   0.468  0.9071 -1.2745 -0.9146
 3957SOL    HW223508   3.241   3.430   0.576  1.8388 -0.5431 -0.1075
 3958SOL     OW23509   3.043   1.482   6.715 -0.0808  0.0621  0.1834
 3958SOL    HW123510   3.025   1.540   6.640  1.0596 -0.5431 -0.5535
 3958SOL    HW223511   3.115   1.428   6.682 -0.3049 -1.4041  2.1010
 3959SOL     OW23512   3.187   4.713   2.398 -0.0533 -0.8321 -0.8492
 3959SOL    HW123513   3.161   0.064   2.368 -0.2304 -0.0195  1.6789
 3959SOL    HW223514   3.279   4.704   2.372  0.6387  2.0642  0.4818
 3960SOL     OW23515   3.817   0.414   8.189  0.2057 -0.3897  0.9217
 3960SOL    HW123516   3.873   0.451   8.257 -0.6359  1.6596  0.4897
 3960SOL    HW223517   3.883   0.396   8.123  0.1412 -1.1407  1.0675
 3961SOL     OW23518   3.743   3.369   3.471  0.0859 -0.5931  0.5708
 3961SOL    HW123519   3.743   3.299   3.537  0.2576  0.5818  1.8148
 3961SOL    HW223520   3.654   3.362   3.438  0.7861 -2.8732 -0.8177
 3962SOL     OW23521   4.144   1.466  14.270  0.3576  0.1558  0.0672
 3962SOL    HW123522   4.171   1.553  14.301 -0.4486  0.7622 -0.9340
 3962SOL    HW223523   4.197   1.462  14.190  1.3649  0.8462  0.6965
 3963SOL     OW23524   4.491   1.232   6.505  0.2372  0.8155  0.0909
 3963SOL    HW123525   4.423   1.222   6.571  0.6399  0.6058  0.4701
 3963SOL    HW223526   4.467   1.163   6.443  0.5828 -0.9503  1.9584
 3964SOL     OW23527   4.647   1.553  13.655  0.4961 -0.0932  0.1667
 3964SOL    HW123528   4.640   1.642  13.689  2.1821  0.1152 -0.0741
 3964SOL    HW223529   4.707   1.570  13.583 -1.3501 -1.0456 -1.5774
 3965SOL     OW23530   2.021   4.219   0.045 -0.7939  0.1878 -0.2951
 3965SOL    HW123531   1.931   4.194   0.062 -0.2926 -0.2837  1.7335
 3965SOL    HW223532   2.050   4.178   0.127  1.4875 -1.3689 -1.8812
 3966SOL     OW23533   1.625   0.990   6.652  0.0948 -0.1331  1.0595
 3966SOL    HW123534   1.631   1.081   6.623  0.7150 -0.1500  1.1262
 3966SOL    HW223535   1.633   0.946   6.568  1.5060 -2.1678  2.2439
 3967SOL     OW23536   4.248   1.974  12.864  0.0134 -0.8041 -0.5849
 3967SOL    HW123537   4.337   1.956  12.892  0.2621  2.0888  0.4992
 3967SOL    HW223538   4.255   1.919  12.786  0.6350  0.2763 -1.3060
 3968SOL     OW23539   2.822   2.454   3.858 -0.7365  0.5720  0.7367
 3968SOL    HW123540   2.891   2.435   3.922 -1.4566 -2.5251  0.6103
 3968SOL    HW223541   2.848   2.546   3.852  1.6987 -0.1748 -0.1489
 3969SOL     OW23542   0.930   3.623   1.219  0.1674 -0.0816 -0.1488
 3969SOL    HW123543   0.873   3.547   1.233  0.5616 -0.1162  1.2426
 3969SOL    HW223544   0.862   3.674   1.175 -0.7483 -1.5404 -0.4451
 3970SOL     OW23545   1.977   3.341   8.807 -0.2622 -0.2520 -0.2591
 3970SOL    HW123546   1.903   3.393   8.838 -0.7375 -2.1594  1.7164
 3970SOL    HW223547   2.036   3.381   8.871 -1.5508 -0.9790  1.3596
 3971SOL     OW23548   2.529   2.270   7.064 -0.0592 -0.0868  0.0560
 3971SOL    HW123549   2.450   2.234   7.023 -0.5810  0.4754  0.5652
 3971SOL    HW223550   2.567   2.308   6.986  1.3656  1.4458  1.5037
 3972SOL     OW23551   3.346   1.604   6.049 -0.8233 -0.3657 -0.1771
 3972SOL    HW123552   3.321   1.696   6.038  1.0980  0.0973 -0.5781
 3972SOL    HW223553   3.284   1.590   6.121  0.6260 -0.9130  0.9407
 3973SOL     OW23554   3.006   2.219   2.528 -0.4452  0.2909 -0.0835
 3973SOL    HW123555   3.014   2.127   2.554  0.8510  0.8744  1.6450
 3973SOL    HW223556   3.045   2.270   2.599 -0.6011  1.1488 -0.6197
 3974SOL     OW23557   0.187   1.621   2.775 -0.2242  0.2442  0.3138
 3974SOL    HW123558   0.234   1.655   2.851 -0.1309 -0.7856  0.7142
 3974SOL    HW223559   0.183   1.701   2.723  1.7750 -0.2580 -0.6407
 3975SOL     OW23560   0.479   2.173   6.439  0.0121  0.0482  0.9346
 3975SOL    HW123561   0.544   2.243   6.432 -1.6282  1.5742  0.7810
 3975SOL    HW223562   0.418   2.211   6.376  0.8373  1.2721  0.8635
 3976SOL     OW23563   3.102   3.765   1.848  0.1623  0.0804 -0.2420
 3976SOL    HW123564   3.122   3.826   1.919 -2.8750 -0.0017  0.6843
 3976SOL    HW223565   3.112   3.824   1.773 -0.3104 -0.6132 -0.8447
 3977SOL     OW23566   1.199   3.696  14.847 -0.2721 -0.0118  0.2791
 3977SOL    HW123567   1.105   3.687  14.865 -0.2092 -0.9443  0.1512
 3977SOL    HW223568   1.230   3.734  14.929 -0.5927 -0.7634  0.7555
 3978SOL     OW23569   1.440   0.137  13.655 -0.2788 -0.3115 -0.0526
 3978SOL    HW123570   1.420   0.137  13.749  1.1450 -0.4700  0.2546
 3978SOL    HW223571   1.412   0.051  13.626  2.8469 -1.2422 -0.3517
 3979SOL     OW23572   4.025   3.292   9.245  0.2416  0.1153  0.1120
 3979SOL    HW123573   4.004   3.306   9.338 -0.9643 -1.4312  0.0687
 3979SOL    HW223574   4.039   3.379   9.208  0.0892 -0.6258 -1.7027
 3980SOL     OW23575   4.479   3.628   7.326  0.5604  0.5875 -0.1827
 3980SOL    HW123576   4.449   3.559   7.267  0.0633  0.4856  0.1931
 3980SOL    HW223577   4.402   3.675   7.358 -0.2189  0.6277 -2.1323
 3981SOL     OW23578   0.008   3.152  11.722 -0.3658 -0.1397  0.3631
 3981SOL    HW123579   0.039   3.174  11.635 -1.7723  0.8184  0.1096
 3981SOL    HW223580   4.654   3.121  11.712 -0.3686 -0.0766  0.2033
 3982SOL     OW23581   0.118   4.071   2.754 -0.0086  0.0653  0.0334
 3982SOL    HW123582   0.117   4.040   2.664 -1.1858  1.6411 -0.5033
 3982SOL    HW223583   0.032   4.052   2.792  0.0094  1.2552  0.6569
 3983SOL     OW23584   4.621   0.084   9.251 -0.3638 -0.4194  0.5499
 3983SOL    HW123585   4.541   0.053   9.292 -0.6290  0.4274  0.6689
 3983SOL    HW223586   4.619   0.041   9.165  0.1460  2.2760 -0.8083
 3984SOL     OW23587   1.502   1.762   1.315  0.1093  0.1062  0.7086
 3984SOL    HW123588   1.427   1.816   1.343  1.0404  0.8726  1.6953
 3984SOL    HW223589   1.464   1.674   1.312  1.5689 -0.5513  1.5461
 3985SOL     OW23590   3.831   3.402   1.494 -0.1325  0.1828 -0.9771
 3985SOL    HW123591   3.833   3.498   1.501  2.6364 -0.1675  3.0119
 3985SOL    HW223592   3.744   3.390   1.532 -0.5011  1.0623 -1.5349
 3986SOL     OW23593   2.618   4.068  16.449 -0.4140  0.9160  0.6623
 3986SOL    HW123594   2.550   4.028  16.394  0.1058 -0.6658  1.1816
 3986SOL    HW223595   2.617   4.021  16.532 -0.7740 -1.2785 -0.5655
 3987SOL     OW23596   0.191   3.450   8.826 -0.2371 -0.0443 -0.4308
 3987SOL    HW123597   0.137   3.472   8.750  0.0990  1.6554 -0.1792
 3987SOL    HW223598   0.270   3.430   8.774  1.0753  1.1168  1.1105
 3988SOL     OW23599   1.567   4.630   7.906 -0.2034 -0.2720 -0.2496
 3988SOL    HW123600   1.628   4.624   7.832  1.5005 -0.2639  1.1578
 3988SOL    HW223601   1.533   4.719   7.911  0.7169  0.1469 -1.4896
 3989SOL     OW23602   2.589   0.779   2.683  0.5370 -0.4160 -0.3051
 3989SOL    HW123603   2.504   0.745   2.707 -0.0418  1.0354 -0.2671
 3989SOL    HW223604   2.583   0.788   2.588 -0.6454 -1.0653 -0.2834
 3990SOL     OW23605   1.866   1.773   8.065  0.2284  0.4666  0.3268
 3990SOL    HW123606   1.831   1.845   8.012  1.1937 -0.7889 -1.9986
 3990SOL    HW223607   1.814   1.781   8.145  1.3889  1.1779  1.0004
 3991SOL     OW23608   2.799   2.783   6.103 -0.0678  0.4860 -0.1447
 3991SOL    HW123609   2.744   2.861   6.092  0.2749  0.6470 -0.7417
 3991SOL    HW223610   2.730   2.718   6.115 -1.1144  1.6565  0.2718
 3992SOL     OW23611   2.765   2.413  15.245 -0.5472 -0.1067  0.1275
 3992SOL    HW123612   2.716   2.494  15.253 -1.5102 -0.5775 -1.0698
 3992SOL    HW223613   2.716   2.355  15.187 -2.0529 -0.2295  1.5145
 3993SOL     OW23614   4.651   2.018   2.304 -0.2160 -0.0375  0.3872
 3993SOL    HW123615   4.582   1.956   2.327  0.0581 -0.8409 -0.9387
 3993SOL    HW223616   4.698   1.961   2.244  0.6310  1.3385 -0.2593
 3994SOL     OW23617   4.573   3.004   2.115 -0.5580  0.0959 -0.2608
 3994SOL    HW123618   4.653   2.999   2.167 -1.5637  1.7418  1.4426
 3994SOL    HW223619   4.547   3.096   2.111  1.2206  0.6966  1.8765
 3995SOL     OW23620   1.363   0.062  16.875  0.4299 -0.1129  0.1760
 3995SOL    HW123621   1.372   0.092  16.965  2.8908  1.0444 -0.4612
 3995SOL    HW223622   1.400   0.139  16.831 -0.4501 -0.2325 -0.7867
 3996SOL     OW23623   2.268   3.880   3.811 -1.0476 -0.0685 -0.0606
 3996SOL    HW123624   2.195   3.825   3.783 -0.6857 -0.9061  0.6662
 3996SOL    HW223625   2.224   3.956   3.849  0.9886 -0.1703  2.4669
 3997SOL     OW23626   0.461   2.188   6.825  0.3301  0.7813  0.1385
 3997SOL    HW123627   0.556   2.187   6.821  0.2916  2.9604 -1.4228
 3997SOL    HW223628   0.444   2.208   6.733 -1.1130  1.6082  0.5734
 3998SOL     OW23629   2.186   3.699   8.111  0.7689  0.2706 -0.5728
 3998SOL    HW123630   2.182   3.651   8.029 -2.0805 -0.7147  0.1151
 3998SOL    HW223631   2.248   3.768   8.089  1.8716 -0.4270  0.3990
 3999SOL     OW23632   4.340   1.081   5.671 -0.1660  0.1551 -0.3447
 3999SOL    HW123633   4.416   1.129   5.707  0.2907 -1.3820  0.7310
 3999SOL    HW223634   4.306   1.035   5.747 -1.3283 -1.3375 -1.7875
 4000SOL     OW23635   2.274   3.009   7.731 -0.5500 -0.0397 -0.1284
 4000SOL    HW123636   2.218   3.086   7.743 -1.0020 -0.5733  1.1620
 4000SOL    HW223637   2.221   2.949   7.678  0.8406 -1.2262 -0.1805
 4001SOL     OW23638   2.957   4.169   5.616 -0.1662 -0.2395  0.2807
 4001SOL    HW123639   2.986   4.196   5.529 -0.7465 -1.3232 -0.2474
 4001SOL    HW223640   2.953   4.074   5.608 -0.4575 -0.2974  1.0699
 4002SOL     OW23641   0.635   2.863  11.522  0.2800 -0.3456 -0.3358
 4002SOL    HW123642   0.695   2.928  11.560 -1.1850  0.0758  1.3032
 4002SOL    HW223643   0.569   2.858  11.592 -2.3776  1.6653 -2.7260
 4003SOL     OW23644   3.949   4.314  10.672  0.0046  0.3751  1.1542
 4003SOL    HW123645   4.029   4.281  10.632 -1.7482 -1.5723 -0.6961
 4003SOL    HW223646   3.949   4.289  10.765  1.2817  0.7016  1.2355
 4004SOL     OW23647   3.394   1.153   5.467 -0.0593  0.4413  0.4868
 4004SOL    HW123648   3.441   1.074   5.495 -2.4679 -0.2553  2.5848
 4004SOL    HW223649   3.465   1.209   5.437  3.4096 -1.2806  5.4613
 4005SOL     OW23650   1.911   1.215   8.677 -0.6359  0.2377  0.0681
 4005SOL    HW123651   1.896   1.216   8.583  1.2438 -2.1829 -0.2661
 4005SOL    HW223652   1.935   1.307   8.685 -2.3065  0.7015 -0.1586
 4006SOL     OW23653   1.156   0.636   5.695 -0.1302 -0.2335 -0.5718
 4006SOL    HW123654   1.085   0.669   5.640  0.8342 -0.1808 -1.7749
 4006SOL    HW223655   1.185   0.714   5.741 -0.1725 -0.3843 -0.2883
 4007SOL     OW23656   1.209   2.311   7.504 -0.4990 -0.1964  0.7640
 4007SOL    HW123657   1.295   2.324   7.543 -0.0106  2.5003 -1.2695
 4007SOL    HW223658   1.234   2.254   7.431  1.2688  1.1146  0.3589
 4008SOL     OW23659   4.084   0.643  10.598  0.6309 -0.5108  0.3064
 4008SOL    HW123660   4.175   0.613  10.602  0.6685 -0.4322  0.0900
 4008SOL    HW223661   4.060   0.603  10.514  1.4375 -1.2828  0.4456
 4009SOL     OW23662   1.538   2.277   3.940 -0.3063  0.0661  0.6690
 4009SOL    HW123663   1.449   2.300   3.914  0.3728  0.4025 -1.3589
 4009SOL    HW223664   1.583   2.359   3.920  1.0982 -0.6096  1.0580
 4010SOL     OW23665   1.208   2.545   5.187 -0.2114  0.0520 -0.0510
 4010SOL    HW123666   1.244   2.633   5.171 -0.2844  0.2828  1.0264
 4010SOL    HW223667   1.235   2.523   5.277 -1.4943 -0.7034  0.1416
 4011SOL     OW23668   3.492   4.457   3.439  0.4341 -0.3118 -0.1960
 4011SOL    HW123669   3.429   4.525   3.465  0.6072 -1.7904  4.0548
 4011SOL    HW223670   3.427   4.389   3.424  0.2176 -0.0300 -0.5378
 4012SOL     OW23671   4.228   0.392   6.895  0.2170 -0.4017  0.6384
 4012SOL    HW123672   4.179   0.420   6.818 -0.6008 -2.8820  0.2722
 4012SOL    HW223673   4.231   0.477   6.941 -2.2028 -0.2213  0.4437
 4013SOL     OW23674   1.799   2.109  16.910 -0.0263 -0.3427  0.0563
 4013SOL    HW123675   1.830   2.022  16.934  0.0693 -0.0384  1.0339
 4013SOL    HW223676   1.762   2.146  16.990  1.3370 -0.7248  0.8525
 4014SOL     OW23677   2.686   2.416   6.773  0.0483  0.2734  1.0182
 4014SOL    HW123678   2.690   2.467   6.693  0.2772  0.0709  0.9000
 4014SOL    HW223679   2.591   2.403   6.781  0.2815 -2.4391 -0.5286
 4015SOL     OW23680   1.948   0.923   8.245  0.2893 -0.5356 -0.1401
 4015SOL    HW123681   2.002   0.883   8.312  0.7448 -0.2025 -0.3118
 4015SOL    HW223682   1.862   0.899   8.278  0.5981  0.1244  1.1424
 4016SOL     OW23683   0.674   3.977  12.863  0.0261  0.2251  0.5915
 4016SOL    HW123684   0.700   4.069  12.857  2.1023 -0.3825  0.1842
 4016SOL    HW223685   0.728   3.931  12.799 -1.1042 -0.1058 -0.1140
 4017SOL     OW23686   4.396   2.452  16.405  0.4710 -0.4016 -0.0820
 4017SOL    HW123687   4.461   2.393  16.366  1.7259  1.0460 -0.1837
 4017SOL    HW223688   4.342   2.463  16.327 -0.2792  1.6331  0.7267
 4018SOL     OW23689   2.330   2.670   3.922 -0.1187  0.2415  0.5614
 4018SOL    HW123690   2.250   2.696   3.877 -1.0024 -1.8731  0.9098
 4018SOL    HW223691   2.306   2.701   4.010 -4.7102  0.4274 -0.7669
 4019SOL     OW23692   2.975   4.523  11.916 -0.1235  0.6357  0.2112
 4019SOL    HW123693   2.883   4.501  11.904 -0.1277  1.8573 -1.9750
 4019SOL    HW223694   2.983   4.505  12.010  0.1668  0.6437  0.1872
 4020SOL     OW23695   1.224   3.578   9.979 -0.1010  0.0798  0.4042
 4020SOL    HW123696   1.300   3.631  10.001 -0.5298  0.5220  0.8118
 4020SOL    HW223697   1.158   3.611  10.040 -2.1696 -0.6343 -1.4647
 4021SOL     OW23698   0.943   4.232  14.149 -0.5036  0.4264 -0.0570
 4021SOL    HW123699   0.921   4.158  14.093  1.4941 -0.5452  0.4175
 4021SOL    HW223700   0.881   4.295  14.113  0.2242 -0.4924 -2.8974
 4022SOL     OW23701   2.896   3.983   1.758 -0.3634  0.0009 -0.1557
 4022SOL    HW123702   2.848   4.065   1.770  0.1568  0.1130  1.1503
 4022SOL    HW223703   2.856   3.943   1.836  1.3768  1.6811  1.5821
 4023SOL     OW23704   2.384   3.176   1.360 -0.1396  0.1755 -0.2188
 4023SOL    HW123705   2.371   3.207   1.270 -0.4652  0.3911 -0.0952
 4023SOL    HW223706   2.431   3.096   1.338 -0.0543  0.3711 -0.7400
 4024SOL     OW23707   3.402   3.821   5.087  0.3652 -0.6193  0.2859
 4024SOL    HW123708   3.322   3.872   5.076 -0.4780 -1.6004  1.7756
 4024SOL    HW223709   3.424   3.791   4.999 -0.6105  0.0192 -0.1791
 4025SOL     OW23710   2.226   3.266   2.583  0.0153 -0.1490 -0.8992
 4025SOL    HW123711   2.220   3.238   2.674  0.3857 -1.6102 -1.3172
 4025SOL    HW223712   2.277   3.347   2.593 -0.6001  0.0436  0.6044
 4026SOL     OW23713   3.196   1.025   8.306  0.0940  0.5444  0.3036
 4026SOL    HW123714   3.141   1.102   8.291 -0.6645  0.1529  1.0402
 4026SOL    HW223715   3.254   1.052   8.377  0.6061 -2.3071  0.9880
 4027SOL     OW23716   3.908   2.044  15.549  0.3427 -0.5961  0.6465
 4027SOL    HW123717   3.900   2.026  15.456  0.8240 -1.3639  0.7460
 4027SOL    HW223718   3.819   2.023  15.576  0.2107  0.2918  0.9092
 4028SOL     OW23719   0.086   3.899  16.444  0.0266 -0.1601  0.0881
 4028SOL    HW123720   0.145   3.905  16.519  1.0405 -1.9700 -0.5649
 4028SOL    HW223721   0.038   3.979  16.465 -0.4253 -0.3472 -0.2469
 4029SOL     OW23722   2.469   2.888  14.587 -0.3399 -0.0500 -0.3642
 4029SOL    HW123723   2.426   2.841  14.516  0.7465 -1.4119 -0.1077
 4029SOL    HW223724   2.545   2.919  14.537 -0.3570 -1.4612 -1.2658
 4030SOL     OW23725   4.554   0.597   0.317 -0.8598 -0.5135 -0.5451
 4030SOL    HW123726   4.463   0.618   0.299 -0.9567 -1.4892 -1.1824
 4030SOL    HW223727   4.563   0.549   0.235  0.2366  1.7438 -1.7438
 4031SOL     OW23728   4.678   0.503   6.750  0.0600  0.3062  0.1363
 4031SOL    HW123729   0.023   0.478   6.793 -0.6401 -1.8868  0.1866
 4031SOL    HW223730   4.665   0.596   6.765  0.2587  0.4913 -0.8717
 4032SOL     OW23731   0.890   2.953   8.397  0.3509 -0.4663 -0.3000
 4032SOL    HW123732   0.946   3.015   8.444 -0.6091  1.2699 -1.4481
 4032SOL    HW223733   0.902   2.979   8.306  0.8462  0.6895  0.0950
 4033SOL     OW23734   0.092   1.174   5.119 -0.0513 -0.6945 -0.2990
 4033SOL    HW123735   0.029   1.196   5.050 -1.8996 -1.3390  1.2008
 4033SOL    HW223736   0.036   1.135   5.186  0.4008 -1.7319 -0.5231
 4034SOL     OW23737   2.474   0.661   8.253 -0.8215  0.3061 -0.5055
 4034SOL    HW123738   2.460   0.619   8.338 -0.6239 -1.9270 -1.5638
 4034SOL    HW223739   2.438   0.749   8.262  0.3354  0.8169 -0.8559
 4035SOL     OW23740   3.815   2.635   7.843  0.3436  0.4668 -0.2333
 4035SOL    HW123741   3.904   2.622   7.808  0.1446 -1.2905 -0.0705
 4035SOL    HW223742   3.842   2.651   7.933 -1.0120 -0.7227  0.3776
 4036SOL     OW23743   1.303   0.409   9.820 -0.1424 -0.1325 -0.2302
 4036SOL    HW123744   1.310   0.501   9.796 -0.1009 -0.5273 -1.7515
 4036SOL    HW223745   1.367   0.387   9.888  1.8280  2.9922 -1.1007
 4037SOL     OW23746   2.325   2.002   1.259  0.3341 -0.1854  0.1578
 4037SOL    HW123747   2.389   1.944   1.300  1.8877  0.0718 -1.8563
 4037SOL    HW223748   2.371   2.085   1.271 -1.3070  0.7481 -0.0347
 4038SOL     OW23749   1.129   1.508   5.068  0.8160 -0.3883  0.2001
 4038SOL    HW123750   1.185   1.443   5.027  1.3970 -0.2785  0.8096
 4038SOL    HW223751   1.196   1.555   5.118  0.1847  0.8627 -0.1271
 4039SOL     OW23752   0.422   2.826   5.092  0.0977 -0.0226 -0.3873
 4039SOL    HW123753   0.472   2.820   5.173  0.6800  0.2074 -0.7300
 4039SOL    HW223754   0.486   2.785   5.034  0.6199  1.0576 -0.5766
 4040SOL     OW23755   0.772   1.595   3.237  0.2582 -0.2354  0.2015
 4040SOL    HW123756   0.695   1.636   3.279  0.5975  0.9282 -0.3014
 4040SOL    HW223757   0.831   1.667   3.261 -2.4769  2.4552 -1.0487
 4041SOL     OW23758   3.077   4.416  11.301 -0.0484 -0.2527 -0.2637
 4041SOL    HW123759   3.150   4.354  11.296  0.3117  0.1134  0.4159
 4041SOL    HW223760   3.036   4.398  11.216  0.6747 -1.0839 -0.4332
 4042SOL     OW23761   1.858   1.509   1.243 -0.0722 -0.6621 -0.0269
 4042SOL    HW123762   1.936   1.530   1.192  1.0243  0.2292  2.0432
 4042SOL    HW223763   1.823   1.595   1.264  0.2114 -0.7011  0.6030
 4043SOL     OW23764   2.121   2.437  10.014  0.1013  0.0994 -0.3943
 4043SOL    HW123765   2.052   2.464  10.075  0.5993 -0.6262  0.4857
 4043SOL    HW223766   2.088   2.353   9.983  0.0634 -0.3432  0.8405
 4044SOL     OW23767   3.091   4.292   6.672  0.3188  0.5475  0.4789
 4044SOL    HW123768   3.099   4.270   6.579 -1.2107 -1.5989  0.8662
 4044SOL    HW223769   2.999   4.287   6.699 -0.5242  1.7355 -2.2050
 4045SOL     OW23770   2.767   2.097   2.698 -0.1117 -0.4070 -0.1759
 4045SOL    HW123771   2.766   2.190   2.721  0.2725 -0.9269  1.9601
 4045SOL    HW223772   2.686   2.067   2.737  0.3936 -1.5333  0.0185
 4046SOL     OW23773   0.287   1.086  14.106 -0.2608  0.1978 -0.2847
 4046SOL    HW123774   0.233   1.113  14.180  0.2983 -1.5791  0.7498
 4046SOL    HW223775   0.224   1.070  14.035 -2.2356  1.6949  1.1171
 4047SOL     OW23776   0.049   2.029  10.829  0.2531 -0.4062 -0.0241
 4047SOL    HW123777   4.713   2.006  10.771 -0.6358 -0.9842  1.3189
 4047SOL    HW223778   0.118   2.046  10.764  0.3103 -0.5984 -0.0140
 4048SOL     OW23779   0.113   2.927   6.131 -0.2239 -0.0329 -0.1673
 4048SOL    HW123780   0.207   2.933   6.116 -0.1183  1.8884  1.2806
 4048SOL    HW223781   0.084   2.942   6.040 -0.4242  2.2112  0.2544
 4049SOL     OW23782   3.112   2.049   9.163  0.2151 -0.5602  0.2944
 4049SOL    HW123783   3.027   2.093   9.160  0.6070  0.1697 -0.1028
 4049SOL    HW223784   3.156   2.088   9.087  0.1075  1.3377  1.1894
 4050SOL     OW23785   2.067   4.166  10.082 -0.0175 -0.6896 -0.7989
 4050SOL    HW123786   2.069   4.241  10.022  0.3383  0.6150  0.8723
 4050SOL    HW223787   2.157   4.154  10.111 -0.7316 -1.7970  0.9293
 4051SOL     OW23788   1.334   2.538   4.348 -0.6703 -0.1846 -0.4523
 4051SOL    HW123789   1.423   2.574   4.353 -0.4973 -0.4675 -1.5095
 4051SOL    HW223790   1.316   2.554   4.440  0.1059 -1.9936  0.0088
 4052SOL     OW23791   3.133   0.917   9.075 -0.3124 -0.3442 -0.0822
 4052SOL    HW123792   3.198   0.975   9.115 -1.9264  1.4025  0.0378
 4052SOL    HW223793   3.190   0.854   9.032 -0.3006 -0.6451  0.3748
 4053SOL     OW23794   3.132   4.371   3.067  0.4870 -0.5905 -0.4123
 4053SOL    HW123795   3.181   4.290   3.053 -0.4048 -1.1055 -0.5608
 4053SOL    HW223796   3.044   4.338   3.050 -0.0291 -0.0167  1.1202
 4054SOL     OW23797   2.885   3.629   1.964 -0.3518  0.0297  0.0092
 4054SOL    HW123798   2.821   3.699   1.974 -1.5151 -1.0079 -0.1435
 4054SOL    HW223799   2.962   3.676   1.932 -0.0600  0.0660  0.7509
 4055SOL     OW23800   3.404   4.053   7.126 -0.2295 -0.2386 -0.0247
 4055SOL    HW123801   3.397   4.146   7.146 -1.9140 -0.3082 -0.2557
 4055SOL    HW223802   3.489   4.032   7.164 -0.2998 -0.5592 -0.0464
 4056SOL     OW23803   3.915   2.826   3.761  0.6737  0.6825 -0.4691
 4056SOL    HW123804   3.826   2.807   3.793  2.1335 -2.1995  1.9092
 4056SOL    HW223805   3.916   2.921   3.753  0.3444  0.5979 -1.4668
 4057SOL     OW23806   2.839   1.738  10.679 -0.4575  0.4198 -0.1255
 4057SOL    HW123807   2.881   1.781  10.753 -1.0658 -1.4599  1.3205
 4057SOL    HW223808   2.748   1.753  10.705 -0.8954  2.8533 -3.0771
 4058SOL     OW23809   2.632   2.667  13.980  0.2632  0.4110 -0.1896
 4058SOL    HW123810   2.600   2.636  13.895  0.5485 -0.2140 -0.0701
 4058SOL    HW223811   2.648   2.758  13.955  0.3249  0.1956 -0.9258
 4059SOL     OW23812   4.231   3.744   8.957  0.1205  0.1205  0.4164
 4059SOL    HW123813   4.176   3.822   8.963 -0.1652 -0.0048 -0.6680
 4059SOL    HW223814   4.313   3.782   8.987 -0.1391 -0.4305  1.8757
 4060SOL     OW23815   2.779   2.064   1.911 -0.2403 -0.6625  0.3122
 4060SOL    HW123816   2.797   2.093   2.000 -1.2482  0.9929 -0.0263
 4060SOL    HW223817   2.692   2.026   1.923 -1.1756  0.9220 -1.2704
 4061SOL     OW23818   3.150   3.413   1.409  0.3580 -0.2862  0.2988
 4061SOL    HW123819   3.135   3.429   1.316  0.0376  1.5509  0.6622
 4061SOL    HW223820   3.135   3.500   1.447 -1.6681  0.5776 -2.4683
 4062SOL     OW23821   0.188   3.035   8.461 -0.0028  0.2412 -0.1896
 4062SOL    HW123822   0.154   2.949   8.486 -0.0672  0.6904  1.2460
 4062SOL    HW223823   0.141   3.097   8.517 -1.3495 -2.5119  1.7268
 4063SOL     OW23824   4.653   0.068   4.706  0.2473 -0.7813  0.1131
 4063SOL    HW123825   4.573   0.076   4.655  0.8905 -0.8559 -0.9152
 4063SOL    HW223826   4.683   0.159   4.709 -0.9627 -0.4340  1.5931
 4064SOL     OW23827   2.682   0.248  11.426 -0.1136  0.5996  0.4307
 4064SOL    HW123828   2.668   0.334  11.386 -0.8594  0.1166 -0.3590
 4064SOL    HW223829   2.679   0.280  11.516 -0.4029  0.9790  0.2850
 4065SOL     OW23830   0.288   2.909  16.123 -0.4334 -0.4321  0.3319
 4065SOL    HW123831   0.355   2.851  16.086 -1.2801 -0.2891 -1.4182
 4065SOL    HW223832   0.243   2.844  16.176 -1.7457  0.3212  0.1499
 4066SOL     OW23833   2.771   2.328   6.472 -0.8456  0.4305 -0.2467
 4066SOL    HW123834   2.746   2.419   6.489 -1.5397  0.2680 -0.4010
 4066SOL    HW223835   2.704   2.276   6.516 -0.9151 -0.9515 -2.0005
 4067SOL     OW23836   4.489   1.304  14.580  0.3631 -0.0485  0.1381
 4067SOL    HW123837   4.516   1.345  14.662 -1.6732  0.4457  0.5457
 4067SOL    HW223838   4.462   1.378  14.526 -2.0382 -0.9915  0.0853
 4068SOL     OW23839   4.062   3.257   5.330  0.7632 -0.0154  0.6821
 4068SOL    HW123840   4.012   3.205   5.393  0.6270 -0.4032  0.2544
 4068SOL    HW223841   4.095   3.324   5.390  1.1530  2.6376 -2.4615
 4069SOL     OW23842   3.254   0.508   7.773  0.4116 -0.2748  0.0419
 4069SOL    HW123843   3.258   0.415   7.793 -0.4523  0.1433  2.2619
 4069SOL    HW223844   3.159   0.518   7.760  0.6178  0.2307 -1.0228
 4070SOL     OW23845   0.325   2.999   1.918  0.4939  0.1833  0.1382
 4070SOL    HW123846   0.315   3.093   1.902 -0.5105  0.0011 -0.3257
 4070SOL    HW223847   0.414   2.985   1.884  0.7958  2.1385  0.1270
 4071SOL     OW23848   1.811   4.043   0.827 -0.4140  0.5191  0.3120
 4071SOL    HW123849   1.899   4.028   0.794 -0.5570  0.9262 -0.2559
 4071SOL    HW223850   1.795   3.955   0.860  1.3188 -0.0784 -0.4454
 4072SOL     OW23851   1.875   3.509   4.441 -0.6034 -0.2363 -0.0236
 4072SOL    HW123852   1.828   3.488   4.521  1.5892 -0.1831  1.2727
 4072SOL    HW223853   1.821   3.449   4.389  0.3063 -0.3608 -0.8045
 4073SOL     OW23854   2.589   1.376   1.789 -0.4377 -0.5933 -0.7725
 4073SOL    HW123855   2.654   1.380   1.859 -1.0018  1.8099 -0.3853
 4073SOL    HW223856   2.524   1.440   1.816  1.7719  0.4269  2.1247
 4074SOL     OW23857   2.867   2.390   5.121  0.1993  0.5233  0.1819
 4074SOL    HW123858   2.950   2.411   5.162  0.1668 -0.4271  0.7398
 4074SOL    HW223859   2.846   2.467   5.068  1.7744 -1.3969 -3.2450
 4075SOL     OW23860   0.314   1.169   2.926 -0.1126 -0.7743 -0.1914
 4075SOL    HW123861   0.385   1.109   2.949  2.4687  2.0630 -0.7069
 4075SOL    HW223862   0.335   1.257   2.959  2.3649 -1.5285  0.2604
 4076SOL     OW23863   0.766   4.650   6.544  0.9086  0.3183  0.0379
 4076SOL    HW123864   0.686   4.641   6.492  2.2686 -0.6273 -1.8592
 4076SOL    HW223865   0.798   4.561   6.560 -1.1053 -0.5851 -0.9958
 4077SOL     OW23866   3.633   2.144   5.766  0.2959 -0.2313 -0.5726
 4077SOL    HW123867   3.695   2.108   5.703  1.0261 -2.7965  1.6216
 4077SOL    HW223868   3.689   2.208   5.811  1.2621 -1.1045 -0.5388
 4078SOL     OW23869   2.691   3.891  15.828 -0.8222  0.1750  0.1568
 4078SOL    HW123870   2.641   3.809  15.818 -2.0169  0.7394  1.6052
 4078SOL    HW223871   2.683   3.926  15.739  1.2358  0.0433 -0.0759
 4079SOL     OW23872   0.895   3.845   4.464 -0.5592  0.1711 -0.6243
 4079SOL    HW123873   0.826   3.879   4.521  0.4224 -1.0691  1.2876
 4079SOL    HW223874   0.860   3.762   4.432  0.1216 -0.4260  0.1619
 4080SOL     OW23875   3.791   2.583   0.299 -0.5811  0.6127 -0.2467
 4080SOL    HW123876   3.699   2.587   0.325 -0.3468  1.0714  0.5172
 4080SOL    HW223877   3.831   2.627   0.374  0.4513 -0.8106  0.0181
 4081SOL     OW23878   4.571   1.213   5.735  0.0190 -0.1182  0.0229
 4081SOL    HW123879   4.574   1.275   5.663  1.8143 -0.8940 -0.5726
 4081SOL    HW223880   4.661   1.185   5.752 -0.5806 -1.5384  0.9056
 4082SOL     OW23881   1.614   1.439   6.402  0.2068  0.6484 -0.1606
 4082SOL    HW123882   1.658   1.495   6.338  1.9563 -0.1998  0.2835
 4082SOL    HW223883   1.527   1.476   6.388 -0.0857  0.4317  1.1098
 4083SOL     OW23884   2.363   3.743   1.016 -0.4142 -0.2345 -0.6106
 4083SOL    HW123885   2.311   3.766   0.939 -0.1365  0.3430 -0.6268
 4083SOL    HW223886   2.393   3.656   0.991  3.0132  0.0499  2.5412
 4084SOL     OW23887   1.060   2.774   4.252  0.4295  0.4381 -0.3839
 4084SOL    HW123888   1.139   2.825   4.234  0.6390  0.0920 -0.4554
 4084SOL    HW223889   1.084   2.695   4.300 -1.0503  0.2048 -0.0491
 4085SOL     OW23890   2.091   0.769   8.384 -0.4944 -0.0606 -0.2092
 4085SOL    HW123891   2.096   0.754   8.479  1.2594 -2.3865 -0.6727
 4085SOL    HW223892   2.084   0.680   8.351 -0.5502  0.2477 -1.0340
 4086SOL     OW23893   1.410   2.320   5.028 -0.2183 -0.5128  0.3431
 4086SOL    HW123894   1.366   2.402   5.050  0.0574 -0.2719  0.0064
 4086SOL    HW223895   1.438   2.332   4.937 -0.0410 -1.2385  0.3018
 4087SOL     OW23896   0.771   3.029   2.046  0.0226 -0.3194 -0.5471
 4087SOL    HW123897   0.800   3.120   2.037 -1.0232 -0.0977 -1.6376
 4087SOL    HW223898   0.729   3.033   2.132  0.4354  0.8892 -0.3917
 4088SOL     OW23899   3.463   2.348   5.124  0.4215  0.2047 -0.0082
 4088SOL    HW123900   3.459   2.416   5.056  1.2135  0.7932  0.5187
 4088SOL    HW223901   3.370   2.348   5.147  0.5822 -0.2199  0.6522
 4089SOL     OW23902   4.351   4.042   9.176  0.7136  0.1243  0.2773
 4089SOL    HW123903   4.301   4.005   9.249 -0.5549  3.3341  1.0399
 4089SOL    HW223904   4.364   3.957   9.135 -1.3101 -0.0292 -0.0359
 4090SOL     OW23905   1.122   4.470  17.312 -0.2860 -0.2505 -0.0544
 4090SOL    HW123906   1.098   4.424  17.393  0.4371 -0.6362 -0.0533
 4090SOL    HW223907   1.214   4.483  17.335 -1.0168  2.2269  1.3940
 4091SOL     OW23908   1.880   2.016   7.410 -0.0679 -0.7562 -0.6211
 4091SOL    HW123909   1.878   1.949   7.479 -0.6399 -0.1669 -0.0608
 4091SOL    HW223910   1.789   2.044   7.418 -0.6526 -2.2809 -1.9261
 4092SOL     OW23911   2.098   0.319   4.239 -0.3991  0.1966  0.4973
 4092SOL    HW123912   2.027   0.337   4.301 -0.1991  0.6555  0.5981
 4092SOL    HW223913   2.161   0.385   4.270 -0.9024 -0.0252  1.9733
 4093SOL     OW23914   1.954   2.746  11.957  0.3840 -0.4286  0.0641
 4093SOL    HW123915   1.893   2.672  11.963  0.3829 -0.4179  0.1832
 4093SOL    HW223916   1.940   2.790  12.042  1.8721  0.2182 -0.0278
 4094SOL     OW23917   3.475   1.366  11.217  0.4489  0.0053 -0.3696
 4094SOL    HW123918   3.557   1.409  11.239 -0.5678  1.9601 -0.3564
 4094SOL    HW223919   3.428   1.396  11.295 -0.0111  0.4202 -0.8053
 4095SOL     OW23920   4.033   1.660   2.232 -0.0382 -1.2462  0.3145
 4095SOL    HW123921   4.117   1.623   2.203  0.4200  0.2097 -0.2380
 4095SOL    HW223922   3.992   1.664   2.145  0.0337 -0.4315  0.3212
 4096SOL     OW23923   1.310   4.081  15.113  0.4814 -0.1034  0.2553
 4096SOL    HW123924   1.363   4.034  15.178  0.4912  0.1558  0.4357
 4096SOL    HW223925   1.366   4.081  15.036 -1.7188 -1.5176 -1.3168
 4097SOL     OW23926   1.186   2.947   1.850 -0.0663  0.6901  0.0924
 4097SOL    HW123927   1.126   2.935   1.923 -0.6873 -1.3588 -0.7540
 4097SOL    HW223928   1.164   3.031   1.810 -1.7564  0.8187  1.3020
 4098SOL     OW23929   1.860   1.216   3.825 -0.4445  0.2375  0.2645
 4098SOL    HW123930   1.913   1.141   3.797  0.0452  0.7403 -0.1736
 4098SOL    HW223931   1.901   1.234   3.910 -1.4819  0.3257  0.7413
 4099SOL     OW23932   3.038   4.007   5.860 -0.3852  0.1976  0.0603
 4099SOL    HW123933   3.103   4.064   5.819 -0.2518  0.5238  0.7267
 4099SOL    HW223934   3.080   3.928   5.826 -1.8076 -0.6159  0.1736
 4100SOL     OW23935   3.614   1.975   6.117 -0.1150 -0.3296  0.1099
 4100SOL    HW123936   3.580   1.920   6.187 -1.3466 -0.6034 -0.7076
 4100SOL    HW223937   3.707   1.958   6.134  0.5287  2.7279 -0.3070
 4101SOL     OW23938   3.734   2.154   7.154  0.7744 -0.1998  0.0962
 4101SOL    HW123939   3.693   2.097   7.219 -2.3651  0.6607 -1.1421
 4101SOL    HW223940   3.660   2.189   7.105 -0.1292 -0.6379  1.1795
 4102SOL     OW23941   2.434   3.750   7.111  0.2011  0.7765 -0.5634
 4102SOL    HW123942   2.505   3.800   7.071  0.8698  0.7864  0.6428
 4102SOL    HW223943   2.451   3.665   7.069  1.3817  0.2526  0.9722
 4103SOL     OW23944   2.791   2.008   4.152  0.9281  0.4676  0.1983
 4103SOL    HW123945   2.730   2.078   4.130  0.5187 -0.3549 -1.3144
 4103SOL    HW223946   2.746   1.976   4.231 -1.2552 -0.1492 -1.2962
 4104SOL     OW23947   3.462   0.289   5.289  0.5917  0.1551 -0.3123
 4104SOL    HW123948   3.407   0.222   5.248  2.9157 -1.1161 -1.3333
 4104SOL    HW223949   3.395   0.325   5.347 -1.4031 -0.6983 -2.0528
 4105SOL     OW23950   2.714   2.693   5.243 -0.0816  0.5676  0.7030
 4105SOL    HW123951   2.778   2.753   5.281  0.7339  0.6294 -0.7868
 4105SOL    HW223952   2.718   2.628   5.314  1.0112  0.9684  1.0052
 4106SOL     OW23953   3.251   2.543  16.080  0.0938  0.0906 -0.4656
 4106SOL    HW123954   3.275   2.612  16.018  2.1988  0.2254  0.5084
 4106SOL    HW223955   3.261   2.465  16.025 -1.2560 -0.4617  0.0775
 4107SOL     OW23956   1.056   0.498   1.798  0.0452  0.5969  0.1237
 4107SOL    HW123957   0.980   0.489   1.855 -0.1202  0.3966 -0.1276
 4107SOL    HW223958   1.114   0.522   1.870  0.1402 -0.5205  0.4186
 4108SOL     OW23959   3.939   1.032   8.465  0.0921 -0.1423 -0.1432
 4108SOL    HW123960   3.879   0.987   8.406 -0.1514 -0.6355  0.4739
 4108SOL    HW223961   4.003   0.963   8.481  0.2799 -0.3462 -1.7750
 4109SOL     OW23962   2.453   3.849  10.152  1.0291 -0.5602 -0.3774
 4109SOL    HW123963   2.498   3.836  10.235  1.5703 -0.3723 -0.6414
 4109SOL    HW223964   2.525   3.865  10.091  0.7925  2.4493  0.1245
 4110SOL     OW23965   3.675   1.023  13.676 -0.3630 -0.2823 -0.2914
 4110SOL    HW123966   3.675   0.965  13.601  0.4717 -1.7028  0.8141
 4110SOL    HW223967   3.741   1.083  13.641 -0.0596 -0.0596  0.6610
 4111SOL     OW23968   3.588   2.903   8.906  0.6105  0.4136  0.1704
 4111SOL    HW123969   3.615   2.812   8.921  0.2405  0.0201 -1.4715
 4111SOL    HW223970   3.673   2.946   8.898  0.0430  1.3096 -1.0552
 4112SOL     OW23971   3.287   3.564   9.487  0.0307 -0.0516  0.4899
 4112SOL    HW123972   3.307   3.624   9.559 -0.9149 -0.3391  0.9909
 4112SOL    HW223973   3.350   3.586   9.419 -1.3391  2.2821  0.0108
 4113SOL     OW23974   3.495   3.475   8.779  0.1061 -0.4360  0.9646
 4113SOL    HW123975   3.567   3.492   8.840 -0.9226  1.8161  1.5436
 4113SOL    HW223976   3.494   3.379   8.782  0.7264 -0.4740  0.1431
 4114SOL     OW23977   4.398   1.797   7.058  0.6611  0.0584  0.8613
 4114SOL    HW123978   4.395   1.708   7.025 -0.1345  0.7304 -0.8661
 4114SOL    HW223979   4.323   1.802   7.117 -0.5968 -1.5192 -0.5943
 4115SOL     OW23980   2.100   1.305   8.914  0.0873 -0.4334  0.3130
 4115SOL    HW123981   2.125   1.361   8.840  2.1277 -0.4127  1.0065
 4115SOL    HW223982   2.133   1.219   8.886 -0.2028 -0.5662  0.3803
 4116SOL     OW23983   4.385   1.478   6.425 -0.2714 -0.3297 -0.4875
 4116SOL    HW123984   4.449   1.494   6.356  0.9050 -0.0706  0.6610
 4116SOL    HW223985   4.419   1.399   6.467  1.5739  1.2139  0.8777
 4117SOL     OW23986   0.639   1.347   1.070  0.1474 -0.0810 -0.0608
 4117SOL    HW123987   0.609   1.356   1.160  1.2184  0.0246  0.2782
 4117SOL    HW223988   0.733   1.363   1.071  0.2179 -0.5434  0.5921
 4118SOL     OW23989   4.619   1.159   4.904 -0.3757  0.2099 -0.0734
 4118SOL    HW123990   4.621   1.137   4.811 -0.4439  1.6270 -0.4068
 4118SOL    HW223991   4.555   1.094   4.933 -0.1300 -0.0708 -0.1609
 4119SOL     OW23992   2.628   0.683  12.937  0.8941  0.5872  0.2124
 4119SOL    HW123993   2.560   0.619  12.959  1.6430 -0.1802  0.3146
 4119SOL    HW223994   2.578   0.764  12.943  1.1980  0.8709 -1.2499
 4120SOL     OW23995   4.484   3.077  12.494 -0.0942  0.1931  0.0783
 4120SOL    HW123996   4.541   3.119  12.430  1.4151  0.0892  1.3811
 4120SOL    HW223997   4.417   3.143  12.512 -0.3292 -0.0570  0.1210
 4121SOL     OW23998   3.914   0.056   1.098  0.3204 -0.2047  0.0977
 4121SOL    HW123999   3.829   0.062   1.142  1.5895  1.1072  2.3877
 4121SOL    HW224000   3.967   0.114   1.153  0.3138 -1.5942  1.5743
 4122SOL     OW24001   0.870   0.039   3.780  0.3593  0.0641 -0.0138
 4122SOL    HW124002   0.934   0.083   3.725 -0.0163 -1.3073 -1.5442
 4122SOL    HW224003   0.925   4.734   3.847  0.1918 -0.7127 -0.3506
 4123SOL     OW24004   0.451   4.189   7.441 -0.1658 -0.0574  0.4460
 4123SOL    HW124005   0.470   4.106   7.397  0.2869 -1.0717  2.5678
 4123SOL    HW224006   0.437   4.237   7.359  0.4189 -1.6255 -0.5879
 4124SOL     OW24007   2.372   3.201  17.183 -0.6232  0.2758  0.1843
 4124SOL    HW124008   2.465   3.196  17.205 -0.1580 -1.4772 -2.0808
 4124SOL    HW224009   2.328   3.214  17.266 -0.5009 -0.5145  0.3749
 4125SOL     OW24010   2.827   1.636   2.183 -0.4292  0.0356  0.0892
 4125SOL    HW124011   2.886   1.697   2.228 -0.0205  0.7071 -1.3344
 4125SOL    HW224012   2.883   1.597   2.116 -0.3228  0.8367 -0.2987
 4126SOL     OW24013   3.918   2.882   7.635 -0.2825 -0.0239  0.0096
 4126SOL    HW124014   3.932   2.882   7.540  0.9420  0.5611  0.1984
 4126SOL    HW224015   3.832   2.923   7.645 -0.7927 -1.0186 -0.2976
 4127SOL     OW24016   2.683   0.506   6.310  0.8465  0.4543  0.8386
 4127SOL    HW124017   2.690   0.411   6.306  1.1086  0.3867  2.8850
 4127SOL    HW224018   2.731   0.533   6.231  1.8249 -0.5201  1.0926
 4128SOL     OW24019   1.419   4.206   0.731 -0.6919  0.1958 -0.3238
 4128SOL    HW124020   1.430   4.134   0.793  0.3771 -1.3695 -2.3534
 4128SOL    HW224021   1.415   4.273   0.800  2.3245 -1.0880  1.0973
 4129SOL     OW24022   0.025   1.189  12.237 -0.6877 -0.5353 -0.2361
 4129SOL    HW124023   0.000   1.155  12.323 -1.3170  0.5610  0.0142
 4129SOL    HW224024   0.102   1.136  12.217  1.4876  2.0505  1.2977
 4130SOL     OW24025   1.210   0.909   1.779  0.5185 -0.4730  0.0090
 4130SOL    HW124026   1.245   0.820   1.781  1.2797 -0.1886 -0.5876
 4130SOL    HW224027   1.290   0.961   1.778  0.9104 -1.0685  1.4208
 4131SOL     OW24028   1.569   3.679   9.436  0.4251 -0.1297 -0.1923
 4131SOL    HW124029   1.527   3.604   9.395 -3.2597  1.4793  0.6184
 4131SOL    HW224030   1.499   3.744   9.430 -0.8930 -1.6092 -0.7106
 4132SOL     OW24031   0.180   4.365  15.945 -0.5098  0.9932  0.0832
 4132SOL    HW124032   0.088   4.390  15.948 -1.6748 -3.1397 -0.9883
 4132SOL    HW224033   0.184   4.315  16.026 -1.0738 -1.8902 -1.6363
 4133SOL     OW24034   3.551   2.084   4.414  0.2528 -1.2350 -0.3794
 4133SOL    HW124035   3.476   2.039   4.452 -1.1808  2.3684  1.1135
 4133SOL    HW224036   3.593   2.133   4.485  1.5367 -1.6034 -0.8810
 4134SOL     OW24037   4.097   3.333  16.384  0.0453  0.2635  0.3623
 4134SOL    HW124038   4.092   3.311  16.291 -0.6793 -0.8547  0.6748
 4134SOL    HW224039   4.115   3.247  16.421  0.1999  0.0856 -0.1217
 4135SOL     OW24040   2.559   4.123  11.501 -0.0708  0.4147 -0.5528
 4135SOL    HW124041   2.576   4.049  11.560  0.0596  0.6310 -0.3234
 4135SOL    HW224042   2.471   4.151  11.528  0.1493 -0.4807  1.1256
 4136SOL     OW24043   2.289   3.977   6.420 -0.1099  0.5528  0.4022
 4136SOL    HW124044   2.255   3.897   6.461 -1.4734  1.7392  1.5739
 4136SOL    HW224045   2.242   3.971   6.337  0.8962 -0.2891 -0.1041
 4137SOL     OW24046   1.692   3.156   2.881  0.1128  0.1734  0.1089
 4137SOL    HW124047   1.616   3.126   2.931  1.5442 -2.7881  0.5198
 4137SOL    HW224048   1.725   3.073   2.846 -1.1648 -0.0637 -0.5066
 4138SOL     OW24049   1.348   1.435   4.312 -0.3108 -0.1079  0.3872
 4138SOL    HW124050   1.308   1.399   4.232  1.0942 -0.3680 -0.1902
 4138SOL    HW224051   1.296   1.514   4.330  1.7354  1.3769 -0.3230
 4139SOL     OW24052   4.265   1.882   2.236 -0.1199  0.1378  0.4195
 4139SOL    HW124053   4.213   1.952   2.197  0.1639 -0.1493 -0.4655
 4139SOL    HW224054   4.199   1.824   2.275  0.9962  0.0031  2.0951
 4140SOL     OW24055   0.888   2.493   6.774  0.6303  0.1368  0.2936
 4140SOL    HW124056   0.975   2.513   6.809  0.5068  0.2760  0.5175
 4140SOL    HW224057   0.841   2.509   6.855  1.0055 -0.4835  0.6400
 4141SOL     OW24058   4.291   1.584  16.864  0.2050 -0.2381 -0.1305
 4141SOL    HW124059   4.210   1.623  16.830 -0.4997 -1.5931 -0.0043
 4141SOL    HW224060   4.353   1.652  16.888  1.2582 -0.9111 -0.9235
 4142SOL     OW24061   2.267   4.165   5.590  0.2785  0.1754 -0.2433
 4142SOL    HW124062   2.182   4.209   5.581  0.1456  0.2246  1.2873
 4142SOL    HW224063   2.267   4.170   5.685 -0.5188  1.5212 -0.3268
 4143SOL     OW24064   1.098   2.177  17.032  0.4675  0.3891 -0.2992
 4143SOL    HW124065   1.162   2.133  16.975  0.7473 -0.9510  1.0431
 4143SOL    HW224066   1.161   2.214  17.093  1.4495 -0.5888 -0.7040
 4144SOL     OW24067   4.198   3.069   2.719 -0.4736  0.4911 -0.3266
 4144SOL    HW124068   4.249   3.057   2.639 -0.8520 -0.4306 -0.4240
 4144SOL    HW224069   4.175   3.161   2.720  0.1497  0.6412  0.6824
 4145SOL     OW24070   2.664   3.000   5.780 -0.2557  0.0697 -0.2829
 4145SOL    HW124071   2.575   2.999   5.745 -0.5744  0.5980  0.5038
 4145SOL    HW224072   2.647   3.016   5.873  1.9479  1.0901 -0.0477
 4146SOL     OW24073   1.211   2.984   7.473 -0.7203 -0.1677  1.2562
 4146SOL    HW124074   1.213   3.080   7.469  0.0486 -0.2223  0.5647
 4146SOL    HW224075   1.182   2.969   7.564 -0.9738  0.1146  1.2249
 4147SOL     OW24076   1.563   2.799   4.172  0.0363  0.3992 -0.5162
 4147SOL    HW124077   1.562   2.750   4.090  0.0237  0.6906 -0.6908
 4147SOL    HW224078   1.560   2.727   4.235 -0.6406 -0.4819 -1.5620
 4148SOL     OW24079   4.270   1.400   7.580  0.1917  0.4348 -0.3097
 4148SOL    HW124080   4.249   1.491   7.603 -0.1728  0.7866 -2.0654
 4148SOL    HW224081   4.278   1.416   7.486  0.9476  0.9365 -0.1649
 4149SOL     OW24082   1.389   1.839  15.842  0.9589 -0.1186  0.2540
 4149SOL    HW124083   1.433   1.922  15.820 -0.1717  0.2982 -0.4359
 4149SOL    HW224084   1.301   1.853  15.807  0.8777 -3.6229 -0.8662
 4150SOL     OW24085   1.443   3.711   3.946  0.7358 -0.3550 -0.3035
 4150SOL    HW124086   1.424   3.647   3.878  0.9276  0.3254 -0.9993
 4150SOL    HW224087   1.463   3.788   3.893  0.1938 -1.1156 -1.5995
 4151SOL     OW24088   0.475   3.098   7.591 -0.3063  0.0608  0.1122
 4151SOL    HW124089   0.466   3.193   7.593  2.4782  0.3144  0.4969
 4151SOL    HW224090   0.459   3.073   7.682 -1.2889 -2.6012 -0.7533
 4152SOL     OW24091   4.108   1.195   6.302  0.1515  0.2126 -0.1582
 4152SOL    HW124092   4.197   1.166   6.323 -0.1002  0.8084  1.7237
 4152SOL    HW224093   4.065   1.173   6.385 -0.7715 -0.9003 -0.9497
 4153SOL     OW24094   3.782   4.241   8.248 -0.1742  0.1834  0.2297
 4153SOL    HW124095   3.720   4.179   8.287  0.6043 -1.0830 -0.5791
 4153SOL    HW224096   3.861   4.187   8.250  1.2328  2.3785  3.7344
 4154SOL     OW24097   1.639   2.159   7.415 -0.7099  0.1986  0.2372
 4154SOL    HW124098   1.546   2.162   7.441 -0.4372  0.0836  1.2114
 4154SOL    HW224099   1.644   2.103   7.338 -0.3112 -1.2394  1.3164
 4155SOL     OW24100   3.965   2.693   7.131  0.0225 -0.1859 -0.0488
 4155SOL    HW124101   3.945   2.607   7.095 -0.9974 -0.9591  2.3319
 4155SOL    HW224102   3.885   2.705   7.183  0.6442  1.7860  0.4584
 4156SOL     OW24103   2.250   2.745   8.938  0.0079  0.4185 -0.6005
 4156SOL    HW124104   2.251   2.840   8.923 -2.3911  0.5296 -0.0696
 4156SOL    HW224105   2.317   2.714   8.877  0.8675 -0.2201  0.6647
 4157SOL     OW24106   4.527   0.875   1.882  0.3937 -0.3160 -0.0918
 4157SOL    HW124107   4.583   0.878   1.804 -0.8023  0.1328 -0.9448
 4157SOL    HW224108   4.573   0.809   1.933 -0.9661 -0.6026  0.7661
 4158SOL     OW24109   4.247   2.077   3.724 -0.0687  0.0844  0.3618
 4158SOL    HW124110   4.276   2.168   3.720  0.1021  0.0432  0.7114
 4158SOL    HW224111   4.157   2.087   3.691 -0.7107  0.5394  2.2723
 4159SOL     OW24112   3.064   3.749  17.187 -0.3071 -0.6193 -0.0007
 4159SOL    HW124113   3.031   3.660  17.179 -0.5106 -0.2580 -3.3715
 4159SOL    HW224114   3.154   3.724  17.207  1.4133  3.0911 -3.0860
 4160SOL     OW24115   0.329   2.819   1.013  0.6724  0.3528 -0.0933
 4160SOL    HW124116   0.236   2.798   1.019  0.4841  0.7064 -2.1258
 4160SOL    HW224117   0.372   2.741   1.048 -2.1265 -2.1813 -2.2978
 4161SOL     OW24118   1.805   2.346  12.870  0.9882 -0.3807 -0.4152
 4161SOL    HW124119   1.868   2.338  12.799  0.0060 -2.6311 -1.0361
 4161SOL    HW224120   1.746   2.275  12.845 -0.0441  0.3158  0.0139
 4162SOL     OW24121   3.895   1.965   4.970  0.2710  0.4752  0.0457
 4162SOL    HW124122   3.856   1.984   4.885 -1.4248 -0.2236  0.6665
 4162SOL    HW224123   3.963   1.901   4.950 -0.1697 -0.2506  0.8790
 4163SOL     OW24124   1.105   2.465   9.274  0.1394  0.1103 -0.0783
 4163SOL    HW124125   1.092   2.387   9.220  0.4999  1.6613 -2.4069
 4163SOL    HW224126   1.193   2.482   9.242 -0.5427  0.4132 -1.7670
 4164SOL     OW24127   2.971   2.338   3.273  0.0418  0.2070 -0.2377
 4164SOL    HW124128   2.960   2.296   3.359 -2.3099 -0.7269 -0.9972
 4164SOL    HW224129   2.884   2.377   3.269  0.1478  0.3698 -0.9063
 4165SOL     OW24130   2.501   1.364   5.650 -0.2060 -0.1119  0.2253
 4165SOL    HW124131   2.538   1.345   5.737  1.0322 -1.1222 -0.5150
 4165SOL    HW224132   2.509   1.282   5.602 -0.3753  0.1259 -0.2032
 4166SOL     OW24133   2.051   4.566   7.812 -0.7788  0.1629  0.0202
 4166SOL    HW124134   2.032   4.508   7.738 -0.7345 -1.1698  1.0558
 4166SOL    HW224135   2.069   4.489   7.866 -0.1806  1.2981  1.4575
 4167SOL     OW24136   2.264   2.718   4.946  0.2930  0.6559  0.3790
 4167SOL    HW124137   2.340   2.750   4.995 -0.1213  1.9022  0.2096
 4167SOL    HW224138   2.252   2.632   4.987  0.9260  0.9027  1.0799
 4168SOL     OW24139   0.941   3.189   5.173 -0.2912  0.0288  0.4517
 4168SOL    HW124140   0.855   3.183   5.130  0.3874  0.4873 -0.9776
 4168SOL    HW224141   0.998   3.227   5.105 -0.4896  1.8620  1.2927
 4169SOL     OW24142   1.775   2.446   5.611  0.0389 -0.0603  0.3495
 4169SOL    HW124143   1.787   2.351   5.614  0.5356  0.0001  0.2674
 4169SOL    HW224144   1.696   2.453   5.664  0.7054 -1.2208  1.4907
 4170SOL     OW24145   1.673   0.540  12.701 -0.6388  0.0857  0.8947
 4170SOL    HW124146   1.718   0.607  12.753 -0.2805  0.0564  0.6255
 4170SOL    HW224147   1.647   0.592  12.626 -0.5378 -2.7563 -1.1048
 4171SOL     OW24148   3.451   0.381   5.943  0.5123 -0.2356  0.1710
 4171SOL    HW124149   3.439   0.454   6.004 -0.4169 -0.5141  0.3133
 4171SOL    HW224150   3.406   0.308   5.985 -0.6759 -1.3953 -3.1147
 4172SOL     OW24151   0.594   2.001   0.569  0.0863  0.1356 -0.5430
 4172SOL    HW124152   0.586   2.037   0.481  2.9256  0.7324 -0.5431
 4172SOL    HW224153   0.561   1.912   0.559 -1.3979  0.7113 -0.8987
 4173SOL     OW24154   2.273   0.126   3.765 -0.1164  0.3587  0.7150
 4173SOL    HW124155   2.232   0.070   3.699 -0.0457 -2.0187  2.6432
 4173SOL    HW224156   2.253   0.078   3.846 -2.3018  0.4260  0.2169
 4174SOL     OW24157   4.696   1.146   3.674  0.7041  0.3727 -0.3487
 4174SOL    HW124158   4.700   1.196   3.592 -0.5154  1.2128  0.1052
 4174SOL    HW224159   4.658   1.196   3.746 -0.1965 -1.0334  0.1409
 4175SOL     OW24160   0.896   3.752  17.356 -0.2150 -0.3653  0.2917
 4175SOL    HW124161   0.926   3.721  17.442 -2.7933  0.8042  1.6016
 4175SOL    HW224162   0.820   3.693  17.347  0.8713 -1.7948  0.3891
 4176SOL     OW24163   1.163   1.973  16.010  0.2043 -0.0484 -0.0492
 4176SOL    HW124164   1.187   2.024  15.933 -1.3892  0.2725 -0.3350
 4176SOL    HW224165   1.246   1.968  16.057  0.1299 -1.8419 -0.1085
 4177SOL     OW24166   3.605   0.146   4.607  0.1932 -0.2659 -0.3305
 4177SOL    HW124167   3.596   0.240   4.625 -0.4473 -0.9255  2.8462
 4177SOL    HW224168   3.619   0.151   4.513  0.4006  0.6953 -0.2510
 4178SOL     OW24169   2.629   1.281  11.738  0.8444 -0.5941  0.2521
 4178SOL    HW124170   2.698   1.222  11.709  0.4961 -0.7005 -0.3629
 4178SOL    HW224171   2.691   1.337  11.786  1.2363  0.6384 -1.7007
 4179SOL     OW24172   0.432   1.546   4.059  0.3756 -0.1194 -0.0160
 4179SOL    HW124173   0.430   1.536   3.964 -0.0576  4.8545 -0.5435
 4179SOL    HW224174   0.408   1.457   4.084 -1.0535  0.1161 -0.5412
 4180SOL     OW24175   0.203   2.259   8.559  0.4266 -0.0386  0.4432
 4180SOL    HW124176   0.113   2.227   8.558 -0.0173  1.2201 -1.0239
 4180SOL    HW224177   0.201   2.354   8.546  0.9602 -0.0598  0.1933
 4181SOL     OW24178   1.768   3.640  17.464 -0.1256  0.4545 -0.2225
 4181SOL    HW124179   1.805   3.552  17.455 -0.9805  0.0595  0.1444
 4181SOL    HW224180   1.801   3.684  17.386  1.0106  1.2997  0.7252
 4182SOL     OW24181   2.844   3.444   8.522  0.7000  0.2630 -0.4267
 4182SOL    HW124182   2.821   3.358   8.486 -0.9242  0.4105  0.2291
 4182SOL    HW224183   2.878   3.415   8.607 -3.8446 -1.0973  0.9709
 4183SOL     OW24184   3.456   0.763  12.208 -0.7042  0.2046 -0.6241
 4183SOL    HW124185   3.381   0.800  12.162 -0.8348  3.3807  2.1308
 4183SOL    HW224186   3.447   0.821  12.283 -1.4770 -2.3697  1.2649
 4184SOL     OW24187   0.373   3.472   2.049  0.5589 -0.1663  0.4029
 4184SOL    HW124188   0.376   3.439   1.959  0.6683 -2.0037  1.0840
 4184SOL    HW224189   0.348   3.561   2.026  1.4823  0.2116  0.8475
 4185SOL     OW24190   0.308   0.254   2.808  0.2524  0.3374  0.3817
 4185SOL    HW124191   0.237   0.209   2.763  0.6909  0.4252 -0.4081
 4185SOL    HW224192   0.267   0.336   2.836 -1.8494 -0.1488 -1.2973
 4186SOL     OW24193   0.850   1.776   5.473 -0.3818 -0.1091  0.0278
 4186SOL    HW124194   0.881   1.859   5.511 -1.5022  0.2168  0.2148
 4186SOL    HW224195   0.906   1.760   5.397  1.1657  1.0692  0.9083
 4187SOL     OW24196   1.534   4.197  16.870  0.0649 -0.5994  0.6618
 4187SOL    HW124197   1.521   4.170  16.961 -0.9474 -0.1777  0.6355
 4187SOL    HW224198   1.458   4.153  16.831  2.2180 -2.2538 -1.7688
 4188SOL     OW24199   1.504   1.515   4.789  0.1321 -0.0066 -0.3672
 4188SOL    HW124200   1.566   1.585   4.808 -0.6327  0.1283  1.6678
 4188SOL    HW224201   1.427   1.558   4.752 -0.2422  0.4871  0.9884
 4189SOL     OW24202   3.650   2.096   2.475 -0.4109  0.0897 -0.2792
 4189SOL    HW124203   3.665   2.186   2.447  1.6179  0.1109  0.8866
 4189SOL    HW224204   3.706   2.111   2.551 -0.4060  1.5041 -0.5632
 4190SOL     OW24205   4.009   1.229  12.255 -0.0906 -0.5728  0.0786
 4190SOL    HW124206   4.087   1.270  12.217 -1.5939 -0.4416 -2.8997
 4190SOL    HW224207   3.951   1.252  12.182  1.7038 -0.4361 -1.2967
 4191SOL     OW24208   0.023   4.406   4.668  0.2927  0.2258 -0.8752
 4191SOL    HW124209   0.052   4.465   4.738 -0.2113 -2.8838  2.0214
 4191SOL    HW224210   4.667   4.397   4.690  0.5887  0.3137  0.4423
 4192SOL     OW24211   1.046   2.908   7.259  0.3176 -0.0881 -0.5797
 4192SOL    HW124212   1.108   2.905   7.332  0.3086  3.8878 -0.4596
 4192SOL    HW224213   1.083   2.844   7.197 -0.7898  0.6040 -1.9382
 4193SOL     OW24214   0.064   3.744   2.663  0.3752  0.3884 -0.0886
 4193SOL    HW124215   0.045   3.688   2.587  1.2185  1.9058 -1.4087
 4193SOL    HW224216   4.736   3.814   2.655 -1.9687 -1.8269 -0.8476
 4194SOL     OW24217   2.905   1.900   4.539  0.0697 -0.1412  0.7646
 4194SOL    HW124218   2.987   1.918   4.494 -0.3814  2.1361  0.8432
 4194SOL    HW224219   2.875   1.992   4.541 -0.7180 -0.3569 -0.6362
 4195SOL     OW24220   3.180   1.454  15.664  0.5135  0.0637  0.1505
 4195SOL    HW124221   3.229   1.479  15.585  0.7517 -1.9573 -0.3317
 4195SOL    HW224222   3.210   1.514  15.732 -0.3893 -0.9061  1.4057
 4196SOL     OW24223   2.649   3.376   7.389  0.5944  0.3586  0.3559
 4196SOL    HW124224   2.693   3.444   7.439 -0.2735  0.0821  1.4867
 4196SOL    HW224225   2.699   3.368   7.308  2.7384  0.1990  1.7036
 4197SOL     OW24226   3.050   3.474   3.992 -0.1165 -0.1883 -0.5373
 4197SOL    HW124227   2.986   3.430   4.048  0.3314  0.6676  0.6753
 4197SOL    HW224228   3.043   3.423   3.912 -1.0711  0.2286 -0.7166
 4198SOL     OW24229   2.166   4.651   2.534 -0.1445  0.1334  0.1104
 4198SOL    HW124230   2.074   4.633   2.556  0.1914 -3.3805 -1.4393
 4198SOL    HW224231   2.205   4.687   2.614  0.0262  2.1843 -0.8992
 4199SOL     OW24232   1.842   0.762  17.137  0.3892  0.6055 -0.2122
 4199SOL    HW124233   1.809   0.829  17.196  0.2413 -0.2541  0.6730
 4199SOL    HW224234   1.758   0.731  17.103  0.8257  0.7767 -1.4558
 4200SOL     OW24235   1.388   2.480   0.450  0.6536 -0.0341  0.1766
 4200SOL    HW124236   1.320   2.544   0.471 -0.1870 -0.5594 -0.9477
 4200SOL    HW224237   1.373   2.412   0.516  1.0041  0.3416  0.6478
 4201SOL     OW24238   4.200   4.054   8.732  0.3868 -0.1958  0.5219
 4201SOL    HW124239   4.185   3.971   8.686  0.6708 -0.5308  1.0313
 4201SOL    HW224240   4.166   4.117   8.668 -0.9331 -1.6120 -0.1735
 4202SOL     OW24241   2.501   0.376  16.421  0.1479  0.2285  0.2404
 4202SOL    HW124242   2.446   0.402  16.347  0.2504  1.8953  0.7580
 4202SOL    HW224243   2.569   0.444  16.420  0.8676 -0.5055 -0.9678
 4203SOL     OW24244   2.509   3.507   5.464 -0.6471  0.0212  0.4937
 4203SOL    HW124245   2.465   3.592   5.468  0.9068  0.8635 -0.3156
 4203SOL    HW224246   2.476   3.471   5.382 -0.6144 -0.7702  0.8344
 4204SOL     OW24247   3.791   0.177   8.784 -0.1274  0.3132 -0.4101
 4204SOL    HW124248   3.717   0.122   8.756 -0.1644 -0.3664  1.0038
 4204SOL    HW224249   3.860   0.110   8.780 -0.3280 -0.0087  1.5985
 4205SOL     OW24250   3.531   1.803   3.616  0.4711 -0.1036 -0.0141
 4205SOL    HW124251   3.493   1.869   3.673  1.8846  0.1010  0.6978
 4205SOL    HW224252   3.617   1.842   3.633  0.1459  0.0377  1.2335
 4206SOL     OW24253   0.934   1.391   5.376 -0.5415 -0.5236 -0.5243
 4206SOL    HW124254   1.010   1.333   5.373 -0.8852 -1.0927  1.6298
 4206SOL    HW224255   0.911   1.396   5.283 -0.8778 -2.0122 -0.5079
 4207SOL     OW24256   1.321   1.809  17.046  0.3649 -0.2247 -0.0164
 4207SOL    HW124257   1.341   1.900  17.025  2.1963 -0.6384 -0.0614
 4207SOL    HW224258   1.231   1.812  17.014 -0.1506  1.5406  1.6266
 4208SOL     OW24259   1.267   1.859   2.772  0.1710 -0.6942 -0.6159
 4208SOL    HW124260   1.346   1.864   2.718  0.3996  0.4698 -0.1716
 4208SOL    HW224261   1.276   1.945   2.811 -1.5919 -0.6260 -0.3702
 4209SOL     OW24262   1.955   0.883  16.098  0.1982  0.0350  0.2347
 4209SOL    HW124263   1.897   0.839  16.035 -0.6283  0.2430  0.8532
 4209SOL    HW224264   1.962   0.972  16.065 -2.0303 -0.1712 -0.8031
 4210SOL     OW24265   4.166   1.336   5.786  0.5341 -0.1865 -0.0337
 4210SOL    HW124266   4.199   1.318   5.698 -1.9117 -0.3070 -0.9220
 4210SOL    HW224267   4.185   1.430   5.792 -1.1896  0.2044 -0.5818
 4211SOL     OW24268   3.099   4.117   2.528  0.8346 -0.4517  0.5329
 4211SOL    HW124269   3.137   4.087   2.445 -1.8715 -3.0176  0.2001
 4211SOL    HW224270   3.092   4.035   2.577  0.0602 -1.6582 -1.5787
 4212SOL     OW24271   1.596   2.317   0.715  0.5105  0.7760  0.0366
 4212SOL    HW124272   1.500   2.323   0.717  0.5055  1.0010 -1.6884
 4212SOL    HW224273   1.607   2.244   0.777  0.3903 -0.1125 -0.9967
 4213SOL     OW24274   3.237   1.964   9.384 -0.5551 -0.1382 -0.3605
 4213SOL    HW124275   3.299   2.022   9.340 -0.6280 -1.1816 -1.8687
 4213SOL    HW224276   3.173   1.948   9.314 -1.2762 -1.6244  0.6271
 4214SOL     OW24277   0.583   2.262  12.137 -0.1021 -0.1773  0.0265
 4214SOL    HW124278   0.524   2.272  12.062 -1.7056  1.2737  1.4685
 4214SOL    HW224279   0.526   2.275  12.213  1.2502  3.0133  0.4998
 4215SOL     OW24280   1.637   3.334   5.315 -0.3781  0.1879  0.2303
 4215SOL    HW124281   1.562   3.355   5.259 -0.1203 -0.7056 -0.4359
 4215SOL    HW224282   1.685   3.417   5.308 -1.9389  0.9166 -1.8475
 4216SOL     OW24283   3.414   2.896   8.159  0.0984 -0.3559 -0.0778
 4216SOL    HW124284   3.404   2.926   8.068  1.2080 -3.1402 -1.1203
 4216SOL    HW224285   3.452   2.811   8.136  0.4651  0.1435 -1.3097
 4217SOL     OW24286   3.757   3.069   1.063  0.2709 -0.1300  0.1665
 4217SOL    HW124287   3.792   3.099   1.147 -0.2561 -0.6494  0.5679
 4217SOL    HW224288   3.837   3.068   1.010  0.3877 -1.7548  0.3637
 4218SOL     OW24289   2.580   3.503  17.457  0.3077 -0.0939  0.1146
 4218SOL    HW124290   2.516   3.499  17.385 -0.1170  2.4382  0.3516
 4218SOL    HW224291   2.625   3.419  17.452  0.3746 -0.0832  0.5313
 4219SOL     OW24292   3.773   3.556   6.317 -0.0886  0.1271 -0.1740
 4219SOL    HW124293   3.764   3.510   6.233 -0.5280 -0.3955  0.1664
 4219SOL    HW224294   3.801   3.496   6.385  2.3159 -1.6971 -2.7705
 4220SOL     OW24295   2.896   4.499   1.138 -0.0677 -0.0509 -0.4379
 4220SOL    HW124296   2.874   4.477   1.228  0.8191  1.8359  0.2302
 4220SOL    HW224297   2.879   4.593   1.140  1.6703  0.2127  1.5425
 4221SOL     OW24298   2.280   1.072  11.331  0.2079  0.1225 -0.2534
 4221SOL    HW124299   2.293   1.013  11.256  1.5241 -0.5090  0.4778
 4221SOL    HW224300   2.371   1.086  11.357  0.3910  1.1224 -1.4227
 4222SOL     OW24301   4.082   0.005  13.060  0.3294  0.6378 -0.2087
 4222SOL    HW124302   4.149   0.037  13.121  0.6587  0.6103 -0.5594
 4222SOL    HW224303   4.081   0.079  12.999 -0.4532 -0.3564 -1.3995
 4223SOL     OW24304   0.834   4.501   3.609  0.2341 -0.4573 -0.1164
 4223SOL    HW124305   0.880   4.488   3.526 -0.0689 -1.6437 -0.0951
 4223SOL    HW224306   0.854   4.591   3.635 -1.2859  0.0539 -0.7474
 4224SOL     OW24307   0.175   2.343  10.644 -0.1142 -0.1495 -0.1798
 4224SOL    HW124308   0.130   2.421  10.676 -1.3940 -0.4134 -1.3472
 4224SOL    HW224309   0.101   2.328  10.586  0.3021 -0.6939 -0.5726
 4225SOL     OW24310   2.152   2.050  15.740  0.0228  0.4308  0.4224
 4225SOL    HW124311   2.066   2.076  15.774  0.3980  0.2224  1.5273
 4225SOL    HW224312   2.155   1.964  15.782  1.2132  0.7220  0.9474
 4226SOL     OW24313   4.620   1.104   2.375 -0.6574 -0.1953 -0.1436
 4226SOL    HW124314   4.593   1.195   2.367 -2.5098 -0.6905  0.5348
 4226SOL    HW224315   4.536   1.066   2.403 -0.2618  0.2491  1.5682
 4227SOL     OW24316   1.249   4.117   6.050  0.0480 -0.8146  0.0397
 4227SOL    HW124317   1.314   4.047   6.061 -0.0362 -0.7234  1.1125
 4227SOL    HW224318   1.305   4.189   6.079  1.9716 -1.2698 -2.4501
 4228SOL     OW24319   2.964   1.224   5.078 -0.0031  0.1469 -0.5753
 4228SOL    HW124320   3.045   1.259   5.115 -0.5442  0.7890 -0.0018
 4228SOL    HW224321   2.999   1.184   4.998 -1.3332 -0.5521 -0.8169
 4229SOL     OW24322   1.625   1.700   7.662  0.2085 -0.2825  0.1494
 4229SOL    HW124323   1.560   1.634   7.683 -0.4196 -0.2123 -1.5747
 4229SOL    HW224324   1.569   1.762   7.615  0.1242 -0.7864 -0.4130
 4230SOL     OW24325   3.443   2.339  13.497 -0.1890  0.2283  0.2566
 4230SOL    HW124326   3.410   2.271  13.438 -0.1942  0.6801 -0.2620
 4230SOL    HW224327   3.369   2.400  13.495  0.6983  1.2758 -0.7450
 4231SOL     OW24328   0.804   0.962   2.983  0.3340  1.1049 -0.8125
 4231SOL    HW124329   0.730   1.018   2.961  0.2969  1.1588 -0.5395
 4231SOL    HW224330   0.771   0.875   2.960 -0.1871  0.7887  1.1873
 4232SOL     OW24331   1.645   0.192  11.247  0.2405 -0.5899 -0.8138
 4232SOL    HW124332   1.566   0.205  11.299  0.0212  0.1030 -1.3207
 4232SOL    HW224333   1.698   0.136  11.303 -0.1748 -1.4658 -1.2899
 4233SOL     OW24334   3.897   2.232   4.120 -0.1484  0.4894  0.2862
 4233SOL    HW124335   3.964   2.169   4.146 -0.4199 -0.4644 -1.3308
 4233SOL    HW224336   3.931   2.316   4.150  2.5915 -0.4471 -0.2325
 4234SOL     OW24337   1.190   1.854   8.466  0.1253 -0.4944 -0.1797
 4234SOL    HW124338   1.129   1.904   8.520  2.4007 -0.5418  2.4063
 4234SOL    HW224339   1.192   1.772   8.515 -1.2840 -1.0136 -0.9870
 4235SOL     OW24340   3.895   2.084  11.001  0.3136 -0.3442  0.3448
 4235SOL    HW124341   3.958   2.110  10.934  0.9843 -0.4281  0.9383
 4235SOL    HW224342   3.846   2.165  11.013  0.1445 -0.3109 -0.6337
 4236SOL     OW24343   3.247   3.152   7.907 -0.2639 -0.0408  0.1437
 4236SOL    HW124344   3.267   3.214   7.977  1.0307 -0.8171  0.4579
 4236SOL    HW224345   3.225   3.203   7.829  0.4027  1.6111  1.0406
 4237SOL     OW24346   1.114   1.593   8.605 -0.6374  0.2928 -0.0566
 4237SOL    HW124347   1.029   1.549   8.604  0.6863 -2.2632 -2.8824
 4237SOL    HW224348   1.128   1.582   8.699 -0.4328 -2.1118 -0.3681
 4238SOL     OW24349   0.770   1.046   6.735 -0.7404 -0.2098 -0.0108
 4238SOL    HW124350   0.862   1.070   6.743 -0.3192 -1.3875 -1.2620
 4238SOL    HW224351   0.776   0.951   6.728  0.3584 -0.3106  2.0389
 4239SOL     OW24352   3.094   4.017   7.151  0.9169 -0.0593  0.0096
 4239SOL    HW124353   3.185   3.989   7.154  0.6418 -1.1005 -1.3521
 4239SOL    HW224354   3.087   4.103   7.194 -2.8771  0.3521 -1.4003
 4240SOL     OW24355   4.649   4.597   5.785 -0.4203 -0.3546 -0.4017
 4240SOL    HW124356   4.646   4.638   5.871  0.0926 -1.8785  0.3368
 4240SOL    HW224357   4.714   4.528   5.799  1.7111  1.8264  0.4965
 4241SOL     OW24358   1.379   2.600   7.231  0.0768 -0.2116  0.2053
 4241SOL    HW124359   1.394   2.670   7.295 -0.5443 -1.1303  1.3820
 4241SOL    HW224360   1.286   2.577   7.236 -0.3662  1.4081 -0.7990
 4242SOL     OW24361   2.837   1.503   2.893 -0.9055  0.4952 -0.0259
 4242SOL    HW124362   2.846   1.409   2.879 -2.6756  0.1405  1.1749
 4242SOL    HW224363   2.928   1.522   2.914 -1.4683  1.4846  1.5697
 4243SOL     OW24364   2.349   0.756   1.230 -0.2061 -0.2288 -0.3217
 4243SOL    HW124365   2.420   0.709   1.274 -0.8974 -0.7609  0.2332
 4243SOL    HW224366   2.378   0.736   1.141 -1.1449  0.0697 -0.6929
 4244SOL     OW24367   2.153   1.794   8.186 -0.0440  0.4763 -0.4630
 4244SOL    HW124368   2.121   1.743   8.260  2.3497 -0.8137 -0.3029
 4244SOL    HW224369   2.089   1.862   8.166 -0.6111  0.1359  0.1866
 4245SOL     OW24370   2.329   1.455   1.430 -0.7242 -0.3850 -0.6348
 4245SOL    HW124371   2.314   1.385   1.494  2.4485 -1.4877 -1.1000
 4245SOL    HW224372   2.423   1.471   1.432 -0.7415 -0.4295  0.9669
 4246SOL     OW24373   4.066   3.616  14.343 -0.2942 -0.0596  0.5036
 4246SOL    HW124374   4.017   3.688  14.305  0.2877 -1.3798 -2.7550
 4246SOL    HW224375   3.998   3.576  14.398 -0.3090  0.8926  1.1792
 4247SOL     OW24376   0.002   2.754   6.919 -0.2366  0.0490  0.7812
 4247SOL    HW124377   0.072   2.818   6.913 -0.3899  0.2064  0.6433
 4247SOL    HW224378   0.047   2.674   6.890  1.5635  0.9627  1.0700
 4248SOL     OW24379   0.773   0.875   5.580  0.0539  0.2862  0.2266
 4248SOL    HW124380   0.733   0.962   5.590  0.7047  0.6453 -0.2607
 4248SOL    HW224381   0.861   0.899   5.609  0.7685 -1.6132 -0.4032
 4249SOL     OW24382   3.677   3.838   5.627  0.3413  0.1195  0.1494
 4249SOL    HW124383   3.666   3.795   5.712  0.4163 -2.2881 -1.0655
 4249SOL    HW224384   3.737   3.782   5.578 -2.0344 -1.6756 -0.6759
 4250SOL     OW24385   0.416   0.867   4.975  0.0853  0.1598  0.3740
 4250SOL    HW124386   0.481   0.933   4.999  0.1459  0.8363 -1.6387
 4250SOL    HW224387   0.429   0.809   5.050  0.3585  1.1442  1.0851
 4251SOL     OW24388   3.549   4.520  11.030 -0.0080 -0.1271 -0.0521
 4251SOL    HW124389   3.469   4.467  11.029 -0.5216  0.6731 -1.3354
 4251SOL    HW224390   3.603   4.466  10.972 -0.7934 -1.4276  0.4355
 4252SOL     OW24391   1.923   1.268   5.523 -0.1121  0.1814 -0.5414
 4252SOL    HW124392   1.855   1.253   5.589 -0.1182 -0.7754 -0.7597
 4252SOL    HW224393   1.998   1.234   5.571 -1.0559 -0.2731  0.6234
 4253SOL     OW24394   2.323   0.955   2.768  0.5944 -0.0233  0.8802
 4253SOL    HW124395   2.244   0.910   2.736  0.8175  0.2227 -0.0363
 4253SOL    HW224396   2.277   1.018   2.823 -2.0317 -0.1452 -1.1144
 4254SOL     OW24397   2.898   0.034   4.069  0.0618 -0.0375 -0.2579
 4254SOL    HW124398   2.849   0.098   4.120 -1.3463 -2.2404  1.1746
 4254SOL    HW224399   2.985   0.031   4.107 -0.1135 -1.3435  0.0459
 4255SOL     OW24400   1.573   0.763   6.844  0.0884  0.6843  0.0609
 4255SOL    HW124401   1.570   0.836   6.782  0.8594 -1.2197 -2.2060
 4255SOL    HW224402   1.640   0.710   6.801  1.3421  3.4597 -1.4396
 4256SOL     OW24403   2.007   0.470   4.033  0.1159  0.1896  0.0410
 4256SOL    HW124404   1.919   0.460   4.069  0.2367 -3.3055 -0.5967
 4256SOL    HW224405   2.049   0.423   4.105  1.3053  2.0632  0.5671
 4257SOL     OW24406   2.295   1.854   4.672  0.1963  0.1763 -0.2889
 4257SOL    HW124407   2.284   1.795   4.747  1.0777 -0.7365 -0.8855
 4257SOL    HW224408   2.389   1.871   4.670  0.6941 -2.4042  1.6317
 4258SOL     OW24409   2.182   1.872  14.109 -0.1062 -0.0001  0.1328
 4258SOL    HW124410   2.207   1.932  14.039 -0.2106  0.1124  0.1915
 4258SOL    HW224411   2.120   1.931  14.153  0.7748  0.6044  0.5730
 4259SOL     OW24412   3.989   3.202  12.024 -0.2457 -0.4118  0.6223
 4259SOL    HW124413   4.036   3.277  12.059 -1.8008 -0.1687  2.1967
 4259SOL    HW224414   3.930   3.179  12.095 -0.8051  0.8460  0.5627
 4260SOL     OW24415   3.235   1.824  12.857  0.1006  0.1083 -0.0660
 4260SOL    HW124416   3.176   1.761  12.898  0.1820 -0.2935 -0.5603
 4260SOL    HW224417   3.188   1.906  12.871  1.5695  1.2603 -1.9076
 4261SOL     OW24418   1.246   0.285   5.072  0.4745  0.2617 -0.1998
 4261SOL    HW124419   1.199   0.246   5.145 -1.7028 -0.7408 -2.1434
 4261SOL    HW224420   1.181   0.291   5.002  1.1809 -1.0506 -0.9713
 4262SOL     OW24421   2.503   3.352   6.766  0.2627  0.2447  0.6360
 4262SOL    HW124422   2.447   3.383   6.695 -0.5326 -0.6654  0.8530
 4262SOL    HW224423   2.464   3.266   6.782  1.6968 -0.1641  1.9257
 4263SOL     OW24424   1.111   4.325  14.632  0.5614 -0.0484  0.1123
 4263SOL    HW124425   1.036   4.300  14.578  1.4829 -0.5618 -0.9057
 4263SOL    HW224426   1.185   4.329  14.571  1.4133 -1.0108  1.0929
 4264SOL     OW24427   4.134   4.347   6.123 -0.0063  0.0632 -0.1679
 4264SOL    HW124428   4.098   4.383   6.042 -0.3639  0.5637  0.2102
 4264SOL    HW224429   4.175   4.269   6.087  0.2101 -0.0490  0.3196
 4265SOL     OW24430   0.345   0.183   0.824 -0.7552  0.3124  0.3778
 4265SOL    HW124431   0.375   0.271   0.798 -2.3077  0.6291 -0.3231
 4265SOL    HW224432   0.251   0.185   0.810 -0.5914 -1.3776 -1.0596
 4266SOL     OW24433   2.615   4.623   1.647 -0.2754  0.1803  0.5404
 4266SOL    HW124434   2.580   4.699   1.693 -1.0064 -0.2270  0.6569
 4266SOL    HW224435   2.707   4.626   1.675  0.2323  1.8613 -1.3061
 4267SOL     OW24436   2.547   2.588   9.951 -0.2460  0.6148  0.1262
 4267SOL    HW124437   2.594   2.541   9.882  1.0969  3.2329 -0.7503
 4267SOL    HW224438   2.476   2.635   9.908  0.2276 -0.3095 -1.6753
 4268SOL     OW24439   3.189   0.865  11.964 -0.0846  0.4748 -0.0962
 4268SOL    HW124440   3.104   0.832  11.992  0.0990  0.3329  0.2913
 4268SOL    HW224441   3.201   0.942  12.018 -0.7327  0.5329 -0.0363
 4269SOL     OW24442   3.420   4.498   2.847  0.5991 -0.0524  0.0890
 4269SOL    HW124443   3.332   4.504   2.810  0.3798 -0.9206  0.4669
 4269SOL    HW224444   3.448   4.589   2.841  0.7810 -0.1117  0.0408
 4270SOL     OW24445   3.525   3.360   2.333 -0.3497  0.6307 -0.7868
 4270SOL    HW124446   3.571   3.365   2.417  0.6786 -1.4133 -1.2238
 4270SOL    HW224447   3.437   3.382   2.361 -0.0250  1.0761 -0.1267
 4271SOL     OW24448   3.714   4.118  12.993 -0.0353  0.3791  0.0632
 4271SOL    HW124449   3.736   4.071  12.913  1.3089 -0.0890  0.6947
 4271SOL    HW224450   3.668   4.191  12.951 -1.3333 -0.2273  0.4624
 4272SOL     OW24451   0.321   4.260   5.936  0.0003  0.2150  0.0790
 4272SOL    HW124452   0.386   4.330   5.938 -0.7013  0.8631  0.0317
 4272SOL    HW224453   0.246   4.315   5.956  0.1287  0.6828 -0.7296
 4273SOL     OW24454   1.448   1.038   5.072  0.0263  0.2049  0.4713
 4273SOL    HW124455   1.543   1.048   5.065 -0.2033  3.2987  1.7397
 4273SOL    HW224456   1.414   1.068   4.988  1.8992 -0.3611 -0.4973
 4274SOL     OW24457   2.459   3.092   6.505 -1.3285  0.1371 -0.2401
 4274SOL    HW124458   2.396   3.151   6.465 -0.9507  0.5122 -0.2783
 4274SOL    HW224459   2.436   3.095   6.598  0.1974 -2.1713  0.2449
 4275SOL     OW24460   0.657   1.152   5.645  0.4000 -0.5191 -0.3826
 4275SOL    HW124461   0.581   1.125   5.594 -0.0999 -2.8803  1.6034
 4275SOL    HW224462   0.638   1.133   5.737 -0.0462 -4.1392 -1.2356
 4276SOL     OW24463   2.468   0.905   8.621  0.4823 -0.2865 -0.3825
 4276SOL    HW124464   2.382   0.888   8.660  1.5056 -2.0551  1.1397
 4276SOL    HW224465   2.518   0.825   8.639 -0.3136 -0.2806  1.8841
 4277SOL     OW24466   0.171   2.102   8.152 -0.5958  0.4922  0.0241
 4277SOL    HW124467   0.175   2.197   8.141  1.3629  0.0949 -2.5220
 4277SOL    HW224468   0.080   2.083   8.175 -0.6574  0.3260 -0.3602
 4278SOL     OW24469   0.132   4.539   5.270  0.2199 -0.2701  0.3626
 4278SOL    HW124470   0.072   4.485   5.322 -2.6441  0.8235 -1.8334
 4278SOL    HW224471   0.144   4.486   5.191 -0.3661  0.2916 -0.1015
 4279SOL     OW24472   3.536   0.268  12.369  0.4381  0.1895 -0.7944
 4279SOL    HW124473   3.485   0.334  12.322  0.2018  1.1599  0.8280
 4279SOL    HW224474   3.463   0.225  12.413 -0.5435  2.4757 -0.2263
 4280SOL     OW24475   3.553   1.364   0.650 -0.1315 -0.2019  0.1445
 4280SOL    HW124476   3.598   1.448   0.640  0.1693 -0.5086 -1.0684
 4280SOL    HW224477   3.520   1.373   0.740  0.1182  0.3248  0.1892
 4281SOL     OW24478   0.981   4.072   3.849  0.3309  0.3206  0.4724
 4281SOL    HW124479   0.891   4.057   3.819  0.2299  1.2840  0.2908
 4281SOL    HW224480   1.028   3.990   3.842  0.3093  0.3710 -0.2644
 4282SOL     OW24481   0.086   1.399   8.804 -0.8227 -0.1590 -0.1973
 4282SOL    HW124482   0.161   1.343   8.782  0.8578  1.2422  1.9386
 4282SOL    HW224483   0.010   1.365   8.757  0.9041 -2.3784 -1.4022
 4283SOL     OW24484   2.841   0.472   6.524  0.0659 -0.3441 -0.2188
 4283SOL    HW124485   2.830   0.564   6.548 -2.7894  0.4490 -4.6718
 4283SOL    HW224486   2.761   0.468   6.472 -0.0361 -1.6006  0.0286
 4284SOL     OW24487   1.377   3.826   4.735 -0.7192  0.0830  0.0506
 4284SOL    HW124488   1.295   3.815   4.689 -0.1561 -2.0255 -0.4245
 4284SOL    HW224489   1.370   3.769   4.812  0.0787  0.6235  0.5299
 4285SOL     OW24490   3.338   1.060   3.965 -0.4977  0.4800  0.5182
 4285SOL    HW124491   3.309   0.973   3.994  2.2657 -1.1212 -1.4004
 4285SOL    HW224492   3.297   1.071   3.879  2.0439  1.5742 -0.5562
 4286SOL     OW24493   0.720   0.794  13.858  0.4262 -0.1210  0.9350
 4286SOL    HW124494   0.636   0.754  13.834  1.1068 -1.0276  0.0962
 4286SOL    HW224495   0.715   0.889  13.850  2.6512 -0.1512 -0.7794
 4287SOL     OW24496   2.587   2.213   9.767 -0.2125 -0.6838 -0.9783
 4287SOL    HW124497   2.620   2.194   9.679 -0.7314  0.1953 -1.3707
 4287SOL    HW224498   2.493   2.223   9.748 -0.5093 -1.3439  0.1633
 4288SOL     OW24499   3.318   2.039   8.450 -0.2948  0.5268  0.1552
 4288SOL    HW124500   3.255   1.986   8.401 -0.4317 -0.3850  1.3157
 4288SOL    HW224501   3.394   2.028   8.393 -0.3737 -0.3710  0.2347
 4289SOL     OW24502   4.579   4.183   0.558  0.4773  0.0408  0.1945
 4289SOL    HW124503   4.485   4.195   0.547  0.2216  0.4955  3.0590
 4289SOL    HW224504   4.606   4.266   0.517 -2.6767  0.3646 -1.2060
 4290SOL     OW24505   0.101   4.434   7.915 -0.6141 -0.1252 -0.2386
 4290SOL    HW124506   0.174   4.432   7.853 -0.2649 -0.2979  0.1811
 4290SOL    HW224507   0.151   4.439   7.996 -0.3665 -1.7551 -0.2960
 4291SOL     OW24508   3.471   4.084   3.268  0.1934 -0.1803 -0.5015
 4291SOL    HW124509   3.533   4.156   3.254 -0.4072  0.3803 -0.2550
 4291SOL    HW224510   3.521   4.018   3.221 -0.2995 -1.5713  0.9139
 4292SOL     OW24511   3.994   1.930   3.503 -0.4017 -0.0741 -0.3039
 4292SOL    HW124512   4.002   1.918   3.408  2.1502 -2.5403  0.2197
 4292SOL    HW224513   3.995   1.846   3.549  1.6306 -0.3352 -0.8125
 4293SOL     OW24514   1.818   1.168   5.282 -0.5490 -0.1149 -0.2572
 4293SOL    HW124515   1.724   1.185   5.276 -0.4943  0.1648 -0.3273
 4293SOL    HW224516   1.836   1.191   5.373 -0.3322 -0.0081 -0.3262
 4294SOL     OW24517   0.591   0.031   3.456  0.5604 -0.2157 -0.2080
 4294SOL    HW124518   0.643   0.111   3.454  1.8564 -1.0145  1.1807
 4294SOL    HW224519   0.527   0.061   3.521  1.4649 -0.5528  0.8515
 4295SOL     OW24520   0.837   3.416   7.923 -0.5798 -0.3624 -0.3599
 4295SOL    HW124521   0.897   3.437   7.851  0.5536  0.3059  0.7800
 4295SOL    HW224522   0.882   3.462   7.994  0.2647 -0.5393 -0.7813
 4296SOL     OW24523   0.836   2.447   1.147  0.2207 -0.0633 -0.0270
 4296SOL    HW124524   0.824   2.537   1.176  1.3422  0.2726 -0.6215
 4296SOL    HW224525   0.925   2.452   1.113  0.5588  1.5750  1.0884
 4297SOL     OW24526   4.420   1.771   4.051  0.1896  0.3581 -0.0063
 4297SOL    HW124527   4.389   1.795   3.964 -0.5562  0.8786  0.3961
 4297SOL    HW224528   4.503   1.817   4.066  1.6119 -1.7884 -1.3649
 4298SOL     OW24529   4.627   2.903  10.916  0.3972 -0.3843  0.6118
 4298SOL    HW124530   4.712   2.944  10.933  0.1642 -0.9737  3.0600
 4298SOL    HW224531   4.627   2.891  10.821  2.0407  0.4995  0.4969
 4299SOL     OW24532   0.753   0.806   4.377  0.0829 -0.5479 -0.5064
 4299SOL    HW124533   0.731   0.898   4.359  1.0498  0.1955  2.0194
 4299SOL    HW224534   0.667   0.773   4.403 -0.8331  2.3319  0.2144
 4300SOL     OW24535   3.646   4.119  15.577 -0.1077 -0.2868  0.0481
 4300SOL    HW124536   3.702   4.191  15.605  1.2023 -1.9392  1.7366
 4300SOL    HW224537   3.707   4.084  15.512 -0.3192  0.6991 -0.6803
 4301SOL     OW24538   4.340   2.323   2.010  0.7055  0.0942  0.0576
 4301SOL    HW124539   4.396   2.373   1.950  1.7381 -0.3121  0.6712
 4301SOL    HW224540   4.402   2.286   2.073 -1.5855  1.3643  3.0971
 4302SOL     OW24541   0.670   2.080  15.171 -0.2602  0.4992 -0.2481
 4302SOL    HW124542   0.591   2.133  15.169  0.1095  1.0465 -0.2315
 4302SOL    HW224543   0.707   2.105  15.256 -1.9176 -0.3882  0.7275
 4303SOL     OW24544   0.186   3.347   0.538 -0.6298  0.8822  0.3139
 4303SOL    HW124545   0.279   3.323   0.531 -0.6838  0.6657  0.3556
 4303SOL    HW224546   0.194   3.424   0.595  0.2144  0.5685  0.6265
 4304SOL     OW24547   1.907   3.233   1.074 -0.1003  0.4231 -0.0380
 4304SOL    HW124548   1.853   3.156   1.062  0.1487  0.4348 -1.2712
 4304SOL    HW224549   1.874   3.278   0.996 -0.3168 -1.1047 -0.8198
 4305SOL     OW24550   2.145   4.460   4.828  1.0414 -0.2952  0.1047
 4305SOL    HW124551   2.172   4.452   4.920  2.0809  2.6789  0.0651
 4305SOL    HW224552   2.191   4.388   4.786  2.8445  1.5885 -1.1319
 4306SOL     OW24553   3.384   1.837   4.473 -0.2680  0.6984  0.1374
 4306SOL    HW124554   3.447   1.823   4.402 -0.9533 -0.9143 -0.1591
 4306SOL    HW224555   3.382   1.757   4.526  3.2863  0.1897 -0.4988
 4307SOL     OW24556   3.462   2.824   3.145 -0.1365  0.4865  0.7832
 4307SOL    HW124557   3.525   2.762   3.106  0.0297  1.4150 -0.4342
 4307SOL    HW224558   3.476   2.805   3.238  0.9432  1.3849  0.8031
 4308SOL     OW24559   3.032   4.477   4.519 -0.4688  0.0975 -0.3896
 4308SOL    HW124560   3.073   4.402   4.476  0.8901  0.7195 -0.1724
 4308SOL    HW224561   3.107   4.520   4.561 -2.6038  0.8312  2.7013
 4309SOL     OW24562   3.174   0.244   6.342  0.4113  0.0395  0.2596
 4309SOL    HW124563   3.098   0.220   6.289  1.6688 -2.4091 -0.4367
 4309SOL    HW224564   3.240   0.221   6.276 -0.5449  2.3716 -1.5363
 4310SOL     OW24565   1.296   2.511  12.027 -0.2536 -0.7570 -0.1910
 4310SOL    HW124566   1.298   2.421  12.059  0.7333 -1.5285 -2.4623
 4310SOL    HW224567   1.204   2.533  12.010 -0.8324 -0.6505  3.0073
 4311SOL     OW24568   0.571   1.344   9.283 -0.0753  0.1726  0.2265
 4311SOL    HW124569   0.553   1.317   9.373 -1.4348  2.6785  0.7162
 4311SOL    HW224570   0.639   1.285   9.253  0.2455  0.4255  0.4546
 4312SOL     OW24571   1.446   0.837   3.883  0.0001  0.1450 -0.2387
 4312SOL    HW124572   1.352   0.854   3.877 -0.0687  0.5402  2.0217
 4312SOL    HW224573   1.469   0.930   3.890 -1.6888  0.5841 -0.5588
 4313SOL     OW24574   2.291   4.030   2.291 -0.2124  0.0123 -0.6016
 4313SOL    HW124575   2.261   4.100   2.349 -1.0129  0.0491 -1.0551
 4313SOL    HW224576   2.205   3.989   2.283  0.5395 -1.3661 -1.6891
 4314SOL     OW24577   1.833   2.524   2.740 -0.1452 -0.1408 -0.3724
 4314SOL    HW124578   1.817   2.508   2.833  3.6916 -0.5940  0.2217
 4314SOL    HW224579   1.903   2.588   2.745 -0.0356 -0.1963 -1.1531
 4315SOL     OW24580   0.225   1.692   1.314 -0.1248  0.1594  0.1366
 4315SOL    HW124581   0.264   1.778   1.296  1.4979 -0.8476 -1.1208
 4315SOL    HW224582   0.280   1.665   1.387  1.1616  0.4867 -0.7195
 4316SOL     OW24583   3.347   1.067  16.785 -0.2776  0.2215 -0.6841
 4316SOL    HW124584   3.253   1.048  16.784 -0.1564 -0.4050 -0.4082
 4316SOL    HW224585   3.346   1.121  16.864  0.6486  0.5468 -0.8875
 4317SOL     OW24586   3.085   3.435   7.334 -0.6493 -0.5934  0.3325
 4317SOL    HW124587   3.091   3.511   7.277 -0.2978 -1.4381 -0.7517
 4317SOL    HW224588   3.106   3.494   7.407  1.5589 -0.5308 -0.3467
 4318SOL     OW24589   0.440   2.673   3.104  0.9043 -0.3175 -0.2447
 4318SOL    HW124590   0.413   2.690   3.014 -0.9484  0.0078  0.3619
 4318SOL    HW224591   0.392   2.593   3.127 -1.3125 -0.0842 -4.0313
 4319SOL     OW24592   1.498   0.188   6.961 -0.3400 -0.3231 -0.2632
 4319SOL    HW124593   1.565   0.125   6.985  0.6750  0.7140 -0.3777
 4319SOL    HW224594   1.537   0.269   6.994  0.0288  0.5182 -2.7943
 4320SOL     OW24595   2.680   4.397   4.539 -0.4863  0.3066 -0.3259
 4320SOL    HW124596   2.738   4.457   4.586  0.8351 -0.1423 -1.3630
 4320SOL    HW224597   2.664   4.452   4.462 -0.2800  1.4939  0.4913
 4321SOL     OW24598   1.431   2.589  12.279  0.5115 -0.1148  0.2823
 4321SOL    HW124599   1.384   2.594  12.196  0.9960 -0.0015  0.0151
 4321SOL    HW224600   1.521   2.614  12.258 -0.1679  0.3780 -1.9702
 4322SOL     OW24601   2.955   3.015   2.203 -0.1865  0.3773  0.0114
 4322SOL    HW124602   2.926   3.023   2.294 -0.8765  2.5628 -0.4002
 4322SOL    HW224603   2.889   3.063   2.153 -0.6011  0.0527  0.2566
 4323SOL     OW24604   3.475   4.337  10.653  0.4902 -0.3261  0.0346
 4323SOL    HW124605   3.478   4.290  10.736 -1.8897 -0.8812 -0.1806
 4323SOL    HW224606   3.564   4.372  10.659  0.0247  0.8747 -0.0314
 4324SOL     OW24607   0.853   4.535  11.042  0.6500  0.7424  0.0322
 4324SOL    HW124608   0.806   4.530  11.126 -0.6152  1.4601 -0.6278
 4324SOL    HW224609   0.805   4.610  11.007 -1.4732  0.6441  2.7145
 4325SOL     OW24610   2.325   0.476   6.784 -0.2879 -0.0080  0.2760
 4325SOL    HW124611   2.253   0.533   6.758 -1.0004 -0.0088  2.1969
 4325SOL    HW224612   2.406   0.500   6.740  0.1075  1.6291  1.9010
 4326SOL     OW24613   1.166   3.918  14.441  0.2825  0.3940  0.0650
 4326SOL    HW124614   1.153   4.010  14.420 -0.7726  0.3827  0.7159
 4326SOL    HW224615   1.078   3.881  14.450 -0.7424  2.7224 -0.5253
 4327SOL     OW24616   3.240   3.447  14.498  0.5703  0.0279 -0.3435
 4327SOL    HW124617   3.209   3.358  14.515  1.1513  0.3077  2.0959
 4327SOL    HW224618   3.164   3.483  14.452 -0.4429 -1.4645  0.1856
 4328SOL     OW24619   3.275   0.650   5.333 -0.6435  0.0853  0.5273
 4328SOL    HW124620   3.330   0.616   5.404  0.2281 -0.0259 -0.2006
 4328SOL    HW224621   3.338   0.711   5.294 -1.2871  0.9495  0.8544
 4329SOL     OW24622   1.352   1.075  17.684  0.2410  0.4784  0.1860
 4329SOL    HW124623   1.328   1.146  17.624  4.1552  0.9752 -0.8514
 4329SOL    HW224624   1.294   1.009  17.648 -1.1655  2.1509 -0.6369
 4330SOL     OW24625   3.320   2.833   7.032  0.3354  0.6615  0.1686
 4330SOL    HW124626   3.391   2.811   6.972 -0.6452  1.0828 -1.1629
 4330SOL    HW224627   3.378   2.862   7.102  1.0983  1.3197 -0.7294
 4331SOL     OW24628   0.210   2.863   4.288  0.1810 -0.1684  0.2635
 4331SOL    HW124629   0.203   2.906   4.374  0.4521  1.8639 -0.7343
 4331SOL    HW224630   0.297   2.824   4.296 -0.4877 -1.0571  3.2544
 4332SOL     OW24631   1.299   0.082  17.628  0.4899 -0.1297  0.6220
 4332SOL    HW124632   1.328   0.173  17.617 -3.0876  0.8512 -0.6303
 4332SOL    HW224633   1.244   0.078  17.550 -0.9293  1.2466  1.5603
 4333SOL     OW24634   0.993   3.893  10.556  0.1229 -0.1758  0.3207
 4333SOL    HW124635   1.076   3.925  10.591  0.4175 -0.7972  0.1808
 4333SOL    HW224636   1.000   3.798  10.568 -0.2940 -0.1851  0.4951
 4334SOL     OW24637   0.420   0.964  11.343  0.1391  0.0089  0.1436
 4334SOL    HW124638   0.459   1.038  11.297  1.4384 -0.4325  0.5414
 4334SOL    HW224639   0.344   1.004  11.385  0.2218 -1.6665  1.8871
 4335SOL     OW24640   4.705   0.265  16.052 -0.6632  0.1867  0.1434
 4335SOL    HW124641   4.697   0.310  16.136 -0.0737 -0.4819  0.5559
 4335SOL    HW224642   4.628   0.289  16.001 -1.1019 -2.2886 -0.4000
 4336SOL     OW24643   2.679   2.649   5.707 -0.4482  0.4439  0.3498
 4336SOL    HW124644   2.757   2.684   5.751 -0.4091 -1.1969  1.5676
 4336SOL    HW224645   2.704   2.561   5.682 -2.2917  0.0821 -0.2181
 4337SOL     OW24646   3.524   2.310   9.091  0.1374  0.0288  0.2993
 4337SOL    HW124647   3.525   2.400   9.126 -0.2678 -0.4257  1.4853
 4337SOL    HW224648   3.618   2.295   9.079  0.6368  1.1349  2.7091
 4338SOL     OW24649   2.787   3.653   0.360 -0.6584  0.3036  0.0654
 4338SOL    HW124650   2.853   3.608   0.307  1.3028  2.4191  0.7463
 4338SOL    HW224651   2.844   3.692   0.426 -0.8342 -1.7257  1.4079
 4339SOL     OW24652   0.276   1.836  17.088  0.6698  0.2870  0.8672
 4339SOL    HW124653   0.191   1.874  17.067 -0.7775 -1.0855  4.1290
 4339SOL    HW224654   0.254   1.773  17.157 -0.9368 -0.5072 -0.3805
 4340SOL     OW24655   0.557   2.983   8.106 -0.3864 -0.0439 -0.6587
 4340SOL    HW124656   0.596   2.941   8.029 -1.4848 -1.3374 -0.5051
 4340SOL    HW224657   0.562   3.077   8.091  0.2165  0.0824  0.3480
 4341SOL     OW24658   0.833   1.008  14.477  0.0842 -0.1034 -0.2020
 4341SOL    HW124659   0.838   1.075  14.546  2.2867 -0.5564  0.0639
 4341SOL    HW224660   0.921   0.987  14.447  0.2399 -1.6023  1.2919
 4342SOL     OW24661   0.911   2.769   2.978  0.1599 -0.3530 -0.0472
 4342SOL    HW124662   0.999   2.806   2.969  1.0732 -2.2753  1.0242
 4342SOL    HW224663   0.908   2.710   2.903  0.5379  0.0059 -0.3473
 4343SOL     OW24664   0.667   3.826   2.097  0.1325  0.1870 -0.3775
 4343SOL    HW124665   0.688   3.742   2.139  0.5815 -0.3736 -1.7292
 4343SOL    HW224666   0.721   3.832   2.019 -1.0267  1.1746 -1.1040
 4344SOL     OW24667   3.877   3.685   5.457 -0.3248 -0.3870 -0.1704
 4344SOL    HW124668   3.873   3.764   5.404  2.9030  0.9846  1.5892
 4344SOL    HW224669   3.877   3.617   5.390  1.8340 -0.9765  0.4166
 4345SOL     OW24670   4.332   4.459   4.927  0.4914  0.1555  1.0938
 4345SOL    HW124671   4.330   4.489   5.018  2.8814 -0.5549  1.3918
 4345SOL    HW224672   4.415   4.413   4.921 -0.0684 -0.8120  0.8258
 4346SOL     OW24673   2.364   3.407   6.035  0.1824 -0.0793  0.2429
 4346SOL    HW124674   2.360   3.392   5.940 -1.8248  0.1759  0.2833
 4346SOL    HW224675   2.273   3.383   6.054  0.2995  0.6476  1.6976
 4347SOL     OW24676   0.564   2.838   3.746 -0.2847  0.1973  0.1022
 4347SOL    HW124677   0.607   2.803   3.669 -0.0371  1.0256 -0.1340
 4347SOL    HW224678   0.474   2.819   3.718 -1.6498  1.6758  3.4320
 4348SOL     OW24679   2.014   3.827   4.124 -0.0847 -0.0709 -0.3669
 4348SOL    HW124680   2.006   3.823   4.219  1.2612 -1.9267 -0.3183
 4348SOL    HW224681   1.935   3.775   4.108 -0.5272  0.9976 -1.5837
 4349SOL     OW24682   3.701   2.173   8.456 -0.0391 -0.0129 -0.2513
 4349SOL    HW124683   3.719   2.151   8.547  0.8602  0.4507 -0.3109
 4349SOL    HW224684   3.648   2.251   8.472 -0.5117 -0.2199 -0.7992
 4350SOL     OW24685   2.855   3.277   1.452  0.6460 -0.2446  0.5074
 4350SOL    HW124686   2.901   3.336   1.512  0.4118  1.3809 -0.9078
 4350SOL    HW224687   2.804   3.344   1.405  0.7229 -0.4596  0.1167
 4351SOL     OW24688   2.000   0.961  13.629  0.4334  0.1594 -0.2801
 4351SOL    HW124689   1.977   0.868  13.626 -2.0300  0.6641  2.8036
 4351SOL    HW224690   1.971   0.994  13.544 -2.0987 -0.7960  0.1906
 4352SOL     OW24691   0.701   0.949   2.284 -0.0242  0.5162 -0.0301
 4352SOL    HW124692   0.723   0.963   2.376 -0.8381  0.6788  0.1441
 4352SOL    HW224693   0.621   1.002   2.280 -1.3889 -1.7181 -2.6830
 4353SOL     OW24694   3.706   1.563   3.729 -0.1043 -0.1670  0.0947
 4353SOL    HW124695   3.739   1.579   3.640 -1.6266  0.1432 -0.4256
 4353SOL    HW224696   3.757   1.619   3.787  0.2001 -0.6674  0.3075
 4354SOL     OW24697   0.395   1.301   4.231  0.1265  0.3349  0.2486
 4354SOL    HW124698   0.344   1.278   4.154 -1.6721 -0.5406  1.6919
 4354SOL    HW224699   0.332   1.272   4.298  1.5614 -0.3907  1.2998
 4355SOL     OW24700   2.238   2.414   3.662  0.0925 -0.2026  0.5536
 4355SOL    HW124701   2.174   2.348   3.688 -1.3618  0.5206 -1.2550
 4355SOL    HW224702   2.175   2.485   3.657  0.8125  0.3460 -0.6351
 4356SOL     OW24703   0.596   2.133   8.806  0.0545  0.4944  0.1524
 4356SOL    HW124704   0.503   2.119   8.787 -0.0687  0.5137  0.7586
 4356SOL    HW224705   0.602   2.218   8.849  3.7137 -0.1428  0.9211
 4357SOL     OW24706   3.767   1.330   5.051  0.5530  0.5096 -0.4686
 4357SOL    HW124707   3.850   1.375   5.039  1.3716 -0.7829  0.3026
 4357SOL    HW224708   3.714   1.402   5.018 -0.0232  1.1704  1.9130
 4358SOL     OW24709   3.556   1.468   8.931 -0.3014 -0.1581 -0.1064
 4358SOL    HW124710   3.515   1.464   9.017 -0.0799 -1.0019 -0.0362
 4358SOL    HW224711   3.576   1.375   8.919  2.0429  0.1048  1.7172
 4359SOL     OW24712   3.608   3.182   7.661  0.1919 -0.2951 -0.9757
 4359SOL    HW124713   3.680   3.245   7.669 -1.0005  0.8359  0.9404
 4359SOL    HW224714   3.535   3.236   7.691  2.1771  1.8007  0.0626
 4360SOL     OW24715   3.395   1.493   4.091  0.0896 -0.3082 -0.3812
 4360SOL    HW124716   3.447   1.525   4.164  2.9783  0.5079 -2.7929
 4360SOL    HW224717   3.431   1.404   4.084  0.2882 -0.2185 -0.5060
 4361SOL     OW24718   1.134   2.674   4.547  0.4148 -0.1659  0.1946
 4361SOL    HW124719   1.079   2.609   4.503  0.4059  0.7797 -1.1742
 4361SOL    HW224720   1.210   2.630   4.586 -1.2312 -2.3845  0.9120
 4362SOL     OW24721   4.067   2.258  15.656  0.0228  0.0228  0.2243
 4362SOL    HW124722   4.157   2.235  15.678 -0.1767  0.8798  1.8867
 4362SOL    HW224723   4.019   2.180  15.629  2.0117 -1.0416 -0.2574
 4363SOL     OW24724   2.897   3.350   7.676 -0.0900  0.0659 -0.3113
 4363SOL    HW124725   2.851   3.388   7.750 -0.5431  0.2101 -0.6697
 4363SOL    HW224726   2.869   3.259   7.689  1.2217 -0.0855  1.5471
 4364SOL     OW24727   0.854   4.270  11.376 -0.1156 -0.3442 -0.6843
 4364SOL    HW124728   0.904   4.303  11.301 -2.0838 -1.5707 -2.5237
 4364SOL    HW224729   0.908   4.297  11.450  0.0034 -0.4590 -0.7303
 4365SOL     OW24730   3.709   3.074  10.031 -0.0720  0.5868  0.7908
 4365SOL    HW124731   3.627   3.039  10.065 -0.0490 -0.3997 -0.1395
 4365SOL    HW224732   3.747   2.993   9.995 -2.9507  0.2572 -1.5481
 4366SOL     OW24733   3.432   2.364   1.521  0.2341  0.3411 -0.1885
 4366SOL    HW124734   3.424   2.364   1.426  1.5162 -0.4515 -0.3012
 4366SOL    HW224735   3.469   2.277   1.534  0.2110  0.1661 -1.3292
 4367SOL     OW24736   2.416   2.669   9.159  0.1711  0.4695  0.2868
 4367SOL    HW124737   2.456   2.630   9.081  0.8337  0.2249  0.7454
 4367SOL    HW224738   2.344   2.705   9.108  0.3271 -0.5044 -0.6388
 4368SOL     OW24739   1.362   4.061   1.207 -0.2025 -0.1196 -0.1246
 4368SOL    HW124740   1.386   3.968   1.209 -1.6536 -0.4987 -0.8757
 4368SOL    HW224741   1.430   4.096   1.265 -0.6377 -0.8653  0.8445
 4369SOL     OW24742   2.868   1.394   4.464 -0.0762  0.6321  0.2223
 4369SOL    HW124743   2.784   1.440   4.470 -0.6668 -0.4962  0.5166
 4369SOL    HW224744   2.871   1.373   4.370 -2.2442 -0.2457  0.3466
 4370SOL     OW24745   3.646   1.430   7.650  0.1856  0.0660 -0.2673
 4370SOL    HW124746   3.558   1.399   7.672  0.7166 -1.4500 -0.2141
 4370SOL    HW224747   3.630   1.468   7.564  1.1954 -2.6816 -1.7062
 4371SOL     OW24748   0.528   3.302  10.700  0.4736 -0.1830 -0.4911
 4371SOL    HW124749   0.579   3.373  10.738  0.2663 -1.0508  1.4192
 4371SOL    HW224750   0.525   3.240  10.773  1.1621 -0.3068 -0.5676
 4372SOL     OW24751   0.585   4.473   4.788  0.0340 -0.2722  0.4430
 4372SOL    HW124752   0.664   4.506   4.746  0.4796 -1.3971  0.4128
 4372SOL    HW224753   0.537   4.446   4.709  0.5797 -0.9432  0.3393
 4373SOL     OW24754   4.496   1.560   6.760  0.0386 -0.1816 -0.4689
 4373SOL    HW124755   4.467   1.479   6.718 -0.8663  1.2475 -2.6016
 4373SOL    HW224756   4.427   1.569   6.826 -0.1387  0.6593 -0.7712
 4374SOL     OW24757   2.738   0.036   0.908 -0.0362  0.6085 -0.4262
 4374SOL    HW124758   2.776   0.043   0.996 -0.2661 -0.0682 -0.2743
 4374SOL    HW224759   2.819   0.038   0.856  0.0741  2.2895 -0.1828
 4375SOL     OW24760   0.060   1.411  11.793 -0.2049 -0.3787  0.5214
 4375SOL    HW124761   0.115   1.352  11.741  1.2214  1.3028  0.1408
 4375SOL    HW224762   0.116   1.444  11.863 -1.3126  1.2296  0.6497
 4376SOL     OW24763   4.072   4.060   3.117 -0.4964  0.1181 -0.4301
 4376SOL    HW124764   4.033   4.108   3.189 -1.5725  1.1205 -1.6825
 4376SOL    HW224765   3.998   4.030   3.064 -2.4957 -0.6412  2.8274
 4377SOL     OW24766   2.269   0.979   0.809 -0.1579  0.2170 -0.1773
 4377SOL    HW124767   2.322   0.935   0.742  2.9184  1.9599  1.1280
 4377SOL    HW224768   2.266   1.070   0.778  1.4519  0.3699  0.1258
 4378SOL     OW24769   3.044   1.190   2.606  0.1102  0.4561 -0.0760
 4378SOL    HW124770   3.134   1.161   2.592  0.7041  1.9155  0.6742
 4378SOL    HW224771   3.046   1.285   2.618 -1.1556  0.4824 -0.0844
 4379SOL     OW24772   1.949   2.644  17.297 -0.3788 -0.4579  0.3600
 4379SOL    HW124773   1.966   2.585  17.223 -0.9193  0.2804 -0.3637
 4379SOL    HW224774   2.008   2.608  17.363 -0.2661 -1.1604 -0.1290
 4380SOL     OW24775   2.495   3.739   3.738 -0.2063 -0.6724 -0.1990
 4380SOL    HW124776   2.411   3.786   3.732  0.4137  0.4905  0.3144
 4380SOL    HW224777   2.559   3.802   3.770 -0.1338 -1.0671  0.4330
 4381SOL     OW24778   2.546   4.335   3.154 -0.1312  0.3301 -0.2580
 4381SOL    HW124779   2.590   4.266   3.204  1.2356  1.7199  0.4419
 4381SOL    HW224780   2.463   4.339   3.201 -0.0774 -0.6341 -0.0672
 4382SOL     OW24781   0.920   3.838   7.866  0.4875 -0.0924  0.2157
 4382SOL    HW124782   0.939   3.922   7.909  0.9618 -1.0207  1.7877
 4382SOL    HW224783   0.828   3.822   7.890  0.4070 -0.8931 -0.6412
 4383SOL     OW24784   0.002   3.164   4.555 -0.2703  0.6786 -0.2549
 4383SOL    HW124785   4.669   3.159   4.489 -1.8000 -0.0578  1.4304
 4383SOL    HW224786   4.690   3.186   4.634 -2.0877  1.1265 -1.5027
 4384SOL     OW24787   4.515   0.677  12.758 -0.3401 -0.1789 -0.3719
 4384SOL    HW124788   4.536   0.602  12.813 -1.0797  0.7289  1.1296
 4384SOL    HW224789   4.560   0.644  12.680  1.2263 -0.7887  0.7924
 4385SOL     OW24790   2.890   3.657   1.392  0.0285 -0.3902 -0.5498
 4385SOL    HW124791   2.808   3.619   1.363 -1.5095  0.7110  2.3545
 4385SOL    HW224792   2.890   3.660   1.487 -2.5355 -1.3078 -0.5236
 4386SOL     OW24793   0.071   2.279  15.281  0.5170  0.4837 -0.0575
 4386SOL    HW124794   4.724   2.293  15.236  0.1115 -2.9323 -0.4007
 4386SOL    HW224795   0.109   2.366  15.286  1.9661  0.0034 -2.5989
 4387SOL     OW24796   2.684   0.466   2.388 -0.1941 -0.3059 -0.5960
 4387SOL    HW124797   2.686   0.440   2.481  0.1214  1.5502 -0.0880
 4387SOL    HW224798   2.739   0.397   2.351 -0.4556 -1.1465  0.5526
 4388SOL     OW24799   0.388   2.651  11.971  0.3072 -0.4614  0.1010
 4388SOL    HW124800   0.341   2.642  12.054  0.4035 -0.7409  0.1260
 4388SOL    HW224801   0.466   2.705  11.986  0.2714 -0.1050 -0.9855
 4389SOL     OW24802   1.594   0.773   1.374  0.2122 -0.1475  0.5625
 4389SOL    HW124803   1.582   0.811   1.287  2.4945  1.0807  0.7853
 4389SOL    HW224804   1.665   0.709   1.366 -0.3742 -0.9731  1.8581
 4390SOL     OW24805   0.847   1.335   3.753  0.0279 -0.1651  0.3855
 4390SOL    HW124806   0.926   1.354   3.704 -0.9931 -0.4452 -1.3567
 4390SOL    HW224807   0.789   1.297   3.687  1.2253  1.0931 -1.3974
 4391SOL     OW24808   0.182   3.125   5.728 -0.1725  0.1149 -0.3863
 4391SOL    HW124809   0.134   3.189   5.676 -0.7245 -1.5953 -1.9770
 4391SOL    HW224810   0.242   3.187   5.770  2.5879 -0.9652 -2.7107
 4392SOL     OW24811   0.936   2.870   7.642  0.1725 -0.2544 -0.1779
 4392SOL    HW124812   1.010   2.810   7.651  0.7727  0.3953 -0.8156
 4392SOL    HW224813   0.889   2.839   7.564  1.2340 -0.2878 -0.8033
 4393SOL     OW24814   2.582   1.481   2.240 -0.1267  0.0020  0.6813
 4393SOL    HW124815   2.669   1.500   2.204 -0.1065  0.0958  0.7793
 4393SOL    HW224816   2.561   1.574   2.254  1.0366  0.1950  1.0884
 4394SOL     OW24817   4.559   1.806   8.642 -0.2864 -0.5160  0.4045
 4394SOL    HW124818   4.654   1.816   8.645 -0.1228 -1.3999 -2.0119
 4394SOL    HW224819   4.542   1.786   8.550  0.8530 -3.1090  0.7533
 4395SOL     OW24820   3.458   1.042   4.719  0.1959 -0.2715 -0.1749
 4395SOL    HW124821   3.402   0.974   4.758  0.2466  0.1684  0.6709
 4395SOL    HW224822   3.395   1.113   4.730 -0.7343 -1.0761 -0.3650
 4396SOL     OW24823   2.392   2.200  11.903  0.0305  0.3170  0.0956
 4396SOL    HW124824   2.456   2.222  11.971  0.3871  2.5972 -0.9475
 4396SOL    HW224825   2.400   2.105  11.895 -3.1650  0.1439 -0.7580
 4397SOL     OW24826   0.804   0.140   5.961 -0.0892  0.6377  0.2952
 4397SOL    HW124827   0.760   0.088   6.028 -0.7827 -1.7288 -2.0180
 4397SOL    HW224828   0.725   0.170   5.917  0.0344  1.5170  0.6783
 4398SOL     OW24829   4.644   2.555   7.865 -0.2378  0.7357  0.2760
 4398SOL    HW124830   4.603   2.631   7.824 -1.7326 -0.1084  0.2185
 4398SOL    HW224831   4.582   2.516   7.926  1.5440 -0.8782  1.0487
 4399SOL     OW24832   4.381   1.768   5.701 -0.5750 -0.2042  0.1557
 4399SOL    HW124833   4.463   1.800   5.737 -1.3047 -1.0961  2.6643
 4399SOL    HW224834   4.420   1.750   5.616 -2.1692 -1.4606 -0.3077
 4400SOL     OW24835   2.681   3.996   4.020  0.2574 -0.0755 -0.2383
 4400SOL    HW124836   2.686   4.007   3.925  2.0866 -0.1341 -0.1472
 4400SOL    HW224837   2.738   3.921   4.031 -0.3699 -0.2872  1.5223
 4401SOL     OW24838   2.634   3.172   0.954 -0.3077 -0.2460  0.8608
 4401SOL    HW124839   2.637   3.189   0.860  0.4062  0.5769  1.0260
 4401SOL    HW224840   2.713   3.223   0.974 -1.1949  1.1667  0.7480
 4402SOL     OW24841   2.553   1.292   2.791 -0.3576 -0.9625 -0.1586
 4402SOL    HW124842   2.593   1.220   2.841 -0.4490  0.2346  1.6228
 4402SOL    HW224843   2.616   1.312   2.722  0.8285  1.8146  1.7368
 4403SOL     OW24844   2.158   2.715   7.319 -0.3350  0.3390  0.1236
 4403SOL    HW124845   2.139   2.622   7.332 -1.9141  0.7795  0.9729
 4403SOL    HW224846   2.240   2.696   7.275  0.4660  1.6254  1.0467
 4404SOL     OW24847   2.510   1.774   4.162 -0.4588  0.2740  0.1831
 4404SOL    HW124848   2.460   1.771   4.244 -1.8567 -0.8801 -0.7198
 4404SOL    HW224849   2.506   1.682   4.136  2.7535  0.5527 -1.3083
 4405SOL     OW24850   2.166   4.305   1.151  0.1444  0.2059 -0.3611
 4405SOL    HW124851   2.118   4.298   1.234  2.2847  0.4921  0.8939
 4405SOL    HW224852   2.256   4.288   1.178 -0.2503  1.3363  1.6991
 4406SOL     OW24853   2.851   4.186   6.465  0.5390 -0.0988  0.3290
 4406SOL    HW124854   2.844   4.239   6.544  1.3851 -1.6013  1.4133
 4406SOL    HW224855   2.943   4.202   6.442  0.2017 -2.0051 -2.4743
 4407SOL     OW24856   2.526   3.007  14.278 -0.6127  0.1022  0.2501
 4407SOL    HW124857   2.486   2.923  14.299 -1.0580 -0.1346 -1.5653
 4407SOL    HW224858   2.449   3.055  14.249  0.3799  1.1491 -0.6482
 4408SOL     OW24859   4.051   0.031  16.327 -0.2928 -0.0642  0.3060
 4408SOL    HW124860   4.006   0.105  16.368 -0.7289 -0.0371 -0.2167
 4408SOL    HW224861   4.136   0.041  16.370  0.7476  0.0127 -1.7650
 4409SOL     OW24862   1.582   4.096   4.021 -0.9024 -0.5962  0.4996
 4409SOL    HW124863   1.563   4.108   3.928 -2.2610  0.6162  0.9207
 4409SOL    HW224864   1.651   4.030   4.027 -0.3737 -0.2045 -1.4574
 4410SOL     OW24865   1.164   3.167   2.935  0.2547  0.6287  0.0051
 4410SOL    HW124866   1.130   3.194   3.020 -0.4307  0.2787 -0.1551
 4410SOL    HW224867   1.236   3.105   2.943  0.7881  0.9384 -2.2938
 4411SOL     OW24868   4.452   4.615   6.834  0.2138 -0.1855  0.3052
 4411SOL    HW124869   4.528   4.667   6.860 -0.2705  0.8713 -0.3594
 4411SOL    HW224870   4.434   4.614   6.928  0.8781  0.8766  0.4456
 4412SOL     OW24871   0.128   2.355  11.158  0.6234 -0.0114 -0.3637
 4412SOL    HW124872   0.061   2.397  11.105 -0.6252 -0.6300  0.7087
 4412SOL    HW224873   0.208   2.400  11.131 -0.9675  2.1869 -1.3689
 4413SOL     OW24874   2.254   3.107   8.496  0.3014 -0.3113  0.7462
 4413SOL    HW124875   2.179   3.110   8.555  1.0880 -2.7054  1.8772
 4413SOL    HW224876   2.299   3.034   8.538 -0.1107 -2.2678 -2.2105
 4414SOL     OW24877   4.046   4.586  15.430  0.2345 -0.1884 -0.6118
 4414SOL    HW124878   4.015   4.628  15.350 -1.3529  0.4532  0.3633
 4414SOL    HW224879   3.964   4.595  15.478  1.1011 -0.3766  0.9023
 4415SOL     OW24880   2.027   4.609   2.219 -0.2259  0.9204 -0.7171
 4415SOL    HW124881   1.953   4.605   2.159  0.8845 -3.2174 -1.8456
 4415SOL    HW224882   1.983   4.591   2.302 -0.2024  2.4990 -0.3606
 4416SOL     OW24883   1.604   0.930   7.657  0.4986  0.1317 -0.5748
 4416SOL    HW124884   1.576   0.976   7.578 -3.9869  0.5050  1.2795
 4416SOL    HW224885   1.522   0.920   7.706  0.3312  0.2398 -0.8356
 4417SOL     OW24886   1.466   4.189   5.144 -0.2535  0.2629  0.5425
 4417SOL    HW124887   1.528   4.188   5.070 -0.0865 -0.4403  0.6922
 4417SOL    HW224888   1.465   4.283   5.162 -0.6919  0.2692  0.4723
 4418SOL     OW24889   0.008   4.191  17.401 -0.1752  0.0123  0.1287
 4418SOL    HW124890   0.031   4.102  17.429 -1.3066 -0.1819  0.4355
 4418SOL    HW224891   0.086   4.245  17.416  0.5902 -0.5724 -1.7533
 4419SOL     OW24892   0.675   3.400   3.060  0.3332 -0.0948 -0.2503
 4419SOL    HW124893   0.596   3.412   3.008 -0.8205 -1.8550  1.1251
 4419SOL    HW224894   0.740   3.365   2.998  0.8629  2.8781 -1.4210
 4420SOL     OW24895   1.399   0.990  12.360  0.1417  0.0718  0.0247
 4420SOL    HW124896   1.466   0.954  12.301  0.2319  0.1107  0.1038
 4420SOL    HW224897   1.439   1.057  12.415 -2.2030  1.8826 -0.4840
 4421SOL     OW24898   0.706   0.264   4.834 -0.5018 -0.0703 -0.2364
 4421SOL    HW124899   0.702   0.354   4.802  3.1578  1.1111  2.7004
 4421SOL    HW224900   0.618   0.243   4.864  0.1002 -2.2116  0.0886
 4422SOL     OW24901   3.029   3.559  10.888 -0.0681  0.0954  0.6474
 4422SOL    HW124902   2.990   3.646  10.898  0.5670  0.6115 -1.3896
 4422SOL    HW224903   3.050   3.545  10.980  0.2828  0.9802  0.7070
 4423SOL     OW24904   2.670   0.312   7.111  0.2867 -0.2861 -0.3287
 4423SOL    HW124905   2.684   0.226   7.151  0.3221 -0.0802  0.0976
 4423SOL    HW224906   2.646   0.289   7.021  1.8150  1.9850 -1.3209
 4424SOL     OW24907   2.749   2.479   9.791  0.0508 -0.4588 -0.5483
 4424SOL    HW124908   2.712   2.393   9.810  1.4093 -1.1190 -0.8822
 4424SOL    HW224909   2.773   2.462   9.699  2.4880  0.6989 -0.1334
 4425SOL     OW24910   0.833   0.315   7.946 -0.2057  0.1648  0.3806
 4425SOL    HW124911   0.812   0.273   7.862 -3.2075 -2.4124  2.4097
 4425SOL    HW224912   0.775   0.389   7.962 -0.6309 -0.1514  0.3083
 4426SOL     OW24913   0.848   3.335   2.433 -0.1550 -0.0478 -0.9529
 4426SOL    HW124914   0.833   3.250   2.475  1.4308 -0.5670 -1.4554
 4426SOL    HW224915   0.881   3.365   2.517  0.2897 -2.4414 -0.2661
 4427SOL     OW24916   2.081   0.660   6.846 -0.3722 -0.0545  0.2913
 4427SOL    HW124917   1.991   0.692   6.852 -1.3086 -2.6606  0.1827
 4427SOL    HW224918   2.078   0.621   6.934  0.2616 -0.2929  0.2098
 4428SOL     OW24919   3.575   3.990   8.904  0.1533 -0.4755  0.2616
 4428SOL    HW124920   3.515   4.063   8.914  2.9674  1.6198  1.5011
 4428SOL    HW224921   3.615   3.984   8.990  1.2541 -0.4607 -0.2530
 4429SOL     OW24922   2.069   1.365   2.614 -0.8486 -0.1053 -0.1541
 4429SOL    HW124923   2.098   1.370   2.523  0.6012  1.9335  0.4270
 4429SOL    HW224924   2.153   1.334   2.648 -0.9026  1.2834  1.2286
 4430SOL     OW24925   3.178   2.452   6.266 -0.6949  0.2324 -0.6049
 4430SOL    HW124926   3.113   2.513   6.298 -0.9090  0.1257 -0.8395
 4430SOL    HW224927   3.176   2.464   6.171  1.2072 -1.8610 -0.9176
 4431SOL     OW24928   0.316   1.812   5.230 -0.1363  0.1291 -0.1313
 4431SOL    HW124929   0.406   1.815   5.262 -0.3303  0.0537  0.4259
 4431SOL    HW224930   0.325   1.765   5.147 -1.3287  1.2728 -0.9195
 4432SOL     OW24931   4.526   2.796  14.898 -0.3167 -0.0978 -0.6211
 4432SOL    HW124932   4.483   2.854  14.834  0.2439 -0.0322 -0.9362
 4432SOL    HW224933   4.510   2.833  14.985  1.6724 -2.4167  0.7217
 4433SOL     OW24934   0.659   2.430  15.762 -0.1380  0.5258  0.0970
 4433SOL    HW124935   0.728   2.376  15.802  0.1413  0.9765  0.2181
 4433SOL    HW224936   0.687   2.424  15.671 -0.6920  2.8668 -0.2323
 4434SOL     OW24937   4.462   1.865   2.404  0.0005 -0.3196 -0.4708
 4434SOL    HW124938   4.385   1.866   2.348 -0.6084  1.7200  0.4237
 4434SOL    HW224939   4.418   1.833   2.482  2.1662  0.9737  1.3002
 4435SOL     OW24940   0.598   2.017   3.655  0.0078 -0.1654 -0.2393
 4435SOL    HW124941   0.656   1.961   3.708 -0.4325 -1.0840 -0.7313
 4435SOL    HW224942   0.619   2.105   3.686  1.0778 -0.0394 -1.3463
 4436SOL     OW24943   3.168   3.934   1.314 -0.2042  0.1615  0.3254
 4436SOL    HW124944   3.143   3.844   1.295 -0.2487  0.1938  0.2299
 4436SOL    HW224945   3.164   3.977   1.229  1.0301  3.6833  2.0659
 4437SOL     OW24946   3.615   4.691   5.150 -0.2075 -0.1205 -0.1438
 4437SOL    HW124947   3.569   4.704   5.067  1.0155 -1.9109 -1.1215
 4437SOL    HW224948   3.705   4.716   5.127 -0.2058 -0.4227 -0.4674
 4438SOL     OW24949   3.388   2.773   6.102 -0.3724 -0.3218 -0.2776
 4438SOL    HW124950   3.448   2.768   6.027 -0.2340  2.8840 -0.3762
 4438SOL    HW224951   3.434   2.728   6.173 -2.2667  1.1436  1.8794
 4439SOL     OW24952   4.267   4.217   4.162 -0.1462 -0.3882  0.1811
 4439SOL    HW124953   4.276   4.129   4.125  3.1003 -0.3604  0.8921
 4439SOL    HW224954   4.356   4.242   4.186 -0.4016 -0.3805  1.1213
 4440SOL     OW24955   2.373   0.086  16.421 -0.3351  0.0296 -0.6033
 4440SOL    HW124956   2.371   0.093  16.326  3.1237  0.2322 -0.6603
 4440SOL    HW224957   2.284   0.114  16.445 -0.5981 -1.8883  0.6490
 4441SOL     OW24958   4.581   1.878   5.994  0.3609  0.2597  0.4077
 4441SOL    HW124959   4.581   1.880   5.898  0.4663  3.0024  0.4528
 4441SOL    HW224960   4.495   1.852   6.026  0.0387 -1.0163 -1.5504
 4442SOL     OW24961   4.347   0.533   2.769 -0.7099  0.2488  0.2337
 4442SOL    HW124962   4.253   0.528   2.786 -0.3293  0.6048  2.4088
 4442SOL    HW224963   4.361   0.533   2.674 -2.0034  0.9204  0.0343
 4443SOL     OW24964   3.493   4.193  10.876 -0.1563  0.2550  0.1758
 4443SOL    HW124965   3.547   4.187  10.954 -2.1845  0.6996  1.6105
 4443SOL    HW224966   3.426   4.137  10.915  0.6329 -0.1090  1.0136
 4444SOL     OW24967   0.125   1.948   4.718  0.4195  0.5236 -0.2019
 4444SOL    HW124968   0.214   1.970   4.689  0.8122 -1.8898 -0.7747
 4444SOL    HW224969   0.101   1.893   4.644  0.7395  1.0881 -0.7312
 4445SOL     OW24970   2.924   0.041   5.355 -0.1791 -0.0253  0.1043
 4445SOL    HW124971   2.944   0.027   5.447 -1.7529  4.0918  1.0534
 4445SOL    HW224972   2.837   0.001   5.350  0.4392 -1.2952 -0.6193
 4446SOL     OW24973   1.539   0.419   6.275  0.2502  0.9408 -0.3371
 4446SOL    HW124974   1.446   0.415   6.257  0.0994  0.5056  0.5225
 4446SOL    HW224975   1.567   0.338   6.231  1.5908  1.6714 -0.8449
 4447SOL     OW24976   1.371   3.126   4.957  0.2700 -0.0012 -0.3444
 4447SOL    HW124977   1.450   3.179   4.971 -1.7896  1.9054  4.1501
 4447SOL    HW224978   1.355   3.105   5.049 -0.4778  0.7120 -0.3162
 4448SOL     OW24979   4.402   3.139   5.051  0.2125 -0.2531 -1.2354
 4448SOL    HW124980   4.404   3.192   4.972  1.2872  1.2244 -0.1957
 4448SOL    HW224981   4.309   3.151   5.069  0.1728 -1.4581 -0.5815
 4449SOL     OW24982   1.338   3.201  14.118 -0.0981 -0.1341  0.3772
 4449SOL    HW124983   1.280   3.189  14.193  0.2625  0.8921  0.8213
 4449SOL    HW224984   1.280   3.180  14.045 -1.2011 -0.6524  1.4103
 4450SOL     OW24985   2.716   0.381  15.086  0.4136  0.6515  0.6593
 4450SOL    HW124986   2.622   0.391  15.070  0.6101  1.1273 -0.2291
 4450SOL    HW224987   2.722   0.295  15.046  2.2389  1.5754 -1.0553
 4451SOL     OW24988   4.439   2.367  17.460 -0.0445  0.2769  0.3486
 4451SOL    HW124989   4.358   2.316  17.469 -0.2269  0.3669 -0.7756
 4451SOL    HW224990   4.496   2.300  17.498  0.0185  0.2921  0.2797
 4452SOL     OW24991   0.108   1.727  10.724  0.3976  0.0103 -0.0798
 4452SOL    HW124992   0.151   1.645  10.749  1.0662  0.4911  0.3485
 4452SOL    HW224993   0.172   1.781  10.770  1.3107  0.8910 -2.4004
 4453SOL     OW24994   1.063   3.859   7.232 -0.2095  0.3376  0.2445
 4453SOL    HW124995   1.019   3.922   7.175  2.1209 -0.5234 -2.4817
 4453SOL    HW224996   1.155   3.884   7.220 -0.2160  0.8828  1.2647
 4454SOL     OW24997   3.575   3.781  12.415  0.0930 -0.4234 -1.0466
 4454SOL    HW124998   3.641   3.848  12.397 -0.7603  0.3450 -1.2918
 4454SOL    HW224999   3.514   3.819  12.479 -0.8000 -0.6750 -1.7529
 4455SOL     OW25000   0.902   0.596  12.354 -0.1217 -0.1930 -0.4381
 4455SOL    HW125001   0.949   0.633  12.280 -0.6504 -0.7104 -1.0318
 4455SOL    HW225002   0.834   0.662  12.368 -1.2181 -1.4430  0.1422
 4456SOL     OW25003   1.416   2.742  13.168 -0.3499  0.1675 -0.1054
 4456SOL    HW125004   1.380   2.808  13.227  0.1789  1.0894 -0.7964
 4456SOL    HW225005   1.339   2.702  13.128  0.2021  0.6857 -1.6986
 4457SOL     OW25006   3.955   0.546   2.094  0.3602  0.9249  0.4908
 4457SOL    HW125007   3.975   0.617   2.033  1.3610  0.5913  0.4422
 4457SOL    HW225008   3.981   0.468   2.045 -1.5026 -1.4743  3.2927
 4458SOL     OW25009   0.280   0.543   2.245  0.6766  0.3204 -0.2232
 4458SOL    HW125010   0.294   0.633   2.274 -1.0872  0.1722  1.1009
 4458SOL    HW225011   0.334   0.537   2.166  0.4777  0.4594 -0.3706
 4459SOL     OW25012   1.368   1.781   4.018 -0.0923 -0.3879 -0.8386
 4459SOL    HW125013   1.414   1.847   3.966 -1.5011  2.4581  1.5311
 4459SOL    HW225014   1.400   1.798   4.107 -2.0768 -1.4721  0.0617
 4460SOL     OW25015   3.169   2.533  10.407 -0.9754  0.1647 -0.1091
 4460SOL    HW125016   3.116   2.548  10.329 -0.3430 -0.1503 -0.5944
 4460SOL    HW225017   3.099   2.489  10.456  2.1052 -2.1861  2.1884
 4461SOL     OW25018   2.254   3.764   7.539 -0.5657  0.1340 -0.0596
 4461SOL    HW125019   2.346   3.739   7.544 -0.2455  1.7443  1.8991
 4461SOL    HW225020   2.225   3.738   7.451  0.1447 -0.7630 -0.0252
 4462SOL     OW25021   4.156   0.143   6.966 -0.2782  0.4011  0.5209
 4462SOL    HW125022   4.219   0.150   7.038  0.7408  1.5754 -0.4870
 4462SOL    HW225023   4.168   0.233   6.934  3.4425 -0.5125 -0.5660
 4463SOL     OW25024   4.260   4.336   9.185  0.1822 -0.2396 -0.2522
 4463SOL    HW125025   4.246   4.243   9.171  0.6716 -0.3285 -0.1599
 4463SOL    HW225026   4.350   4.350   9.155  0.5951  0.8109  1.4845
 4464SOL     OW25027   0.813   3.378   1.741  0.2773 -0.5134 -0.6733
 4464SOL    HW125028   0.878   3.447   1.728 -0.8909  0.8283  0.5547
 4464SOL    HW225029   0.751   3.381   1.668 -2.1134 -0.4209  1.3578
 4465SOL     OW25030   3.187   4.219   5.759  0.1124 -0.1963 -0.4477
 4465SOL    HW125031   3.250   4.218   5.686  1.1524  1.4949  0.4322
 4465SOL    HW225032   3.106   4.240   5.713  0.5278 -0.2796 -1.2152
 4466SOL     OW25033   0.204   2.123   2.661  0.1947 -0.4888  0.2525
 4466SOL    HW125034   0.233   2.181   2.591  2.6664 -0.8386  1.0076
 4466SOL    HW225035   0.127   2.170   2.693  0.4448  0.8047 -1.0372
 4467SOL     OW25036   2.327   4.289   6.841 -0.2054 -0.2260  0.2729
 4467SOL    HW125037   2.265   4.230   6.883  0.5581 -1.1400  0.1016
 4467SOL    HW225038   2.271   4.334   6.778  0.8189 -0.3426 -0.7123
 4468SOL     OW25039   4.163   2.387   1.268  0.0483 -0.6084 -0.7207
 4468SOL    HW125040   4.155   2.475   1.304  0.1023 -0.6807 -0.5351
 4468SOL    HW225041   4.073   2.366   1.242 -0.4020  0.8723 -0.3505
 4469SOL     OW25042   4.135   1.458   6.661 -0.6659 -0.1862 -0.0968
 4469SOL    HW125043   4.086   1.524   6.709 -0.2100 -1.1663  1.7075
 4469SOL    HW225044   4.121   1.497   6.575 -2.4028  0.8602  0.6658
 4470SOL     OW25045   1.508   0.714   6.260 -0.2570  0.1576 -0.0900
 4470SOL    HW125046   1.531   0.622   6.253 -0.1801  0.2825 -1.6069
 4470SOL    HW225047   1.542   0.738   6.346  1.9051  0.2146 -0.9655
 4471SOL     OW25048   1.728   0.975   7.926 -0.1480 -0.7565 -0.0187
 4471SOL    HW125049   1.761   1.025   7.851 -0.7165 -1.2473 -0.5867
 4471SOL    HW225050   1.651   0.930   7.893 -0.2303  1.2543 -2.5139
 4472SOL     OW25051   2.795   3.778   4.474 -0.5611  0.2352 -0.0099
 4472SOL    HW125052   2.766   3.802   4.562  1.7225  0.5603  0.6566
 4472SOL    HW225053   2.739   3.832   4.418  1.7699  2.0353 -0.5957
 4473SOL     OW25054   1.915   2.954  13.861  0.0594  0.1482  0.2545
 4473SOL    HW125055   1.965   2.897  13.803 -0.5598 -0.4256  0.2798
 4473SOL    HW225056   1.900   2.889  13.930 -0.3604  1.4365  1.3951
 4474SOL     OW25057   3.156   2.329   8.213 -0.0417  0.2732  0.3678
 4474SOL    HW125058   3.217   2.403   8.218  1.1350 -0.6117 -1.2514
 4474SOL    HW225059   3.078   2.375   8.181 -1.3620 -2.5575 -0.4432
 4475SOL     OW25060   3.204   2.036   1.474  0.3699  0.2052  0.3700
 4475SOL    HW125061   3.203   1.940   1.469  0.2447  0.4538 -4.4855
 4475SOL    HW225062   3.274   2.045   1.539 -0.8719  1.3464  1.5362
 4476SOL     OW25063   0.352   1.434  14.597  0.2509 -0.0728 -0.4275
 4476SOL    HW125064   0.312   1.453  14.512 -1.0612  3.5151  1.0201
 4476SOL    HW225065   0.371   1.340  14.590  0.1729 -0.2445  1.6739
 4477SOL     OW25066   3.746   2.461   0.580  0.0289 -0.8077 -0.1734
 4477SOL    HW125067   3.663   2.468   0.533  0.1392 -0.3428 -0.2969
 4477SOL    HW225068   3.786   2.543   0.552  0.4007 -1.0328 -0.2994
 4478SOL     OW25069   3.671   4.551   4.555 -0.2550 -0.3708  0.0780
 4478SOL    HW125070   3.728   4.474   4.549  0.0304  0.2146 -4.6352
 4478SOL    HW225071   3.713   4.612   4.496  1.2020 -0.9283  0.5245
 4479SOL     OW25072   0.455   4.497   6.010  0.3596  0.2406  0.3247
 4479SOL    HW125073   0.498   4.495   6.095  1.4140 -0.6560 -0.2208
 4479SOL    HW225074   0.509   4.559   5.962  1.0589 -0.5269  0.1126
 4480SOL     OW25075   2.066   1.821   2.782  0.0563  0.3243  0.9530
 4480SOL    HW125076   2.128   1.853   2.847 -0.6988 -0.3897  2.0281
 4480SOL    HW225077   2.115   1.768   2.719  0.2581  1.0547  0.4851
 4481SOL     OW25078   0.529   0.915   7.217 -0.0473 -0.3130 -0.0214
 4481SOL    HW125079   0.593   0.976   7.252 -0.0695 -1.1139  1.4215
 4481SOL    HW225080   0.533   0.942   7.126 -1.4674 -0.0020  0.0107
 4482SOL     OW25081   1.570   0.763   3.118  0.4376 -0.2172  0.6158
 4482SOL    HW125082   1.475   0.774   3.130  0.4533  2.6732 -1.8641
 4482SOL    HW225083   1.593   0.824   3.189 -1.6697  0.9357  0.3084
 4483SOL     OW25084   2.340   0.674   3.534  0.6955  0.6110  0.1037
 4483SOL    HW125085   2.389   0.612   3.588 -0.3646 -0.7547 -0.4824
 4483SOL    HW225086   2.269   0.622   3.495  0.4460  0.8624  0.2221
 4484SOL     OW25087   2.007   1.587   5.784  0.2831  0.0647 -0.0701
 4484SOL    HW125088   2.035   1.523   5.850 -0.8399  1.2035  1.5022
 4484SOL    HW225089   2.081   1.585   5.723  0.6237 -1.1555  0.3835
 4485SOL     OW25090   0.354   4.590   8.135 -0.1951 -0.4360 -0.5838
 4485SOL    HW125091   0.432   4.631   8.174 -0.6774 -0.1893  0.1159
 4485SOL    HW225092   0.331   4.531   8.206  0.2997  1.2118  0.9539
 4486SOL     OW25093   2.981   0.249  11.938 -0.0048 -0.6432  0.5220
 4486SOL    HW125094   2.905   0.218  11.988 -1.1360 -0.6909 -1.2421
 4486SOL    HW225095   3.005   0.317  12.000 -1.2435  1.4192 -1.2818
 4487SOL     OW25096   0.482   3.852   9.688  0.5230  0.0741  0.6961
 4487SOL    HW125097   0.513   3.802   9.612 -0.1280  0.2199  0.3317
 4487SOL    HW225098   0.409   3.798   9.719 -0.0501  1.2417  1.3896
 4488SOL     OW25099   4.210   4.359   2.246  0.0618 -0.8927 -0.1172
 4488SOL    HW125100   4.224   4.445   2.287 -1.5579  0.3317 -2.1401
 4488SOL    HW225101   4.133   4.335   2.297  0.5233  1.2177  1.5923
 4489SOL     OW25102   2.286   2.779   3.551 -0.4962  0.0197  0.2398
 4489SOL    HW125103   2.334   2.705   3.588 -1.7992 -1.3518 -0.7862
 4489SOL    HW225104   2.333   2.854   3.586 -2.1937  1.3543 -0.3335
 4490SOL     OW25105   1.795   4.055   2.879  0.4351 -0.3056  0.1977
 4490SOL    HW125106   1.716   4.024   2.835 -0.0006  0.7205  0.2628
 4490SOL    HW225107   1.768   4.067   2.970 -0.8440 -0.0015 -0.2313
 4491SOL     OW25108   0.390   2.795   4.609 -0.1302  0.6454  0.0742
 4491SOL    HW125109   0.482   2.820   4.622 -0.5766  1.7865  1.0509
 4491SOL    HW225110   0.345   2.879   4.616  1.8377  1.6005  1.3340
 4492SOL     OW25111   0.117   2.498   6.334 -0.6481  0.0059 -0.2784
 4492SOL    HW125112   0.093   2.469   6.422 -0.9853 -0.5781 -0.5612
 4492SOL    HW225113   0.095   2.591   6.342  0.3583  0.1705  0.6152
 4493SOL     OW25114   4.486   0.017   6.588  0.9530  0.0049  0.1106
 4493SOL    HW125115   4.403   0.019   6.541  1.6061 -0.3945 -1.0873
 4493SOL    HW225116   4.465   4.719   6.674 -1.6369  0.4609 -0.3478
 4494SOL     OW25117   1.276   1.296   7.796 -0.0533  0.1397 -0.6727
 4494SOL    HW125118   1.306   1.344   7.873 -1.1812 -0.8854  0.4069
 4494SOL    HW225119   1.216   1.237   7.842  1.5626 -0.0435  1.1863
 4495SOL     OW25120   0.148   2.362   4.163 -0.1173 -0.2540  0.2347
 4495SOL    HW125121   0.139   2.377   4.257 -2.3228  0.3019 -0.0837
 4495SOL    HW225122   0.150   2.452   4.128 -1.2395 -0.9782 -1.6407
 4496SOL     OW25123   2.572   0.071  11.251 -0.1802 -0.0262 -0.5288
 4496SOL    HW125124   2.640   0.060  11.185 -2.2044 -1.3194 -2.3759
 4496SOL    HW225125   2.614   0.116  11.325 -0.2469  0.7990 -1.0032
 4497SOL     OW25126   1.115   4.425  17.620  0.5047 -0.0726  0.2593
 4497SOL    HW125127   1.197   4.434  17.669  0.3783 -1.1297  0.6651
 4497SOL    HW225128   1.116   4.336  17.585  0.4664 -0.6765  1.8210
 4498SOL     OW25129   0.296   0.865   3.460  0.0424  0.7795  0.4464
 4498SOL    HW125130   0.339   0.859   3.374 -0.6440  1.4979  0.0479
 4498SOL    HW225131   0.343   0.936   3.503  0.2742  1.2194 -0.5256
 4499SOL     OW25132   2.130   4.003   0.943  0.1197 -0.1089  0.3406
 4499SOL    HW125133   2.123   3.965   0.856 -0.4086 -1.0004  0.7735
 4499SOL    HW225134   2.162   4.088   0.912 -0.2319  0.5071  1.6541
 4500SOL     OW25135   1.893   0.371   3.038 -0.0222 -0.3381 -0.2995
 4500SOL    HW125136   1.982   0.398   3.056 -0.8853  1.2756  1.4710
 4500SOL    HW225137   1.842   0.439   3.081 -1.3718 -0.1995 -2.1121
 4501SOL     OW25138   1.337   4.473   0.872 -0.2010  0.0309 -0.4438
 4501SOL    HW125139   1.352   4.549   0.815 -1.3320 -0.4758 -1.4215
 4501SOL    HW225140   1.390   4.495   0.948 -0.2297 -0.5170 -0.2646
 4502SOL     OW25141   3.976   1.679   0.709 -0.5831  0.2118 -0.5887
 4502SOL    HW125142   4.046   1.696   0.773 -0.1866 -1.1260 -0.6868
 4502SOL    HW225143   3.975   1.762   0.661  1.4395 -1.1870 -3.0209
 4503SOL     OW25144   4.084   2.811   4.428  0.0323  0.1320 -0.1641
 4503SOL    HW125145   4.172   2.848   4.416 -0.5416  2.0081  1.4595
 4503SOL    HW225146   4.067   2.775   4.341  0.0840  0.0245 -0.1294
 4504SOL     OW25147   2.675   4.511  16.896 -0.0444  0.1991  0.0005
 4504SOL    HW125148   2.662   4.555  16.980 -1.1559 -0.6555  0.2830
 4504SOL    HW225149   2.760   4.471  16.913 -0.3735 -0.3894  0.2750
 4505SOL     OW25150   2.422   4.515  12.937 -0.3316 -0.1027  0.2724
 4505SOL    HW125151   2.514   4.538  12.919 -0.7184  0.9313 -0.3742
 4505SOL    HW225152   2.378   4.588  12.894  0.7520  0.4854  0.1604
 4506SOL     OW25153   2.863   2.584  17.032  0.3567  0.3840  0.2439
 4506SOL    HW125154   2.846   2.491  17.044  2.1015 -0.0091 -0.1994
 4506SOL    HW225155   2.861   2.604  17.125  0.3442 -3.6475  1.1091
 4507SOL     OW25156   2.157   3.418   0.669 -0.2085 -0.5212  0.2064
 4507SOL    HW125157   2.148   3.399   0.576 -1.3824  3.1529 -0.4317
 4507SOL    HW225158   2.089   3.372   0.718 -0.8212  1.1145  0.9060
 4508SOL     OW25159   1.205   0.863   2.551 -0.5766 -0.5283  0.3083
 4508SOL    HW125160   1.186   0.941   2.498 -1.3958  0.2252  1.7224
 4508SOL    HW225161   1.217   0.801   2.478 -0.5690 -0.4820  0.2701
 4509SOL     OW25162   0.501   2.917  10.311  0.2223  0.3084 -0.4350
 4509SOL    HW125163   0.523   2.954  10.225 -0.1927  0.9172 -0.2743
 4509SOL    HW225164   0.516   2.989  10.372  0.8968 -0.7288  0.6340
 4510SOL     OW25165   4.451   0.607  17.244 -0.6000  0.3779 -0.1221
 4510SOL    HW125166   4.401   0.549  17.301 -0.2130 -1.2011 -1.3872
 4510SOL    HW225167   4.379   0.669  17.232 -3.0598 -2.5721 -0.5005
 4511SOL     OW25168   3.158   3.132   5.502  0.2227  0.6361 -0.1409
 4511SOL    HW125169   3.082   3.158   5.555  1.8412  0.5492  2.2272
 4511SOL    HW225170   3.186   3.058   5.556  0.8194  2.3636  1.9383
 4512SOL     OW25171   3.115   1.304   1.939 -0.5524  0.3805 -0.1551
 4512SOL    HW125172   3.085   1.393   1.960  0.4100  0.6015  0.3063
 4512SOL    HW225173   3.108   1.261   2.024 -0.9289 -0.4708 -0.6184
 4513SOL     OW25174   2.811   4.374   6.671 -0.0699 -0.1562  0.4704
 4513SOL    HW125175   2.744   4.401   6.608  1.5974  1.5815 -0.5548
 4513SOL    HW225176   2.858   4.454   6.695 -1.4497  0.8023 -0.0276
 4514SOL     OW25177   4.106   0.408   6.312  0.1204  0.0412  0.0536
 4514SOL    HW125178   4.105   0.402   6.217  0.1468 -1.9799  0.1841
 4514SOL    HW225179   4.197   0.394   6.339  0.4073  0.5771 -0.6263
 4515SOL     OW25180   1.278   2.784   1.052 -0.9137 -0.5339 -0.2596
 4515SOL    HW125181   1.322   2.865   1.080 -0.6434 -0.2741 -1.4267
 4515SOL    HW225182   1.320   2.714   1.101 -1.6093  2.0651  4.0278
 4516SOL     OW25183   0.145   2.627   3.528  0.2544  0.0224  0.2773
 4516SOL    HW125184   0.076   2.599   3.588  1.2425  0.7803  1.7402
 4516SOL    HW225185   0.095   2.622   3.446 -0.6515  2.0968  0.7001
 4517SOL     OW25186   3.698   4.168   2.669  0.5503 -0.8459  0.1980
 4517SOL    HW125187   3.642   4.194   2.742  1.2109  1.2105 -0.0362
 4517SOL    HW225188   3.668   4.080   2.645  2.4990 -0.6795 -2.8169
 4518SOL     OW25189   3.562   3.751  15.026  0.2575 -0.1627  0.7979
 4518SOL    HW125190   3.494   3.765  14.961  0.9266 -0.0413  0.1221
 4518SOL    HW225191   3.585   3.662  15.001  0.1827  0.3574 -1.0630
 4519SOL     OW25192   1.262   1.489  13.166 -0.1944  0.5123 -0.0199
 4519SOL    HW125193   1.260   1.407  13.215  0.6749 -0.3097 -1.3548
 4519SOL    HW225194   1.177   1.528  13.188  0.5320  0.3280  3.1694
 4520SOL     OW25195   0.358   1.636   1.073 -0.0357 -0.3457 -0.3705
 4520SOL    HW125196   0.413   1.569   1.114 -0.3503  0.8475  2.0356
 4520SOL    HW225197   0.295   1.658   1.141 -0.4185 -1.2240 -0.4459
 4521SOL     OW25198   2.902   4.085  11.703  0.1801 -0.7378  0.1807
 4521SOL    HW125199   2.879   4.163  11.652 -0.3440 -0.8945  0.1849
 4521SOL    HW225200   2.819   4.039  11.714 -0.7102  0.8613  0.1686
 4522SOL     OW25201   3.834   2.167   2.658  0.2505 -0.0501 -0.1620
 4522SOL    HW125202   3.804   2.258   2.662 -0.4554 -0.2437 -0.9128
 4522SOL    HW225203   3.923   2.187   2.629 -0.9242  2.7622 -1.8142
 4523SOL     OW25204   2.765   2.710   4.205 -0.3233 -0.2111 -0.2270
 4523SOL    HW125205   2.684   2.754   4.230 -1.1655 -0.9054 -1.6746
 4523SOL    HW225206   2.829   2.742   4.268  0.2830  1.3152 -1.6360
 4524SOL     OW25207   4.519   0.222   0.438 -0.1278  0.1548 -0.0359
 4524SOL    HW125208   4.447   0.159   0.442  1.0369 -1.2101 -0.7473
 4524SOL    HW225209   4.466   0.299   0.459 -1.0852 -0.9481  1.5472
 4525SOL     OW25210   0.508   0.663   7.356 -0.4157  0.4485  0.1016
 4525SOL    HW125211   0.518   0.726   7.286  1.1398 -1.6959 -1.6022
 4525SOL    HW225212   0.457   0.723   7.411  1.9144  1.0019  1.6341
 4526SOL     OW25213   2.828   4.075   2.350  0.2886 -0.4536  0.6950
 4526SOL    HW125214   2.768   4.088   2.276 -0.2777 -2.6405  0.7553
 4526SOL    HW225215   2.839   4.163   2.384 -1.4458  1.2504 -3.1188
 4527SOL     OW25216   3.368   2.918   6.377 -0.2242  0.0736  0.2761
 4527SOL    HW125217   3.358   2.984   6.446 -0.3319  0.1201  0.2160
 4527SOL    HW225218   3.370   2.964   6.294  0.5093  1.6910  1.1922
 4528SOL     OW25219   3.995   4.557   5.599  0.0045 -0.2061  0.5370
 4528SOL    HW125220   3.904   4.579   5.615  0.5634  1.3933  1.5135
 4528SOL    HW225221   4.035   4.640   5.574  1.4870 -0.7135  1.1990
 4529SOL     OW25222   0.590   3.813   3.694  0.5453  0.5345 -0.5338
 4529SOL    HW125223   0.545   3.739   3.653  0.5813  1.1834 -1.7363
 4529SOL    HW225224   0.677   3.779   3.713 -0.2024  0.4682  2.8568
 4530SOL     OW25225   3.310   1.969   7.424 -0.4804 -0.2679  0.3763
 4530SOL    HW125226   3.275   1.882   7.440  0.0017 -0.7019 -0.9130
 4530SOL    HW225227   3.316   1.997   7.515  2.1475 -2.9267  1.0059
 4531SOL     OW25228   1.543   1.302   1.484 -0.5778  0.2173 -0.0886
 4531SOL    HW125229   1.627   1.257   1.478  0.3384  2.0484 -0.8599
 4531SOL    HW225230   1.522   1.324   1.393 -0.2241 -0.2955 -0.2961
 4532SOL     OW25231   2.748   4.102   6.873 -0.0790  0.7354  0.7685
 4532SOL    HW125232   2.822   4.163   6.876  1.0678 -0.7465  2.2410
 4532SOL    HW225233   2.701   4.128   6.794  0.6736 -3.2297 -0.9998
 4533SOL     OW25234   4.363   2.606   4.450 -0.1942  0.3930  0.0500
 4533SOL    HW125235   4.365   2.602   4.546  1.8280 -0.0875 -0.0019
 4533SOL    HW225236   4.377   2.701   4.446 -0.6988  0.5099  1.1501
 4534SOL     OW25237   1.348   2.944  15.456  0.3231  0.4508  0.1518
 4534SOL    HW125238   1.429   2.949  15.507 -0.1051 -0.1857  0.9110
 4534SOL    HW225239   1.290   2.989  15.517  1.8788  0.8294  1.3610
 4535SOL     OW25240   2.908   2.732   7.830  0.5654  0.5097  0.2211
 4535SOL    HW125241   2.942   2.821   7.839  1.2243  0.1287  1.5296
 4535SOL    HW225242   2.917   2.718   7.735 -0.4086 -0.1342  0.2289
 4536SOL     OW25243   0.825   4.472   5.160 -0.2942  0.2005 -0.0342
 4536SOL    HW125244   0.839   4.529   5.236 -1.2789 -0.9467  1.0087
 4536SOL    HW225245   0.730   4.470   5.154 -0.3504 -0.1547  0.8857
 4537SOL     OW25246   1.111   2.856  14.131 -0.1055 -0.1513 -0.0436
 4537SOL    HW125247   1.083   2.946  14.149  2.3017  0.2298  1.7069
 4537SOL    HW225248   1.199   2.860  14.093 -0.2376  2.0378 -0.0910
 4538SOL     OW25249   4.463   2.519   8.586  0.4502 -0.3310 -0.3434
 4538SOL    HW125250   4.427   2.446   8.636  1.0883 -1.1329 -1.0673
 4538SOL    HW225251   4.486   2.479   8.502  0.6593  0.6637 -0.7616
 4539SOL     OW25252   3.823   0.689   8.959 -0.0575  0.1339 -0.5316
 4539SOL    HW125253   3.909   0.720   8.987 -1.1621  2.0038  0.7988
 4539SOL    HW225254   3.826   0.594   8.969  1.4224  0.2452  0.0476
 4540SOL     OW25255   3.790   0.948   1.972 -0.0264 -0.1852 -0.5470
 4540SOL    HW125256   3.796   0.938   1.877  0.2261 -2.8063 -0.2501
 4540SOL    HW225257   3.762   1.037   1.991  1.2105 -0.1341  1.0782
 4541SOL     OW25258   2.260   1.927   5.230 -0.0009  0.0284 -0.2868
 4541SOL    HW125259   2.261   2.011   5.184 -3.2932  0.0006 -0.3969
 4541SOL    HW225260   2.219   1.871   5.164  1.3198  0.6221 -1.6009
 4542SOL     OW25261   0.137   3.832   7.563  0.2877 -0.0563  0.8465
 4542SOL    HW125262   0.115   3.749   7.521  0.3315 -0.2926  1.2913
 4542SOL    HW225263   0.083   3.892   7.511  2.6080 -0.8427 -2.4884
 4543SOL     OW25264   3.691   1.108   6.149 -0.2168  0.3272 -0.2115
 4543SOL    HW125265   3.687   1.106   6.054  0.1600 -0.9625 -0.2086
 4543SOL    HW225266   3.731   1.022   6.165  0.9711  1.0785  0.8941
 4544SOL     OW25267   1.973   3.787   4.384  1.1653 -0.2831  0.0808
 4544SOL    HW125268   1.945   3.696   4.399  0.6943 -0.5176 -2.1788
 4544SOL    HW225269   1.934   3.817   4.466  2.3835 -0.3253  0.6816
 4545SOL     OW25270   3.045   0.703   4.683 -0.5475  0.5794 -0.3119
 4545SOL    HW125271   3.016   0.795   4.680 -0.1980  0.7606  1.4611
 4545SOL    HW225272   3.038   0.670   4.594  1.6693  2.1309 -1.0434
 4546SOL     OW25273   1.450   3.718   2.221 -0.1821  0.1923  0.1282
 4546SOL    HW125274   1.479   3.675   2.141 -1.1549 -0.6578  0.2303
 4546SOL    HW225275   1.364   3.676   2.228 -0.3183  0.7740  1.8766
 4547SOL     OW25276   2.567   3.113  14.878 -0.0566  0.5436  0.0774
 4547SOL    HW125277   2.485   3.119  14.928 -1.3076 -0.3992 -1.8461
 4547SOL    HW225278   2.623   3.096  14.954 -0.4212 -1.5588 -0.1235
 4548SOL     OW25279   2.158   0.201   2.886  0.2542  0.2933 -0.3155
 4548SOL    HW125280   2.180   0.211   2.979 -2.3662 -0.5188  0.3869
 4548SOL    HW225281   2.213   0.269   2.846  0.7410  0.5948  0.8582
 4549SOL     OW25282   2.158   2.452   4.430 -0.2699  0.2740 -0.7162
 4549SOL    HW125283   2.145   2.364   4.395 -1.0410  0.7016 -1.4873
 4549SOL    HW225284   2.227   2.489   4.375 -1.3274  2.2697 -0.7095
 4550SOL     OW25285   3.251   4.390   6.142  0.0600 -1.0729  0.2623
 4550SOL    HW125286   3.244   4.484   6.129  2.6536 -1.1067 -1.5294
 4550SOL    HW225287   3.164   4.358   6.121 -1.0765  1.1516  1.6427
 4551SOL     OW25288   3.124   0.005  15.426  0.0972 -0.2526  0.4325
 4551SOL    HW125289   3.195   0.062  15.399 -0.2630  0.5378  1.1541
 4551SOL    HW225290   3.092   0.060  15.497 -1.2366 -1.5930  0.8671
 4552SOL     OW25291   0.974   4.058  11.623  0.1944  0.1603  0.1584
 4552SOL    HW125292   1.008   4.135  11.667  1.3217 -0.1227 -0.2076
 4552SOL    HW225293   1.052   4.052  11.568 -0.2838  0.4738 -0.5519
 4553SOL     OW25294   2.557   2.466  15.686 -0.0880  0.0985  0.1458
 4553SOL    HW125295   2.502   2.535  15.651  1.8619 -0.3158 -3.6739
 4553SOL    HW225296   2.584   2.414  15.610 -3.2521 -0.1933 -0.7369
 4554SOL     OW25297   1.582   2.112  10.983  0.1710  0.0923  0.6819
 4554SOL    HW125298   1.657   2.068  10.944 -0.1058  0.6202 -0.4447
 4554SOL    HW225299   1.626   2.163  11.051  0.8886 -1.3453  1.2912
 4555SOL     OW25300   2.366   2.638  17.177 -0.0087 -0.2808 -0.4330
 4555SOL    HW125301   2.346   2.544  17.178 -0.6700 -0.1409 -0.2454
 4555SOL    HW225302   2.282   2.669  17.145  1.5920  2.1795 -2.2212
 4556SOL     OW25303   1.420   0.275  16.739  0.2648  0.2111  0.0972
 4556SOL    HW125304   1.346   0.335  16.738  1.4512  1.6867 -1.6075
 4556SOL    HW225305   1.432   0.267  16.644 -1.9013  0.1702 -0.1699
 4557SOL     OW25306   1.009   2.261   2.871  0.3684  0.1513 -0.5771
 4557SOL    HW125307   0.960   2.179   2.867  1.2392 -0.4424  1.1162
 4557SOL    HW225308   0.946   2.305   2.929  2.1632 -2.3168  3.2062
 4558SOL     OW25309   1.621   0.507   5.360 -0.8098  0.4187 -0.1643
 4558SOL    HW125310   1.574   0.551   5.289 -1.0779 -0.8420 -0.7644
 4558SOL    HW225311   1.709   0.542   5.344 -0.7576  1.2160  1.9093
 4559SOL     OW25312   1.222   3.882   4.133 -0.2087 -0.0174 -0.2177
 4559SOL    HW125313   1.297   3.860   4.189  0.2115 -0.1150 -0.8185
 4559SOL    HW225314   1.241   3.818   4.065 -1.0300  0.8018 -1.1988
 4560SOL     OW25315   1.910   4.673   8.026  0.0226 -0.7387 -0.2486
 4560SOL    HW125316   1.968   4.608   7.986 -0.9943 -1.6261 -0.2524
 4560SOL    HW225317   1.888   4.726   7.949  2.7813  2.6995  1.3369
 4561SOL     OW25318   4.378   4.020   4.465  0.0072  0.5041 -0.6882
 4561SOL    HW125319   4.427   4.038   4.385  1.5057  2.1239  0.6316
 4561SOL    HW225320   4.452   4.008   4.523 -1.1586 -0.7252  0.5511
 4562SOL     OW25321   1.624   3.255  12.609  0.2729 -0.2787 -0.2079
 4562SOL    HW125322   1.601   3.338  12.567 -0.6842  0.7152  2.2396
 4562SOL    HW225323   1.595   3.272  12.699  0.0143  0.6669 -0.4638
 4563SOL     OW25324   0.287   2.533   9.010 -0.1040  0.2987  0.4606
 4563SOL    HW125325   0.193   2.541   8.997 -0.6321 -2.4138  2.7043
 4563SOL    HW225326   0.297   2.626   9.031 -1.1969  0.6459 -0.5681
 4564SOL     OW25327   0.641   2.353   1.355 -0.0511 -0.3597  0.2876
 4564SOL    HW125328   0.679   2.400   1.281 -1.2521  1.8157  1.0733
 4564SOL    HW225329   0.552   2.339   1.324  0.0915  2.7633 -1.4906
 4565SOL     OW25330   2.834   0.439  11.732  0.4587  0.5923 -0.0319
 4565SOL    HW125331   2.849   0.345  11.734 -0.5692  0.4205 -0.4634
 4565SOL    HW225332   2.739   0.445  11.729  0.5398  1.1121 -1.7160
 4566SOL     OW25333   3.134   1.479   7.927  0.0847  1.1177 -0.2172
 4566SOL    HW125334   3.039   1.464   7.925 -0.1646  2.3324  1.8455
 4566SOL    HW225335   3.137   1.453   8.019  0.6422  0.2657 -0.4755
 4567SOL     OW25336   1.979   4.636  14.758 -0.1129 -0.2638 -0.2765
 4567SOL    HW125337   1.997   4.687  14.837 -1.3676 -0.8450  0.3818
 4567SOL    HW225338   1.907   4.578  14.780 -1.0597  1.4558  1.0995
 4568SOL     OW25339   1.250   3.384   9.814  0.0774  0.1800  0.0737
 4568SOL    HW125340   1.314   3.428   9.758 -1.8202 -0.7302 -2.7954
 4568SOL    HW225341   1.239   3.444   9.888 -0.7728  1.0264 -0.7273
 4569SOL     OW25342   2.899   2.104  14.945  0.1098  0.4466 -0.8214
 4569SOL    HW125343   2.910   2.020  14.989  0.5284  1.7937  1.6068
 4569SOL    HW225344   2.805   2.100  14.929  0.5811 -1.4764 -3.1929
 4570SOL     OW25345   3.827   4.380   2.910 -0.6005  0.3249  0.5194
 4570SOL    HW125346   3.879   4.316   2.861  0.0986  2.7401 -1.8809
 4570SOL    HW225347   3.893   4.416   2.969 -0.5523 -0.4890  0.9630
 4571SOL     OW25348   1.063   1.796   3.539 -0.4730  0.1018  0.3591
 4571SOL    HW125349   1.056   1.882   3.497 -1.6598 -0.1996 -0.0664
 4571SOL    HW225350   1.141   1.764   3.493 -1.7296 -1.5945 -0.6146
 4572SOL     OW25351   4.309   3.619  12.581 -0.6627  0.1191 -0.1065
 4572SOL    HW125352   4.393   3.575  12.594  0.3667  1.6820 -1.4333
 4572SOL    HW225353   4.341   3.703  12.549  2.2475 -0.6302  0.8260
 4573SOL     OW25354   4.351   1.323   6.724 -0.1720 -0.0376  0.2041
 4573SOL    HW125355   4.272   1.376   6.715 -0.5172 -0.7415 -0.9467
 4573SOL    HW225356   4.303   1.252   6.767 -0.0909 -1.0953 -1.4448
 4574SOL     OW25357   2.995   1.168   5.794  0.2761 -0.4964 -0.0853
 4574SOL    HW125358   2.929   1.237   5.803 -0.3528 -1.2349  0.8740
 4574SOL    HW225359   3.018   1.193   5.705  0.2107 -1.7833 -0.4601
 4575SOL     OW25360   2.423   2.555   8.643 -0.3600 -0.4706 -0.0955
 4575SOL    HW125361   2.392   2.471   8.608 -0.7376 -1.4831  2.6454
 4575SOL    HW225362   2.492   2.529   8.704 -0.1215  1.9993  0.6842
 4576SOL     OW25363   0.950   2.043   9.970  0.2360  0.2081  0.1526
 4576SOL    HW125364   0.980   2.132   9.954  0.3039  0.0915 -0.3681
 4576SOL    HW225365   1.004   1.988   9.912  0.0830  1.2326 -0.9685
 4577SOL     OW25366   0.758   4.041   7.427  0.2170 -0.2523  0.3938
 4577SOL    HW125367   0.811   3.962   7.437 -2.5529 -1.9942  1.0626
 4577SOL    HW225368   0.681   4.006   7.382  0.1446  2.8935 -1.9594
 4578SOL     OW25369   0.373   3.418   4.461 -0.1409 -0.1509 -0.6326
 4578SOL    HW125370   0.324   3.491   4.422 -0.2457 -0.1413 -0.4806
 4578SOL    HW225371   0.329   3.411   4.546  1.5306 -0.0492  0.2384
 4579SOL     OW25372   3.570   0.678   8.849  0.1906 -0.2237  0.0021
 4579SOL    HW125373   3.666   0.676   8.849  0.1775 -1.4451  0.7200
 4579SOL    HW225374   3.554   0.732   8.772  1.0029  1.0518  0.7292
 4580SOL     OW25375   3.758   3.969  12.290 -0.1380 -0.3467 -0.1087
 4580SOL    HW125376   3.824   4.035  12.313 -1.7454  0.6458  1.6993
 4580SOL    HW225377   3.681   4.023  12.309 -0.0695 -0.4691  0.5321
 4581SOL     OW25378   0.943   0.526  12.596 -0.6263 -0.2684 -0.4251
 4581SOL    HW125379   0.872   0.572  12.640 -0.2405 -0.2831  0.2003
 4581SOL    HW225380   0.923   0.550  12.505 -3.0199  2.4072  0.7957
 4582SOL     OW25381   2.247   4.698   7.537  0.5692  0.4397 -0.1094
 4582SOL    HW125382   2.286   4.663   7.617  1.0345  0.7661 -0.1931
 4582SOL    HW225383   2.323   0.008   7.503 -1.3565  1.8296 -2.5075
 4583SOL     OW25384   1.474   0.077   2.465 -0.2412 -0.0784 -0.4858
 4583SOL    HW125385   1.429   0.005   2.419 -0.6509 -2.3383  3.4738
 4583SOL    HW225386   1.404   0.133   2.497 -1.3577 -3.6373  3.3251
 4584SOL     OW25387   1.458   1.848   0.754  0.1236  0.1793  0.0190
 4584SOL    HW125388   1.399   1.919   0.730  1.7621  1.4996 -0.0787
 4584SOL    HW225389   1.476   1.881   0.842 -0.1844 -1.4251  0.6850
 4585SOL     OW25390   2.128   4.353   1.494  1.0144 -0.2573 -0.2556
 4585SOL    HW125391   2.181   4.275   1.507  0.2462 -0.8817 -0.8222
 4585SOL    HW225392   2.169   4.412   1.557 -1.2951 -1.1603  2.1089
 4586SOL     OW25393   3.119   3.430   1.122 -0.0430 -0.2447  0.4151
 4586SOL    HW125394   3.160   3.344   1.127  2.5510  0.8047 -3.0292
 4586SOL    HW225395   3.088   3.428   1.031  1.2060  1.6385 -0.0467
 4587SOL     OW25396   4.226   2.499   5.232 -0.0496  0.5726  0.2023
 4587SOL    HW125397   4.237   2.404   5.231  1.3918  0.7506 -1.1772
 4587SOL    HW225398   4.278   2.522   5.154  1.7053 -4.4145 -0.0806
 4588SOL     OW25399   3.031   2.753   2.265  0.4923 -0.4561  0.0135
 4588SOL    HW125400   2.943   2.735   2.299  0.8122 -1.9277  0.0857
 4588SOL    HW225401   3.017   2.840   2.229  2.7207 -0.2086 -0.2498
 4589SOL     OW25402   1.859   1.703   4.863  0.3489 -0.0836 -0.6031
 4589SOL    HW125403   1.816   1.695   4.778 -0.2697 -0.2478 -0.2744
 4589SOL    HW225404   1.778   1.701   4.915 -0.0240 -1.0353 -1.2218
 4590SOL     OW25405   1.851   2.081  15.842  0.2351 -0.2789 -0.2202
 4590SOL    HW125406   1.765   2.057  15.878 -0.1017  0.8054 -0.2927
 4590SOL    HW225407   1.845   2.174  15.862 -0.8538 -0.0400 -1.5905
 4591SOL     OW25408   2.173   0.587   5.701 -0.4089 -0.6426 -0.2160
 4591SOL    HW125409   2.198   0.515   5.759 -0.8089 -2.6364 -2.5627
 4591SOL    HW225410   2.094   0.624   5.742 -1.4657 -2.5270 -0.5543
 4592SOL     OW25411   3.144   1.672   5.588  0.2538 -0.1989 -0.9599
 4592SOL    HW125412   3.233   1.637   5.580  0.1439 -0.4234 -1.1825
 4592SOL    HW225413   3.126   1.649   5.497 -2.1252  2.6011 -1.1938
 4593SOL     OW25414   3.718   1.732   3.340 -0.9003 -0.3013 -0.3227
 4593SOL    HW125415   3.669   1.762   3.264  1.6101 -0.7016 -2.0956
 4593SOL    HW225416   3.702   1.806   3.398 -1.8333 -0.5239 -0.2952
 4594SOL     OW25417   3.887   1.650   1.496 -0.1021  0.1390 -0.0880
 4594SOL    HW125418   3.834   1.728   1.480  2.9415  2.0977 -0.6703
 4594SOL    HW225419   3.832   1.612   1.564 -0.8542  1.5626  0.1111
 4595SOL     OW25420   3.751   1.573   9.402  0.2489  0.2364 -0.1439
 4595SOL    HW125421   3.698   1.640   9.360 -2.8300 -1.7069  0.6690
 4595SOL    HW225422   3.685   1.523   9.449 -0.5197  2.7503  1.4403
 4596SOL     OW25423   2.735   3.373  14.988 -0.2835  0.4945  0.0131
 4596SOL    HW125424   2.766   3.454  15.029 -1.0196  0.6333  0.2863
 4596SOL    HW225425   2.764   3.392  14.899 -0.9882  0.6807 -0.1748
 4597SOL     OW25426   2.026   2.304   8.888  0.4118 -0.5590  0.0521
 4597SOL    HW125427   2.088   2.367   8.851  1.7903 -0.2520  2.8471
 4597SOL    HW225428   2.018   2.260   8.803  1.7880 -0.4212 -0.1555
 4598SOL     OW25429   3.589   1.756  13.053  0.3765 -0.2572  0.1860
 4598SOL    HW125430   3.613   1.665  13.066 -0.5914 -0.2880  1.7042
 4598SOL    HW225431   3.545   1.763  13.137  1.0874 -1.5015  0.6550
 4599SOL     OW25432   2.650   1.042  14.491  0.2330  0.4185 -0.1589
 4599SOL    HW125433   2.601   1.055  14.410 -0.0791  0.8136  0.0944
 4599SOL    HW225434   2.718   0.984  14.456 -0.5051 -1.0675  0.8701
 4600SOL     OW25435   4.329   4.160  17.538  0.2231  0.1301 -0.5783
 4600SOL    HW125436   4.277   4.215  17.597  1.2319  1.5423 -0.9925
 4600SOL    HW225437   4.273   4.151  17.461  0.4071  1.5210 -0.8907
 4601SOL     OW25438   1.799   4.354   8.217 -0.4847  0.0823  0.5563
 4601SOL    HW125439   1.784   4.448   8.216 -2.5648 -0.2327  1.0801
 4601SOL    HW225440   1.858   4.342   8.290  0.9073  0.2961 -0.5337
 4602SOL     OW25441   1.497   0.254  15.692 -0.4311 -0.0703 -0.1733
 4602SOL    HW125442   1.419   0.226  15.643 -0.2313 -0.2911 -0.3646
 4602SOL    HW225443   1.451   0.314  15.750  0.0464  0.5850 -0.4744
 4603SOL     OW25444   0.042   2.118   3.703  0.0083  0.2214 -0.2028
 4603SOL    HW125445   0.004   2.041   3.660 -0.6625 -0.0209  0.8148
 4603SOL    HW225446   4.716   2.154   3.766 -0.2067  0.3748 -0.5068
 4604SOL     OW25447   2.580   3.660   7.781 -0.2034 -0.0266  0.2170
 4604SOL    HW125448   2.484   3.661   7.784 -0.2326  0.2361 -0.8935
 4604SOL    HW225449   2.581   3.660   7.685 -0.5544  0.5954  0.2144
 4605SOL     OW25450   0.208   2.506   5.561  0.7997  0.1012  0.9269
 4605SOL    HW125451   0.130   2.554   5.590  0.7278  0.4252  0.2072
 4605SOL    HW225452   0.278   2.556   5.602 -0.2101  3.0091 -0.8425
 4606SOL     OW25453   2.679   2.264  15.022 -0.0215 -0.3397 -0.5404
 4606SOL    HW125454   2.596   2.245  14.979 -0.3462 -0.3821  0.1039
 4606SOL    HW225455   2.738   2.302  14.957 -1.4778  0.9742 -1.0892
 4607SOL     OW25456   1.744   3.847  15.783  0.0591 -0.7680  0.6845
 4607SOL    HW125457   1.806   3.890  15.841 -0.9158 -0.9774  1.8895
 4607SOL    HW225458   1.737   3.762  15.827 -4.7264 -0.7002  0.0755
 4608SOL     OW25459   1.437   4.404   4.873  0.0213  0.0116 -0.0457
 4608SOL    HW125460   1.346   4.423   4.849 -0.3366 -0.4287  0.9608
 4608SOL    HW225461   1.441   4.402   4.969 -0.0781 -0.2946 -0.0487
 4609SOL     OW25462   4.303   4.207  12.667 -0.0399  0.3989  0.6628
 4609SOL    HW125463   4.302   4.179  12.758  0.9288 -1.2195  0.1929
 4609SOL    HW225464   4.319   4.301  12.675  1.7429  0.1853 -0.2592
 4610SOL     OW25465   3.016   0.200  12.699  0.0941  0.2156  0.0454
 4610SOL    HW125466   2.977   0.183  12.613  1.0589  4.0707 -1.1483
 4610SOL    HW225467   2.949   0.261  12.731  0.1133  1.4917 -2.3931
 4611SOL     OW25468   0.362   0.799   2.335 -0.1491 -0.6245  0.0501
 4611SOL    HW125469   0.319   0.883   2.349  0.0655 -0.6788  1.0359
 4611SOL    HW225470   0.439   0.818   2.281  0.2123 -2.1555  0.0233
 4612SOL     OW25471   3.106   1.374   3.212 -0.0822 -0.5356 -0.1365
 4612SOL    HW125472   3.142   1.414   3.291 -2.2728 -0.8608  0.9976
 4612SOL    HW225473   3.053   1.301   3.244 -0.9452  0.1372 -0.0268
 4613SOL     OW25474   3.268   4.070  12.005 -0.0427 -0.3899 -0.1026
 4613SOL    HW125475   3.333   4.031  12.062  1.5109  2.2028 -0.0903
 4613SOL    HW225476   3.315   4.106  11.929  0.9065 -1.5351 -0.0663
 4614SOL     OW25477   3.888   1.282  14.021  0.1055  0.3735  0.2110
 4614SOL    HW125478   3.806   1.242  13.990 -0.5793  2.1107 -0.2174
 4614SOL    HW225479   3.957   1.228  13.982 -2.5246 -2.0154 -1.0798
 4615SOL     OW25480   4.048   2.457   4.263 -0.3166 -0.0064 -0.4326
 4615SOL    HW125481   4.140   2.431   4.255  0.0484  0.8040  1.0216
 4615SOL    HW225482   4.008   2.412   4.338 -1.0539 -1.4402 -1.6743
 4616SOL     OW25483   1.120   2.378   9.521 -0.3726  0.8319  0.1155
 4616SOL    HW125484   1.131   2.419   9.435 -1.6155  1.5808  0.3102
 4616SOL    HW225485   1.034   2.340   9.503  0.5895 -0.1484 -2.3524
 4617SOL     OW25486   3.501   3.138   3.035 -0.0286  0.5634  0.1736
 4617SOL    HW125487   3.491   3.054   3.080  3.1101  1.1014  1.8834
 4617SOL    HW225488   3.575   3.178   3.083 -0.2929  1.3290 -0.0509
 4618SOL     OW25489   1.020   0.146   7.549 -0.3386  0.3114  0.2045
 4618SOL    HW125490   1.049   0.235   7.529  0.8289  0.3311  1.9505
 4618SOL    HW225491   1.065   0.101   7.477  0.4328  1.1066  0.1888
 4619SOL     OW25492   1.189   1.240   7.272 -1.0455  0.1586 -0.2669
 4619SOL    HW125493   1.283   1.259   7.272 -0.5061 -2.6032  0.1909
 4619SOL    HW225494   1.186   1.146   7.254 -0.7207  0.1868 -0.4560
 4620SOL     OW25495   1.047   3.802   4.946 -0.0491 -0.0934 -0.4030
 4620SOL    HW125496   1.140   3.778   4.946 -0.6394 -2.3224  0.7226
 4620SOL    HW225497   0.998   3.724   4.921  0.2631  0.1643 -1.8683
 4621SOL     OW25498   1.845   0.869  10.776 -0.0369 -0.0014  0.2532
 4621SOL    HW125499   1.763   0.884  10.729  1.5824  1.6820 -2.0349
 4621SOL    HW225500   1.868   0.785  10.736 -1.1468 -0.5228  0.7003
 4622SOL     OW25501   2.479   3.048   2.525 -0.2889  0.6990 -0.0163
 4622SOL    HW125502   2.389   3.050   2.494  0.1412 -0.5403 -1.3332
 4622SOL    HW225503   2.480   2.998   2.607  2.8219  1.5184  0.4580
 4623SOL     OW25504   2.295   0.609   2.234  0.4086 -0.0374  0.3725
 4623SOL    HW125505   2.255   0.615   2.147  1.3481  5.1601  0.3353
 4623SOL    HW225506   2.381   0.577   2.207 -0.0797 -0.3147 -0.9030
 4624SOL     OW25507   2.038   4.489  11.462  0.3216 -0.3029  0.1973
 4624SOL    HW125508   2.023   4.531  11.378  2.6290  1.7287  0.7943
 4624SOL    HW225509   2.091   4.418  11.427  0.6088 -0.3063  0.6274
 4625SOL     OW25510   2.342   0.461   5.374  0.6306 -0.3871  0.1530
 4625SOL    HW125511   2.391   0.531   5.417 -0.7678  0.8791 -0.3234
 4625SOL    HW225512   2.423   0.413   5.360  0.1228 -1.5866  1.2945
 4626SOL     OW25513   0.619   4.294   3.989 -0.1897 -0.5030  0.3271
 4626SOL    HW125514   0.629   4.223   3.926  1.8650 -0.1230  0.2220
 4626SOL    HW225515   0.637   4.368   3.930  1.4309 -0.0686  1.3687
 4627SOL     OW25516   1.788   2.195   4.267 -0.2297 -0.0092 -0.1482
 4627SOL    HW125517   1.826   2.203   4.180 -1.5907  1.0780 -0.6364
 4627SOL    HW225518   1.754   2.284   4.278 -2.2592 -0.9972  1.7094
 4628SOL     OW25519   2.820   0.645  12.740  0.2200 -0.1428  0.0355
 4628SOL    HW125520   2.811   0.646  12.645  0.1231 -1.5813  0.0389
 4628SOL    HW225521   2.732   0.661  12.773  0.6065  1.6243  0.2249
 4629SOL     OW25522   0.992   3.325   7.110 -0.2926  0.6674  0.0543
 4629SOL    HW125523   1.054   3.395   7.090 -0.2653  0.5330 -0.3336
 4629SOL    HW225524   0.919   3.372   7.151 -0.0033  0.8951  0.2988
 4630SOL     OW25525   4.664   4.142   7.148 -0.4223  0.6056  0.5377
 4630SOL    HW125526   4.718   4.142   7.069 -0.0890  0.4945  0.7702
 4630SOL    HW225527   4.598   4.208   7.126 -2.0745 -1.4671 -0.8691
 4631SOL     OW25528   2.878   2.061  17.562  0.2432 -0.4304  0.1419
 4631SOL    HW125529   2.832   2.145  17.566  0.1989 -0.4213 -0.4468
 4631SOL    HW225530   2.817   2.003  17.608 -1.3844 -0.4895 -2.0648
 4632SOL     OW25531   2.922   0.063  11.438  0.0599 -0.5807 -0.2162
 4632SOL    HW125532   2.883   0.133  11.386  1.6828  1.3291  1.1294
 4632SOL    HW225533   2.844   0.014  11.464 -1.5046  1.7637 -0.5262
 4633SOL     OW25534   0.161   0.507   1.605  0.1846 -0.2337 -0.0759
 4633SOL    HW125535   0.072   0.531   1.628  0.2009  1.2226 -1.5087
 4633SOL    HW225536   0.170   0.436   1.668 -1.3296 -0.2837  0.0815
 4634SOL     OW25537   1.162   4.631   3.594 -0.6940  0.1069 -0.3553
 4634SOL    HW125538   1.164   4.599   3.684  2.0211 -1.6592 -1.0342
 4634SOL    HW225539   1.205   4.716   3.607 -0.2591 -0.1128 -0.3476
 4635SOL     OW25540   2.415   1.778   8.121  0.0148 -0.0655 -0.1015
 4635SOL    HW125541   2.321   1.782   8.141  0.0861  2.1836 -0.2523
 4635SOL    HW225542   2.425   1.683   8.119 -3.4132 -0.4142 -0.4512
 4636SOL     OW25543   4.685   0.333  16.607 -0.0549 -0.0242  0.4951
 4636SOL    HW125544   4.720   0.248  16.633 -2.1231 -0.8247  0.7257
 4636SOL    HW225545   4.593   0.315  16.589  0.3410 -1.8806  0.3257
 4637SOL     OW25546   2.123   2.167   3.770  0.1632 -0.1810 -0.3864
 4637SOL    HW125547   2.134   2.194   3.861  0.5670 -0.0612 -0.4741
 4637SOL    HW225548   2.206   2.121   3.759  0.2214 -0.0718 -0.4002
 4638SOL     OW25549   1.512   0.959  15.671 -0.4050  0.3897 -0.5867
 4638SOL    HW125550   1.499   1.023  15.601 -0.6779  1.1020  0.1056
 4638SOL    HW225551   1.441   0.896  15.659 -0.7151  0.4946  0.6818
 4639SOL     OW25552   2.433   0.369   6.034  0.5886  0.6516  0.1485
 4639SOL    HW125553   2.411   0.319   6.112 -1.6248 -0.2484 -1.0545
 4639SOL    HW225554   2.522   0.398   6.058  0.5704  1.8185 -1.1481
 4640SOL     OW25555   4.410   2.908   0.378 -0.4643 -0.0140  0.1345
 4640SOL    HW125556   4.496   2.915   0.338 -0.3566  0.4536  0.4427
 4640SOL    HW225557   4.381   2.819   0.359 -0.0545 -0.3115  0.8873
 4641SOL     OW25558   0.893   0.513   2.342 -0.2108 -0.0433 -0.0060
 4641SOL    HW125559   0.916   0.560   2.422  2.1328 -0.3595 -0.4883
 4641SOL    HW225560   0.870   0.586   2.284 -2.4301  0.4233  1.4494
 4642SOL     OW25561   2.793   2.346   3.565  0.3925 -0.6584  0.2579
 4642SOL    HW125562   2.764   2.413   3.504  1.4972 -0.9459 -0.5901
 4642SOL    HW225563   2.841   2.399   3.629 -2.9341  1.6942  0.7942
 4643SOL     OW25564   4.305   0.122   7.190  0.0306 -0.2425  0.0090
 4643SOL    HW125565   4.385   0.159   7.227 -1.1630  3.3209 -0.9976
 4643SOL    HW225566   4.250   0.111   7.268 -0.0532 -0.4804 -0.0848
 4644SOL     OW25567   2.804   4.474   1.393  0.3356 -0.1623  0.2031
 4644SOL    HW125568   2.867   4.506   1.457 -0.5074  0.6585  0.6171
 4644SOL    HW225569   2.774   4.400   1.446  0.2204 -0.0285  0.3234
 4645SOL     OW25570   0.723   3.535  14.011  0.2859  0.0624  0.0777
 4645SOL    HW125571   0.687   3.551  14.099  2.1984 -0.2208  0.9100
 4645SOL    HW225572   0.640   3.512  13.969  0.6595  2.1507 -1.8118
 4646SOL     OW25573   0.498   1.670   7.493 -0.0139  0.0550 -0.0336
 4646SOL    HW125574   0.568   1.728   7.465  1.4878 -1.5744  0.3669
 4646SOL    HW225575   0.425   1.732   7.500 -0.1359  0.1201 -1.9179
 4647SOL     OW25576   1.667   1.921  10.677  0.4953  1.0259 -0.3174
 4647SOL    HW125577   1.708   1.929  10.591 -1.3766 -1.8002 -1.4842
 4647SOL    HW225578   1.580   1.958  10.662  0.5048  0.8167 -0.8889
 4648SOL     OW25579   4.285   3.255  12.502 -0.5696 -0.3188 -0.1841
 4648SOL    HW125580   4.249   3.332  12.458 -1.5461 -0.8985 -0.3960
 4648SOL    HW225581   4.202   3.231  12.542  0.5065 -1.3287  1.4474
 4649SOL     OW25582   0.135   3.441   6.912 -0.0588  0.0693  0.3806
 4649SOL    HW125583   0.208   3.430   6.850  0.1759 -0.8306  0.8075
 4649SOL    HW225584   0.144   3.364   6.969  0.4179  0.4032  0.7546
 4650SOL     OW25585   2.759   1.494  13.492 -0.3072 -0.0577 -0.4659
 4650SOL    HW125586   2.720   1.465  13.409  1.1119  1.3551 -1.6192
 4650SOL    HW225587   2.850   1.498  13.464 -0.0460  0.9451  0.5295
 4651SOL     OW25588   0.366   3.333   5.826  0.1919 -0.0772  0.0800
 4651SOL    HW125589   0.454   3.347   5.860 -1.0395  2.3105  2.3275
 4651SOL    HW225590   0.388   3.375   5.742 -3.9966 -1.0245 -1.4859
 4652SOL     OW25591   4.732   2.301  11.511 -0.3297  0.2208  0.9967
 4652SOL    HW125592   4.643   2.285  11.543  0.2178  0.3821  2.6103
 4652SOL    HW225593   0.029   2.358  11.580 -1.4111  2.4946 -0.3730
 4653SOL     OW25594   0.200   0.038   9.596  0.3103 -0.3771  0.4780
 4653SOL    HW125595   0.186   0.121   9.643  0.8955 -0.2662  0.4486
 4653SOL    HW225596   0.264   4.735   9.654 -1.6341 -1.3363  1.9804
 4654SOL     OW25597   3.646   0.233  13.786  0.6833  0.5929 -0.0699
 4654SOL    HW125598   3.629   0.235  13.880  1.0032 -1.8944  0.0363
 4654SOL    HW225599   3.644   0.326  13.764 -1.5756  0.5652  0.0348
 4655SOL     OW25600   1.294   0.878   7.688  0.1932  0.0434 -0.5661
 4655SOL    HW125601   1.271   0.827   7.765  1.1858 -0.0127 -0.3022
 4655SOL    HW225602   1.256   0.829   7.616 -0.5447 -0.2554  0.0256
 4656SOL     OW25603   2.546   3.493   7.001  0.2386 -0.1787  0.1645
 4656SOL    HW125604   2.522   3.443   6.923  1.5661 -1.7069  0.7338
 4656SOL    HW225605   2.637   3.466   6.991  0.7460  0.7817  2.1458
 4657SOL     OW25606   4.190   3.982   5.813  0.0383  0.2280  0.4922
 4657SOL    HW125607   4.127   3.959   5.745 -0.6543  0.2669  1.1263
 4657SOL    HW225608   4.144   4.043   5.871  1.6422  1.4442  0.4778
 4658SOL     OW25609   4.661   4.472   2.528  0.3184  0.0663 -0.0775
 4658SOL    HW125610   4.610   4.501   2.452 -0.9217 -1.7437  0.0470
 4658SOL    HW225611   0.008   4.459   2.483 -0.1146  0.9032 -1.1421
 4659SOL     OW25612   4.193   4.164   9.729 -0.0444 -0.5089 -0.1484
 4659SOL    HW125613   4.166   4.236   9.785  2.3496 -0.1424  0.4988
 4659SOL    HW225614   4.155   4.195   9.646  0.8273 -1.0525 -0.7577
 4660SOL     OW25615   1.687   4.137   3.114  0.6442 -0.6183 -0.6942
 4660SOL    HW125616   1.775   4.172   3.125  0.7564 -1.3163  0.7091
 4660SOL    HW225617   1.642   4.197   3.173  1.8362  1.4832 -1.9162
 4661SOL     OW25618   1.546   1.078  10.011  0.0536 -0.5990  0.4617
 4661SOL    HW125619   1.627   1.111  10.048  0.4153 -0.3448 -0.5473
 4661SOL    HW225620   1.482   1.127  10.063 -0.5466 -1.4425  0.5307
 4662SOL     OW25621   0.030   3.491   6.659  0.1466  0.9143 -0.8293
 4662SOL    HW125622   0.070   3.510   6.744  0.2754 -2.0450 -0.2355
 4662SOL    HW225623   4.731   3.403   6.666  1.2010  0.4705 -1.0105
 4663SOL     OW25624   0.880   1.866   4.190  0.0408  0.0871 -0.7927
 4663SOL    HW125625   0.860   1.773   4.179 -3.5745  1.1902 -3.4582
 4663SOL    HW225626   0.818   1.902   4.127  0.3552  2.4722  0.2891
 4664SOL     OW25627   1.110   1.584   3.011 -0.3233  0.2260 -0.6174
 4664SOL    HW125628   1.146   1.670   3.031 -0.4921  0.0065  0.6453
 4664SOL    HW225629   1.063   1.596   2.928  0.6275  0.6839 -1.0906
 4665SOL     OW25630   4.370   3.334  12.022  0.5667  0.1827 -0.6042
 4665SOL    HW125631   4.383   3.246  11.988  1.4536  0.0986 -0.0453
 4665SOL    HW225632   4.455   3.369  12.047  1.3888 -2.7675  0.7720
 4666SOL     OW25633   1.525   1.065   7.447 -0.0533  0.4989 -0.5594
 4666SOL    HW125634   1.439   1.102   7.465  0.4720  0.4346  2.0308
 4666SOL    HW225635   1.513   1.038   7.356  4.2039 -2.0054 -0.3826
 4667SOL     OW25636   2.064   0.334  15.562 -0.1971 -0.0043 -0.7736
 4667SOL    HW125637   2.015   0.415  15.549 -0.1781 -0.3727 -3.2876
 4667SOL    HW225638   2.003   0.263  15.540  0.0625 -0.7359  0.8809
 4668SOL     OW25639   3.905   3.715  12.318  0.0458 -0.0740 -0.1925
 4668SOL    HW125640   3.865   3.798  12.291  0.7905 -0.0327 -1.1906
 4668SOL    HW225641   3.899   3.658  12.242  0.5568  0.8507 -0.9334
 4669SOL     OW25642   2.631   0.943   4.336  0.0933  0.1207  0.3440
 4669SOL    HW125643   2.612   1.028   4.374 -2.4380 -0.2560 -0.1309
 4669SOL    HW225644   2.558   0.948   4.275  0.9427 -0.9756 -0.7764
 4670SOL     OW25645   0.794   1.181   7.533 -0.0632 -0.7051 -0.0999
 4670SOL    HW125646   0.853   1.255   7.542 -1.7282  0.9671 -2.9100
 4670SOL    HW225647   0.742   1.199   7.454  2.1592  1.3505 -1.1071
 4671SOL     OW25648   1.791   3.491   6.891 -0.1880 -0.3089  0.2737
 4671SOL    HW125649   1.845   3.567   6.914  1.6277 -2.1744  2.1740
 4671SOL    HW225650   1.856   3.422   6.893  0.4864  0.3258  0.1938
 4672SOL     OW25651   3.732   2.454   3.950  0.2124 -0.2741 -0.3970
 4672SOL    HW125652   3.814   2.407   3.964  0.2985  0.4521  1.4918
 4672SOL    HW225653   3.739   2.471   3.856  0.0787  0.1039 -0.3379
 4673SOL     OW25654   0.784   0.737  11.352  0.0530 -0.7077  0.1102
 4673SOL    HW125655   0.851   0.780  11.299 -0.1099 -2.5250 -1.6000
 4673SOL    HW225656   0.733   0.814  11.376  1.5372  0.5606 -0.8392
 4674SOL     OW25657   2.016   3.971   6.521  0.2205  0.5094  0.4299
 4674SOL    HW125658   1.959   4.015   6.583  0.0575 -0.0529  0.6737
 4674SOL    HW225659   2.092   3.956   6.577  0.9012 -0.4865 -0.7530
 4675SOL     OW25660   0.141   0.475   2.797 -0.3765 -0.7478  0.0200
 4675SOL    HW125661   0.141   0.533   2.721  1.7141 -1.7271 -0.7240
 4675SOL    HW225662   0.052   0.443   2.807 -0.7667  0.1601 -0.5438
 4676SOL     OW25663   4.464   3.841   8.696  0.1105 -0.0970  0.2325
 4676SOL    HW125664   4.551   3.826   8.735  0.5837  1.1863 -0.3206
 4676SOL    HW225665   4.424   3.759   8.726 -0.5563  0.1979  0.1208
 4677SOL     OW25666   1.092   3.077   7.052 -0.0301 -0.6577  0.4153
 4677SOL    HW125667   1.066   3.035   7.133 -0.3311 -4.6616 -1.7579
 4677SOL    HW225668   1.068   3.168   7.068 -3.4013 -1.3297 -0.9108
 4678SOL     OW25669   3.396   1.883   1.060  0.0736  0.1246  0.1843
 4678SOL    HW125670   3.428   1.824   0.992 -1.0673 -1.0927  0.7219
 4678SOL    HW225671   3.449   1.863   1.137  0.8831  0.3298 -0.3158
 4679SOL     OW25672   4.646   0.461   9.063 -0.3569 -0.5246  0.1651
 4679SOL    HW125673   4.609   0.378   9.033  0.5814 -0.5868 -0.8382
 4679SOL    HW225674   4.574   0.511   9.026  0.6401 -0.9201 -2.3652
 4680SOL     OW25675   0.509   3.267   0.864 -0.1657 -0.0274  0.1361
 4680SOL    HW125676   0.521   3.182   0.908 -0.8491 -0.1753  0.0229
 4680SOL    HW225677   0.437   3.246   0.806  1.7076  1.8891 -2.8878
 4681SOL     OW25678   1.536   4.537   1.638  0.0669 -0.6241 -0.0706
 4681SOL    HW125679   1.576   4.599   1.577 -1.7002 -0.4031 -0.9843
 4681SOL    HW225680   1.444   4.563   1.632  0.6338  1.6448  0.7356
 4682SOL     OW25681   3.636   2.421   6.363 -0.1390 -0.1505 -0.4629
 4682SOL    HW125682   3.595   2.343   6.327 -1.0784 -1.8108  4.1410
 4682SOL    HW225683   3.684   2.380   6.436  1.3854 -0.0689 -1.4101
 4683SOL     OW25684   1.252   3.077   8.402  0.1913 -0.4264 -0.2701
 4683SOL    HW125685   1.205   3.088   8.484  2.0555  2.0827  0.4767
 4683SOL    HW225686   1.344   3.080   8.431  0.0708  1.8173 -0.1043
 4684SOL     OW25687   2.266   4.337   1.919  0.5545  0.3206 -0.3006
 4684SOL    HW125688   2.242   4.390   1.994 -1.8718 -1.3744  0.1322
 4684SOL    HW225689   2.341   4.376   1.874 -1.0952  2.9367 -0.7671
 4685SOL     OW25690   0.754   1.248   2.296 -0.0978  0.0885 -0.1799
 4685SOL    HW125691   0.675   1.252   2.350  0.5922  0.2533  0.8191
 4685SOL    HW225692   0.717   1.261   2.208 -0.9187  2.6720  0.5667
 4686SOL     OW25693   4.407   3.438   7.150 -0.0823 -0.4168 -0.4265
 4686SOL    HW125694   4.444   3.477   7.070  1.9564 -1.5472 -0.0115
 4686SOL    HW225695   4.434   3.347   7.147  1.2160 -0.0526  0.2516
 4687SOL     OW25696   1.252   4.123   9.134  0.8629  0.1033 -0.0241
 4687SOL    HW125697   1.179   4.148   9.077  2.1412  0.7654 -1.3761
 4687SOL    HW225698   1.259   4.207   9.179 -0.0526  0.5209 -0.6527
 4688SOL     OW25699   0.966   2.461   5.721  0.5245 -0.9127 -0.4170
 4688SOL    HW125700   0.995   2.406   5.649  0.7340 -0.9023 -0.3404
 4688SOL    HW225701   0.877   2.473   5.687  0.2559 -2.4827 -0.2544
 4689SOL     OW25702   1.725   2.429   7.322  0.7322 -0.3103  0.0859
 4689SOL    HW125703   1.661   2.437   7.251  0.1401 -0.3558  0.6131
 4689SOL    HW225704   1.728   2.337   7.349 -0.3321  0.2087  2.0056
 4690SOL     OW25705   0.320   3.024   2.326 -0.2551  0.2076  0.3419
 4690SOL    HW125706   0.294   2.961   2.258 -0.0927  0.1221  0.3581
 4690SOL    HW225707   0.339   3.098   2.268  1.3991 -0.2353  0.3081
 4691SOL     OW25708   2.794   2.497  13.414 -0.3201 -0.3133  0.3100
 4691SOL    HW125709   2.718   2.454  13.374  1.0479 -0.4807 -2.0899
 4691SOL    HW225710   2.854   2.423  13.416 -0.9879 -0.8717 -0.0544
 4692SOL     OW25711   3.111   0.456  13.115 -0.3426 -0.3669  0.3842
 4692SOL    HW125712   3.083   0.543  13.087 -1.5707 -0.6738  0.6305
 4692SOL    HW225713   3.036   0.417  13.161 -0.0023 -1.5539 -0.0817
 4693SOL     OW25714   3.342   2.589   6.776  0.7930  0.5039  0.6790
 4693SOL    HW125715   3.274   2.651   6.748  0.6579  0.9970  2.1240
 4693SOL    HW225716   3.312   2.509   6.734  1.4310  1.2342 -1.1884
 4694SOL     OW25717   2.389   0.116   7.029  0.7370  0.2097 -0.9798
 4694SOL    HW125718   2.479   0.099   7.060 -0.3328 -1.4049  1.3306
 4694SOL    HW225719   2.392   0.210   7.012  0.7413  0.3971  0.0579
 4695SOL     OW25720   2.435   2.299  13.978  0.4185  0.3353 -0.3134
 4695SOL    HW125721   2.522   2.295  14.019  0.6401 -1.4577 -0.9274
 4695SOL    HW225722   2.460   2.337  13.894  1.0643 -1.1483 -0.8031
 4696SOL     OW25723   4.432   2.649  14.419 -0.0831  0.0522 -0.1497
 4696SOL    HW125724   4.397   2.734  14.396  0.3784  0.1192 -0.6033
 4696SOL    HW225725   4.470   2.666  14.505  0.7349 -1.3460 -0.2257
 4697SOL     OW25726   3.983   1.718   3.690  0.4486 -0.0796  0.0358
 4697SOL    HW125727   4.024   1.695   3.773  1.2881  1.6300  0.0850
 4697SOL    HW225728   4.007   1.646   3.631 -0.4096  0.4433 -0.9495
 4698SOL     OW25729   0.184   3.049  16.474  0.2127  0.1759  0.1964
 4698SOL    HW125730   0.234   3.025  16.396 -2.0486 -1.8564 -0.6020
 4698SOL    HW225731   0.093   3.049  16.447  0.6286  1.2638 -1.2356
 4699SOL     OW25732   0.787   0.423   6.853 -0.5009 -0.0366  0.4237
 4699SOL    HW125733   0.880   0.412   6.874  0.3293  0.0534 -3.0491
 4699SOL    HW225734   0.785   0.365   6.776 -0.0766 -1.8457  1.7757
 4700SOL     OW25735   0.691   4.517   5.817  0.7266  0.6241  0.2322
 4700SOL    HW125736   0.770   4.550   5.774  1.6768 -2.4007 -0.3561
 4700SOL    HW225737   0.730   4.449   5.872 -1.9629 -1.6324 -0.6312
 4701SOL     OW25738   3.378   3.032   9.638 -0.0101  0.3224 -0.5399
 4701SOL    HW125739   3.340   3.067   9.719  0.2658 -0.0802 -0.2388
 4701SOL    HW225740   3.300   2.993   9.600 -0.2414 -1.3039  1.5861
 4702SOL     OW25741   1.515   3.975  15.712 -0.1481  0.0278  0.2427
 4702SOL    HW125742   1.557   4.018  15.638  0.0485 -1.0695 -0.2901
 4702SOL    HW225743   1.592   3.935  15.752  2.7166  2.5470 -2.8174
 4703SOL     OW25744   0.864   3.444   3.262 -0.0019  0.0294 -0.1547
 4703SOL    HW125745   0.828   3.435   3.351 -0.2970 -1.6450 -0.4447
 4703SOL    HW225746   0.788   3.427   3.207  0.1098  0.5103 -0.4588
 4704SOL     OW25747   3.730   2.282   9.431  0.6696  0.0877 -0.4611
 4704SOL    HW125748   3.756   2.335   9.356 -0.3513  1.3419  0.0770
 4704SOL    HW225749   3.817   2.266   9.468  0.3537  0.0332  0.2746
 4705SOL     OW25750   3.218   1.818   5.936 -0.1431  0.2864  0.6555
 4705SOL    HW125751   3.203   1.865   5.854 -0.0710  0.8232  0.9495
 4705SOL    HW225752   3.250   1.891   5.989  0.0608  0.9991 -0.4453
 4706SOL     OW25753   3.172   4.109   1.801  0.4006  0.0644  0.0344
 4706SOL    HW125754   3.260   4.145   1.796 -0.4602  2.1854  0.3046
 4706SOL    HW225755   3.177   4.058   1.720  0.7058 -1.7504  1.1773
 4707SOL     OW25756   3.574   1.130   5.132 -0.2866  0.1792 -0.0461
 4707SOL    HW125757   3.606   1.180   5.207  0.9103  1.2288 -1.2569
 4707SOL    HW225758   3.652   1.145   5.079  0.6463  1.3291  1.6529
 4708SOL     OW25759   0.043   3.632   2.432  0.4977  0.2132  0.0704
 4708SOL    HW125760   0.097   3.574   2.378  0.0717  0.7637 -0.9562
 4708SOL    HW225761   0.006   3.672   2.353  1.1112  0.9816  0.1775
 4709SOL     OW25762   0.840   2.022   6.152 -0.1372  0.0728 -0.2422
 4709SOL    HW125763   0.761   1.987   6.192  0.6993 -0.9779  0.5093
 4709SOL    HW225764   0.809   2.099   6.105 -1.8292 -0.1753  0.4606
 4710SOL     OW25765   0.222   2.162   6.580 -0.5618 -0.2393 -0.1639
 4710SOL    HW125766   0.222   2.083   6.634  2.0967  0.9942  1.6465
 4710SOL    HW225767   0.311   2.196   6.586  0.7470 -4.2377  3.5556
 4711SOL     OW25768   2.470   0.399   3.545 -0.0401  1.1339  0.0552
 4711SOL    HW125769   2.379   0.368   3.549  0.6785 -1.0094 -0.0922
 4711SOL    HW225770   2.492   0.406   3.638 -1.2435  2.8780  0.1969
 4712SOL     OW25771   0.588   1.760   4.471 -0.0665  0.0355 -0.0796
 4712SOL    HW125772   0.534   1.807   4.408  0.8633  0.0167 -0.8836
 4712SOL    HW225773   0.581   1.671   4.436 -0.4494 -0.3708  1.0155
 4713SOL     OW25774   4.263   3.068   9.100  0.3344 -0.0311  0.0828
 4713SOL    HW125775   4.282   3.028   9.015  1.6882 -0.3816  0.5621
 4713SOL    HW225776   4.213   2.994   9.135 -0.5817 -0.5826 -2.3678
 4714SOL     OW25777   4.511   3.061   5.285 -0.3078 -0.0788  0.6159
 4714SOL    HW125778   4.492   3.075   5.192 -0.0601 -0.7856  0.4640
 4714SOL    HW225779   4.506   2.967   5.298  1.5215 -0.1180  0.9536
 4715SOL     OW25780   4.478   3.030  11.690  0.6476  0.1454  0.0457
 4715SOL    HW125781   4.431   2.947  11.677 -1.8269  1.9623 -2.4874
 4715SOL    HW225782   4.456   3.038  11.783 -0.2059  0.7540 -0.2146
 4716SOL     OW25783   3.724   3.614   2.513 -0.4291  0.1425 -0.3953
 4716SOL    HW125784   3.635   3.609   2.547 -0.5358 -2.3798 -1.0728
 4716SOL    HW225785   3.781   3.611   2.591 -1.4709  0.2545  0.3699
 4717SOL     OW25786   2.667   4.140   2.822  0.4500  0.2704  0.3450
 4717SOL    HW125787   2.600   4.196   2.784 -0.2729 -0.8294 -0.0026
 4717SOL    HW225788   2.738   4.134   2.758 -0.1179 -1.2268 -0.1370
 4718SOL     OW25789   3.706   3.979   7.112  0.0935 -0.0332  0.3292
 4718SOL    HW125790   3.687   4.062   7.067  0.7398 -1.0489 -1.7936
 4718SOL    HW225791   3.801   3.982   7.125  0.0001 -1.9849  1.3768
 4719SOL     OW25792   1.177   3.802   8.505  0.2680  0.1853 -0.8648
 4719SOL    HW125793   1.163   3.896   8.512  0.0938  0.1182 -0.3411
 4719SOL    HW225794   1.089   3.765   8.512 -0.3560  1.2577 -2.8865
 4720SOL     OW25795   3.436   3.444  10.709  0.2844 -0.6878  0.2422
 4720SOL    HW125796   3.376   3.518  10.699 -1.4351 -2.0249  0.6392
 4720SOL    HW225797   3.437   3.399  10.624 -0.9672  1.4351 -0.9027
 4721SOL     OW25798   4.180   0.529   4.575 -0.7592 -0.5250 -0.2310
 4721SOL    HW125799   4.107   0.474   4.549  0.0323 -1.4406 -0.5142
 4721SOL    HW225800   4.161   0.619   4.547 -0.6345 -0.1715  0.8108
 4722SOL     OW25801   2.294   2.374   2.633 -0.0034  0.0165 -0.2356
 4722SOL    HW125802   2.383   2.340   2.625 -0.7519 -1.6529 -1.4180
 4722SOL    HW225803   2.260   2.308   2.694  0.2075 -0.3397 -0.5071
 4723SOL     OW25804   4.611   0.118  15.529 -0.7325  0.7252  0.2923
 4723SOL    HW125805   4.521   0.128  15.558 -0.7826  0.5825  0.1838
 4723SOL    HW225806   4.659   0.118  15.612 -1.4143  0.2957  0.6849
 4724SOL     OW25807   2.794   3.275  17.565  0.0495 -0.1217 -0.0541
 4724SOL    HW125808   2.880   3.248  17.533  0.3551 -0.7257  1.2424
 4724SOL    HW225809   2.817   3.345  17.627  0.5378  0.9008 -1.3960
 4725SOL     OW25810   3.475   1.123   3.469  0.1031 -0.1529 -0.4707
 4725SOL    HW125811   3.528   1.111   3.547 -1.7149  0.8128  0.8996
 4725SOL    HW225812   3.391   1.089   3.499  1.0296 -2.3727 -0.3710
 4726SOL     OW25813   0.755   0.143   9.489 -0.2325  0.8327 -0.0026
 4726SOL    HW125814   0.809   0.110   9.560  0.6091  1.4349 -0.3587
 4726SOL    HW225815   0.671   0.119   9.529 -0.1981 -0.4420 -0.6863
 4727SOL     OW25816   2.218   3.387   1.460 -0.0326 -0.1822  0.3266
 4727SOL    HW125817   2.198   3.344   1.376  1.9599  0.2591 -0.3738
 4727SOL    HW225818   2.301   3.343   1.476  0.1806  0.9007  2.1415
 4728SOL     OW25819   3.933   0.662   9.403 -0.2182  1.0074  0.8046
 4728SOL    HW125820   3.921   0.567   9.411  2.1743  0.6744  0.6449
 4728SOL    HW225821   4.012   0.681   9.454 -0.7043 -2.6161  2.9139
 4729SOL     OW25822   2.517   1.530   4.066  0.4823 -0.1570 -0.1071
 4729SOL    HW125823   2.512   1.445   4.022 -0.2831 -0.4444  0.5440
 4729SOL    HW225824   2.433   1.531   4.111  0.9024  2.1891  0.6523
 4730SOL     OW25825   2.085   4.584  13.588  1.0854  0.2480 -0.2289
 4730SOL    HW125826   2.109   4.666  13.632 -0.3193  0.9594 -0.8044
 4730SOL    HW225827   2.105   4.519  13.656  1.8442  0.7706  0.0600
 4731SOL     OW25828   4.179   2.271   3.360  0.4785  0.4223 -0.3913
 4731SOL    HW125829   4.169   2.306   3.449  1.9445 -0.7607  0.2395
 4731SOL    HW225830   4.156   2.346   3.305  0.3927  1.1255  0.5906
 4732SOL     OW25831   3.144   3.462   2.794 -0.5508 -0.1653 -0.2224
 4732SOL    HW125832   3.078   3.444   2.861  0.1336  0.3437  0.5872
 4732SOL    HW225833   3.205   3.389   2.806  2.4846  2.4164  0.3038
 4733SOL     OW25834   2.997   0.600  10.243 -0.1514 -0.1362 -0.1260
 4733SOL    HW125835   3.007   0.679  10.190 -1.9529  0.3674  0.3007
 4733SOL    HW225836   3.076   0.624  10.290  0.6126 -0.7703 -1.0787
 4734SOL     OW25837   1.292   2.233   3.103 -0.0570 -0.2057 -0.9085
 4734SOL    HW125838   1.274   2.146   3.136 -0.5794  0.3353  0.2307
 4734SOL    HW225839   1.222   2.283   3.145 -0.9832 -0.6527 -1.9527
 4735SOL     OW25840   3.407   4.638  11.585  0.2411  0.3567  0.2568
 4735SOL    HW125841   3.469   4.669  11.651  1.2839 -0.1596 -0.4836
 4735SOL    HW225842   3.468   4.630  11.512 -0.4032  0.6090 -0.3103
 4736SOL     OW25843   2.215   3.666  14.843 -0.4142 -0.1882  0.0554
 4736SOL    HW125844   2.146   3.664  14.776  1.4265 -0.2461 -1.8293
 4736SOL    HW225845   2.286   3.682  14.781 -0.1877  2.1923  0.9224
 4737SOL     OW25846   3.670   4.558  12.169  0.4186 -0.5307  0.5071
 4737SOL    HW125847   3.688   4.617  12.241  1.3827 -0.5444  0.2724
 4737SOL    HW225848   3.694   4.474  12.207  1.0003 -1.9120 -2.8421
 4738SOL     OW25849   2.444   3.612   6.351  0.3200  0.2509  0.0294
 4738SOL    HW125850   2.489   3.676   6.406 -1.6696  0.9005  0.8699
 4738SOL    HW225851   2.402   3.667   6.284 -1.6705  0.1312  1.2012
 4739SOL     OW25852   1.075   4.353  10.625  0.1854  0.5466 -0.1213
 4739SOL    HW125853   1.012   4.419  10.596  0.9949  0.5174 -1.9567
 4739SOL    HW225854   1.155   4.367  10.573 -0.2674  0.8880 -0.7318
 4740SOL     OW25855   2.275   1.430   8.757  0.5165  0.1278  0.4348
 4740SOL    HW125856   2.368   1.445   8.739  0.4186  1.0421  0.6960
 4740SOL    HW225857   2.263   1.472   8.842  0.7746 -2.0642  1.5575
 4741SOL     OW25858   0.915   2.364   4.689 -0.1946  0.4053  0.2064
 4741SOL    HW125859   0.839   2.331   4.736 -1.4720  0.9045 -1.4938
 4741SOL    HW225860   0.908   2.458   4.705  0.4894  0.2033  1.6780
 4742SOL     OW25861   0.973   4.324  11.137  0.0833  0.3980  0.2413
 4742SOL    HW125862   0.994   4.269  11.062  0.7468 -1.3685  1.7093
 4742SOL    HW225863   0.936   4.401  11.094 -0.0948  0.5174  0.6023
 4743SOL     OW25864   3.170   3.255   2.115  0.2352 -0.1463 -0.2616
 4743SOL    HW125865   3.152   3.209   2.197  0.8170  0.4698  0.2071
 4743SOL    HW225866   3.096   3.315   2.111  0.0448 -0.4043 -0.6599
 4744SOL     OW25867   1.783   4.526  16.205 -0.3408 -0.7420 -0.1434
 4744SOL    HW125868   1.791   4.570  16.290 -1.4750 -1.2653  0.2297
 4744SOL    HW225869   1.843   4.586  16.160  1.1221 -1.2035  1.1867
 4745SOL     OW25870   3.698   2.388   3.213  0.4836 -0.3809 -0.0068
 4745SOL    HW125871   3.698   2.433   3.129  0.7517  3.4654  2.0378
 4745SOL    HW225872   3.608   2.372   3.242 -0.1638  0.3016 -1.6984
 4746SOL     OW25873   2.840   0.233   3.619 -0.0171  0.2484 -0.6270
 4746SOL    HW125874   2.777   0.162   3.611 -1.0017  1.3453 -2.5052
 4746SOL    HW225875   2.872   0.216   3.708  1.3114  1.5732 -0.8443
 4747SOL     OW25876   2.562   0.884  13.932  0.4448 -0.5249 -0.2131
 4747SOL    HW125877   2.486   0.903  13.877  1.6457  2.1243 -0.9664
 4747SOL    HW225878   2.617   0.963  13.922 -0.2526  0.0343  0.3933
 4748SOL     OW25879   2.555   4.533  11.152  0.1840 -0.5940  0.0623
 4748SOL    HW125880   2.526   4.595  11.220  2.1209  0.7112 -0.2830
 4748SOL    HW225881   2.613   4.590  11.101 -0.0950  0.6747  1.1339
 4749SOL     OW25882   2.378   3.339   9.325 -0.4374 -0.3091 -0.4600
 4749SOL    HW125883   2.387   3.317   9.417  2.5470 -1.1454 -0.9641
 4749SOL    HW225884   2.455   3.294   9.289 -0.4230  1.0805 -2.1991
 4750SOL     OW25885   1.024   1.011  17.364  0.0056 -0.9725  0.2596
 4750SOL    HW125886   1.030   1.060  17.282  2.3927  0.0244  1.0206
 4750SOL    HW225887   1.014   1.087  17.421  0.6179 -0.4197 -0.3674
 4751SOL     OW25888   4.440   3.955   4.794 -0.0723  0.1618 -0.3436
 4751SOL    HW125889   4.474   3.893   4.859  0.7138  2.3188  1.2944
 4751SOL    HW225890   4.521   3.989   4.756  0.7115  0.3646  1.5413
 4752SOL     OW25891   0.645   2.822   6.443  0.0766  0.0088  0.3187
 4752SOL    HW125892   0.657   2.801   6.535 -2.8200 -0.5881  0.5456
 4752SOL    HW225893   0.563   2.779   6.418 -0.5470  1.6255 -0.4433
 4753SOL     OW25894   4.476   2.785  12.502  0.0499  0.4219 -0.5209
 4753SOL    HW125895   4.488   2.874  12.468  0.5688  0.8696  0.8263
 4753SOL    HW225896   4.462   2.809  12.593  1.1362  2.0847 -0.7894
 4754SOL     OW25897   1.795   2.406   0.562 -0.4338  0.2533  0.5134
 4754SOL    HW125898   1.864   2.374   0.620 -1.7902 -0.9783  1.4267
 4754SOL    HW225899   1.724   2.362   0.609 -1.3654  0.5200 -0.6652
 4755SOL     OW25900   3.757   0.156  17.574 -0.0419 -0.6705 -0.5245
 4755SOL    HW125901   3.758   0.069  17.612  1.9899 -0.2412  0.4231
 4755SOL    HW225902   3.776   0.209  17.652 -0.6025 -0.5913 -0.4454
 4756SOL     OW25903   3.591   1.084   7.600 -0.6494  0.2070  0.1837
 4756SOL    HW125904   3.615   1.004   7.647  0.9770 -0.4341 -1.7376
 4756SOL    HW225905   3.675   1.123   7.577 -0.9011  1.0893  0.7684
 4757SOL     OW25906   2.292   3.018   0.371 -0.0191  0.5991 -0.2878
 4757SOL    HW125907   2.211   2.969   0.357  0.3919 -0.0963 -0.2119
 4757SOL    HW225908   2.306   3.063   0.288 -0.4169  0.4974 -0.4073
 4758SOL     OW25909   2.492   4.447   7.509  0.1634  0.1637 -0.0280
 4758SOL    HW125910   2.426   4.387   7.474 -1.1245  1.8732 -0.5098
 4758SOL    HW225911   2.469   4.446   7.602  1.3435  0.1958  0.2652
 4759SOL     OW25912   3.452   3.604   2.572 -0.3472 -0.1269 -0.3623
 4759SOL    HW125913   3.416   3.686   2.607  0.5014  0.3698 -0.6579
 4759SOL    HW225914   3.374   3.549   2.560 -0.9397  0.4833  0.6220
 4760SOL     OW25915   1.985   0.057   8.275  0.2153  0.7012  0.4311
 4760SOL    HW125916   1.935   4.727   8.228  0.6536 -0.2097  1.2633
 4760SOL    HW225917   1.969   0.129   8.215  0.6777 -1.2903 -2.0847
 4761SOL     OW25918   0.925   4.287  14.423  0.0338  0.2122  0.7915
 4761SOL    HW125919   0.922   4.380  14.397  1.6372  0.2277  0.6996
 4761SOL    HW225920   0.965   4.251  14.344 -0.1990  1.3411  0.1534
 4762SOL     OW25921   2.589   4.673  10.826 -0.5165 -0.0810  0.3091
 4762SOL    HW125922   2.659   4.692  10.764  0.1981 -1.4939  0.6859
 4762SOL    HW225923   2.532   0.013  10.818  1.1454  1.1628  0.3243
 4763SOL     OW25924   0.858   1.176   9.388  0.2736  0.6905 -0.6295
 4763SOL    HW125925   0.861   1.143   9.478 -1.2661 -0.3933 -0.9767
 4763SOL    HW225926   0.942   1.222   9.386  0.9959 -0.5643  1.2527
 4764SOL     OW25927   2.906   2.222  13.072 -0.3293 -0.1656 -0.4829
 4764SOL    HW125928   2.817   2.232  13.107 -0.2272 -0.5833 -0.1049
 4764SOL    HW225929   2.886   2.178  12.990 -0.7335 -1.1879  0.1692
 4765SOL     OW25930   1.508   4.653  16.652  0.1151  0.6276 -0.1154
 4765SOL    HW125931   1.437   4.700  16.696  0.0904  0.1881  0.3146
 4765SOL    HW225932   1.546   4.603  16.724 -0.8758  1.1149  0.7548
 4766SOL     OW25933   1.873   3.216   3.804 -0.8442 -0.1171  0.5151
 4766SOL    HW125934   1.826   3.172   3.733 -1.6704 -0.9584  1.5875
 4766SOL    HW225935   1.822   3.297   3.815 -1.1757 -0.1962 -0.4400
 4767SOL     OW25936   3.731   2.542  10.939 -0.0526 -0.8757  0.4063
 4767SOL    HW125937   3.687   2.478  10.882  1.8081 -2.0835  0.3328
 4767SOL    HW225938   3.715   2.621  10.888  0.7747 -1.9937 -1.5927
 4768SOL     OW25939   4.432   0.533   4.699  0.3098  0.3926 -0.0734
 4768SOL    HW125940   4.449   0.612   4.750 -2.4795  0.8684  0.1529
 4768SOL    HW225941   4.342   0.551   4.671  0.5753 -1.2703 -1.9462
 4769SOL     OW25942   3.413   3.617   6.221  0.0546  0.1577 -0.6764
 4769SOL    HW125943   3.395   3.523   6.225  0.5558  0.1062  0.4991
 4769SOL    HW225944   3.327   3.646   6.251  0.1775  0.7347 -0.8943
 4770SOL     OW25945   4.077   2.017   5.212 -0.4164 -0.3918  0.3317
 4770SOL    HW125946   4.000   2.018   5.269 -0.4448 -0.5188  0.2936
 4770SOL    HW225947   4.035   2.046   5.132 -1.3541 -1.2238  0.5237
 4771SOL     OW25948   0.403   1.483  14.854 -0.4264 -0.2533  0.6152
 4771SOL    HW125949   0.383   1.472  14.761 -0.0682 -0.2599  0.5396
 4771SOL    HW225950   0.494   1.452  14.858 -1.3390 -2.7892  1.7893
 4772SOL     OW25951   2.234   2.070   6.180 -0.2666 -0.6476 -0.1244
 4772SOL    HW125952   2.295   2.048   6.110  0.2562  0.7895 -0.1213
 4772SOL    HW225953   2.281   2.130   6.239 -1.5340  0.9866 -0.7569
 4773SOL     OW25954   3.586   2.789   2.321  0.1880 -0.2232  0.2541
 4773SOL    HW125955   3.562   2.881   2.307  0.9293 -0.1231 -0.3471
 4773SOL    HW225956   3.587   2.756   2.232 -0.1603  2.5342 -0.7910
 4774SOL     OW25957   0.909   3.349   8.337 -0.1950  0.6527  0.8178
 4774SOL    HW125958   0.991   3.302   8.353  0.2024  1.4962  1.2314
 4774SOL    HW225959   0.931   3.441   8.349 -0.4499  0.7705  0.3827
 4775SOL     OW25960   3.195   0.550   0.472  0.0511 -0.3387 -0.4676
 4775SOL    HW125961   3.260   0.521   0.536  0.0137 -2.2962 -1.3262
 4775SOL    HW225962   3.132   0.477   0.476 -0.3955  0.1553  1.8362
 4776SOL     OW25963   4.127   3.201   0.692  0.1402 -0.4806 -0.3142
 4776SOL    HW125964   4.060   3.211   0.624 -1.6029 -1.1151  1.3006
 4776SOL    HW225965   4.085   3.231   0.773  0.6575  0.1731 -0.2832
 4777SOL     OW25966   3.427   3.602   2.900  0.5338  0.3052 -0.2206
 4777SOL    HW125967   3.409   3.653   2.821 -1.3687  1.3321  0.8645
 4777SOL    HW225968   3.345   3.557   2.919 -0.4138  1.7882 -0.7941
 4778SOL     OW25969   3.625   0.716  11.716 -0.3403  0.4826  0.3808
 4778SOL    HW125970   3.572   0.783  11.759  0.2697 -0.1747  2.1239
 4778SOL    HW225971   3.629   0.644  11.778 -0.5171  0.0585 -0.1036
 4779SOL     OW25972   2.129   1.823   2.419  0.2442 -0.1695 -0.4536
 4779SOL    HW125973   2.086   1.740   2.437  3.2269 -1.6109  0.0042
 4779SOL    HW225974   2.057   1.886   2.413  1.8110  1.6408 -0.1270
 4780SOL     OW25975   0.281   3.973   9.031  0.4933 -0.3238  0.0790
 4780SOL    HW125976   0.289   4.043   9.096 -4.7676  0.3624 -0.0191
 4780SOL    HW225977   0.186   3.969   9.028  0.4333  1.4076 -0.8680
 4781SOL     OW25978   0.220   1.482  10.747 -0.9504 -0.2044  0.5750
 4781SOL    HW125979   0.295   1.520  10.701 -1.9948  1.0412 -0.0882
 4781SOL    HW225980   0.208   1.404  10.693  1.2725  0.6144 -1.1075
 4782SOL     OW25981   0.907   2.490  17.504 -0.1504 -0.1746  0.0799
 4782SOL    HW125982   0.835   2.545  17.532 -0.7818 -1.1980  0.4789
 4782SOL    HW225983   0.979   2.515  17.561 -0.0590  1.6435 -0.8522
 4783SOL     OW25984   0.620   4.592   4.357  0.0804 -0.3380  0.4618
 4783SOL    HW125985   0.543   4.643   4.332  0.8886  0.8208  0.3871
 4783SOL    HW225986   0.583   4.516   4.402  0.4556 -1.3321 -0.9053
 4784SOL     OW25987   2.622   2.715   8.139  0.6423 -0.2673  1.1231
 4784SOL    HW125988   2.625   2.667   8.223  2.3234  1.2213  1.9150
 4784SOL    HW225989   2.528   2.720   8.124  0.8569  0.9986  0.2789
 4785SOL     OW25990   1.279   3.640   5.297  0.1973 -0.0495 -0.0427
 4785SOL    HW125991   1.225   3.586   5.355 -0.1889 -1.0307 -1.3130
 4785SOL    HW225992   1.232   3.722   5.309 -0.5072 -0.3293 -0.8811
 4786SOL     OW25993   0.641   3.079   5.426 -0.4485  0.2011 -0.0073
 4786SOL    HW125994   0.573   3.063   5.492 -0.6382 -1.3913 -0.6013
 4786SOL    HW225995   0.648   3.173   5.443 -0.3866  0.6077 -2.3506
 4787SOL     OW25996   1.117   0.971  14.480 -0.0744 -0.2512 -0.1940
 4787SOL    HW125997   1.170   0.892  14.492 -0.6836 -0.5082  0.7391
 4787SOL    HW225998   1.192   1.029  14.467  0.0737 -0.5067 -0.5082
 4788SOL     OW25999   4.597   0.152   2.996  0.0060 -0.1967  0.3983
 4788SOL    HW126000   4.519   0.146   2.941  1.2849 -2.1133 -1.2411
 4788SOL    HW226001   4.640   0.067   2.992  0.3789  0.0260 -0.3219
 4789SOL     OW26002   1.643   0.259   1.063 -0.4206 -0.0942 -0.2056
 4789SOL    HW126003   1.691   0.333   1.026  0.3371  0.1895  1.3539
 4789SOL    HW226004   1.674   0.187   1.007 -0.7098 -0.1712 -0.2682
 4790SOL     OW26005   3.873   1.383  16.640 -0.1850  0.4931 -0.6068
 4790SOL    HW126006   3.811   1.348  16.703  1.7324 -1.1538  0.3780
 4790SOL    HW226007   3.833   1.355  16.558 -0.1853  1.2531 -0.8610
 4791SOL     OW26008   3.848   4.076   3.956 -0.4302 -0.3178  0.4460
 4791SOL    HW126009   3.820   4.006   4.014  0.9200 -1.8571 -0.7591
 4791SOL    HW226010   3.873   4.030   3.876 -1.4725 -0.0307 -0.0485
 4792SOL     OW26011   2.245   1.912   1.843  0.2599 -0.3142 -0.3258
 4792SOL    HW126012   2.244   1.893   1.937  0.0172 -0.4370 -0.3524
 4792SOL    HW226013   2.153   1.935   1.834  0.1515 -0.6679 -0.1196
 4793SOL     OW26014   1.347   0.943   6.741  0.0419 -0.0180  0.7518
 4793SOL    HW126015   1.437   0.973   6.731  0.6465 -3.0613 -2.5741
 4793SOL    HW226016   1.322   0.992   6.820  1.1989  1.3464  0.2808
 4794SOL     OW26017   1.356   3.772  17.319 -0.1171 -0.4683  0.0620
 4794SOL    HW126018   1.362   3.795  17.412  0.8756  0.7960 -0.3107
 4794SOL    HW226019   1.266   3.740  17.329  0.1228 -1.2562 -0.3392
 4795SOL     OW26020   4.288   4.495   7.453  0.0555 -0.3343  0.0010
 4795SOL    HW126021   4.378   4.491   7.486  0.8157  0.6118 -1.9336
 4795SOL    HW226022   4.271   4.587   7.434 -0.5338 -0.1848  1.2148
 4796SOL     OW26023   4.574   1.645   9.942 -0.4910 -0.0481  0.3187
 4796SOL    HW126024   4.651   1.687   9.979 -0.9769  0.9416  0.1956
 4796SOL    HW226025   4.582   1.564   9.992 -1.7073  0.1041  0.7602
 4797SOL     OW26026   1.755   2.617   1.656 -0.4498 -0.1231 -0.0812
 4797SOL    HW126027   1.765   2.544   1.594  1.0016 -0.0764  0.1056
 4797SOL    HW226028   1.790   2.573   1.733 -0.3393 -2.7592 -1.6349
 4798SOL     OW26029   2.339   2.767   8.046  0.4095 -0.4346 -0.1114
 4798SOL    HW126030   2.324   2.726   8.131 -0.8339  0.4809  0.1004
 4798SOL    HW226031   2.256   2.803   8.017  0.6361 -0.3222 -0.6198
 4799SOL     OW26032   3.400   2.038   7.711 -0.1448  0.3049  0.1340
 4799SOL    HW126033   3.407   1.946   7.738  0.6370 -0.0782 -1.3684
 4799SOL    HW226034   3.433   2.071   7.795  0.7527  0.4074 -0.2562
 4800SOL     OW26035   0.699   3.496   0.093  0.6702  0.1813 -0.1404
 4800SOL    HW126036   0.782   3.451   0.079 -0.4211 -1.9052  0.1206
 4800SOL    HW226037   0.686   3.548   0.014  2.3451  1.0262  0.1347
 4801SOL     OW26038   4.308   2.391   7.190  0.3128  0.2942  0.5680
 4801SOL    HW126039   4.287   2.472   7.145 -1.6396  0.4713  1.8037
 4801SOL    HW226040   4.243   2.329   7.158  0.5251  0.2775  0.1747
 4802SOL     OW26041   2.746   1.763   4.713  0.0700 -0.0509 -0.1455
 4802SOL    HW126042   2.765   1.818   4.790  0.1676 -0.0806 -0.1481
 4802SOL    HW226043   2.799   1.801   4.643  1.0856  1.0328  1.1883
 4803SOL     OW26044   2.108   1.691   6.389  0.0157  0.0853  0.7762
 4803SOL    HW126045   2.034   1.650   6.434 -0.7412  0.0039 -0.5491
 4803SOL    HW226046   2.060   1.740   6.322  1.5971  1.2916  0.5221
 4804SOL     OW26047   4.260   2.162   1.579 -0.4004  0.4418 -0.4122
 4804SOL    HW126048   4.330   2.224   1.600 -1.2979  0.8607  1.2779
 4804SOL    HW226049   4.182   2.187   1.628  0.1601 -0.0374  0.7338
 4805SOL     OW26050   1.156   3.723   6.507 -0.1894  0.6084 -0.5693
 4805SOL    HW126051   1.066   3.752   6.523  0.2970  1.9686 -0.3291
 4805SOL    HW226052   1.206   3.802   6.525 -1.0183  1.3979 -1.7949
 4806SOL     OW26053   0.084   1.087   5.723 -0.1764 -0.3532  0.1880
 4806SOL    HW126054   0.125   1.112   5.640 -1.6363 -0.1685 -0.4698
 4806SOL    HW226055   0.113   0.996   5.734 -2.2965 -0.8878  1.3350
 4807SOL     OW26056   0.912   3.932  11.870 -0.4902  0.2542 -0.3337
 4807SOL    HW126057   0.987   3.873  11.877 -0.7926 -0.1709 -0.7097
 4807SOL    HW226058   0.916   3.957  11.777 -0.5993  2.1471  0.1746
 4808SOL     OW26059   2.530   2.666   6.210 -0.0848 -0.4164  0.4254
 4808SOL    HW126060   2.454   2.624   6.171  0.0039 -0.4811  0.3230
 4808SOL    HW226061   2.500   2.756   6.215  1.3377  0.1199 -0.5872
 4809SOL     OW26062   3.806   3.319   0.248 -0.2486  0.6380 -0.8008
 4809SOL    HW126063   3.866   3.249   0.221  2.0692  2.5224 -0.5793
 4809SOL    HW226064   3.738   3.300   0.183 -0.1876  1.3050 -1.0643
 4810SOL     OW26065   1.511   3.859   8.644 -0.4885 -0.5292  0.5466
 4810SOL    HW126066   1.434   3.859   8.701 -0.4870  0.9967  0.5562
 4810SOL    HW226067   1.550   3.772   8.657  0.6947  0.1525  1.5965
 4811SOL     OW26068   2.295   3.988   7.385  0.2608 -0.1338 -0.1592
 4811SOL    HW126069   2.203   4.011   7.372 -0.3267 -1.8158  1.0518
 4811SOL    HW226070   2.288   3.905   7.432 -1.4455  0.6384  0.9130
 4812SOL     OW26071   0.086   4.248   7.334 -0.1884  0.0801  0.3272
 4812SOL    HW126072   0.155   4.185   7.314  1.5754  1.6109  1.5531
 4812SOL    HW226073   0.020   4.229   7.267 -1.7709 -0.1219  1.9416
 4813SOL     OW26074   0.461   4.610   5.700  0.3516 -0.3194 -0.4204
 4813SOL    HW126075   0.521   4.557   5.752  0.5345  1.0564  0.7964
 4813SOL    HW226076   0.423   4.543   5.644  1.4452  1.2318 -2.9921
 4814SOL     OW26077   1.125   2.538   6.892 -0.3327  0.0953 -0.0584
 4814SOL    HW126078   1.159   2.470   6.950 -0.6970  2.5125  2.9960
 4814SOL    HW226079   1.192   2.526   6.825  0.1983  0.4106  0.4171
 4815SOL     OW26080   0.527   1.699   5.643 -0.3054  0.2084  0.7509
 4815SOL    HW126081   0.610   1.737   5.672  1.7455 -2.2927 -1.8134
 4815SOL    HW226082   0.456   1.758   5.667 -0.0042  1.2119 -0.8255
 4816SOL     OW26083   3.112   3.830   3.455 -0.1273 -0.5259  0.0286
 4816SOL    HW126084   3.141   3.921   3.460 -2.3775  0.0707  2.5168
 4816SOL    HW226085   3.172   3.780   3.510 -1.9174  1.2976  3.6836
 4817SOL     OW26086   3.278   2.266  14.439  0.5762 -0.5998 -0.1365
 4817SOL    HW126087   3.225   2.329  14.390  0.7619 -0.2754  0.0786
 4817SOL    HW226088   3.298   2.327  14.510  0.6752  1.4379 -1.9036
 4818SOL     OW26089   0.791   1.793  13.564 -0.2863 -0.4778  0.6788
 4818SOL    HW126090   0.765   1.704  13.590 -2.6864  0.1355  0.4516
 4818SOL    HW226091   0.872   1.800  13.615 -1.8267  2.0749  2.8051
 4819SOL     OW26092   1.539   4.121   8.628 -0.2319  0.3390  0.2036
 4819SOL    HW126093   1.524   4.027   8.624 -0.7356  0.2887  3.0449
 4819SOL    HW226094   1.474   4.146   8.694 -1.8191 -0.5646 -0.9970
 4820SOL     OW26095   0.667   3.687   6.118 -0.3249  0.3232  0.1801
 4820SOL    HW126096   0.633   3.598   6.131  0.4012 -0.2317 -1.7525
 4820SOL    HW226097   0.585   3.737   6.121  0.0016  0.8450  0.2038
 4821SOL     OW26098   1.341   1.481   7.989 -0.1014  0.6773  0.3030
 4821SOL    HW126099   1.382   1.514   8.070 -0.4131  3.7392 -0.7598
 4821SOL    HW226100   1.253   1.464   8.022  1.1839 -1.5025  2.6012
 4822SOL     OW26101   2.437   3.848   4.066 -0.0622 -0.5049 -0.2613
 4822SOL    HW126102   2.385   3.858   3.985  1.8646 -2.5689 -1.7354
 4822SOL    HW226103   2.490   3.927   4.067 -0.3600 -0.2904 -0.8564
 4823SOL     OW26104   3.916   3.959   8.588  0.3237 -0.1318  0.2375
 4823SOL    HW126105   3.930   4.043   8.630 -1.7745  0.7742 -0.9120
 4823SOL    HW226106   3.831   3.931   8.621 -0.1579  2.8785  1.5251
 4824SOL     OW26107   3.248   2.060   4.964 -0.0060  0.5960 -0.0569
 4824SOL    HW126108   3.340   2.085   4.955  0.1265  0.4437  0.8749
 4824SOL    HW226109   3.240   1.993   4.897  1.8810 -1.4826  1.8009
 4825SOL     OW26110   1.425   3.192   3.197 -0.0195 -0.2967  0.0661
 4825SOL    HW126111   1.385   3.120   3.149 -1.2807 -0.6014  1.5652
 4825SOL    HW226112   1.453   3.138   3.270  0.2816 -0.8967 -0.4905
 4826SOL     OW26113   2.158   4.161   3.531  0.2529  0.0556  0.1603
 4826SOL    HW126114   2.133   4.172   3.622 -3.1106  2.1081 -1.0209
 4826SOL    HW226115   2.093   4.216   3.487  0.2227 -0.5331 -0.5326
 4827SOL     OW26116   2.103   2.769  11.727 -0.1182  0.4052 -0.0543
 4827SOL    HW126117   2.036   2.833  11.703  0.2751  0.4256 -1.1078
 4827SOL    HW226118   2.073   2.749  11.815 -0.4477  0.2372 -0.2028
 4828SOL     OW26119   1.495   4.076   9.275 -0.0227  0.0341 -0.0004
 4828SOL    HW126120   1.477   4.087   9.369 -0.0134  0.5079 -0.0551
 4828SOL    HW226121   1.412   4.081   9.227 -0.3009 -0.0064  0.4764
 4829SOL     OW26122   1.184   0.899  17.568 -0.3465  0.1954  0.0167
 4829SOL    HW126123   1.164   0.807  17.580 -0.1111  0.1689  0.1980
 4829SOL    HW226124   1.120   0.922  17.501  0.3368 -1.3883 -1.1812
 4830SOL     OW26125   2.953   2.388  17.308 -0.4586 -0.4697 -0.2804
 4830SOL    HW126126   2.972   2.341  17.227 -4.6070  0.8882 -2.0361
 4830SOL    HW226127   3.036   2.431  17.326 -0.5124  0.2518 -1.7809
 4831SOL     OW26128   4.437   0.935  14.110  0.2204  0.2197 -0.0678
 4831SOL    HW126129   4.357   0.984  14.127  0.2561 -0.0049  0.7813
 4831SOL    HW226130   4.470   0.989  14.039  0.4500 -0.5383 -0.5364
 4832SOL     OW26131   0.849   2.139   8.602  0.2277  0.0705 -0.7199
 4832SOL    HW126132   0.764   2.134   8.645  0.8936 -0.5527  0.5503
 4832SOL    HW226133   0.835   2.208   8.537 -0.1380  1.1935  0.5620
 4833SOL     OW26134   3.416   2.347   5.646 -0.6619  0.2081  0.0045
 4833SOL    HW126135   3.434   2.441   5.654 -2.4067  0.4077  1.7011
 4833SOL    HW226136   3.506   2.313   5.643 -1.1261 -0.9416 -0.9119
 4834SOL     OW26137   1.241   4.669   6.932  0.1601 -0.4699  0.5067
 4834SOL    HW126138   1.154   4.644   6.901  0.6043  0.7015 -1.6743
 4834SOL    HW226139   1.295   4.679   6.854  2.1774 -1.8476  1.6964
 4835SOL     OW26140   2.806   3.278  17.091  0.4270 -0.7603 -0.1114
 4835SOL    HW126141   2.803   3.295  16.996  0.3082  0.2880  0.0802
 4835SOL    HW226142   2.737   3.212  17.096 -0.0684 -0.1026  1.6514
 4836SOL     OW26143   3.383   1.457   2.513 -0.5360 -0.2589  0.2585
 4836SOL    HW126144   3.446   1.443   2.583 -2.2620  1.3610  2.1177
 4836SOL    HW226145   3.411   1.548   2.502 -0.5974 -0.1629  0.9103
 4837SOL     OW26146   0.234   2.284   2.154  0.4376 -0.3019 -0.1719
 4837SOL    HW126147   0.175   2.271   2.229 -0.6439  0.6606 -0.8471
 4837SOL    HW226148   0.251   2.195   2.123 -1.6271 -0.1223 -1.8468
 4838SOL     OW26149   1.632   3.668   6.277 -0.1661  0.3663  0.0262
 4838SOL    HW126150   1.610   3.579   6.304 -0.3329  0.3522 -0.1511
 4838SOL    HW226151   1.649   3.709   6.362 -1.5944  0.5538  0.2203
 4839SOL     OW26152   3.852   4.065  13.602 -0.3971  0.4927 -0.0548
 4839SOL    HW126153   3.804   4.138  13.563 -0.2899 -0.7331 -2.4196
 4839SOL    HW226154   3.824   4.078  13.693  0.5843 -1.1906  0.4819
 4840SOL     OW26155   0.053   0.350  15.451 -0.2600  0.0347 -0.3707
 4840SOL    HW126156   4.709   0.399  15.466  1.6418  2.4789  1.9674
 4840SOL    HW226157   0.026   0.268  15.492  1.1152 -0.0452  0.3811
 4841SOL     OW26158   2.897   2.784   4.481 -0.0546  0.1209  0.5571
 4841SOL    HW126159   2.978   2.805   4.529  0.8764  0.6811 -1.2536
 4841SOL    HW226160   2.832   2.802   4.550 -1.1339 -1.2238 -0.1315
 4842SOL     OW26161   2.925   3.212   7.309 -0.0673 -0.3829 -0.4826
 4842SOL    HW126162   2.987   3.284   7.322 -0.0481 -0.1335 -1.9460
 4842SOL    HW226163   2.953   3.153   7.379 -1.2916 -0.0825  0.2602
 4843SOL     OW26164   4.511   3.448   1.697  0.2075 -0.6568 -0.2974
 4843SOL    HW126165   4.563   3.522   1.728 -1.7065  0.6261 -0.1833
 4843SOL    HW226166   4.445   3.498   1.649  1.0519 -0.3345 -1.1307
 4844SOL     OW26167   1.573   3.596   4.996 -0.1639  0.3054  0.1432
 4844SOL    HW126168   1.560   3.634   4.909  1.0302  1.2415  0.3740
 4844SOL    HW226169   1.635   3.656   5.037  1.2931 -1.2463  0.1801
 4845SOL     OW26170   2.018   2.513   6.674  0.3185  0.3861  0.2802
 4845SOL    HW126171   1.925   2.509   6.694  0.6265  1.0287  1.7597
 4845SOL    HW226172   2.018   2.603   6.643  1.2066  0.5810  0.8574
 4846SOL     OW26173   1.503   1.696   0.520 -0.3905  0.3935  0.1935
 4846SOL    HW126174   1.464   1.758   0.458 -1.5594 -0.5672 -0.0326
 4846SOL    HW226175   1.492   1.737   0.606 -0.1694 -0.3779  0.5926
 4847SOL     OW26176   1.603   1.270   5.504 -0.2037 -0.6494 -0.1249
 4847SOL    HW126177   1.542   1.237   5.438 -0.4604 -0.4833  0.0272
 4847SOL    HW226178   1.547   1.248   5.579  0.3424 -0.3157  0.3788
 4848SOL     OW26179   2.963   0.390   5.026 -0.0466 -0.0753  0.2060
 4848SOL    HW126180   2.904   0.337   5.080  1.2332 -0.7120  0.9729
 4848SOL    HW226181   3.035   0.393   5.088  1.3830  2.4246 -1.5874
 4849SOL     OW26182   0.018   2.766   2.009 -0.3415 -0.1777  0.5296
 4849SOL    HW126183   0.010   2.816   2.090 -0.6567  2.2193 -0.9504
 4849SOL    HW226184   0.077   2.701   2.046 -0.5686 -0.6985 -0.0179
 4850SOL     OW26185   3.068   1.000  16.796  0.7135 -0.3349  0.0085
 4850SOL    HW126186   2.999   0.991  16.730  0.4136 -0.0448  0.2851
 4850SOL    HW226187   3.064   0.924  16.853  0.9236 -0.5146 -0.2127
 4851SOL     OW26188   1.751   0.018   9.084 -0.9957  0.5810  0.3032
 4851SOL    HW126189   1.671   4.716   9.119 -0.4747  0.7754  1.7329
 4851SOL    HW226190   1.798   0.016   9.168 -2.0237  1.0005  0.8927
 4852SOL     OW26191   2.386   3.955   1.195 -0.0284 -0.2882  0.0575
 4852SOL    HW126192   2.382   4.046   1.168 -0.2631 -0.2753  0.1373
 4852SOL    HW226193   2.373   3.906   1.114 -0.0104  2.8530 -1.8442
 4853SOL     OW26194   2.881   4.225   4.202 -0.3601 -0.5044  0.5702
 4853SOL    HW126195   2.844   4.312   4.220  1.6550  0.7934 -1.7128
 4853SOL    HW226196   2.902   4.238   4.110  0.4644 -0.8506  0.7109
 4854SOL     OW26197   2.656   3.470   3.809 -0.5144  0.1982  0.0078
 4854SOL    HW126198   2.618   3.552   3.777 -1.3720  0.3368  1.3322
 4854SOL    HW226199   2.672   3.475   3.904 -1.2880 -1.9819  0.2589
 4855SOL     OW26200   0.271   2.760   8.321 -0.8542  1.1700  0.5031
 4855SOL    HW126201   0.279   2.780   8.414  0.3051  0.6785  0.5086
 4855SOL    HW226202   0.335   2.822   8.285  1.5126 -0.8406  1.2402
 4856SOL     OW26203   4.310   0.919   6.953  0.4704 -0.1937  0.1908
 4856SOL    HW126204   4.241   0.975   6.920 -0.4427  0.8026  3.7579
 4856SOL    HW226205   4.294   0.901   7.046 -1.7402  3.1515  0.4686
 4857SOL     OW26206   1.446   4.560   6.356 -0.0754  0.1091  0.0190
 4857SOL    HW126207   1.381   4.615   6.312  0.5536 -0.0496 -1.0961
 4857SOL    HW226208   1.527   4.582   6.309 -0.6863 -1.6008 -1.8133
 4858SOL     OW26209   1.112   1.940   1.059  0.3799  0.2964 -0.1642
 4858SOL    HW126210   1.150   1.858   1.027  0.0325  0.0232  0.1258
 4858SOL    HW226211   1.050   1.898   1.119  0.4243 -1.1654 -1.1401
 4859SOL     OW26212   1.474   0.593   4.322  0.4232 -0.0429  0.2396
 4859SOL    HW126213   1.427   0.670   4.352  1.0170 -0.0679  1.2443
 4859SOL    HW226214   1.505   0.629   4.239 -0.0840 -1.2755 -0.4780
 4860SOL     OW26215   3.935   3.838  14.279 -0.5573  0.1435 -0.1519
 4860SOL    HW126216   3.975   3.923  14.260 -0.2233  0.1280  0.4751
 4860SOL    HW226217   3.846   3.861  14.253  0.0465 -0.2590 -2.6332
 4861SOL     OW26218   1.764   1.759   1.322 -0.7561  0.2434 -0.3414
 4861SOL    HW126219   1.775   1.851   1.298  1.3840 -0.1476 -0.8747
 4861SOL    HW226220   1.671   1.756   1.345 -1.0133 -0.1813 -1.4462
 4862SOL     OW26221   0.913   0.443  10.043  0.1295  0.3400 -0.0476
 4862SOL    HW126222   0.884   0.419  10.130  1.4125  2.4590  0.9753
 4862SOL    HW226223   1.006   0.420  10.050  0.3396  0.4998 -2.3015
 4863SOL     OW26224   3.730   1.048   4.754  0.6151  0.1303  0.4149
 4863SOL    HW126225   3.743   1.026   4.662 -0.2346 -3.9052  1.2584
 4863SOL    HW226226   3.638   1.076   4.761  1.5288  2.9987  0.7288
 4864SOL     OW26227   2.246   4.476   2.173 -0.8035 -0.4953 -0.4021
 4864SOL    HW126228   2.178   4.541   2.192  0.0814  0.1760  0.4614
 4864SOL    HW226229   2.233   4.419   2.248  0.0964 -1.3240 -0.8733
 4865SOL     OW26230   3.997   3.753  16.547  0.1869 -0.6315 -0.1701
 4865SOL    HW126231   4.030   3.837  16.513 -1.1742 -0.0468 -0.0414
 4865SOL    HW226232   3.933   3.782  16.613  0.1722  1.2826 -1.0341
 4866SOL     OW26233   4.476   4.289   5.867 -0.3198  0.3037 -0.3317
 4866SOL    HW126234   4.524   4.324   5.942  0.3189  0.4974 -0.8280
 4866SOL    HW226235   4.428   4.368   5.841 -2.5636 -1.1432 -0.5896
 4867SOL     OW26236   3.661   3.798   0.241 -0.3286  0.3967  0.6021
 4867SOL    HW126237   3.592   3.831   0.299 -1.4496 -0.1026 -0.4303
 4867SOL    HW226238   3.705   3.730   0.292 -0.6422 -0.5439 -0.3688
 4868SOL     OW26239   1.317   4.359   8.845  0.7786 -0.3618 -0.3243
 4868SOL    HW126240   1.317   4.267   8.871  0.2488 -0.3365 -0.2233
 4868SOL    HW226241   1.408   4.375   8.870  0.5418 -0.1675  0.4321
 4869SOL     OW26242   4.706   0.208   3.260 -0.5337  0.1440  0.2069
 4869SOL    HW126243   4.659   0.225   3.179 -0.5345 -3.6191 -0.5651
 4869SOL    HW226244   0.047   0.153   3.247 -0.6363  0.0275  0.0960
 4870SOL     OW26245   3.990   3.243   8.933 -0.0779 -0.2838 -0.0949
 4870SOL    HW126246   4.013   3.335   8.943  1.4162 -0.7017  0.2829
 4870SOL    HW226247   4.036   3.202   9.006  3.0231 -0.8641 -2.4040
 4871SOL     OW26248   2.726   4.282   2.182 -0.3137 -0.0562  0.2199
 4871SOL    HW126249   2.724   4.347   2.112  3.5785 -0.5768 -0.3603
 4871SOL    HW226250   2.649   4.321   2.224 -1.3855 -1.1883 -0.6771
 4872SOL     OW26251   1.219   2.865   7.741 -0.1675  0.2474 -0.4802
 4872SOL    HW126252   1.272   2.787   7.723  0.9576  0.5751  1.3838
 4872SOL    HW226253   1.196   2.849   7.833 -1.3278  0.5601 -0.7137
 4873SOL     OW26254   2.015   2.219   5.372  0.6207  0.0144  0.5394
 4873SOL    HW126255   1.950   2.265   5.425  0.0977 -1.5877  1.2814
 4873SOL    HW226256   1.962   2.203   5.294  0.2426  2.6002  0.2666
 4874SOL     OW26257   3.150   1.377   3.632  0.5309 -0.2997  0.0235
 4874SOL    HW126258   3.074   1.420   3.593  1.0897 -0.6757 -1.4905
 4874SOL    HW226259   3.196   1.461   3.639 -3.2299  1.6892  0.6676
 4875SOL     OW26260   3.988   2.330  15.346  0.4483  0.2503  0.5021
 4875SOL    HW126261   3.939   2.255  15.310  1.3853 -0.1648  0.0906
 4875SOL    HW226262   4.010   2.293  15.432 -0.6163 -0.5610  0.4248
 4876SOL     OW26263   4.669   1.974   8.260 -0.0709 -0.3030  0.1406
 4876SOL    HW126264   4.580   1.986   8.229  0.9621  0.7253 -2.4635
 4876SOL    HW226265   4.679   1.879   8.266 -1.6886 -0.4445  0.4052
 4877SOL     OW26266   2.500   1.920  14.073  0.0799 -0.9502  0.3083
 4877SOL    HW126267   2.429   1.940  14.012  0.0019 -2.4590 -0.0761
 4877SOL    HW226268   2.504   1.826  14.055 -1.0296 -1.3538  2.2285
 4878SOL     OW26269   4.355   1.301   5.296  0.8491 -0.0496  0.2894
 4878SOL    HW126270   4.410   1.317   5.220  0.3023  1.1119  0.1528
 4878SOL    HW226271   4.328   1.210   5.279  3.2208 -0.4552 -1.2559
 4879SOL     OW26272   3.326   1.076   7.912 -0.5336  0.5605 -0.7152
 4879SOL    HW126273   3.389   1.050   7.845 -0.3208  0.8939 -0.6453
 4879SOL    HW226274   3.267   1.133   7.862  0.3841  1.6238 -0.5839
 4880SOL     OW26275   3.426   4.136  15.760 -0.1792  0.1627 -0.1643
 4880SOL    HW126276   3.420   4.231  15.748 -1.8059  0.1627  0.6276
 4880SOL    HW226277   3.500   4.112  15.706 -0.7239  1.9097 -1.6872
 4881SOL     OW26278   4.184   0.476   1.259  0.3587 -0.0802  0.3046
 4881SOL    HW126279   4.253   0.511   1.316  0.9589 -1.0338  0.1522
 4881SOL    HW226280   4.159   0.400   1.311  1.7499 -1.5546 -1.1985
 4882SOL     OW26281   0.016   0.543   3.691  0.3957  0.0273  0.0219
 4882SOL    HW126282   0.037   0.629   3.727  1.8351  0.3335 -1.5514
 4882SOL    HW226283   0.065   0.491   3.755 -1.5274 -0.6423  0.9446
 4883SOL     OW26284   1.682   0.926  15.912 -0.0286 -0.0222  0.2892
 4883SOL    HW126285   1.647   0.889  15.831 -0.8113  0.1460  0.5468
 4883SOL    HW226286   1.697   1.011  15.869 -0.3897  0.4111  1.0195
 4884SOL     OW26287   2.316   1.753   2.707 -0.1519  0.4544  0.7724
 4884SOL    HW126288   2.334   1.663   2.682  0.8396  0.9282 -0.2357
 4884SOL    HW226289   2.378   1.801   2.651 -2.0012  2.3673  0.3463
 4885SOL     OW26290   2.442   0.906   3.601  0.2581  0.2531 -0.6846
 4885SOL    HW126291   2.383   0.839   3.569  2.2351 -2.2791  0.9815
 4885SOL    HW226292   2.519   0.862   3.564 -0.5091 -0.1367 -1.8127
 4886SOL     OW26293   3.411   3.518  11.007  0.0080 -0.6730  0.0391
 4886SOL    HW126294   3.413   3.461  10.930  1.0050 -0.3837 -0.1486
 4886SOL    HW226295   3.503   3.517  11.032 -0.0976 -0.5202  0.4397
 4887SOL     OW26296   0.226   3.369   8.343 -0.4202 -0.4929 -0.5550
 4887SOL    HW126297   0.250   3.399   8.431  3.4038  2.1685 -2.5298
 4887SOL    HW226298   0.280   3.431   8.295  0.4096 -0.0317  0.9946
 4888SOL     OW26299   2.032   0.595   2.772  0.3083  0.1795 -0.6753
 4888SOL    HW126300   2.047   0.635   2.857  1.1520 -1.1120 -0.2149
 4888SOL    HW226301   2.095   0.524   2.785 -0.3962 -0.3818 -0.4053
 4889SOL     OW26302   2.141   2.451   7.765 -0.0187 -0.0575  1.5947
 4889SOL    HW126303   2.223   2.499   7.749  0.5948 -1.8242 -0.6051
 4889SOL    HW226304   2.075   2.519   7.758  0.1756 -0.0974 -0.5759
 4890SOL     OW26305   3.453   4.700   6.560 -0.4301  0.4110 -0.0415
 4890SOL    HW126306   3.411   4.621   6.526  0.9519  0.1164 -1.0427
 4890SOL    HW226307   3.380   4.728   6.616 -0.8794 -0.5037 -0.1738
 4891SOL     OW26308   4.729   1.327  16.637  0.4724  0.5033  0.0606
 4891SOL    HW126309   4.691   1.302  16.553  1.0765  1.6079 -0.5410
 4891SOL    HW226310   4.725   1.421  16.624 -3.7752  0.3568  0.3968
 4892SOL     OW26311   1.487   0.352   1.281 -0.1026 -0.3739 -0.2060
 4892SOL    HW126312   1.564   0.330   1.229 -0.1976 -0.4163 -0.3284
 4892SOL    HW226313   1.427   0.385   1.214  0.2261  0.2361 -0.2055
 4893SOL     OW26314   2.585   0.694   7.460 -0.3171  0.2931  0.0208
 4893SOL    HW126315   2.578   0.787   7.481 -2.4498 -0.1777  1.4536
 4893SOL    HW226316   2.571   0.702   7.366 -0.8371 -0.4897  0.0327
 4894SOL     OW26317   1.247   0.348  13.084  0.0497  0.2465 -0.1199
 4894SOL    HW126318   1.189   0.272  13.089 -0.4427  0.5540 -1.1565
 4894SOL    HW226319   1.228   0.394  13.166  0.5024 -0.3458  0.3238
 4895SOL     OW26320   3.590   1.093   2.607  0.6182 -0.2609 -0.1339
 4895SOL    HW126321   3.642   1.172   2.590  1.3380 -0.8867 -0.8003
 4895SOL    HW226322   3.613   1.025   2.544  1.0293  0.3471 -0.6422
 4896SOL     OW26323   3.137   1.535  11.858 -0.2693 -0.3183 -0.4348
 4896SOL    HW126324   3.203   1.474  11.891  0.7093  1.8018  1.5824
 4896SOL    HW226325   3.104   1.566  11.943  0.7548  0.3187 -0.2746
 4897SOL     OW26326   0.762   0.529   1.885 -0.0806 -1.1505  0.1464
 4897SOL    HW126327   0.701   0.487   1.825 -0.9218 -0.0573  0.2459
 4897SOL    HW226328   0.769   0.459   1.950 -0.6443 -0.1978  1.2114
 4898SOL     OW26329   1.091   4.645   1.145 -0.1879 -0.2676  0.1315
 4898SOL    HW126330   1.152   4.717   1.159  0.6030 -0.8897 -0.1024
 4898SOL    HW226331   1.015   4.701   1.163  0.6513  1.4408 -1.5759
 4899SOL     OW26332   4.376   0.597   2.121  0.5991 -0.0540 -0.6644
 4899SOL    HW126333   4.442   0.587   2.189  0.1940 -1.5116 -0.4759
 4899SOL    HW226334   4.307   0.537   2.149  0.3026  1.0284  0.9543
 4900SOL     OW26335   3.571   2.032   7.323 -0.4116  0.0049  0.0526
 4900SOL    HW126336   3.477   2.043   7.332 -0.4189 -0.6052  0.7040
 4900SOL    HW226337   3.585   1.939   7.343  0.1240  0.0620 -0.0520
 4901SOL     OW26338   4.478   1.555   6.110  0.3224  0.4693 -1.0031
 4901SOL    HW126339   4.562   1.562   6.155  0.2755  0.1916 -0.8738
 4901SOL    HW226340   4.503   1.570   6.019  2.0326  0.3011 -0.5620
 4902SOL     OW26341   0.717   3.148   7.469  0.1018  0.1046 -0.9333
 4902SOL    HW126342   0.636   3.116   7.507  1.0341 -1.8824 -0.6234
 4902SOL    HW226343   0.731   3.071   7.414 -3.3980 -0.6603 -0.7336
 4903SOL     OW26344   2.420   1.158   3.058  0.2176 -0.2427  0.2199
 4903SOL    HW126345   2.341   1.104   3.068  1.8729 -2.1854  2.8764
 4903SOL    HW226346   2.383   1.240   3.027 -0.5838 -1.5038 -2.1299
 4904SOL     OW26347   3.487   1.115   6.997 -0.4470 -0.3534 -0.4436
 4904SOL    HW126348   3.429   1.045   7.028  0.4745 -0.1386  1.7520
 4904SOL    HW226349   3.488   1.155   7.084  1.2155 -1.8337  0.2268
 4905SOL     OW26350   1.912   2.324  13.138  0.6423  0.0605 -0.1066
 4905SOL    HW126351   1.830   2.293  13.177 -0.7220  0.5868 -2.5098
 4905SOL    HW226352   1.881   2.334  13.048 -3.0252  0.2128  1.1757
 4906SOL     OW26353   2.504   0.607   6.481  0.5196 -0.4487 -0.3226
 4906SOL    HW126354   2.440   0.676   6.461  1.9121  0.6838 -0.8923
 4906SOL    HW226355   2.558   0.590   6.404  0.6256 -1.9391  0.0909
 4907SOL     OW26356   0.824   2.193  15.894  0.5025  0.6693 -0.2195
 4907SOL    HW126357   0.749   2.133  15.905  0.1446  1.5547  2.1917
 4907SOL    HW226358   0.875   2.167  15.971  1.1755  3.1622  0.1620
 4908SOL     OW26359   2.634   2.992   8.423  0.3436  0.1581  0.3298
 4908SOL    HW126360   2.639   2.964   8.332  3.5604 -1.5081  1.0218
 4908SOL    HW226361   2.600   2.910   8.458  2.4671 -1.0322 -0.4130
 4909SOL     OW26362   4.205   2.584   3.530  0.3296 -0.1435 -0.2612
 4909SOL    HW126363   4.217   2.514   3.594  0.6889  1.8566  1.8553
 4909SOL    HW226364   4.110   2.585   3.527  0.3092 -0.6606  0.2793
 4910SOL     OW26365   1.530   3.346  11.428  0.1893 -0.4142  0.3492
 4910SOL    HW126366   1.502   3.434  11.454 -0.1907 -1.2628  2.7541
 4910SOL    HW226367   1.565   3.309  11.509 -2.1413  1.7700  2.3389
 4911SOL     OW26368   0.426   2.047   5.551 -0.5490  0.0118  0.6724
 4911SOL    HW126369   0.377   1.967   5.573  0.0591 -1.2147 -2.2901
 4911SOL    HW226370   0.429   2.086   5.638 -0.9669 -0.8998  1.0988
 4912SOL     OW26371   1.927   1.023   2.143 -0.2486 -0.2749  0.3773
 4912SOL    HW126372   2.008   1.042   2.094  0.1012 -0.4983  0.8705
 4912SOL    HW226373   1.924   0.928   2.129  0.9473 -0.1482 -0.7647
 4913SOL     OW26374   1.235   0.202   7.044 -0.1089  0.2607  0.7833
 4913SOL    HW126375   1.197   0.137   6.986  0.3500  0.6347  0.0601
 4913SOL    HW226376   1.327   0.186   7.024 -0.4903 -0.1689 -0.5918
 4914SOL     OW26377   2.512   1.639   5.747 -0.1234  0.4209  0.2173
 4914SOL    HW126378   2.498   1.560   5.696 -1.6682 -0.1853  1.5919
 4914SOL    HW226379   2.558   1.611   5.826 -1.8154 -0.7404  0.7631
 4915SOL     OW26380   0.742   4.341   2.294 -0.1140 -0.0064  0.2493
 4915SOL    HW126381   0.767   4.282   2.223 -1.5557 -0.0403 -0.2371
 4915SOL    HW226382   0.742   4.418   2.237  2.7065  0.5310  0.9846
 4916SOL     OW26383   1.959   1.330   6.657  0.0165 -0.1758  0.1294
 4916SOL    HW126384   2.013   1.283   6.593  0.3433  1.0464 -0.4755
 4916SOL    HW226385   2.031   1.354   6.715 -0.8352  2.9809 -0.1579
 4917SOL     OW26386   1.090   1.406   9.359 -0.2446  0.2130 -0.3400
 4917SOL    HW126387   1.078   1.471   9.427 -0.2687  0.1553 -0.2888
 4917SOL    HW226388   1.156   1.347   9.395 -1.6115 -0.4787  1.0145
 4918SOL     OW26389   0.517   2.725  10.820  0.2012  0.1305  0.4378
 4918SOL    HW126390   0.423   2.721  10.801  0.4400 -1.1001 -0.5187
 4918SOL    HW226391   0.529   2.816  10.846  1.5965 -0.8899  3.4140
 4919SOL     OW26392   3.103   3.171   8.262  0.6876  0.5964 -0.3388
 4919SOL    HW126393   3.130   3.224   8.337 -1.7129 -1.2684  1.8990
 4919SOL    HW226394   3.162   3.097   8.276 -3.0159 -2.3543 -0.1504
 4920SOL     OW26395   2.939   2.508  13.826  0.1863  0.5705  0.1255
 4920SOL    HW126396   2.928   2.422  13.788 -0.5979  0.8252 -0.2112
 4920SOL    HW226397   2.902   2.568  13.761  1.2450  3.2569  1.9429
 4921SOL     OW26398   1.485   1.351   1.748  0.0515 -0.1933 -0.2959
 4921SOL    HW126399   1.420   1.421   1.736  1.4232  1.1672  0.1604
 4921SOL    HW226400   1.512   1.319   1.662 -2.9992 -1.3716 -0.8116
 4922SOL     OW26401   1.918   3.009   3.122 -0.1031  0.4490  0.0086
 4922SOL    HW126402   1.874   2.923   3.122 -0.6488  0.7285 -1.0753
 4922SOL    HW226403   1.897   3.038   3.211  0.3085 -0.3720  0.3762
 4923SOL     OW26404   1.542   4.582  14.664 -0.4101  0.3773  0.2679
 4923SOL    HW126405   1.543   4.488  14.645 -2.0383  0.0285  1.9667
 4923SOL    HW226406   1.525   4.578  14.758  2.9029  2.0428  0.9167
 4924SOL     OW26407   4.490   0.590  16.519 -0.0614  0.1512  0.3021
 4924SOL    HW126408   4.542   0.663  16.551  1.7084 -0.9183 -0.1392
 4924SOL    HW226409   4.419   0.592  16.583  0.0947 -2.0661  0.5500
 4925SOL     OW26410   1.940   0.069   7.051  0.3687 -0.3914  0.4447
 4925SOL    HW126411   1.951   0.160   7.079  0.2151  0.1989 -1.4007
 4925SOL    HW226412   2.023   0.040   7.089  0.7407  1.5299  1.1054
 4926SOL     OW26413   3.442   2.398   2.738 -0.0042  0.1029 -0.7569
 4926SOL    HW126414   3.521   2.391   2.791 -1.3524 -0.3951  1.2065
 4926SOL    HW226415   3.477   2.439   2.659 -1.9076 -0.3429 -1.8388
 4927SOL     OW26416   1.089   3.675   9.210 -0.1770  0.6053 -0.2685
 4927SOL    HW126417   1.162   3.733   9.187 -0.8374  1.6453  0.2232
 4927SOL    HW226418   1.084   3.615   9.135  2.7777 -1.9637  1.6091
 4928SOL     OW26419   1.340   3.098  14.964  0.0012  0.1135 -0.1542
 4928SOL    HW126420   1.350   3.044  15.043  0.7769  0.6777  0.1365
 4928SOL    HW226421   1.311   3.028  14.905  0.4310 -0.1853 -0.0190
 4929SOL     OW26422   0.280   1.191   8.774  0.1754 -0.1489 -0.4055
 4929SOL    HW126423   0.320   1.176   8.688 -0.3116 -2.3338 -0.2530
 4929SOL    HW226424   0.262   1.103   8.807 -0.8314  0.7392  1.3887
 4930SOL     OW26425   4.132   4.227   9.472 -0.0933  0.8829  0.8090
 4930SOL    HW126426   4.186   4.225   9.393 -0.8412  0.6437  0.3036
 4930SOL    HW226427   4.049   4.186   9.448  1.0943 -1.2284  0.2921
 4931SOL     OW26428   0.468   1.648  13.587 -0.4445  0.6539  0.8514
 4931SOL    HW126429   0.542   1.588  13.601  0.4647  1.8025  0.9266
 4931SOL    HW226430   0.459   1.694  13.670 -3.1751  0.1564  0.8187
 4932SOL     OW26431   0.273   3.395   3.256 -0.6272 -0.4117  0.3050
 4932SOL    HW126432   0.212   3.426   3.189 -1.0631  3.9835  2.7129
 4932SOL    HW226433   0.324   3.476   3.263 -0.9638 -0.1680 -0.1087
 4933SOL     OW26434   0.510   3.281   2.580  0.1433 -0.1706  0.5580
 4933SOL    HW126435   0.488   3.267   2.672  0.1334 -1.2612  0.3896
 4933SOL    HW226436   0.568   3.205   2.577  0.1684 -0.1221 -0.2966
 4934SOL     OW26437   4.247   4.025   7.479  0.0213 -0.1609 -0.2123
 4934SOL    HW126438   4.194   3.973   7.419  0.5944 -1.7370  0.6288
 4934SOL    HW226439   4.258   4.095   7.415 -1.1878  0.6750  0.4872
 4935SOL     OW26440   0.735   0.544   4.788 -0.0172  0.1050  0.0456
 4935SOL    HW126441   0.731   0.627   4.836  2.0564  0.5619 -0.5720
 4935SOL    HW226442   0.828   0.524   4.780 -0.0908  0.4792 -1.8939
 4936SOL     OW26443   1.336   3.113   9.589  0.0620  0.0106 -0.7805
 4936SOL    HW126444   1.278   3.111   9.665  1.8800 -1.8091  0.6018
 4936SOL    HW226445   1.414   3.089   9.640 -1.3992 -0.9344  1.0169
 4937SOL     OW26446   3.575   3.685  12.794  0.2162  0.3444  0.2086
 4937SOL    HW126447   3.564   3.699  12.888  1.1338  0.0046  0.3659
 4937SOL    HW226448   3.670   3.676  12.783 -0.1335 -1.3889 -1.4962
 4938SOL     OW26449   1.103   2.495   0.208 -0.6169  0.0072 -0.6668
 4938SOL    HW126450   1.189   2.511   0.168 -1.9112  0.5123 -3.2539
 4938SOL    HW226451   1.124   2.517   0.299  2.7561  0.8081 -1.6134
 4939SOL     OW26452   0.166   3.035  11.254 -0.5709  0.0142  0.1072
 4939SOL    HW126453   0.191   2.945  11.274  0.7887  0.0001 -1.6679
 4939SOL    HW226454   0.073   3.028  11.233 -1.0002  0.2312  1.9320
 4940SOL     OW26455   0.753   3.970  14.235 -0.0766 -0.0963 -0.6862
 4940SOL    HW126456   0.679   3.913  14.211  0.4858 -1.7168  1.4582
 4940SOL    HW226457   0.754   4.030  14.160 -2.6750  0.8068  0.0029
 4941SOL     OW26458   1.710   0.523   3.165 -0.5043  0.0113  0.0160
 4941SOL    HW126459   1.669   0.608   3.146  1.0440  0.9311  0.7513
 4941SOL    HW226460   1.741   0.533   3.255 -0.0355 -2.3778  0.1115
 4942SOL     OW26461   1.431   0.697   2.584 -0.3046 -0.3882  0.4395
 4942SOL    HW126462   1.358   0.759   2.589 -1.1791 -1.3093 -0.6783
 4942SOL    HW226463   1.393   0.622   2.537 -0.5515  0.9817 -1.5372
 4943SOL     OW26464   3.039   2.519  16.252  0.4421  0.3430 -0.5829
 4943SOL    HW126465   3.118   2.529  16.199  0.3718  2.5682 -0.2396
 4943SOL    HW226466   3.049   2.594  16.310  0.2634 -2.2760  2.8779
 4944SOL     OW26467   2.168   0.552  17.227 -0.1062  0.3038 -0.4292
 4944SOL    HW126468   2.142   0.603  17.304 -1.6622 -0.3483 -0.5246
 4944SOL    HW226469   2.241   0.598  17.186  0.8602  0.1154  1.0927
 4945SOL     OW26470   4.614   3.264   1.244  0.3532  0.0854  0.0854
 4945SOL    HW126471   4.579   3.340   1.291  1.8156 -0.1146  1.4673
 4945SOL    HW226472   4.624   3.212   1.323 -2.1384  1.6243  1.4275
 4946SOL     OW26473   4.009   1.051  12.452  0.4515 -0.0703  0.2085
 4946SOL    HW126474   3.926   1.011  12.477  1.0246 -1.2901  0.1696
 4946SOL    HW226475   3.983   1.132  12.407 -0.1688 -0.1652  0.3983
 4947SOL     OW26476   3.215   3.339  10.865 -0.0881  0.2711 -0.0025
 4947SOL    HW126477   3.267   3.359  10.788 -2.6596 -0.0714 -1.8278
 4947SOL    HW226478   3.143   3.402  10.868  0.4438  0.8360  0.7910
 4948SOL     OW26479   1.788   0.337   2.003  0.1529 -0.3489 -0.1838
 4948SOL    HW126480   1.771   0.427   2.032 -1.8573 -0.5882 -0.6807
 4948SOL    HW226481   1.709   0.284   2.006  0.2450 -0.4250  0.9289
 4949SOL     OW26482   2.699   1.141   9.242 -0.1166 -0.3986  0.0962
 4949SOL    HW126483   2.640   1.082   9.288  0.1704 -0.4070  0.4563
 4949SOL    HW226484   2.782   1.100   9.266 -0.9875 -0.7585  2.5252
 4950SOL     OW26485   3.882   4.129  14.919 -0.1477  0.4034 -0.2015
 4950SOL    HW126486   3.841   4.070  14.856  0.8304 -0.3748 -0.1023
 4950SOL    HW226487   3.860   4.079  14.998  0.6752 -0.8340 -0.7799
 4951SOL     OW26488   0.600   4.258   1.210 -0.2688 -0.0648  0.8419
 4951SOL    HW126489   0.633   4.319   1.144  1.6186 -0.9232  0.9950
 4951SOL    HW226490   0.674   4.261   1.271  0.5497  4.6528 -0.4003
 4952SOL     OW26491   2.853   0.552  12.016  0.3812  0.2323 -0.0098
 4952SOL    HW126492   2.835   0.494  11.942  1.1338  1.0684 -0.8355
 4952SOL    HW226493   2.881   0.483  12.077  1.2277  2.2320  1.8570
 4953SOL     OW26494   0.783   4.723  16.767 -0.5880 -1.1654 -0.2815
 4953SOL    HW126495   0.848   4.734  16.836  0.3941 -0.7768 -1.2915
 4953SOL    HW226496   0.834   4.725  16.687 -0.6133 -0.6563 -0.2832
 4954SOL     OW26497   3.438   4.377   6.660 -0.4924 -0.0181 -0.1379
 4954SOL    HW126498   3.362   4.383   6.603 -0.6684  0.5072  0.1511
 4954SOL    HW226499   3.500   4.418   6.600 -1.9232  0.5953 -1.1655
 4955SOL     OW26500   1.378   0.853   4.411  0.8239 -0.3175  0.3528
 4955SOL    HW126501   1.319   0.869   4.484  1.4129 -1.4032  1.0723
 4955SOL    HW226502   1.457   0.903   4.433 -0.8781  1.5449  2.2475
 4956SOL     OW26503   0.716   1.984   2.397 -0.1583  0.2907  0.7385
 4956SOL    HW126504   0.699   1.894   2.425 -1.8843  0.0159 -1.1291
 4956SOL    HW226505   0.806   2.010   2.418  1.0084 -3.7724  0.7150
 4957SOL     OW26506   2.639   0.950   4.917 -0.0991  0.0856 -0.1218
 4957SOL    HW126507   2.548   0.933   4.941  0.4111 -0.6025  1.3190
 4957SOL    HW226508   2.683   0.870   4.946 -0.4371 -0.3841 -0.8964
 4958SOL     OW26509   0.397   1.607   0.206 -0.0418 -0.6142 -0.5744
 4958SOL    HW126510   0.312   1.651   0.196  0.5436  1.0019  1.5012
 4958SOL    HW226511   0.456   1.682   0.205 -1.9011  0.8834  1.1497
 4959SOL     OW26512   0.241   4.513   7.396 -0.1553  0.4288 -0.0563
 4959SOL    HW126513   0.173   4.529   7.461 -0.8711  2.4899 -1.2861
 4959SOL    HW226514   0.212   4.569   7.324  1.8765  1.3527 -0.1419
 4960SOL     OW26515   2.683   1.772   3.378 -0.0919  0.0228  0.2969
 4960SOL    HW126516   2.715   1.691   3.339 -2.7511 -0.2209 -1.4313
 4960SOL    HW226517   2.644   1.741   3.460  0.7730  0.5144  0.8836
 4961SOL     OW26518   0.564   0.414   1.005 -0.0433 -0.3999 -0.1577
 4961SOL    HW126519   0.530   0.424   0.916  0.8517  1.0981 -0.3294
 4961SOL    HW226520   0.621   0.489   1.022 -0.5650  0.0077 -0.2125
 4962SOL     OW26521   2.801   3.094   9.326 -0.0491  0.6414  0.1742
 4962SOL    HW126522   2.768   3.137   9.405 -0.4891  1.8331 -0.6468
 4962SOL    HW226523   2.727   3.104   9.267  0.0006  0.3170  0.0612
 4963SOL     OW26524   0.599   1.585   2.724 -0.2471 -0.1716  0.5519
 4963SOL    HW126525   0.644   1.628   2.652  1.6662 -0.9772  1.2568
 4963SOL    HW226526   0.613   1.652   2.790 -1.2737  0.7890 -0.2087
 4964SOL     OW26527   3.358   3.018  16.653 -0.4012  0.0721  0.4766
 4964SOL    HW126528   3.419   2.957  16.612 -2.1194 -0.8226 -0.7830
 4964SOL    HW226529   3.379   3.101  16.610 -0.4377  0.1251  0.5605
 4965SOL     OW26530   1.659   0.049   4.152 -0.0132  0.2927  0.3039
 4965SOL    HW126531   1.598   0.101   4.101  0.7959  0.6268 -0.3343
 4965SOL    HW226532   1.641   4.699   4.117  0.0392 -0.3044  1.7522
 4966SOL     OW26533   1.712   0.494   6.757  0.4955 -0.1190 -0.0637
 4966SOL    HW126534   1.788   0.466   6.706 -0.1984 -0.6979 -0.7755
 4966SOL    HW226535   1.649   0.476   6.688 -1.0322  0.6666  1.1188
 4967SOL     OW26536   4.522   2.642  14.683 -0.4543  0.1110 -0.2698
 4967SOL    HW126537   4.539   2.688  14.766  0.0737  2.1096 -1.4732
 4967SOL    HW226538   4.460   2.572  14.706 -1.4500  1.3542  0.8658
 4968SOL     OW26539   0.705   3.626   4.690 -0.1769  0.4863 -0.0337
 4968SOL    HW126540   0.624   3.583   4.719 -0.3585  0.8291 -0.0363
 4968SOL    HW226541   0.692   3.711   4.732 -0.3183  0.7086 -0.5260
 4969SOL     OW26542   1.075   0.694  11.476 -0.4857 -0.1701 -0.4325
 4969SOL    HW126543   0.991   0.684  11.432  1.1873 -0.4946 -3.5381
 4969SOL    HW226544   1.059   0.779  11.518 -0.4538 -0.0836 -0.5964
 4970SOL     OW26545   1.623   1.316  12.697  0.3388  0.0746 -0.0608
 4970SOL    HW126546   1.563   1.338  12.768 -2.1868 -0.9883 -1.8816
 4970SOL    HW226547   1.604   1.225  12.674 -0.1921  0.2789 -0.4282
 4971SOL     OW26548   0.389   0.369  14.943 -0.3440  0.0012  0.2258
 4971SOL    HW126549   0.450   0.300  14.914 -0.5757  0.8726 -2.3310
 4971SOL    HW226550   0.371   0.346  15.034 -0.8265  1.5492  0.5091
 4972SOL     OW26551   4.388   0.156   2.836 -0.1190  0.6853 -0.4183
 4972SOL    HW126552   4.432   0.129   2.756  2.2758  3.9493 -0.2059
 4972SOL    HW226553   4.303   0.189   2.808 -0.1331 -0.4303 -1.6771
 4973SOL     OW26554   0.548   4.474  15.379 -0.2658  0.0722  0.3308
 4973SOL    HW126555   0.506   4.388  15.389 -2.9686  1.2668 -0.6600
 4973SOL    HW226556   0.619   4.457  15.440  0.8795 -1.3573 -1.4171
 4974SOL     OW26557   1.837   3.164  11.907 -0.1983 -0.5991  0.2686
 4974SOL    HW126558   1.877   3.136  11.989  0.1879 -2.5055 -0.5761
 4974SOL    HW226559   1.884   3.113  11.841  1.7271  1.2568  0.2316
 4975SOL     OW26560   2.822   3.558   7.873  0.2263  0.4791  0.4209
 4975SOL    HW126561   2.791   3.469   7.891  2.5954 -0.7159 -1.4157
 4975SOL    HW226562   2.742   3.594   7.835 -0.5760 -0.9676  0.7037
 4976SOL     OW26563   2.772   0.358  16.065 -0.2288  0.2837  0.6230
 4976SOL    HW126564   2.783   0.452  16.082 -0.4414  0.2780  0.7926
 4976SOL    HW226565   2.708   0.348  15.995 -0.3683 -1.0205  0.9411
 4977SOL     OW26566   4.225   0.663   8.044  0.5339 -0.2262 -0.0253
 4977SOL    HW126567   4.179   0.747   8.039 -0.7028 -0.9355 -0.6600
 4977SOL    HW226568   4.243   0.647   7.952  1.5156  0.1399  0.1058
 4978SOL     OW26569   4.179   4.083   8.038 -0.7292  0.3853  0.2058
 4978SOL    HW126570   4.175   4.115   7.948  0.6155  2.7447  0.9771
 4978SOL    HW226571   4.227   4.159   8.071  1.4236 -0.6063 -0.6713
 4979SOL     OW26572   3.301   2.046   6.093 -0.3350 -0.0692  0.1641
 4979SOL    HW126573   3.314   2.107   6.166 -1.5649  0.7913 -0.3401
 4979SOL    HW226574   3.314   2.088   6.008  0.5316 -0.1920  0.2401
 4980SOL     OW26575   1.117   4.290   2.300 -0.6189 -0.1558 -0.6638
 4980SOL    HW126576   1.122   4.335   2.385  1.7848 -0.3924 -0.6705
 4980SOL    HW226577   1.097   4.203   2.334 -2.1870  0.2517 -0.5481
 4981SOL     OW26578   2.612   2.275  13.072  0.0721  0.4640 -0.0734
 4981SOL    HW126579   2.626   2.238  13.159 -3.1727 -1.8989 -0.5589
 4981SOL    HW226580   2.611   2.369  13.089 -2.6381  0.6546 -1.2863
 4982SOL     OW26581   0.261   4.083  12.119  0.0495 -0.0614 -0.0864
 4982SOL    HW126582   0.203   4.012  12.093  0.5820 -0.0955 -1.1874
 4982SOL    HW226583   0.347   4.043  12.106 -0.2886 -0.8176 -0.0094
 4983SOL     OW26584   2.281   1.828  17.533  0.4378  0.2632  0.1191
 4983SOL    HW126585   2.233   1.811  17.615  0.2605 -1.5115 -0.3538
 4983SOL    HW226586   2.269   1.921  17.513 -0.7796 -0.1159 -0.8890
 4984SOL     OW26587   1.674   1.893  11.562 -0.0059  0.0017 -0.3040
 4984SOL    HW126588   1.711   1.891  11.474 -1.5012 -0.4233 -0.9235
 4984SOL    HW226589   1.752   1.931  11.601 -0.7560  1.3349 -0.1080
 4985SOL     OW26590   2.349   0.424   2.417  0.2293 -0.3493 -0.2567
 4985SOL    HW126591   2.444   0.410   2.421  0.3097 -0.0773 -1.1740
 4985SOL    HW226592   2.337   0.503   2.364 -2.6134 -1.3721 -1.0981
 4986SOL     OW26593   4.697   0.208   3.546  0.2076  0.5522  0.1798
 4986SOL    HW126594   4.605   0.185   3.558  1.2767 -2.1747  3.4514
 4986SOL    HW226595   4.703   0.204   3.450  0.7376 -0.2358  0.2379
 4987SOL     OW26596   3.971   0.910   9.295  0.5173 -0.2957  0.6943
 4987SOL    HW126597   3.944   0.820   9.315 -1.3720  0.5265  1.9195
 4987SOL    HW226598   3.986   0.929   9.388  0.1499 -0.9333  0.8872
 4988SOL     OW26599   3.658   2.784   7.677 -0.0024 -0.9923  0.2940
 4988SOL    HW126600   3.685   2.767   7.587  0.8159 -2.0708  0.7388
 4988SOL    HW226601   3.706   2.712   7.717  2.6994 -0.2354 -1.6249
 4989SOL     OW26602   3.818   4.543  13.387  0.4433  1.0916 -0.9531
 4989SOL    HW126603   3.775   4.595  13.319 -3.4645  0.3367  0.9481
 4989SOL    HW226604   3.901   4.581  13.359  2.2118 -1.4147  0.8874
 4990SOL     OW26605   3.337   4.704   3.507  0.1615  0.3203 -0.0568
 4990SOL    HW126606   3.308   0.058   3.491  2.6823  0.8778 -1.4486
 4990SOL    HW226607   3.255   4.670   3.544 -0.5483 -0.8801 -2.7052
 4991SOL     OW26608   4.400   1.935   9.256  0.2777 -0.4419  0.5747
 4991SOL    HW126609   4.452   1.881   9.315 -1.2628  1.5915  3.8214
 4991SOL    HW226610   4.321   1.947   9.310 -0.2625 -0.6859 -0.1571
 4992SOL     OW26611   0.047   0.485   8.002 -0.5276  1.1864  0.1694
 4992SOL    HW126612   0.050   0.531   7.919 -0.8193 -0.7452 -0.9045
 4992SOL    HW226613   0.014   0.397   7.984  1.5844  0.5811 -0.6118
 4993SOL     OW26614   1.383   3.486  14.750 -0.2060 -0.1086 -0.4257
 4993SOL    HW126615   1.330   3.557  14.787  0.5551 -0.2420  0.9188
 4993SOL    HW226616   1.386   3.529  14.665 -0.7261 -0.4264 -0.6051
 4994SOL     OW26617   3.654   3.612  10.757 -0.2021  0.3249 -0.7610
 4994SOL    HW126618   3.710   3.561  10.698 -1.6820  0.6017 -2.4045
 4994SOL    HW226619   3.570   3.576  10.732  0.2616 -0.3560 -1.3459
 4995SOL     OW26620   3.633   2.851   7.951  0.1009  0.4441  0.0796
 4995SOL    HW126621   3.685   2.932   7.945  1.3355 -0.1701  2.5630
 4995SOL    HW226622   3.638   2.816   7.862 -1.0346 -0.0397  0.2143
 4996SOL     OW26623   3.861   0.422   4.533 -0.0513  0.1968 -0.5080
 4996SOL    HW126624   3.842   0.512   4.560 -0.0753  0.3119 -0.9029
 4996SOL    HW226625   3.878   0.431   4.439 -0.9817 -1.1515 -0.7959
 4997SOL     OW26626   2.080   0.365   9.396 -0.9432 -0.5576  0.4976
 4997SOL    HW126627   2.168   0.329   9.407 -0.5166 -0.2747 -1.8475
 4997SOL    HW226628   2.067   0.426   9.469 -3.0453 -0.2483 -0.1246
 4998SOL     OW26629   4.423   0.216   5.495 -0.0824 -0.1088 -0.1625
 4998SOL    HW126630   4.504   0.244   5.453 -1.7034  2.2035 -1.7661
 4998SOL    HW226631   4.449   0.129   5.527  1.2632 -0.5208 -2.4302
 4999SOL     OW26632   1.017   1.643   4.023 -0.3763 -0.6020  0.2934
 4999SOL    HW126633   0.949   1.588   3.983 -2.6314  2.3732  0.0401
 4999SOL    HW226634   0.979   1.729   4.004 -0.2010 -0.5448  0.2012
 5000SOL     OW26635   0.567   2.021  17.734  0.3441  0.3039 -0.2995
 5000SOL    HW126636   0.622   2.097  17.716  0.2747  0.5770  0.6727
 5000SOL    HW226637   0.565   1.981  17.646 -0.9662 -1.1798  0.3989
 5001SOL     OW26638   1.157   4.372   4.267 -0.4313  0.5290 -0.0312
 5001SOL    HW126639   1.203   4.316   4.329  2.2192  2.0524 -0.6583
 5001SOL    HW226640   1.130   4.298   4.214  0.1279 -0.3372  0.8996
 5002SOL     OW26641   0.919   1.452   6.605  0.2948 -0.3290 -0.3537
 5002SOL    HW126642   0.946   1.462   6.514  1.2477  1.0841  0.0836
 5002SOL    HW226643   0.843   1.395   6.600  1.5830 -2.3111  2.2903
 5003SOL     OW26644   2.726   2.327   1.474  0.3986 -0.1972 -0.2178
 5003SOL    HW126645   2.743   2.306   1.566 -1.9878  1.5844  0.6149
 5003SOL    HW226646   2.810   2.332   1.427  0.2360 -1.8535 -0.6708
 5004SOL     OW26647   4.587   4.252   8.428  0.3436  0.3235 -0.0740
 5004SOL    HW126648   4.641   4.243   8.350 -1.7917  1.7259 -1.7295
 5004SOL    HW226649   4.628   4.169   8.451  0.1729  1.1141  3.0887
 5005SOL     OW26650   1.184   4.543   1.755  0.4008  0.0458 -0.7697
 5005SOL    HW126651   1.198   4.619   1.699  0.9826  1.1697  0.8943
 5005SOL    HW226652   1.195   4.594   1.836  0.5098 -1.7144  0.3336
 5006SOL     OW26653   0.641   3.851   4.864  0.2287  0.2920  0.5820
 5006SOL    HW126654   0.553   3.874   4.895  0.7634  1.4069  1.2829
 5006SOL    HW226655   0.677   3.803   4.938 -0.3779 -2.0257 -0.6420
 5007SOL     OW26656   4.326   3.920   7.238 -0.0567  0.9839 -0.2135
 5007SOL    HW126657   4.346   4.014   7.231  2.3298  0.4381 -0.5782
 5007SOL    HW226658   4.297   3.898   7.150 -2.2916 -0.9571  0.9972
 5008SOL     OW26659   3.191   3.835   0.427  0.2614  0.0738 -0.7532
 5008SOL    HW126660   3.264   3.861   0.371 -0.3216  2.0980 -0.5791
 5008SOL    HW226661   3.145   3.765   0.380 -0.8261  0.0047  0.4013
 5009SOL     OW26662   4.252   2.968   0.662 -0.1437 -0.0504  0.1351
 5009SOL    HW126663   4.212   3.046   0.700  1.1403  0.6103  0.1643
 5009SOL    HW226664   4.178   2.935   0.612  0.7061 -0.0785 -1.1047
 5010SOL     OW26665   2.640   1.420  16.370 -0.4874 -0.2105 -0.0619
 5010SOL    HW126666   2.559   1.391  16.411 -1.4245 -0.5749 -2.1719
 5010SOL    HW226667   2.629   1.391  16.280  0.1825  0.8740 -0.5031
 5011SOL     OW26668   3.854   0.469  16.833  0.0067 -0.1052  0.3319
 5011SOL    HW126669   3.915   0.423  16.890 -0.1566  1.7371  1.9505
 5011SOL    HW226670   3.838   0.554  16.872  0.9636 -1.1973  3.0571
 5012SOL     OW26671   1.650   3.828  17.699  0.4307 -0.1889  0.3596
 5012SOL    HW126672   1.703   3.853   0.029  0.4939  1.0912 -0.1133
 5012SOL    HW226673   1.708   3.815  17.624 -0.3279  0.2760 -0.3137
 5013SOL     OW26674   1.185   3.232  10.361  0.3838 -0.1165  0.2045
 5013SOL    HW126675   1.215   3.313  10.320 -0.4626 -0.6609 -1.4895
 5013SOL    HW226676   1.270   3.192  10.380  1.0031  1.5309  0.9076
 5014SOL     OW26677   1.925   2.975   4.280  0.2302  0.1517 -0.1865
 5014SOL    HW126678   2.003   3.027   4.260  0.4190  0.2444  0.7482
 5014SOL    HW226679   1.875   3.039   4.332  2.1910  0.1159  1.7580
 5015SOL     OW26680   0.751   0.435   9.062 -0.1465 -0.8290 -0.1806
 5015SOL    HW126681   0.678   0.376   9.045  0.0071 -0.7909 -0.9542
 5015SOL    HW226682   0.822   0.374   9.081 -0.5132 -1.6225 -1.3948
 5016SOL     OW26683   1.274   4.365   7.599 -0.1623 -0.0690 -0.3235
 5016SOL    HW126684   1.364   4.332   7.591  0.2842  1.3632 -1.2178
 5016SOL    HW226685   1.294   4.457   7.585 -0.0133 -0.0265  0.1647
 5017SOL     OW26686   3.380   3.790   1.741  0.5876  0.0338  0.0659
 5017SOL    HW126687   3.346   3.724   1.801  0.7652 -0.0867  0.0364
 5017SOL    HW226688   3.313   3.857   1.754  1.5135  1.1350 -0.8244
 5018SOL     OW26689   4.443   0.772   5.438  0.3504 -0.0712 -0.1891
 5018SOL    HW126690   4.463   0.686   5.475  2.5323  1.4601  2.1846
 5018SOL    HW226691   4.397   0.748   5.357 -1.5464  2.1512  0.2657
 5019SOL     OW26692   2.818   0.792   1.603  0.0930  0.7694  0.2582
 5019SOL    HW126693   2.813   0.727   1.673  0.5833 -2.1639 -2.4863
 5019SOL    HW226694   2.914   0.793   1.596  0.2427  1.4771  2.4104
 5020SOL     OW26695   4.512   2.766   2.505 -0.1686 -0.0661 -0.1474
 5020SOL    HW126696   4.515   2.672   2.484 -1.0938 -0.0151 -0.5297
 5020SOL    HW226697   4.599   2.791   2.533 -0.4967 -0.4890  1.2688
 5021SOL     OW26698   2.712   3.109   0.472  0.1181  0.1660  0.1706
 5021SOL    HW126699   2.797   3.088   0.512 -0.7236 -0.5553  1.6012
 5021SOL    HW226700   2.717   3.075   0.383  1.5917 -0.7092  0.5885
 5022SOL     OW26701   3.705   0.021  12.378  0.2721 -0.0202 -0.2686
 5022SOL    HW126702   3.766   0.070  12.433 -1.9517  1.8586  0.5602
 5022SOL    HW226703   3.640   0.090  12.362  1.2424  1.0133  0.1996
 5023SOL     OW26704   4.255   4.633   2.318  0.4508  0.0482  0.4422
 5023SOL    HW126705   4.294   4.715   2.348 -0.4256  0.3182  0.8517
 5023SOL    HW226706   4.176   4.634   2.373 -0.1839 -1.6672 -0.4483
 5024SOL     OW26707   0.709   2.251  17.692 -0.3181  0.1580 -0.4600
 5024SOL    HW126708   0.787   2.271  17.743 -1.2162  2.1013  0.1363
 5024SOL    HW226709   0.735   2.228  17.602 -1.7431 -2.1268 -0.2699
 5025SOL     OW26710   4.723   0.347   5.759  0.0310  0.4636 -0.1707
 5025SOL    HW126711   4.735   0.276   5.696  1.6339 -0.7265  1.4490
 5025SOL    HW226712   0.030   0.304   5.833  0.0883 -2.1869 -1.7394
 5026SOL     OW26713   4.698   2.139   4.152  0.1356  0.4048  0.1143
 5026SOL    HW126714   4.654   2.179   4.076  1.3431  0.2901 -0.6556
 5026SOL    HW226715   0.030   2.204   4.164  0.2705  0.9710 -3.6086
 5027SOL     OW26716   4.189   3.192   2.053  0.1914 -0.3031  0.0650
 5027SOL    HW126717   4.103   3.152   2.044  0.8244 -0.8255 -3.9600
 5027SOL    HW226718   4.211   3.206   1.961  0.0863  0.3081  0.1347
 5028SOL     OW26719   0.829   2.076   8.303  0.3250  0.1570 -0.1616
 5028SOL    HW126720   0.908   2.026   8.282  1.1415  0.3404  2.5186
 5028SOL    HW226721   0.859   2.165   8.323  1.6871 -0.1517 -0.8155
 5029SOL     OW26722   4.715   3.305   5.193  0.5361  0.1407  0.0990
 5029SOL    HW126723   4.626   3.272   5.206  0.4187  0.3786 -0.0993
 5029SOL    HW226724   0.021   3.284   5.276  2.1879  0.1955 -0.7143
 5030SOL     OW26725   3.975   3.536   8.346 -0.3391  0.1924  0.3888
 5030SOL    HW126726   4.019   3.472   8.401 -1.9750 -0.8592  0.4600
 5030SOL    HW226727   3.902   3.560   8.404  0.2308  0.1765  1.1158
 5031SOL     OW26728   1.612   2.693   5.564 -0.7595  0.3893  0.1450
 5031SOL    HW126729   1.683   2.637   5.596  0.7464  0.8077 -2.5027
 5031SOL    HW226730   1.625   2.675   5.471  1.1076  0.9558  0.2910
 5032SOL     OW26731   0.994   1.910   7.614 -0.0588 -0.0267  0.2046
 5032SOL    HW126732   1.015   1.888   7.705  0.9371 -1.1785 -0.3051
 5032SOL    HW226733   0.911   1.866   7.594  0.5672 -0.6116 -1.0863
 5033SOL     OW26734   3.899   1.531   2.665  0.3146 -0.5778  0.7199
 5033SOL    HW126735   3.849   1.580   2.730  1.3644 -1.3197  2.0825
 5033SOL    HW226736   3.969   1.497   2.721  2.7485  1.0867 -1.2931
 5034SOL     OW26737   0.766   2.466  14.261  0.1021  0.5038 -0.2722
 5034SOL    HW126738   0.720   2.390  14.296 -0.1677  0.4332 -0.7701
 5034SOL    HW226739   0.851   2.428  14.235  0.0926  0.3700 -0.1097
 5035SOL     OW26740   0.981   1.394   4.486 -0.2430  0.1066  0.4632
 5035SOL    HW126741   1.052   1.377   4.548 -0.3934  0.0308  0.6135
 5035SOL    HW226742   0.994   1.487   4.468  4.6582 -0.4798  0.8958
 5036SOL     OW26743   4.573   1.650   8.396 -0.1187 -0.8246  0.2037
 5036SOL    HW126744   4.635   1.582   8.426  0.4166 -0.2892  0.3105
 5036SOL    HW226745   4.512   1.593   8.350 -2.5324  1.1682  0.9352
 5037SOL     OW26746   1.492   4.467   2.148  0.4616 -0.4088  0.5237
 5037SOL    HW126747   1.560   4.416   2.192  2.3841  0.9092 -0.9194
 5037SOL    HW226748   1.546   4.502   2.077 -0.2104  4.0123  2.1950
 5038SOL     OW26749   1.368   1.103  14.497 -0.3551 -0.2893 -0.2255
 5038SOL    HW126750   1.396   1.069  14.413  2.2389  0.4392  0.3428
 5038SOL    HW226751   1.423   1.181  14.506  0.1921 -0.6533 -0.4326
 5039SOL     OW26752   3.469   4.701   2.344 -0.1360  0.5503  0.5674
 5039SOL    HW126753   3.552   4.730   2.384 -0.0907  1.1010  0.0762
 5039SOL    HW226754   3.442   0.054   2.322  0.1180 -0.0397 -2.1265
 5040SOL     OW26755   0.743   3.193   4.997  0.1352 -0.0056 -0.2282
 5040SOL    HW126756   0.780   3.198   4.909 -3.2884  0.4213 -1.6606
 5040SOL    HW226757   0.675   3.261   5.000 -0.5029 -0.7188  1.1702
 5041SOL     OW26758   4.353   2.977   0.045  0.4647  0.2778 -0.5953
 5041SOL    HW126759   4.317   3.066   0.051  0.3952  0.1089  1.4813
 5041SOL    HW226760   4.310   2.938  17.714  2.8808 -0.0663 -1.7753
 5042SOL     OW26761   3.877   2.653   3.313 -0.0028  0.2080 -1.0182
 5042SOL    HW126762   3.950   2.716   3.315  1.2274 -1.2432  0.1276
 5042SOL    HW226763   3.884   2.630   3.405  0.9353  2.7565 -0.4686
 5043SOL     OW26764   2.718   3.959   6.418  0.0030  0.6803  0.5823
 5043SOL    HW126765   2.747   4.044   6.450  0.4402  0.7032  0.1243
 5043SOL    HW226766   2.803   3.917   6.421  0.5455  1.6385 -1.3064
 5044SOL     OW26767   2.392   1.695   2.986  0.7922 -0.0575 -0.0518
 5044SOL    HW126768   2.442   1.614   2.974 -0.3994 -0.9315  0.8051
 5044SOL    HW226769   2.383   1.706   2.892  0.0249  0.4648  0.0846
 5045SOL     OW26770   2.023   0.005   7.406  0.5335 -0.4678 -0.2012
 5045SOL    HW126771   2.073   0.046   7.336  0.1374  2.5961  1.3251
 5045SOL    HW226772   2.092   4.708   7.463 -0.3160  0.0649  1.1294
 5046SOL     OW26773   3.771   3.681  13.629  0.2931 -0.5418 -1.0191
 5046SOL    HW126774   3.788   3.642  13.715 -0.0283  1.6721  0.0636
 5046SOL    HW226775   3.677   3.698  13.632  0.9088  2.4253  2.4844
 5047SOL     OW26776   0.360   1.182   7.867 -0.2891  0.6599 -0.6241
 5047SOL    HW126777   0.405   1.236   7.803 -0.8338 -0.8651 -2.3195
 5047SOL    HW226778   0.347   1.242   7.940  0.1403 -0.8323  0.6826
 5048SOL     OW26779   4.722   2.318   2.620  0.0910  0.4623  0.1537
 5048SOL    HW126780   4.714   2.405   2.658  0.2562  1.3215 -1.7669
 5048SOL    HW226781   4.630   2.295   2.605  0.4330  0.8356 -2.6430
 5049SOL     OW26782   1.616   4.643   0.901 -0.2285 -0.4319  0.1750
 5049SOL    HW126783   1.569   4.681   0.975  1.1753  1.8734 -0.1389
 5049SOL    HW226784   1.686   4.708   0.898 -1.0404  0.3873 -0.6566
 5050SOL     OW26785   0.862   2.915  13.651  0.0875 -0.2651 -0.8614
 5050SOL    HW126786   0.890   3.003  13.675  2.3043 -1.0533 -0.5717
 5050SOL    HW226787   0.773   2.922  13.615 -0.5082 -0.6120  0.5269
 5051SOL     OW26788   0.572   4.509  10.769  0.0791 -0.1439  0.6010
 5051SOL    HW126789   0.564   4.511  10.865  1.9789  0.8912  0.7539
 5051SOL    HW226790   0.558   4.416  10.750  3.7928 -0.1883 -1.9542
 5052SOL     OW26791   2.345   0.818   5.995 -0.2912 -0.5028  0.4501
 5052SOL    HW126792   2.402   0.881   6.038  1.6918 -1.9141 -0.0851
 5052SOL    HW226793   2.390   0.817   5.911 -1.7863 -1.0718 -0.3463
 5053SOL     OW26794   1.147   3.448   8.547 -0.2357  0.4707  0.3459
 5053SOL    HW126795   1.168   3.377   8.486 -1.7479  0.3205 -0.0138
 5053SOL    HW226796   1.087   3.502   8.496 -1.2859  1.1759  2.2986
 5054SOL     OW26797   1.533   3.158   3.941 -0.2126 -0.2082  0.2136
 5054SOL    HW126798   1.455   3.156   3.996  0.8740  0.8245  1.8247
 5054SOL    HW226799   1.598   3.108   3.991  0.3158  1.7191  1.4789
 5055SOL     OW26800   4.290   0.389  14.350  0.2251 -0.0725  0.4592
 5055SOL    HW126801   4.380   0.407  14.375 -0.5654  2.9019  1.0880
 5055SOL    HW226802   4.250   0.469  14.384 -0.3779  0.3924 -1.3623
 5056SOL     OW26803   4.424   2.513   3.386 -0.2985  0.0234 -0.0622
 5056SOL    HW126804   4.356   2.549   3.444  1.9731 -1.1338  3.2785
 5056SOL    HW226805   4.457   2.443   3.441  0.1524 -0.7854 -1.3513
 5057SOL     OW26806   2.070   4.608   2.865  0.7079  0.3127 -0.1843
 5057SOL    HW126807   2.014   4.682   2.841 -0.3058 -1.0089 -1.8433
 5057SOL    HW226808   2.157   4.642   2.841  0.5793  1.0515  0.3632
 5058SOL     OW26809   4.045   1.414   8.708  0.1810 -0.3247  0.1091
 5058SOL    HW126810   3.980   1.386   8.644  1.6756 -1.3933 -0.9273
 5058SOL    HW226811   4.088   1.330   8.717 -1.9061 -1.4274 -0.1958
 5059SOL     OW26812   1.183   1.660  14.348  0.2934  0.2570  0.0407
 5059SOL    HW126813   1.218   1.585  14.299  0.3849  0.1984  0.1951
 5059SOL    HW226814   1.202   1.647  14.441  1.8610  1.7370 -0.0751
 5060SOL     OW26815   0.066   3.382   4.962  0.1234 -0.6904  0.2323
 5060SOL    HW126816   0.039   3.356   5.051 -0.9765 -3.3087 -0.8545
 5060SOL    HW226817   4.724   3.354   4.916  0.6131 -2.3570  0.4056
 5061SOL     OW26818   4.157   4.014  12.136  0.0527  0.0507  0.3543
 5061SOL    HW126819   4.186   3.955  12.206  3.9848 -0.0875 -1.3919
 5061SOL    HW226820   4.228   3.999  12.073  0.4110 -0.6118  0.9078
 5062SOL     OW26821   2.383   1.802   9.281 -0.0798 -0.0483  0.1320
 5062SOL    HW126822   2.365   1.712   9.254  0.4831 -0.0838 -0.1203
 5062SOL    HW226823   2.477   1.818   9.271 -0.2933  2.3323  1.9353
 5063SOL     OW26824   3.773   1.388   7.103 -0.3629 -0.1199 -0.3666
 5063SOL    HW126825   3.757   1.377   7.197 -1.3925 -0.9897 -0.6353
 5063SOL    HW226826   3.695   1.439   7.082  0.4909  1.3179 -0.0390
 5064SOL     OW26827   3.225   3.307  15.663 -0.7338  0.1733  0.0998
 5064SOL    HW126828   3.299   3.355  15.700 -0.0175  0.4974 -1.7650
 5064SOL    HW226829   3.250   3.215  15.662  0.1025  0.4024  0.0338
 5065SOL     OW26830   3.093   3.414   6.388 -0.0093  0.6509  0.5043
 5065SOL    HW126831   3.006   3.427   6.350 -0.2654 -0.5566  0.6783
 5065SOL    HW226832   3.124   3.500   6.361  1.3041 -0.2206 -0.7891
 5066SOL     OW26833   4.414   2.237  16.069 -0.0666 -0.4074  0.1339
 5066SOL    HW126834   4.336   2.284  16.097  0.6802  1.2804 -0.6558
 5066SOL    HW226835   4.482   2.287  16.115  0.3291 -0.3934 -0.4619
 5067SOL     OW26836   0.556   0.027   8.189  0.4029 -0.2871  0.1406
 5067SOL    HW126837   0.605   0.018   8.271  0.8806  1.3661  0.0290
 5067SOL    HW226838   0.625   0.053   8.128 -1.1776  1.8018 -0.7631
 5068SOL     OW26839   0.293   4.059   6.272 -0.0493  0.2124 -0.2699
 5068SOL    HW126840   0.250   3.974   6.273  3.3445 -1.4723  0.5155
 5068SOL    HW226841   0.321   4.063   6.181 -0.1535  0.0218 -0.3116
 5069SOL     OW26842   2.452   0.600   7.705  0.1235  0.0375 -0.3354
 5069SOL    HW126843   2.539   0.569   7.680 -0.4447  0.2560 -2.5881
 5069SOL    HW226844   2.434   0.663   7.635  0.0123  0.9753  0.5434
 5070SOL     OW26845   0.202   1.261   7.422  0.2996  0.0532 -0.2041
 5070SOL    HW126846   0.249   1.181   7.445  0.9961  0.9899  1.5937
 5070SOL    HW226847   0.268   1.326   7.444  0.6567 -0.5321  0.4556
 5071SOL     OW26848   4.333   4.250   8.217 -0.9827 -0.2892 -0.1316
 5071SOL    HW126849   4.334   4.236   8.312 -0.7297  1.9250  0.1754
 5071SOL    HW226850   4.403   4.315   8.206 -2.7015  1.8167  1.3940
 5072SOL     OW26851   0.903   1.822   1.191  0.5375 -0.3543 -0.4276
 5072SOL    HW126852   0.906   1.771   1.272  0.4817  0.4602  0.0847
 5072SOL    HW226853   0.813   1.810   1.160  0.2131 -0.4895  0.5896
 5073SOL     OW26854   3.299   4.361   1.144 -0.3581  0.8135 -0.1193
 5073SOL    HW126855   3.259   4.289   1.095  2.0714 -1.1955  0.8975
 5073SOL    HW226856   3.295   4.315   1.227 -4.8280 -2.9635 -2.4261
 5074SOL     OW26857   3.210   0.050   4.975  0.8490  1.0385  0.5234
 5074SOL    HW126858   3.178   0.090   5.055 -1.7529 -2.6062  1.3103
 5074SOL    HW226859   3.303   0.073   4.976  1.1339 -0.0937 -0.5394
 5075SOL     OW26860   0.942   0.323   4.418  0.5943  0.0953 -0.5281
 5075SOL    HW126861   1.025   0.319   4.370 -0.0777 -1.0653 -1.5873
 5075SOL    HW226862   0.928   0.230   4.432  1.6563  0.2316  1.5138
 5076SOL     OW26863   1.792   3.892  14.596 -0.1816  0.0223  0.0295
 5076SOL    HW126864   1.725   3.858  14.537  3.7048 -0.4504 -4.2092
 5076SOL    HW226865   1.866   3.907  14.536 -0.2222  0.5625  0.1172
 5077SOL     OW26866   3.175   2.587   5.352 -0.1064  0.6062 -0.3006
 5077SOL    HW126867   3.246   2.641   5.386 -2.1318  2.6766  0.6206
 5077SOL    HW226868   3.210   2.566   5.265  0.0188 -1.2716  0.2039
 5078SOL     OW26869   1.884   1.355   8.103 -0.5829 -0.1554 -0.0677
 5078SOL    HW126870   1.835   1.273   8.109 -0.2630 -0.2510  1.3346
 5078SOL    HW226871   1.937   1.344   8.182  1.5850  2.5020 -1.1413
 5079SOL     OW26872   0.516   3.164   2.836  0.3284 -0.0041  0.1526
 5079SOL    HW126873   0.579   3.092   2.832 -1.3509 -1.4787  0.3824
 5079SOL    HW226874   0.485   3.169   2.926  1.4103  0.8602  0.4767
 5080SOL     OW26875   1.308   2.191   9.585 -0.1172  0.1910 -0.1981
 5080SOL    HW126876   1.276   2.169   9.497  1.5272 -0.1737 -0.7126
 5080SOL    HW226877   1.283   2.283   9.583 -0.0116  0.2253  0.1586
 5081SOL     OW26878   0.346   1.973  11.190 -0.4952  0.3350  0.2750
 5081SOL    HW126879   0.380   2.030  11.259  0.9685 -1.2791  0.8688
 5081SOL    HW226880   0.261   1.937  11.214 -0.6923 -0.2861 -1.3348
 5082SOL     OW26881   2.206   4.564   1.657 -0.1503 -1.0150 -0.2013
 5082SOL    HW126882   2.157   4.606   1.728 -0.0822 -0.0135 -0.7471
 5082SOL    HW226883   2.191   4.628   1.587 -0.6113 -1.2281 -0.2942
 5083SOL     OW26884   0.695   3.919   5.366  0.6682  0.5114 -0.1684
 5083SOL    HW126885   0.783   3.887   5.382 -0.4458 -1.7159  1.4461
 5083SOL    HW226886   0.680   3.974   5.443 -1.8223 -1.8963  1.0573
 5084SOL     OW26887   1.222   0.445  12.667 -0.0173  0.7310 -0.3411
 5084SOL    HW126888   1.188   0.357  12.649 -0.1276  0.7547 -0.2460
 5084SOL    HW226889   1.136   0.485  12.678 -0.7880 -1.0828  0.3596
 5085SOL     OW26890   4.205   1.920   7.512  0.3054  0.3167 -0.2207
 5085SOL    HW126891   4.295   1.953   7.515  0.6610 -0.5876 -1.0464
 5085SOL    HW226892   4.162   2.001   7.484 -1.5109 -1.2906 -2.0741
 5086SOL     OW26893   3.717   3.343  12.120 -0.7151 -0.0031 -0.2281
 5086SOL    HW126894   3.707   3.419  12.177  0.7594 -0.3466  0.4846
 5086SOL    HW226895   3.709   3.275  12.187  1.5224 -2.1447 -2.1378
 5087SOL     OW26896   3.773   2.609   5.141  0.3618 -0.1840 -0.3391
 5087SOL    HW126897   3.822   2.555   5.203  1.1081 -0.9871 -1.6347
 5087SOL    HW226898   3.831   2.683   5.126 -0.2102  0.0831 -1.2447
 5088SOL     OW26899   3.737   3.176  13.284  0.5287  0.4666  0.1579
 5088SOL    HW126900   3.811   3.232  13.258 -0.1014  2.0022  1.6595
 5088SOL    HW226901   3.676   3.187  13.211  0.7748  0.9170  0.0211
 5089SOL     OW26902   1.720   2.447   2.982  0.3976 -0.5018 -0.7745
 5089SOL    HW126903   1.781   2.418   3.049  0.7178  2.5487  0.2385
 5089SOL    HW226904   1.644   2.390   2.997  0.5587 -0.8881 -1.4274
 5090SOL     OW26905   0.506   1.775   4.176  0.6627  0.4615 -0.2256
 5090SOL    HW126906   0.588   1.767   4.128  1.0367  1.4717  0.2448
 5090SOL    HW226907   0.469   1.691   4.148 -0.2833  0.3127  1.4903
 5091SOL     OW26908   2.536   2.542   5.915  0.4145  0.0483 -0.0698
 5091SOL    HW126909   2.583   2.611   5.868  0.2791 -0.2313 -0.6132
 5091SOL    HW226910   2.611   2.489   5.942  1.6191  2.2650  0.9372
 5092SOL     OW26911   4.124   2.025   2.049 -0.2694  0.1390 -0.1880
 5092SOL    HW126912   4.078   1.976   1.981 -0.7822  0.4892 -0.0976
 5092SOL    HW226913   4.172   2.089   1.997 -0.1237  2.4033  2.7413
 5093SOL     OW26914   2.248   4.699   6.299 -0.0912  0.2351  0.1312
 5093SOL    HW126915   2.175   4.678   6.358 -1.2953  1.7916 -0.7951
 5093SOL    HW226916   2.321   4.656   6.343  0.9945  0.3058 -1.6126
 5094SOL     OW26917   0.700   0.963  11.439  0.1268  0.3534  0.0686
 5094SOL    HW126918   0.613   0.975  11.401 -0.0437  0.3527  0.4580
 5094SOL    HW226919   0.691   0.995  11.529 -0.1540 -1.3627  0.6521
 5095SOL     OW26920   3.340   0.990   7.245  0.2282  0.3904 -0.4762
 5095SOL    HW126921   3.317   0.944   7.164  0.6022 -1.6553  0.5750
 5095SOL    HW226922   3.305   0.917   7.295 -0.7193  0.3834 -1.1439
 5096SOL     OW26923   4.342   0.280   3.337 -0.1952 -0.1978 -0.2747
 5096SOL    HW126924   4.395   0.212   3.378  1.8864  1.8140  0.3409
 5096SOL    HW226925   4.412   0.344   3.329 -0.5206  0.1958 -0.0123
 5097SOL     OW26926   2.127   0.683  10.703  0.1858  0.3958  0.3181
 5097SOL    HW126927   2.202   0.665  10.647  0.5539 -0.3950  1.0662
 5097SOL    HW226928   2.122   0.778  10.694 -0.7849  0.4501  1.4041
 5098SOL     OW26929   3.250   4.726   7.857  0.1550  0.5121 -0.4348
 5098SOL    HW126930   3.194   0.048   7.907 -2.2844 -1.1068 -1.2498
 5098SOL    HW226931   3.287   4.669   7.924 -0.4184 -0.2460 -0.7496
 5099SOL     OW26932   1.331   3.960   2.290  0.3117  0.2483  0.2911
 5099SOL    HW126933   1.372   3.878   2.264  0.5520  0.2206  0.7401
 5099SOL    HW226934   1.283   3.979   2.210  0.0977  1.4550  0.7012
 5100SOL     OW26935   3.581   0.111  10.359  0.0189 -1.0816  0.3953
 5100SOL    HW126936   3.519   0.105  10.432 -0.7249  1.5877 -0.0263
 5100SOL    HW226937   3.534   0.064  10.291  1.2859 -0.3017 -1.0048
 5101SOL     OW26938   2.067   1.069   8.012  0.6122 -0.1803  0.1260
 5101SOL    HW126939   2.122   1.048   8.087  0.4425  1.5093  0.7261
 5101SOL    HW226940   1.988   1.027   8.046  1.1988 -1.1243  0.3321
 5102SOL     OW26941   1.159   4.066   1.839  0.3035 -0.4160  0.0388
 5102SOL    HW126942   1.217   4.118   1.783 -1.3611  0.6645 -0.6679
 5102SOL    HW226943   1.074   4.080   1.797 -0.7136 -1.8274  1.6822
 5103SOL     OW26944   2.755   4.396   7.462  0.6614 -0.0030  0.3117
 5103SOL    HW126945   2.737   4.399   7.368  2.8739 -0.4409 -0.1270
 5103SOL    HW226946   2.682   4.441   7.504 -0.4787 -0.6477 -0.9949
 5104SOL     OW26947   1.707   2.980   6.606  0.3093 -0.0727 -0.6113
 5104SOL    HW126948   1.633   2.990   6.545 -1.7562  0.1941  1.9470
 5104SOL    HW226949   1.698   2.887   6.626 -0.9704  0.1700 -0.0244
 5105SOL     OW26950   2.761   1.674   6.363 -0.4189  0.1453 -0.2179
 5105SOL    HW126951   2.714   1.717   6.291  2.5166 -0.0879 -2.2787
 5105SOL    HW226952   2.797   1.750   6.408 -1.4100  0.7662 -0.4601
 5106SOL     OW26953   1.995   4.243   5.567  0.3163  0.3093 -0.3353
 5106SOL    HW126954   1.920   4.276   5.517  0.4996 -0.8237 -1.3490
 5106SOL    HW226955   1.961   4.171   5.619  0.9331  2.0286  2.4327
 5107SOL     OW26956   2.168   2.496   8.756 -0.9250 -0.6048  0.0411
 5107SOL    HW126957   2.245   2.517   8.703  1.6888 -0.4443  3.8510
 5107SOL    HW226958   2.101   2.549   8.714  1.1680  2.0488  0.0197
 5108SOL     OW26959   1.142   1.900  14.236 -0.4459 -0.1043  0.0437
 5108SOL    HW126960   1.139   1.816  14.282  0.5735  0.4185  1.0591
 5108SOL    HW226961   1.214   1.942  14.283  0.2538  0.0641 -1.1647
 5109SOL     OW26962   1.391   3.872  17.623  0.3299  0.5460 -0.4464
 5109SOL    HW126963   1.412   3.962  17.651  0.0900 -0.2996  2.4492
 5109SOL    HW226964   1.482   3.843  17.615 -0.5960 -2.3734 -0.0965
 5110SOL     OW26965   2.789   0.983  10.723 -0.4483  0.0079 -0.1355
 5110SOL    HW126966   2.808   0.952  10.812 -1.1729  1.5869  0.5740
 5110SOL    HW226967   2.697   0.962  10.705 -0.9724  3.3947 -1.3272
 5111SOL     OW26968   0.653   1.201   4.058  0.0287 -0.3047  0.2339
 5111SOL    HW126969   0.570   1.185   4.013 -0.8236  0.6840  1.4414
 5111SOL    HW226970   0.686   1.279   4.013  0.1931 -0.4714  0.0666
 5112SOL     OW26971   2.593   1.964   0.951  0.0570  0.0303  0.6902
 5112SOL    HW126972   2.529   2.034   0.940  0.5037  0.2750 -0.4338
 5112SOL    HW226973   2.642   1.998   1.026  0.7665 -0.0660  0.2695
 5113SOL     OW26974   0.512   0.652   1.986 -0.1679  0.2088  0.7201
 5113SOL    HW126975   0.587   0.635   2.042 -0.3147  1.3850  1.2857
 5113SOL    HW226976   0.468   0.567   1.983  1.7526 -0.8283  1.6930
 5114SOL     OW26977   3.937   2.605   3.586  0.3032  0.1114  0.0613
 5114SOL    HW126978   3.924   2.567   3.673  1.1035 -0.0450  0.1131
 5114SOL    HW226979   3.947   2.696   3.614 -4.0059  1.4248 -2.8540
 5115SOL     OW26980   4.171   4.728   7.417  0.0578 -0.2829 -0.1397
 5115SOL    HW126981   4.086   4.706   7.380  0.1042 -1.2400  0.3326
 5115SOL    HW226982   4.145   4.735   7.509 -0.5821  0.5821 -0.3826
 5116SOL     OW26983   1.273   4.334   9.276 -0.0262 -0.1242 -0.3442
 5116SOL    HW126984   1.270   4.296   9.364 -1.0758  0.7779  0.0166
 5116SOL    HW226985   1.284   4.428   9.291 -0.1416 -0.3706  1.3670
 5117SOL     OW26986   3.648   0.636   4.297  0.0604  0.2142 -0.0356
 5117SOL    HW126987   3.619   0.666   4.211  0.1340  1.3256  0.3275
 5117SOL    HW226988   3.595   0.557   4.286  1.4571 -0.5965 -0.8860
 5118SOL     OW26989   0.265   1.033   6.919 -0.5203  0.2473  0.1344
 5118SOL    HW126990   0.338   1.082   6.881 -0.7554  2.2806  2.3389
 5118SOL    HW226991   0.195   1.097   6.924 -1.1176 -0.2413 -1.8983
 5119SOL     OW26992   3.500   4.509  17.596 -0.2665 -0.6517 -0.1985
 5119SOL    HW126993   3.497   4.555  17.680  2.3977 -1.0208  0.0960
 5119SOL    HW226994   3.505   4.584  17.536 -1.6105  0.6205  1.2492
 5120SOL     OW26995   0.226   1.638   7.575  0.2305 -0.8441 -0.2098
 5120SOL    HW126996   0.295   1.572   7.571  1.3611  0.2682  0.9439
 5120SOL    HW226997   0.187   1.630   7.488  1.7546 -0.1145 -0.9620
 5121SOL     OW26998   0.469   4.052   2.098  0.1294 -0.1850 -0.0346
 5121SOL    HW126999   0.445   4.046   2.191 -1.8557  0.9149 -0.4676
 5121SOL    HW227000   0.527   3.977   2.091 -1.2840 -1.0167 -2.8613
 5122SOL     OW27001   2.670   4.574   0.321  0.6524  0.1703 -0.1333
 5122SOL    HW127002   2.744   4.546   0.375 -0.7178  0.0964  1.7271
 5122SOL    HW227003   2.634   4.636   0.385  0.4399 -0.6473  0.5457
 5123SOL     OW27004   1.549   3.069   4.259 -0.3697 -0.7043 -0.0267
 5123SOL    HW127005   1.611   3.084   4.331  0.2779  0.5914 -0.8436
 5123SOL    HW227006   1.586   2.984   4.235 -1.0887 -1.4723  1.6246
 5124SOL     OW27007   0.411   2.797   5.490 -0.5070  0.2841 -0.0950
 5124SOL    HW127008   0.455   2.716   5.464  1.1115  0.5526  1.8529
 5124SOL    HW227009   0.366   2.822   5.409 -2.7320  1.2306  1.4094
 5125SOL     OW27010   2.641   4.148  12.667  0.1828  0.1138 -0.4783
 5125SOL    HW127011   2.717   4.159  12.610  1.1259  0.1173  0.7756
 5125SOL    HW227012   2.577   4.201  12.619 -1.6211  1.3502  3.2781
 5126SOL     OW27013   1.926   2.653   0.989 -0.0226 -0.4558 -0.0491
 5126SOL    HW127014   1.943   2.623   0.900 -0.5484  0.5155 -0.4680
 5126SOL    HW227015   1.932   2.575   1.044 -1.4998 -0.0990  0.6367
 5127SOL     OW27016   3.736   0.570   5.542  0.0302 -0.1814 -0.0484
 5127SOL    HW127017   3.731   0.662   5.515 -2.2975 -0.3310 -0.1075
 5127SOL    HW227018   3.659   0.563   5.598 -0.7801 -1.8990 -1.3698
 5128SOL     OW27019   4.151   3.264   3.668  0.4652  0.0381  0.0280
 5128SOL    HW127020   4.130   3.349   3.628  1.1866  0.0486 -0.3415
 5128SOL    HW227021   4.245   3.269   3.684  0.5475  2.4619 -1.1895
 5129SOL     OW27022   4.255   2.564   7.496 -0.3818  0.0139  0.1672
 5129SOL    HW127023   4.281   2.648   7.457 -0.4103  0.1882  0.5250
 5129SOL    HW227024   4.336   2.515   7.478 -1.0094 -0.4951 -1.2471
 5130SOL     OW27025   2.637   0.311   1.174  0.5662 -0.1621  0.1195
 5130SOL    HW127026   2.567   0.268   1.123 -0.3437  0.9306  0.4535
 5130SOL    HW227027   2.593   0.394   1.194  0.0816 -0.6269  0.9633
 5131SOL     OW27028   4.006   4.515   9.215 -0.0994 -0.3683 -0.5365
 5131SOL    HW127029   4.086   4.466   9.237 -1.2640 -1.6500  0.8763
 5131SOL    HW227030   3.977   4.544   9.302 -1.7201  1.2128 -1.6070
 5132SOL     OW27031   2.914   4.160   1.361 -0.4409  0.1083 -0.5537
 5132SOL    HW127032   2.892   4.213   1.284 -1.9006 -2.7483 -2.0691
 5132SOL    HW227033   2.835   4.106   1.363 -0.0381 -0.5149 -1.8897
 5133SOL     OW27034   3.618   0.537  15.431  0.0929  0.0575  0.5242
 5133SOL    HW127035   3.590   0.618  15.388  1.5974  0.3098  0.0176
 5133SOL    HW227036   3.664   0.498  15.357  1.4846  2.8580 -0.0824
 5134SOL     OW27037   2.584   0.156   1.438 -0.3940 -0.1947  0.0082
 5134SOL    HW127038   2.566   0.081   1.382  1.6028  0.0145 -0.9281
 5134SOL    HW227039   2.612   0.223   1.375  0.5768 -0.5407  0.0725
 5135SOL     OW27040   3.132   0.368   4.733  0.1832  0.1609 -0.5115
 5135SOL    HW127041   3.072   0.392   4.803 -0.8250  1.3158 -1.7842
 5135SOL    HW227042   3.110   0.275   4.733  2.7825 -0.4677  0.3866
 5136SOL     OW27043   1.148   2.114  15.407  0.3097 -0.0134  0.1317
 5136SOL    HW127044   1.177   2.116  15.498 -2.6447 -0.9843  1.1124
 5136SOL    HW227045   1.200   2.042  15.371  0.3844  0.5018 -0.7933
 5137SOL     OW27046   4.110   1.218  16.643  0.2815 -0.2890  0.6542
 5137SOL    HW127047   4.164   1.252  16.714  1.7422 -1.2166 -0.0180
 5137SOL    HW227048   4.023   1.254  16.658 -0.3640 -0.8925 -1.5839
 5138SOL     OW27049   2.930   4.029  14.437  0.1641  0.1538  0.0826
 5138SOL    HW127050   2.976   4.085  14.500  0.8070  1.0899 -1.2130
 5138SOL    HW227051   2.855   4.079  14.406 -0.4599 -1.0469 -0.3380
 5139SOL     OW27052   1.048   0.311   1.050 -0.1038  0.3378  0.0637
 5139SOL    HW127053   1.057   0.379   1.118  1.2897  1.6343 -1.4110
 5139SOL    HW227054   0.953   0.301   1.049 -0.0907  0.5609 -2.4379
 5140SOL     OW27055   3.400   2.678   6.483 -0.2336 -0.2648 -0.4428
 5140SOL    HW127056   3.475   2.733   6.506  0.1378 -0.1407 -1.9206
 5140SOL    HW227057   3.376   2.735   6.409  0.7032  1.3761  0.5170
 5141SOL     OW27058   3.056   1.202   1.412 -0.4402 -0.0636 -0.4821
 5141SOL    HW127059   3.068   1.280   1.465 -0.0234  0.5411 -1.4785
 5141SOL    HW227060   2.974   1.225   1.369 -0.5597  0.7755  0.1896
 5142SOL     OW27061   3.205   3.109   4.200 -0.0531  0.1145  0.1201
 5142SOL    HW127062   3.173   3.019   4.210 -0.8735  0.3116 -0.6811
 5142SOL    HW227063   3.152   3.137   4.275 -0.1968 -1.2070  0.5059
 5143SOL     OW27064   0.638   1.453   6.636  0.6124 -0.2769  0.4793
 5143SOL    HW127065   0.618   1.445   6.543  3.2228 -0.8448 -0.0558
 5143SOL    HW227066   0.662   1.546   6.634 -2.2992  0.3964 -3.1990
 5144SOL     OW27067   2.700   0.376   2.647 -0.3697 -0.0423  0.3813
 5144SOL    HW127068   2.702   0.298   2.702 -0.9132  1.9642  3.2494
 5144SOL    HW227069   2.755   0.442   2.690 -1.9138  2.4094 -1.4274
 5145SOL     OW27070   3.977   1.869   5.837 -0.2661 -1.1034  0.3216
 5145SOL    HW127071   3.885   1.875   5.811 -0.5101 -0.5293  1.3102
 5145SOL    HW227072   3.968   1.839   5.928 -2.3397 -0.0297  0.4734
 5146SOL     OW27073   0.402   3.357   7.574  0.0845  0.5118  0.1584
 5146SOL    HW127074   0.439   3.442   7.551  3.0003 -0.3772  1.4476
 5146SOL    HW227075   0.414   3.361   7.669  0.9179 -4.8981  0.3293
 5147SOL     OW27076   0.840   3.785   8.601  0.1601 -0.3238  0.3175
 5147SOL    HW127077   0.797   3.865   8.572  0.1444  0.2597  1.9987
 5147SOL    HW227078   0.797   3.748   8.678 -0.7507 -0.1724 -0.1249
 5148SOL     OW27079   3.983   2.440  11.374  0.3444  0.4577 -0.1579
 5148SOL    HW127080   4.031   2.518  11.344  2.2612 -0.1386  1.3708
 5148SOL    HW227081   3.895   2.444  11.337  0.2706  0.0808 -0.0199
 5149SOL     OW27082   2.528   1.448   8.689  0.4111  0.7177 -0.2371
 5149SOL    HW127083   2.593   1.517   8.703  1.7082 -0.2667 -1.3640
 5149SOL    HW227084   2.551   1.414   8.602  1.2058  2.7343 -0.8209
 5150SOL     OW27085   2.808   4.152  12.207  0.2061  0.6085 -0.0088
 5150SOL    HW127086   2.836   4.187  12.122  0.2484  0.1311 -0.1872
 5150SOL    HW227087   2.749   4.078  12.194 -1.1739  1.8878 -1.1467
 5151SOL     OW27088   3.865   0.147   4.215 -0.2262 -0.5792 -0.0218
 5151SOL    HW127089   3.920   0.108   4.147  2.7234  0.0853  1.9369
 5151SOL    HW227090   3.889   0.085   4.284  1.7364  1.1012  0.8229
 5152SOL     OW27091   0.026   1.726   3.782 -0.0993 -0.1332 -1.0691
 5152SOL    HW127092   4.692   1.769   3.733  0.5444  0.4878 -1.4598
 5152SOL    HW227093   4.715   1.646   3.802  2.0808 -0.6549  2.0684
 5153SOL     OW27094   1.256   2.123  15.796 -0.1946  0.1783 -0.6125
 5153SOL    HW127095   1.327   2.176  15.831  2.1136 -2.4712 -1.2458
 5153SOL    HW227096   1.195   2.195  15.782 -0.5889  0.2416  1.3479
 5154SOL     OW27097   4.502   4.062   1.925  0.0174 -0.0101  0.4420
 5154SOL    HW127098   4.534   4.106   2.003  2.8202 -1.0327 -0.1244
 5154SOL    HW227099   4.471   4.133   1.869 -2.7277 -2.4441 -1.1437
 5155SOL     OW27100   3.138   0.005   0.020 -0.2295  0.1862 -0.1227
 5155SOL    HW127101   3.067   0.005  17.700 -0.4394 -1.5689  0.1135
 5155SOL    HW227102   3.216   0.030  17.716 -0.9798  0.8866 -0.9725
 5156SOL     OW27103   1.447   2.303   7.629 -0.1094 -0.0105 -0.0647
 5156SOL    HW127104   1.533   2.344   7.638 -0.8715  1.3807  0.8874
 5156SOL    HW227105   1.416   2.289   7.719 -1.7779  1.8105 -0.3665
 5157SOL     OW27106   2.679   3.267   8.126 -0.3836  0.0004 -0.0550
 5157SOL    HW127107   2.681   3.172   8.117 -0.9256  0.0986 -1.2418
 5157SOL    HW227108   2.772   3.288   8.125  0.3798 -3.3856 -0.4850
 5158SOL     OW27109   2.420   3.629   2.427  0.1818 -0.0612 -0.0507
 5158SOL    HW127110   2.360   3.607   2.498 -0.8589 -1.4336 -1.3636
 5158SOL    HW227111   2.357   3.639   2.356 -0.2778  0.8000  0.4888
 5159SOL     OW27112   2.187   0.055   7.191 -0.3946 -0.0858 -0.3934
 5159SOL    HW127113   2.234   0.023   7.267 -0.3793  1.0177  0.0678
 5159SOL    HW227114   2.260   0.064   7.129  0.2126  0.2410  0.3780
 5160SOL     OW27115   3.974   3.481   2.336 -0.2996  0.1411 -0.0182
 5160SOL    HW127116   3.891   3.488   2.383 -0.6305 -0.1972 -0.5462
 5160SOL    HW227117   3.948   3.428   2.261 -2.0139  2.7072 -1.2511
 5161SOL     OW27118   3.099   0.749   1.451 -0.6166 -0.1256 -0.4122
 5161SOL    HW127119   3.190   0.733   1.425 -0.2984  1.2822 -0.1533
 5161SOL    HW227120   3.114   0.843   1.450  2.5833 -0.6567 -1.0720
 5162SOL     OW27121   1.951   1.747  12.206  0.1987 -0.5935 -0.3368
 5162SOL    HW127122   2.013   1.811  12.171 -0.6259  0.4313  0.0857
 5162SOL    HW227123   1.864   1.766  12.171  0.7424 -1.1307 -1.9565
 5163SOL     OW27124   3.013   0.310   6.779  0.0383  0.9499 -0.6207
 5163SOL    HW127125   3.067   0.342   6.707  1.4410 -0.5809 -0.2297
 5163SOL    HW227126   2.926   0.293   6.743  0.3599  1.0522 -1.4267
 5164SOL     OW27127   1.564   0.455   4.589 -0.5343 -0.4719  0.0594
 5164SOL    HW127128   1.543   0.531   4.644  4.8059  1.9262 -1.2034
 5164SOL    HW227129   1.557   0.386   4.656 -1.3132  0.0060  0.4805
 5165SOL     OW27130   2.993   3.555   8.306 -0.0678 -0.1828  0.7187
 5165SOL    HW127131   2.931   3.607   8.254  0.2475 -1.6522 -1.1293
 5165SOL    HW227132   2.950   3.536   8.389 -0.1134  1.4224  1.0760
 5166SOL     OW27133   3.743   3.212  11.123 -0.5205  0.0772  0.4866
 5166SOL    HW127134   3.742   3.118  11.142 -1.6502 -0.2294 -1.0709
 5166SOL    HW227135   3.725   3.240  11.213  2.1671 -0.1625  1.1002
 5167SOL     OW27136   3.934   1.395  14.787 -0.1634 -0.7392 -0.0355
 5167SOL    HW127137   3.891   1.392  14.702  0.0474 -1.6567 -0.1126
 5167SOL    HW227138   3.990   1.472  14.774  0.0982 -0.4774  2.5474
 5168SOL     OW27139   2.298   2.060  13.950  0.0204  0.0875  0.1560
 5168SOL    HW127140   2.356   2.131  13.980  1.8728 -0.7439 -1.4297
 5168SOL    HW227141   2.288   2.089  13.860 -1.2620 -1.9855 -0.3540
 5169SOL     OW27142   3.521   0.925   5.579  0.2166  0.1590  0.3945
 5169SOL    HW127143   3.525   0.895   5.669  1.6441  1.6842  0.8393
 5169SOL    HW227144   3.608   0.897   5.549  0.0771  0.1845 -0.0325
 5170SOL     OW27145   4.310   4.265   5.165  0.6310 -0.7075  0.3832
 5170SOL    HW127146   4.320   4.348   5.212 -2.2828 -1.1205  1.7314
 5170SOL    HW227147   4.377   4.202   5.191 -0.8418 -2.3351  0.2333
 5171SOL     OW27148   2.694   0.287   1.701 -0.9069  0.3563 -0.0957
 5171SOL    HW127149   2.697   0.266   1.608  1.0134  0.7265 -0.1058
 5171SOL    HW227150   2.657   0.211   1.747  0.1382 -0.2004 -0.1850
 5172SOL     OW27151   2.834   3.338   5.287 -0.3063  0.5200 -0.3459
 5172SOL    HW127152   2.836   3.257   5.338 -0.3166  1.1477  0.6572
 5172SOL    HW227153   2.796   3.393   5.356 -0.7983  1.2982 -1.2374
 5173SOL     OW27154   0.022   2.987  15.693 -0.3670  0.8655  0.0513
 5173SOL    HW127155   0.093   3.021  15.748  1.9551 -2.7555 -0.6953
 5173SOL    HW227156   4.686   3.038  15.728 -2.3165 -1.6372 -0.3444
 5174SOL     OW27157   1.543   0.399   7.150  0.0920 -0.0950 -0.3247
 5174SOL    HW127158   1.463   0.366   7.192 -1.6338  1.8460 -2.0695
 5174SOL    HW227159   1.525   0.492   7.136 -1.4783 -0.7149 -2.4504
 5175SOL     OW27160   2.409   3.092   6.790  0.2487  0.6710 -0.2814
 5175SOL    HW127161   2.485   3.044   6.823  0.6112  1.1312 -0.4467
 5175SOL    HW227162   2.342   3.081   6.857 -1.0060 -1.2296 -1.8438
 5176SOL     OW27163   3.227   0.638   9.503  0.4800 -0.4227  0.0348
 5176SOL    HW127164   3.188   0.550   9.511  0.7930 -0.5722 -0.0690
 5176SOL    HW227165   3.153   0.698   9.501  0.4913 -0.3957  0.3997
 5177SOL     OW27166   0.619   3.307   6.203 -0.0396 -0.4138  0.1043
 5177SOL    HW127167   0.607   3.223   6.247 -1.4396 -0.5468 -0.5287
 5177SOL    HW227168   0.556   3.366   6.245 -0.8109 -1.5281  0.5206
 5178SOL     OW27169   1.250   3.324   3.909  0.2857  0.0970  0.2751
 5178SOL    HW127170   1.204   3.241   3.923  0.5708  0.1065  1.3207
 5178SOL    HW227171   1.257   3.359   3.998 -0.9085  0.5576  0.1903
 5179SOL     OW27172   3.653   0.807   8.389  0.0743  0.0547 -0.1137
 5179SOL    HW127173   3.617   0.733   8.440  2.8090  0.1948  2.0206
 5179SOL    HW227174   3.614   0.778   8.307 -0.3040  0.1857  0.0150
 5180SOL     OW27175   0.875   1.860   9.348  0.3324  0.5566 -0.4795
 5180SOL    HW127176   0.859   1.774   9.309 -0.6525  0.1347  0.8249
 5180SOL    HW227177   0.965   1.849   9.381 -0.4370 -1.1332  1.1106
 5181SOL     OW27178   3.674   2.983   6.212  0.0756  0.2725 -0.0707
 5181SOL    HW127179   3.712   2.896   6.218 -0.1300  0.1933  0.0551
 5181SOL    HW227180   3.674   2.994   6.117 -1.4429  1.6654  0.1001
 5182SOL     OW27181   2.340   2.276   5.419  0.3848 -0.0636  0.5683
 5182SOL    HW127182   2.331   2.210   5.487  3.4006 -1.2863 -0.1796
 5182SOL    HW227183   2.266   2.254   5.363 -0.5968  1.9820  1.0723
 5183SOL     OW27184   0.420   3.208   2.145 -0.4720 -0.5612 -0.0617
 5183SOL    HW127185   0.372   3.174   2.070 -2.9227  2.0375  0.3682
 5183SOL    HW227186   0.428   3.303   2.134 -0.6610 -0.8936 -2.9230
 5184SOL     OW27187   0.050   0.310  12.971  0.2537 -0.1179  0.0096
 5184SOL    HW127188   4.702   0.349  12.950 -0.5239 -1.3486  0.8788
 5184SOL    HW227189   0.100   0.328  12.891  0.0243 -1.3226 -0.4058
 5185SOL     OW27190   1.404   3.589  11.496  0.2483  0.0411 -0.4572
 5185SOL    HW127191   1.323   3.625  11.531 -0.2612 -0.8700 -0.7035
 5185SOL    HW227192   1.467   3.612  11.565  3.0376  1.8036 -3.5984
 5186SOL     OW27193   3.536   2.724   6.879  0.3863  0.3531  0.3958
 5186SOL    HW127194   3.598   2.707   6.809 -0.5158  0.2650 -0.3775
 5186SOL    HW227195   3.473   2.663   6.842  1.4802 -0.4590 -0.1146
 5187SOL     OW27196   0.232   3.038  15.054  0.7694 -0.2577 -0.4711
 5187SOL    HW127197   0.278   3.104  15.107 -2.6846  0.2575  1.8543
 5187SOL    HW227198   0.216   2.964  15.112 -1.8607  0.0220 -0.8818
 5188SOL     OW27199   2.607   0.889   7.932  0.2381 -0.7996  0.5740
 5188SOL    HW127200   2.519   0.917   7.908  0.3294  0.5543  1.7880
 5188SOL    HW227201   2.635   0.957   7.994  0.5777 -0.0604 -0.3809
 5189SOL     OW27202   4.543   3.883  16.512 -0.3223  0.4478  0.9283
 5189SOL    HW127203   4.567   3.965  16.555  1.3668 -0.2637  1.3289
 5189SOL    HW227204   4.600   3.816  16.550 -0.1173 -0.5173 -1.0555
 5190SOL     OW27205   3.733   4.583   2.588  0.4474  0.5912 -0.7274
 5190SOL    HW127206   3.808   4.620   2.635  0.7834 -1.7051  0.5541
 5190SOL    HW227207   3.701   4.659   2.540  0.4594  0.8506 -0.3229
 5191SOL     OW27208   2.212   2.109   7.885 -0.1824  0.0774  0.1674
 5191SOL    HW127209   2.241   2.038   7.827 -0.6308  0.1583 -0.1526
 5191SOL    HW227210   2.283   2.172   7.875  0.7142 -0.8917  0.3678
 5192SOL     OW27211   1.054   0.294   8.701 -0.2878 -0.0023 -0.5962
 5192SOL    HW127212   1.068   0.376   8.748  0.6436 -1.1017  1.0623
 5192SOL    HW227213   0.962   0.273   8.715 -0.7172  2.9214  0.7398
 5193SOL     OW27214   4.669   0.489   2.559 -0.3410 -0.3460  0.2022
 5193SOL    HW127215   4.678   0.569   2.612 -0.3241 -0.8687  0.9845
 5193SOL    HW227216   4.616   0.443   2.624  0.9391  0.5338  1.8903
 5194SOL     OW27217   2.797   1.290   6.678 -0.0107  0.0136  0.0057
 5194SOL    HW127218   2.864   1.222   6.665 -0.6780 -0.4334 -1.1443
 5194SOL    HW227219   2.844   1.372   6.662 -1.3867  0.6633 -0.6687
 5195SOL     OW27220   4.379   1.937   0.630 -0.5352 -0.0883 -0.0053
 5195SOL    HW127221   4.320   1.920   0.557 -1.6911  1.8815  0.4480
 5195SOL    HW227222   4.448   1.873   0.614  0.4735  0.5721  1.7051
 5196SOL     OW27223   4.503   0.802   0.063  0.0410  0.0629  0.1457
 5196SOL    HW127224   4.489   0.861   0.136  2.0457  1.4664 -0.5851
 5196SOL    HW227225   4.596   0.820   0.050  0.2982 -1.6534 -0.3836
 5197SOL     OW27226   2.300   2.178   6.944  0.2571 -0.3616  0.3230
 5197SOL    HW127227   2.338   2.135   6.867 -0.5925 -0.8287  0.1607
 5197SOL    HW227228   2.221   2.220   6.911  0.9770  1.3417  0.7709
 5198SOL     OW27229   3.689   1.879   4.259  0.1989 -0.8321  0.3383
 5198SOL    HW127230   3.701   1.923   4.175 -0.3727 -0.3938  0.4899
 5198SOL    HW227231   3.660   1.953   4.312 -1.4320  0.3335 -2.2152
 5199SOL     OW27232   4.360   4.199   2.465 -0.6473  0.6620  0.5994
 5199SOL    HW127233   4.304   4.131   2.502 -0.3094  0.0086 -0.0974
 5199SOL    HW227234   4.295   4.235   2.405 -0.5297 -2.4477 -1.4187
 5200SOL     OW27235   0.292   0.688   4.825 -0.2042  0.9769  0.3933
 5200SOL    HW127236   0.287   0.624   4.896 -1.5935 -0.7627 -1.2707
 5200SOL    HW227237   0.332   0.759   4.875  0.3954 -0.6705  2.2822
 5201SOL     OW27238   4.357   0.666   1.405 -0.2992  0.3353 -0.1363
 5201SOL    HW127239   4.354   0.760   1.421  0.3478  0.3804 -0.2838
 5201SOL    HW227240   4.398   0.667   1.319  0.1994  3.0434  0.1419
 5202SOL     OW27241   0.590   2.604  11.550 -0.1071 -0.0855  0.0483
 5202SOL    HW127242   0.628   2.681  11.507  0.3160 -1.1886 -1.5595
 5202SOL    HW227243   0.589   2.541  11.477 -0.2371 -1.4650  1.2498
 5203SOL     OW27244   0.484   1.642  14.367  0.2571 -0.3217  0.2132
 5203SOL    HW127245   0.493   1.718  14.424 -0.5739  1.1774 -1.6367
 5203SOL    HW227246   0.567   1.595  14.380  0.2499 -1.1866 -2.7877
 5204SOL     OW27247   3.684   3.467   2.829 -0.6010  0.2508  0.0597
 5204SOL    HW127248   3.622   3.535   2.856  0.3846  0.6926  1.1802
 5204SOL    HW227249   3.766   3.508   2.856 -0.4791  0.5060 -0.6934
 5205SOL     OW27250   2.112   3.328   1.779 -0.0322  0.3907  0.5414
 5205SOL    HW127251   2.086   3.402   1.834  0.6167  0.0185  1.3498
 5205SOL    HW227252   2.061   3.347   1.701 -1.6621 -1.1963  1.2385
 5206SOL     OW27253   1.346   2.136  16.627 -0.3598 -0.0447  0.5770
 5206SOL    HW127254   1.299   2.149  16.709 -0.8908 -0.4449  0.3325
 5206SOL    HW227255   1.431   2.114  16.667 -0.3077  1.8014  1.4590
 5207SOL     OW27256   2.714   4.555   7.057 -0.3598 -0.5782  0.3613
 5207SOL    HW127257   2.746   4.606   6.982 -4.0594 -0.4032 -1.1057
 5207SOL    HW227258   2.641   4.509   7.016 -0.1407  0.8159 -1.6237
 5208SOL     OW27259   4.523   3.290   6.706 -0.2184  0.2729  0.0650
 5208SOL    HW127260   4.506   3.296   6.612 -0.4502  0.0864  0.0950
 5208SOL    HW227261   4.595   3.227   6.717  0.8894  1.4818 -0.3128
 5209SOL     OW27262   2.267   1.718   7.532  0.0086  0.0660 -0.1985
 5209SOL    HW127263   2.251   1.806   7.498 -2.1242 -0.2287  0.0821
 5209SOL    HW227264   2.208   1.669   7.474 -0.4220  0.6716 -0.2694
 5210SOL     OW27265   4.627   2.243   3.906 -0.6059  0.1404 -0.7965
 5210SOL    HW127266   4.684   2.320   3.907 -0.5139  0.0410  0.8465
 5210SOL    HW227267   4.537   2.271   3.921 -0.1103  1.0743  0.4575
 5211SOL     OW27268   3.220   0.502   8.168 -0.1527  0.1603 -0.3215
 5211SOL    HW127269   3.186   0.504   8.258 -1.7440  1.0119 -0.9429
 5211SOL    HW227270   3.174   0.581   8.141  1.5714  1.6306  1.0020
 5212SOL     OW27271   0.563   0.850   3.875 -0.0885 -0.1140  0.0231
 5212SOL    HW127272   0.615   0.778   3.910  2.5816  1.9582  0.2530
 5212SOL    HW227273   0.523   0.888   3.954 -1.2970 -0.7569 -0.2732
 5213SOL     OW27274   3.906   2.713   2.977 -0.5106 -0.4927  0.2278
 5213SOL    HW127275   3.942   2.632   2.942 -0.6233 -0.1285 -0.7219
 5213SOL    HW227276   3.918   2.777   2.907  0.8619 -2.0051 -0.9168
 5214SOL     OW27277   0.961   0.325  12.358  0.6069  0.3086 -0.0277
 5214SOL    HW127278   0.939   0.417  12.344  2.0743  1.0547  2.4737
 5214SOL    HW227279   0.887   0.308  12.415  1.3021  0.3871  0.9090
 5215SOL     OW27280   0.922   0.253   4.058 -0.9513  0.3993 -0.3444
 5215SOL    HW127281   0.830   0.260   4.082 -0.5864 -0.0267  1.1735
 5215SOL    HW227282   0.968   0.263   4.141 -3.6122  1.0043  1.0489
 5216SOL     OW27283   1.617   3.499   6.670 -0.4552 -0.0803 -0.2485
 5216SOL    HW127284   1.533   3.472   6.709 -0.8703 -0.2409 -1.2525
 5216SOL    HW227285   1.672   3.488   6.747  1.2124  1.9325 -1.1557
 5217SOL     OW27286   0.353   0.267   5.145 -0.0658 -0.1514  0.0273
 5217SOL    HW127287   0.424   0.294   5.204 -0.9461 -1.0757  1.5243
 5217SOL    HW227288   0.322   0.191   5.193  0.5893  0.3536  1.2578
 5218SOL     OW27289   0.660   0.063  15.282 -0.4278 -0.1480 -0.2203
 5218SOL    HW127290   0.680   0.017  15.363 -0.0981  1.4650  0.6077
 5218SOL    HW227291   0.715   0.140  15.292 -0.1365  0.0399 -3.2776
 5219SOL     OW27292   0.194   1.539  13.472 -0.6954 -0.1226 -0.1170
 5219SOL    HW127293   0.252   1.608  13.505 -1.1552  0.7141 -1.0368
 5219SOL    HW227294   0.240   1.466  13.513 -1.9959  0.0506  1.6832
 5220SOL     OW27295   4.445   1.596   3.063  0.1406  0.5140 -0.0996
 5220SOL    HW127296   4.361   1.601   3.110  0.1120 -0.5409 -0.0497
 5220SOL    HW227297   4.429   1.667   3.001 -1.1216 -0.5764 -1.0125
 5221SOL     OW27298   3.526   0.005   2.836  0.3249  0.1152  0.4511
 5221SOL    HW127299   3.459   0.072   2.850  1.4856  1.6444 -1.3397
 5221SOL    HW227300   3.599   0.042   2.787  1.3183 -1.9272  0.3970
 5222SOL     OW27301   0.830   4.678   3.210  0.1068 -0.3243 -0.0650
 5222SOL    HW127302   0.882   4.731   3.270  0.8511  0.5749 -1.5109
 5222SOL    HW227303   0.770   0.007   3.175 -0.5958 -0.3595  1.0831
 5223SOL     OW27304   4.554   0.810  13.096 -0.3913 -0.0244  0.2249
 5223SOL    HW127305   4.537   0.832  13.005  1.1316 -0.4331 -0.1677
 5223SOL    HW227306   4.628   0.865  13.124 -0.3584  0.8934 -1.6678
 5224SOL     OW27307   4.056   0.055  13.602 -0.6816  0.6681 -0.3232
 5224SOL    HW127308   4.120   0.120  13.571  0.3129 -0.6231 -0.9586
 5224SOL    HW227309   4.092   0.043  13.689  0.0798 -0.0359 -0.7325
 5225SOL     OW27310   0.054   4.395  12.527 -0.5436 -0.0967 -0.5515
 5225SOL    HW127311   0.082   4.355  12.445  2.6987 -1.8843  1.4358
 5225SOL    HW227312   0.033   4.325  12.588  1.9004 -1.2780 -1.0480
 5226SOL     OW27313   3.631   3.163   6.427  0.1265 -0.9886  0.0887
 5226SOL    HW127314   3.590   3.156   6.513  0.1947  1.3151  0.3168
 5226SOL    HW227315   3.590   3.101   6.368  1.7616  0.2808 -2.4102
 5227SOL     OW27316   0.970   2.157   5.118  0.4507  0.3133  0.5552
 5227SOL    HW127317   0.982   2.241   5.073 -2.0768  0.7396  0.6522
 5227SOL    HW227318   1.061   2.132   5.130  0.7010  0.6274 -0.7717
 5228SOL     OW27319   1.158   2.397   2.265 -0.0509 -0.2992 -0.4064
 5228SOL    HW127320   1.204   2.356   2.192 -0.3664  1.8581 -1.8244
 5228SOL    HW227321   1.081   2.435   2.222 -1.5807 -3.5839 -0.6008
 5229SOL     OW27322   0.398   0.276   6.388  0.6260  0.3818 -0.2666
 5229SOL    HW127323   0.347   0.318   6.457  0.8024  1.4030 -0.7671
 5229SOL    HW227324   0.350   0.195   6.369  1.0862  0.2715 -0.9541
 5230SOL     OW27325   3.485   3.047   2.288  0.0253 -0.7150 -0.2375
 5230SOL    HW127326   3.502   3.141   2.297 -0.6775 -0.6699  0.5663
 5230SOL    HW227327   3.408   3.042   2.345  0.2816  0.6788  0.2204
 5231SOL     OW27328   2.753   0.751   5.079  0.8230 -0.1475  0.0001
 5231SOL    HW127329   2.834   0.759   5.129  0.4784 -0.8909  0.6845
 5231SOL    HW227330   2.688   0.714   5.139  0.9940  1.0678  0.9288
 5232SOL     OW27331   2.290   3.003   8.782  0.0860  0.0255 -0.0607
 5232SOL    HW127332   2.312   3.066   8.850  0.9620 -0.1608 -0.1730
 5232SOL    HW227333   2.373   2.961   8.758 -0.2619 -0.9379  0.3999
 5233SOL     OW27334   3.367   0.718  16.599 -0.3734  0.0215 -0.0655
 5233SOL    HW127335   3.350   0.719  16.505  0.0562 -0.2042 -0.1452
 5233SOL    HW227336   3.453   0.677  16.611 -1.9573 -2.6578  2.4057
 5234SOL     OW27337   4.191   2.002   2.702  0.2103 -0.2066 -0.1014
 5234SOL    HW127338   4.135   2.065   2.658 -0.4656 -1.3089 -0.8081
 5234SOL    HW227339   4.272   2.011   2.653 -1.1832 -1.9205 -2.6872
 5235SOL     OW27340   4.080   3.836   1.724 -0.4652 -0.0861 -0.1079
 5235SOL    HW127341   4.062   3.906   1.787 -0.3326 -1.4902  1.4813
 5235SOL    HW227342   4.044   3.760   1.769 -0.9846  0.6360  0.6963
 5236SOL     OW27343   3.286   0.201   6.055  0.2258 -0.6674 -0.6703
 5236SOL    HW127344   3.289   0.106   6.044  0.6995 -0.6976 -0.2679
 5236SOL    HW227345   3.199   0.228   6.024 -0.8580 -2.9428  0.3806
 5237SOL     OW27346   0.914   4.131   8.380  0.0074  0.0716 -0.1923
 5237SOL    HW127347   0.937   4.223   8.375  0.8766 -0.0990  0.5752
 5237SOL    HW227348   0.997   4.087   8.401  0.2188  2.0633  3.2721
 5238SOL     OW27349   3.583   4.352   2.043  0.5150  0.0784 -0.0269
 5238SOL    HW127350   3.525   4.387   2.111  0.8149  0.0680  0.2306
 5238SOL    HW227351   3.536   4.386   1.967  3.3000 -3.4476 -3.3193
 5239SOL     OW27352   1.358   4.104   5.599  0.1296 -0.6424 -0.0899
 5239SOL    HW127353   1.276   4.087   5.554 -0.0443  0.9715 -0.3660
 5239SOL    HW227354   1.320   4.089   5.685  1.0235 -2.4621  0.0017
 5240SOL     OW27355   1.859   3.783   8.681 -0.0276 -0.3866  0.0340
 5240SOL    HW127356   1.780   3.730   8.686 -0.6007  0.6678  2.0796
 5240SOL    HW227357   1.840   3.821   8.595 -2.2524  1.0612  1.1775
 5241SOL     OW27358   0.592   3.387   6.673  0.0133  0.3794  0.0726
 5241SOL    HW127359   0.661   3.434   6.626 -0.9524  0.9954 -0.7384
 5241SOL    HW227360   0.618   3.398   6.764 -0.7134 -0.2290  0.3495
 5242SOL     OW27361   1.188   2.786  11.618  0.2356 -0.1487 -0.1107
 5242SOL    HW127362   1.147   2.796  11.531  0.0584 -1.0472 -0.1319
 5242SOL    HW227363   1.136   2.735  11.679 -2.3455  2.1346 -0.3726
 5243SOL     OW27364   1.854   3.122   7.371 -0.7218  0.4512  0.1499
 5243SOL    HW127365   1.860   3.071   7.452  0.5352  2.1589  1.1429
 5243SOL    HW227366   1.896   3.067   7.306  1.3025  0.9024  1.0677
 5244SOL     OW27367   3.625   4.336   5.698 -0.5344 -0.0461 -0.0264
 5244SOL    HW127368   3.676   4.292   5.630  0.8318 -0.8383  1.4885
 5244SOL    HW227369   3.647   4.429   5.693 -2.5596  0.6405  3.4569
 5245SOL     OW27370   4.228   1.701   3.186  0.1764 -0.2543 -0.4294
 5245SOL    HW127371   4.147   1.685   3.137 -1.8217  2.5259  1.9246
 5245SOL    HW227372   4.201   1.775   3.241  0.4602 -1.0613  0.8057
 5246SOL     OW27373   2.728   3.781   2.175  0.5671  0.2035  0.9943
 5246SOL    HW127374   2.688   3.849   2.230  1.0533  1.1868  0.1386
 5246SOL    HW227375   2.812   3.788   2.222  1.1687  0.2518 -0.0937
 5247SOL     OW27376   3.293   4.566  10.844  0.4077 -0.0791 -0.0546
 5247SOL    HW127377   3.387   4.582  10.834 -0.2267  2.8167 -1.4487
 5247SOL    HW227378   3.291   4.503  10.916  0.2393  0.8900  0.7882
 5248SOL     OW27379   4.675   1.654  11.759  0.6487 -0.2708 -0.1508
 5248SOL    HW127380   4.687   1.560  11.773  2.7856 -0.5648 -3.8419
 5248SOL    HW227381   0.024   1.669  11.718  0.3088 -3.4515 -2.0004
 5249SOL     OW27382   2.732   3.478  17.736 -0.1727 -0.5777  0.6775
 5249SOL    HW127383   2.684   3.512   0.067 -2.2392  1.6840 -1.6355
 5249SOL    HW227384   2.746   3.550  17.675 -0.9160 -0.2174  0.9319
 5250SOL     OW27385   1.510   0.605   2.856 -0.0262  0.1380  0.4833
 5250SOL    HW127386   1.508   0.622   2.762  2.4360 -1.8186  0.0960
 5250SOL    HW227387   1.517   0.696   2.884 -1.2459  0.7209 -1.0909
 5251SOL     OW27388   1.286   2.129   8.446  0.2982 -0.1552  0.4632
 5251SOL    HW127389   1.232   2.055   8.473  0.4536 -1.0016 -1.6168
 5251SOL    HW227390   1.218   2.192   8.421 -0.0607 -0.4740  0.6427
 5252SOL     OW27391   0.900   0.003   8.927  0.1367 -0.5852  0.5292
 5252SOL    HW127392   0.976   4.682   8.929  0.6145  0.0220 -0.0204
 5252SOL    HW227393   0.845   4.702   8.858  1.7694 -1.4271 -0.3221
 5253SOL     OW27394   1.698   2.695   6.668  0.0872  0.0440  0.3991
 5253SOL    HW127395   1.695   2.673   6.761  0.3304  0.2558  0.4564
 5253SOL    HW227396   1.730   2.610   6.638 -1.4788 -0.6465  0.6841
 5254SOL     OW27397   4.660   3.028  16.421 -0.0214 -0.7802  0.3601
 5254SOL    HW127398   4.635   3.071  16.339  0.3025 -0.8501  0.2239
 5254SOL    HW227399   4.614   3.076  16.490 -0.2820  1.3911 -1.3280
 5255SOL     OW27400   3.745   2.246   6.563 -0.2887  0.3306  0.6952
 5255SOL    HW127401   3.839   2.261   6.562 -0.2082 -0.0231  3.2347
 5255SOL    HW227402   3.726   2.272   6.654 -0.3873  1.9908  0.2077
 5256SOL     OW27403   2.993   4.346  13.319  0.0999 -0.3416  0.7007
 5256SOL    HW127404   2.919   4.289  13.341  0.8609 -1.7076 -0.2757
 5256SOL    HW227405   3.060   4.300  13.370  1.2338  0.2012 -0.2896
 5257SOL     OW27406   3.685   0.035   6.026 -0.3766 -0.2295 -0.1319
 5257SOL    HW127407   3.636   0.107   6.067 -0.7178 -0.1023 -0.7644
 5257SOL    HW227408   3.686   4.704   6.094  0.1100 -0.8498 -0.7669
 5258SOL     OW27409   0.737   2.237   1.008 -0.0902  0.0122  0.2475
 5258SOL    HW127410   0.682   2.285   0.946  0.7990 -0.1165 -0.6467
 5258SOL    HW227411   0.778   2.313   1.050 -0.5684  1.3590 -1.7401
 5259SOL     OW27412   4.087   4.107   8.993  0.2028 -0.2274  0.1379
 5259SOL    HW127413   4.024   4.134   8.927  1.6460  0.4413 -0.9575
 5259SOL    HW227414   4.171   4.112   8.948 -0.3056  1.3549 -0.6144
 5260SOL     OW27415   2.651   2.426   7.643  0.7941 -0.3530  0.1979
 5260SOL    HW127416   2.602   2.477   7.578  0.2946 -1.1759 -0.0621
 5260SOL    HW227417   2.629   2.464   7.728  0.0376 -0.5782  0.1070
 5261SOL     OW27418   1.003   4.366   5.690  0.5232 -0.0422 -0.6376
 5261SOL    HW127419   1.055   4.299   5.733  0.4431 -0.0532 -0.5576
 5261SOL    HW227420   1.004   4.333   5.600  0.0482  1.5726 -1.2318
 5262SOL     OW27421   1.419   3.130   9.176 -0.0658 -0.1769 -0.6020
 5262SOL    HW127422   1.458   3.074   9.243 -1.3020  1.1697  1.2539
 5262SOL    HW227423   1.326   3.114   9.161 -0.3984  0.5441  0.7314
 5263SOL     OW27424   3.061   3.753   5.135  0.3212  0.2355 -0.1701
 5263SOL    HW127425   3.124   3.699   5.089 -2.7074 -2.4243 -1.2096
 5263SOL    HW227426   3.036   3.821   5.072 -0.4379  3.0504  3.1375
 5264SOL     OW27427   1.019   0.912  14.060 -0.2039 -0.1567  0.3566
 5264SOL    HW127428   0.934   0.911  14.105 -0.1419 -1.7327  0.4305
 5264SOL    HW227429   0.995   0.892  13.969  0.5286  0.0821  0.1125
 5265SOL     OW27430   3.962   4.566   5.270  0.0635  0.0240 -0.1950
 5265SOL    HW127431   3.970   4.635   5.336 -2.0009 -0.0286  0.1025
 5265SOL    HW227432   3.927   4.619   5.198 -0.4205 -0.5034 -0.3458
 5266SOL     OW27433   1.037   0.965   8.932  0.0546  0.0517 -0.1947
 5266SOL    HW127434   1.007   0.931   9.016 -0.8498 -0.7688 -0.8393
 5266SOL    HW227435   0.956   1.001   8.896  0.3466  0.1626 -0.7431
 5267SOL     OW27436   1.344   1.007   4.790 -0.0335 -0.3082 -0.0497
 5267SOL    HW127437   1.280   0.961   4.736  1.9640 -0.0919 -2.5584
 5267SOL    HW227438   1.420   0.952   4.772  1.1657  1.5632 -0.6160
 5268SOL     OW27439   2.809   3.193   8.443  0.1011 -0.4570 -0.0408
 5268SOL    HW127440   2.851   3.197   8.357 -0.7759 -0.7209 -0.4903
 5268SOL    HW227441   2.747   3.122   8.427 -0.4820  0.1326 -0.4079
 5269SOL     OW27442   3.434   1.938  11.344  0.3872  0.8122  0.1410
 5269SOL    HW127443   3.480   1.980  11.272  1.8824 -2.0992 -0.5758
 5269SOL    HW227444   3.485   1.978  11.414 -0.6718 -0.7443  1.7980
 5270SOL     OW27445   3.421   0.413   8.958  0.1901 -0.0922  0.2271
 5270SOL    HW127446   3.460   0.487   8.910  1.1262  1.3234  3.1742
 5270SOL    HW227447   3.414   0.447   9.047  3.3932 -2.7282  1.5112
 5271SOL     OW27448   3.757   4.294  10.436  0.1005  0.1947 -0.0016
 5271SOL    HW127449   3.772   4.388  10.447  0.9617 -0.0586  1.0004
 5271SOL    HW227450   3.849   4.269  10.437 -0.4491 -1.8307  0.3548
 5272SOL     OW27451   0.319   3.729   4.707 -0.2407  0.1488 -0.0554
 5272SOL    HW127452   0.298   3.667   4.776  1.6545 -2.2799 -1.6246
 5272SOL    HW227453   0.335   3.812   4.752 -0.1875  1.9023 -3.2334
 5273SOL     OW27454   2.420   3.803   4.453  0.0397  0.1590  0.2173
 5273SOL    HW127455   2.480   3.873   4.425  1.6279 -1.7784 -1.2149
 5273SOL    HW227456   2.355   3.852   4.503  0.5745  1.7485 -0.6194
 5274SOL     OW27457   1.947   0.508  17.080  0.0345  0.2611  0.2436
 5274SOL    HW127458   2.031   0.522  17.125  0.7505 -0.0479 -0.9948
 5274SOL    HW227459   1.910   0.593  17.103 -0.0880 -0.2780  2.0712
 5275SOL     OW27460   3.455   0.500   8.042 -0.1042 -0.7979  0.0107
 5275SOL    HW127461   3.373   0.519   8.087  0.6361 -1.1332  1.4715
 5275SOL    HW227462   3.434   0.572   7.982  0.3056  0.0300  0.8565
 5276SOL     OW27463   0.893   0.203  15.326  0.1171 -0.0802 -0.1495
 5276SOL    HW127464   0.869   0.294  15.341 -1.4684 -0.3403 -1.1112
 5276SOL    HW227465   0.979   0.218  15.286  0.3618  0.8142  0.7215
 5277SOL     OW27466   3.852   0.087   4.738  0.5106 -0.3734 -0.4597
 5277SOL    HW127467   3.758   0.096   4.725  0.7133  0.2461 -1.4432
 5277SOL    HW227468   3.879   0.020   4.675 -0.1040 -2.3261  1.3587
 5278SOL     OW27469   0.562   1.305  14.009  0.1633  0.2879 -0.2014
 5278SOL    HW127470   0.541   1.308  14.102  0.4140  0.7901 -0.1555
 5278SOL    HW227471   0.621   1.381  14.018  0.5817 -0.1207  0.5331
 5279SOL     OW27472   1.788   3.371  17.457  0.0738  0.5925 -0.1262
 5279SOL    HW127473   1.734   3.386  17.380 -1.0610 -0.1545  0.5252
 5279SOL    HW227474   1.828   3.287  17.437 -0.0292  0.6937 -0.7391
 5280SOL     OW27475   3.273   3.868   5.775  0.2365  0.4352 -0.3371
 5280SOL    HW127476   3.318   3.928   5.716  0.8126  0.2705 -0.0693
 5280SOL    HW227477   3.281   3.785   5.728 -1.1368  0.7474 -1.1009
 5281SOL     OW27478   2.550   2.768   3.177 -0.5252 -0.0769  0.1158
 5281SOL    HW127479   2.617   2.754   3.109 -1.0588  0.0695 -0.4447
 5281SOL    HW227480   2.603   2.825   3.233  0.8157 -0.1211 -1.1017
 5282SOL     OW27481   3.695   4.626   7.273  0.5723 -0.0388 -0.0447
 5282SOL    HW127482   3.650   4.704   7.306 -0.1463 -1.0971  1.4777
 5282SOL    HW227483   3.632   4.558   7.298  1.4467 -1.0389 -0.5382
 5283SOL     OW27484   3.475   0.432   6.341 -0.2886 -0.4398 -0.5374
 5283SOL    HW127485   3.431   0.417   6.425 -1.1958  0.7268 -0.8107
 5283SOL    HW227486   3.455   0.524   6.320  2.0505 -0.0427 -1.0395
 5284SOL     OW27487   3.845   2.855   1.303 -0.6031 -0.7962 -0.3779
 5284SOL    HW127488   3.825   2.934   1.353  0.8228 -0.9675  0.4477
 5284SOL    HW227489   3.815   2.877   1.214 -4.3067 -1.2924  0.7299
 5285SOL     OW27490   4.192   4.337  17.713 -0.0616 -0.5640 -0.1312
 5285SOL    HW127491   4.162   4.325   0.059 -0.6079 -1.6461 -0.4460
 5285SOL    HW227492   4.159   4.425  17.698  1.2488 -0.4319 -2.0951
 5286SOL     OW27493   0.010   3.647   3.926 -0.4092 -0.1541  0.1800
 5286SOL    HW127494   0.052   3.616   4.006  1.9798 -0.1206 -1.0685
 5286SOL    HW227495   0.083   3.673   3.870 -0.1023 -1.2353  0.0843
 5287SOL     OW27496   3.022   3.683  16.592 -0.2984 -0.3080  0.5130
 5287SOL    HW127497   2.968   3.740  16.538 -3.3001 -3.2738  0.3859
 5287SOL    HW227498   3.095   3.661  16.535 -0.1026  0.1619  0.5880
 5288SOL     OW27499   1.067   3.377  11.611 -0.0185  0.1624  0.3575
 5288SOL    HW127500   1.014   3.316  11.559 -0.0644 -0.0298  0.6312
 5288SOL    HW227501   1.092   3.437  11.540 -0.9353  1.1583  0.8836
 5289SOL     OW27502   3.294   4.391  11.663 -0.1121 -0.3020  0.4877
 5289SOL    HW127503   3.208   4.411  11.625 -0.6339  2.1519  2.8994
 5289SOL    HW227504   3.338   4.476  11.653  0.0226 -0.3822  0.4030
 5290SOL     OW27505   2.947   1.831   7.066 -0.1243  0.1329  0.1207
 5290SOL    HW127506   3.023   1.851   7.121 -0.3208 -0.0431  0.4584
 5290SOL    HW227507   2.981   1.826   6.977  0.1160  0.8414  0.1707
 5291SOL     OW27508   2.127   3.183   8.277  0.4115 -0.2881  0.3452
 5291SOL    HW127509   2.151   3.276   8.283 -0.7667  0.1295 -1.4550
 5291SOL    HW227510   2.166   3.155   8.360  3.1132 -1.8458 -1.4962
 5292SOL     OW27511   3.185   1.174  12.700  0.0517 -0.0529  0.5473
 5292SOL    HW127512   3.211   1.250  12.649  0.7106  0.0351  1.0151
 5292SOL    HW227513   3.140   1.123  12.633 -0.7796 -2.7585  3.1617
 5293SOL     OW27514   3.196   1.033   4.970  0.2152  0.3164  0.2962
 5293SOL    HW127515   3.192   0.985   5.053 -0.0089  0.8449  0.5940
 5293SOL    HW227516   3.116   0.999   4.930 -0.5672  0.9171  1.3580
 5294SOL     OW27517   3.063   3.101   5.914 -0.2334 -0.1523  0.3467
 5294SOL    HW127518   3.128   3.070   5.977 -1.4896 -2.7198  0.3399
 5294SOL    HW227519   2.990   3.135   5.967  0.4185  1.9466 -0.0755
 5295SOL     OW27520   1.679   3.368  11.644  0.4211  0.0556 -0.4520
 5295SOL    HW127521   1.685   3.449  11.694 -0.3856  0.0542 -0.3623
 5295SOL    HW227522   1.774   3.355  11.631  0.3012 -1.6469  0.3555
 5296SOL     OW27523   1.900   0.944   6.023  0.2499  0.5879  0.4769
 5296SOL    HW127524   1.808   0.928   6.001  0.3077 -0.1240  0.7647
 5296SOL    HW227525   1.913   1.030   5.982  0.3427  0.2863 -0.1329
 5297SOL     OW27526   2.532   2.467  17.431  0.3757  0.4213 -0.0521
 5297SOL    HW127527   2.574   2.446  17.347  1.3214 -1.5546  0.9173
 5297SOL    HW227528   2.439   2.460  17.409  0.1571 -0.1944  1.1017
 5298SOL     OW27529   0.611   0.083   5.619 -0.2711 -0.9174  0.0049
 5298SOL    HW127530   0.551   0.019   5.656 -0.3186 -1.2512 -0.6494
 5298SOL    HW227531   0.603   0.143   5.693  1.8634  0.2702 -0.7117
 5299SOL     OW27532   0.048   0.332   9.523 -0.1818 -0.2574  0.1212
 5299SOL    HW127533   0.093   0.366   9.446 -0.2269 -1.9669 -0.6687
 5299SOL    HW227534   0.080   0.390   9.592  0.3037  1.0949 -1.2558
 5300SOL     OW27535   3.724   4.302   7.146  0.2571 -0.2187 -0.1445
 5300SOL    HW127536   3.809   4.312   7.188 -0.0932 -2.6634  1.1375
 5300SOL    HW227537   3.675   4.346   7.216  0.3469 -0.9288  0.3721
 5301SOL     OW27538   3.670   4.194   7.987  0.0564  0.3599  0.7836
 5301SOL    HW127539   3.598   4.136   8.013 -0.0749 -0.2953 -1.0706
 5301SOL    HW227540   3.727   4.196   8.065  1.7275 -2.0046 -0.3749
 5302SOL     OW27541   1.203   1.114  12.546  0.6134 -0.0241  0.2673
 5302SOL    HW127542   1.228   1.205  12.528 -3.7070  1.0640 -0.1296
 5302SOL    HW227543   1.224   1.062  12.468 -0.5472 -0.6296  0.3586
 5303SOL     OW27544   2.686   4.210   9.299 -0.2631  0.5616  0.3179
 5303SOL    HW127545   2.741   4.286   9.277  1.6547 -1.3413 -1.4581
 5303SOL    HW227546   2.759   4.149   9.311  0.1479  1.4460  2.5109
 5304SOL     OW27547   1.276   1.400   6.290  0.0628 -0.2642 -0.7201
 5304SOL    HW127548   1.276   1.379   6.197 -1.2690 -0.0441 -0.7619
 5304SOL    HW227549   1.183   1.407   6.313 -0.2378  1.0883 -2.3670
 5305SOL     OW27550   1.426   2.383   8.500  0.2796 -0.4393 -0.2921
 5305SOL    HW127551   1.496   2.366   8.437  1.2953 -1.7071  1.1383
 5305SOL    HW227552   1.350   2.344   8.457  0.8784 -2.3346  0.3608
 5306SOL     OW27553   2.001   3.929   1.549  0.0107  0.0625  0.4225
 5306SOL    HW127554   2.072   3.939   1.486  0.9847  0.8212  1.6409
 5306SOL    HW227555   2.056   3.884   1.614 -0.9010 -2.4787 -0.5522
 5307SOL     OW27556   0.181   0.961   7.844 -0.3478 -0.4762  0.1979
 5307SOL    HW127557   0.227   1.042   7.864 -2.2167  0.7062 -0.3543
 5307SOL    HW227558   0.110   0.992   7.789  0.8283 -0.1321 -1.1387
 5308SOL     OW27559   3.971   1.601  13.635  0.4353 -0.0408  0.8735
 5308SOL    HW127560   3.968   1.554  13.718  2.0697  1.2270  1.6389
 5308SOL    HW227561   4.065   1.619  13.627  0.2741  1.1594  1.7733
 5309SOL     OW27562   2.658   2.093   3.584 -0.2616  0.2458 -0.5849
 5309SOL    HW127563   2.719   2.166   3.582  1.3032 -1.0554 -0.0199
 5309SOL    HW227564   2.657   2.067   3.492  0.5026  0.2513 -0.5907
 5310SOL     OW27565   0.837   3.327   7.633 -0.4471  0.1226  0.0456
 5310SOL    HW127566   0.860   3.274   7.710 -0.9508  1.8838  1.4099
 5310SOL    HW227567   0.803   3.258   7.575 -0.5903  0.4406 -0.2475
 5311SOL     OW27568   1.570   2.004   6.005  0.1690 -0.3984  0.1174
 5311SOL    HW127569   1.491   1.967   6.045  0.0049 -1.2168 -0.9321
 5311SOL    HW227570   1.635   1.935   6.017 -0.1055 -0.5411  0.7996
 5312SOL     OW27571   1.065   3.343  15.643 -0.5074  0.0862  0.2257
 5312SOL    HW127572   1.125   3.326  15.570 -2.1262  1.5090 -1.4266
 5312SOL    HW227573   1.069   3.438  15.650  0.4500  0.0103  0.8045
 5313SOL     OW27574   0.139   4.271   3.460  0.4048 -0.1471 -0.1841
 5313SOL    HW127575   0.132   4.304   3.550 -2.1415 -2.6231  0.5274
 5313SOL    HW227576   0.218   4.322   3.442  1.4595 -1.4991  0.5872
 5314SOL     OW27577   4.633   2.948   3.510 -0.1139  0.0595 -0.3591
 5314SOL    HW127578   4.619   2.886   3.438 -0.9171 -0.8096  0.5359
 5314SOL    HW227579   4.649   3.030   3.464  0.8100  1.1819  1.9956
 5315SOL     OW27580   0.685   0.157  11.296 -0.5293  0.3140 -0.4823
 5315SOL    HW127581   0.667   0.077  11.345  0.3757 -0.5758 -1.5793
 5315SOL    HW227582   0.616   0.219  11.318  0.4832  1.2989 -0.0579
 5316SOL     OW27583   4.485   4.711   1.619  0.7388  0.0780 -0.6604
 5316SOL    HW127584   4.536   0.022   1.554 -1.2514  1.6731 -1.0560
 5316SOL    HW227585   4.548   4.646   1.650 -1.1468 -1.3268  0.2670
 5317SOL     OW27586   1.455   0.143   2.809  0.1430  0.0793 -0.3132
 5317SOL    HW127587   1.448   0.197   2.889  1.5561  2.1242 -1.5713
 5317SOL    HW227588   1.545   0.164   2.783  0.2708  0.3239  0.3194
 5318SOL     OW27589   2.162   1.089   8.736 -0.1857  0.2475 -0.4631
 5318SOL    HW127590   2.189   0.997   8.730 -2.8268 -0.6413  1.1115
 5318SOL    HW227591   2.080   1.084   8.688 -0.7825 -0.3896  0.6079
 5319SOL     OW27592   0.624   2.859  15.834 -0.0113 -0.1926 -0.0825
 5319SOL    HW127593   0.667   2.932  15.789  0.8413 -0.7623 -0.1980
 5319SOL    HW227594   0.593   2.801  15.765  0.6067 -0.8704  0.2094
 5320SOL     OW27595   3.438   0.984   8.156 -0.1348 -0.2112 -0.0768
 5320SOL    HW127596   3.354   0.978   8.202 -0.5418 -0.3242 -0.8525
 5320SOL    HW227597   3.396   1.028   8.083  1.5764  0.8108 -0.4522
 5321SOL     OW27598   0.717   0.435  12.763  0.0628 -0.2077  0.3146
 5321SOL    HW127599   0.621   0.434  12.767 -0.0257  1.6043 -1.3398
 5321SOL    HW227600   0.736   0.517  12.809  0.4190 -1.3097  2.1410
 5322SOL     OW27601   0.820   1.684   8.886  0.4452 -0.9923 -0.3563
 5322SOL    HW127602   0.756   1.755   8.879  1.8129  0.1039 -1.7451
 5322SOL    HW227603   0.889   1.712   8.946  1.3079 -1.3584 -1.1800
 5323SOL     OW27604   4.319   1.269  12.127 -0.4431 -0.4008  0.1108
 5323SOL    HW127605   4.358   1.356  12.122  1.2616 -1.1520  0.3536
 5323SOL    HW227606   4.399   1.217  12.122  0.3530  0.7763  0.5480
 5324SOL     OW27607   3.588   1.015   4.260  0.1057 -0.4622  0.2499
 5324SOL    HW127608   3.583   0.957   4.183 -1.9400  0.8506 -0.6092
 5324SOL    HW227609   3.624   1.096   4.225 -1.6891 -0.5810 -1.8689
 5325SOL     OW27610   3.733   0.280  16.591 -0.3180  0.5573 -0.3597
 5325SOL    HW127611   3.787   0.263  16.668 -2.6522  1.5233  1.4744
 5325SOL    HW227612   3.787   0.264  16.513 -0.0819  0.9382 -0.2774
 5326SOL     OW27613   1.697   3.669   2.380 -0.4594  0.6807  0.0892
 5326SOL    HW127614   1.671   3.652   2.470  0.8246 -0.1563  0.3030
 5326SOL    HW227615   1.617   3.710   2.348 -1.2966 -1.7699 -0.9963
 5327SOL     OW27616   0.582   1.378   9.892 -0.0280 -0.2939 -0.5827
 5327SOL    HW127617   0.640   1.348   9.963  1.6752 -3.7222 -3.4108
 5327SOL    HW227618   0.528   1.299   9.887  1.1946 -0.9625 -3.1094
 5328SOL     OW27619   4.118   0.654   9.624 -1.0020  0.1456  0.0718
 5328SOL    HW127620   4.100   0.736   9.671 -1.2449 -0.1379  0.4778
 5328SOL    HW227621   4.123   0.594   9.699  0.0025 -0.6379 -0.6298
 5329SOL     OW27622   3.865   0.273   7.101  0.4427 -0.2378  0.2008
 5329SOL    HW127623   3.889   0.220   7.026  0.9684  0.9242 -0.4478
 5329SOL    HW227624   3.855   0.356   7.055  3.2306 -0.2791 -0.4728
 5330SOL     OW27625   1.781   1.386   5.022 -0.0307  0.2774 -0.5812
 5330SOL    HW127626   1.819   1.385   4.934  1.1880 -0.7376 -0.0431
 5330SOL    HW227627   1.838   1.450   5.064 -0.6083 -0.6903  1.6507
 5331SOL     OW27628   4.345   4.525   8.013 -0.1324 -0.5557 -0.4292
 5331SOL    HW127629   4.393   4.551   7.935 -1.0147 -2.4917 -1.6034
 5331SOL    HW227630   4.291   4.456   7.975 -1.1125 -1.1743  2.1238
 5332SOL     OW27631   4.251   3.785  16.963  0.5143 -0.5068  0.0726
 5332SOL    HW127632   4.208   3.705  16.934 -0.1180 -0.5255  1.0633
 5332SOL    HW227633   4.338   3.747  16.961  0.4909 -0.4544 -1.8503
 5333SOL     OW27634   1.516   3.911   9.017 -0.1153  0.1547 -0.3031
 5333SOL    HW127635   1.570   3.956   9.082 -0.1633 -0.7301  0.3421
 5333SOL    HW227636   1.554   3.823   9.010  0.8928  0.2426  3.9512
 5334SOL     OW27637   3.769   0.637   4.953  0.2889 -0.7969 -0.1512
 5334SOL    HW127638   3.677   0.655   4.969  0.3756  1.2846 -2.0815
 5334SOL    HW227639   3.770   0.551   4.996 -0.9789 -0.9703 -0.4816
 5335SOL     OW27640   2.213   0.828   8.736 -0.4390  0.1734 -0.6716
 5335SOL    HW127641   2.165   0.752   8.701 -0.2663  0.3490 -1.2923
 5335SOL    HW227642   2.254   0.809   8.820 -1.8248  1.1911  0.2452
 5336SOL     OW27643   3.919   3.380   2.074 -0.0481 -0.0932 -0.8578
 5336SOL    HW127644   3.976   3.368   1.998  0.0390  1.9420 -1.1194
 5336SOL    HW227645   3.834   3.368   2.033 -0.4061  1.7705 -0.6826
 5337SOL     OW27646   1.826   0.586   8.641 -0.8339 -0.1038 -0.3583
 5337SOL    HW127647   1.796   0.503   8.679 -1.4127  0.0546 -0.4638
 5337SOL    HW227648   1.745   0.637   8.636 -1.7074 -1.4263  0.1788
 5338SOL     OW27649   1.650   1.369   8.421 -0.3130  0.3493  0.2962
 5338SOL    HW127650   1.732   1.324   8.405  0.7909  2.4835 -0.0723
 5338SOL    HW227651   1.634   1.421   8.342 -0.4044  1.0653  0.7847
 5339SOL     OW27652   0.242   4.413  13.416 -0.3328  0.4880  0.6017
 5339SOL    HW127653   0.272   4.502  13.435  0.3072  0.7635 -1.6981
 5339SOL    HW227654   0.311   4.381  13.357 -2.6155  1.0184 -2.3657
 5340SOL     OW27655   1.069   4.419   3.126  0.3781  0.2119  0.5051
 5340SOL    HW127656   1.108   4.333   3.110 -1.4462 -0.2455 -1.5691
 5340SOL    HW227657   1.150   4.469   3.129  0.3734  0.3864 -2.5168
 5341SOL     OW27658   2.838   3.285   0.173 -0.2539  0.3027 -0.4826
 5341SOL    HW127659   2.755   3.246   0.149 -1.1573  0.7516  1.9728
 5341SOL    HW227660   2.826   3.369   0.128  1.0846  1.3493  1.0889
 5342SOL     OW27661   3.544   2.261  15.788  0.2522 -0.0313  0.5010
 5342SOL    HW127662   3.570   2.170  15.774 -1.3153  0.0712 -3.0729
 5342SOL    HW227663   3.626   2.309  15.778 -0.0239  0.2724 -0.3293
 5343SOL     OW27664   0.140   2.460  11.665 -0.3552  0.4244  0.1276
 5343SOL    HW127665   0.097   2.521  11.725  1.0299  1.7401 -0.1934
 5343SOL    HW227666   0.232   2.486  11.674  0.3544 -1.7643 -0.8200
 5344SOL     OW27667   1.617   3.607   2.009  0.3456 -0.0129 -0.8496
 5344SOL    HW127668   1.667   3.546   1.954  1.7423  0.0556  0.3463
 5344SOL    HW227669   1.537   3.619   1.957 -0.0494  0.1814 -0.1922
 5345SOL     OW27670   3.783   0.853   3.312 -0.4401  0.3264  0.0951
 5345SOL    HW127671   3.876   0.872   3.323 -0.6690  2.0354 -0.9458
 5345SOL    HW227672   3.745   0.921   3.366  0.5038 -0.8382  2.2356
 5346SOL     OW27673   0.968   2.853  11.437  0.4340 -0.3556  0.4257
 5346SOL    HW127674   0.887   2.803  11.431 -1.8861  3.3780  0.7480
 5346SOL    HW227675   0.993   2.859  11.345  2.3363 -1.0893  0.8928
 5347SOL     OW27676   0.886   0.835   8.120 -0.1011 -0.0277  0.3891
 5347SOL    HW127677   0.921   0.867   8.202  1.8728  1.2864 -0.9739
 5347SOL    HW227678   0.802   0.798   8.150  0.7830 -0.4757  2.3126
 5348SOL     OW27679   1.663   1.526   2.702  0.0309 -0.7213 -0.2652
 5348SOL    HW127680   1.676   1.617   2.727  2.6286 -0.4658 -2.5727
 5348SOL    HW227681   1.753   1.495   2.705  1.0123  2.3092  1.6700
 5349SOL     OW27682   2.903   1.158   5.346  0.0481 -0.0693  0.2531
 5349SOL    HW127683   2.915   1.187   5.255  0.2798  0.4294  0.4405
 5349SOL    HW227684   2.858   1.235   5.381 -0.0382 -0.0311  0.0594
 5350SOL     OW27685   2.944   0.804  12.092 -0.5271 -0.7623 -0.4543
 5350SOL    HW127686   2.946   0.797  12.187  0.0156 -0.5649 -0.4465
 5350SOL    HW227687   2.909   0.721  12.061 -1.2314 -0.4668 -0.4379
 5351SOL     OW27688   0.097   0.071   4.308  0.6494 -0.1655 -0.5636
 5351SOL    HW127689   0.035   0.061   4.235  1.3911 -1.8098 -0.9777
 5351SOL    HW227690   0.074   0.158   4.340 -2.1353 -0.8848 -0.6228
 5352SOL     OW27691   3.394   3.677  13.236 -0.7165 -0.0798  0.1139
 5352SOL    HW127692   3.446   3.719  13.305  0.4934 -0.8066 -0.3614
 5352SOL    HW227693   3.307   3.713  13.257 -0.5476  1.9603 -2.6873
 5353SOL     OW27694   0.900   3.257   2.929 -0.2676  0.5374  0.3212
 5353SOL    HW127695   0.879   3.220   3.015 -1.0210 -0.4847 -0.3042
 5353SOL    HW227696   0.968   3.201   2.892 -0.4783  0.9777 -0.7334
 5354SOL     OW27697   3.080   1.610   6.424 -0.2265 -0.4455  0.4737
 5354SOL    HW127698   3.172   1.598   6.402  0.0914 -0.8093  2.0381
 5354SOL    HW227699   3.036   1.597   6.339 -2.5825 -0.1510  1.6543
 5355SOL     OW27700   4.131   2.757  15.189  0.1108  0.0136 -0.1136
 5355SOL    HW127701   4.147   2.835  15.243  1.2041  0.7380 -1.4796
 5355SOL    HW227702   4.076   2.714  15.254 -1.4655  0.8779 -0.8531
 5356SOL     OW27703   4.217   3.615   5.395  0.5935 -0.2514  0.2603
 5356SOL    HW127704   4.200   3.641   5.486 -3.0520 -3.4362  0.4592
 5356SOL    HW227705   4.206   3.520   5.403 -1.7062 -0.0147 -0.2218
 5357SOL     OW27706   4.555   2.475  10.391  0.7113 -0.4849 -0.0708
 5357SOL    HW127707   4.480   2.466  10.332  1.1130  1.2606 -0.8389
 5357SOL    HW227708   4.610   2.543  10.352  2.0269 -0.5131  1.7242
 5358SOL     OW27709   3.229   2.585   7.157  0.0632  0.2273 -0.7759
 5358SOL    HW127710   3.144   2.610   7.194  1.4771  1.3025  1.7424
 5358SOL    HW227711   3.253   2.639   7.082  0.9981  1.9312  0.7521
 5359SOL     OW27712   1.360   4.122   1.582 -0.0871 -0.0844 -0.3504
 5359SOL    HW127713   1.357   4.198   1.641  0.3691 -1.1652  1.0611
 5359SOL    HW227714   1.422   4.151   1.515  0.8889  0.0759  0.6150
 5360SOL     OW27715   4.118   0.323   3.146 -0.5981  0.0359 -0.7736
 5360SOL    HW127716   4.207   0.323   3.182 -0.5590 -2.3845 -0.8878
 5360SOL    HW227717   4.118   0.247   3.088 -3.5309 -0.4546 -0.1490
 5361SOL     OW27718   4.731   4.001  14.239  0.4650  0.2483  0.0372
 5361SOL    HW127719   0.040   4.019  14.157 -0.7583 -0.3391 -0.7760
 5361SOL    HW227720   0.045   4.051  14.303 -0.3993  0.1785  0.7708
 5362SOL     OW27721   2.104   0.654   1.355 -0.6711 -0.3423 -0.2238
 5362SOL    HW127722   2.196   0.673   1.338 -0.4217  1.1953  2.9424
 5362SOL    HW227723   2.085   0.700   1.437 -1.3994  2.4530 -1.9757
 5363SOL     OW27724   4.136   3.182   5.084  0.1693 -0.5047 -0.0526
 5363SOL    HW127725   4.106   3.184   5.175  1.4805  1.0376  0.3382
 5363SOL    HW227726   4.130   3.275   5.064 -1.2534 -1.2316 -3.0209
 5364SOL     OW27727   0.794   3.015   3.481  0.2995  0.3014 -0.0439
 5364SOL    HW127728   0.779   3.028   3.575 -0.0217  0.8988 -0.1797
 5364SOL    HW227729   0.704   3.008   3.450  0.3134 -1.0876  0.2291
 5365SOL     OW27730   0.174   2.849  16.667 -0.3527  0.2114 -0.5700
 5365SOL    HW127731   0.195   2.903  16.590 -2.8119  0.0844 -1.3282
 5365SOL    HW227732   0.235   2.777  16.655 -0.1528  0.4854 -1.2135
 5366SOL     OW27733   2.814   0.727   2.826  0.6270  0.3003 -0.5689
 5366SOL    HW127734   2.729   0.732   2.784  0.1524 -0.5702  0.2817
 5366SOL    HW227735   2.807   0.636   2.856  0.6761  0.0876 -1.2173
 5367SOL     OW27736   1.652   2.201   2.373 -0.3546  0.2731 -0.4639
 5367SOL    HW127737   1.713   2.184   2.300  0.3099  3.3314 -0.6346
 5367SOL    HW227738   1.570   2.202   2.324 -0.9171 -0.2280  0.4804
 5368SOL     OW27739   3.343   2.477   1.740  0.4372 -0.4700  0.0021
 5368SOL    HW127740   3.394   2.557   1.729 -0.9132  0.3553 -0.1851
 5368SOL    HW227741   3.379   2.430   1.665 -0.0005 -1.2241  0.2620
 5369SOL     OW27742   1.376   1.922   8.895 -0.1978  0.1879 -0.6658
 5369SOL    HW127743   1.282   1.932   8.876 -0.5696  0.4832  1.3722
 5369SOL    HW227744   1.393   1.861   8.823 -3.5812 -0.1545 -1.2133
 5370SOL     OW27745   0.182   4.481   6.013  0.9187  0.1434 -0.1736
 5370SOL    HW127746   0.273   4.477   6.043  1.0556  0.4436 -0.5513
 5370SOL    HW227747   0.154   4.556   6.066  1.2442  0.5014 -0.5083
 5371SOL     OW27748   3.404   1.252   7.648  0.7053  0.0753 -0.1327
 5371SOL    HW127749   3.346   1.244   7.572  0.3403  0.9057  0.0582
 5371SOL    HW227750   3.460   1.176   7.631 -0.2252 -0.9597  1.3424
 5372SOL     OW27751   2.662   3.865  12.008  0.7588 -0.6579 -0.5894
 5372SOL    HW127752   2.636   3.896  12.095  1.8500  3.6075 -1.8186
 5372SOL    HW227753   2.711   3.797  12.055  1.2118  0.1046  0.0366
 5373SOL     OW27754   4.257   0.323  15.818 -0.1547 -0.7863  0.2757
 5373SOL    HW127755   4.251   0.392  15.752 -0.5891 -0.2711  0.8529
 5373SOL    HW227756   4.166   0.297  15.832 -0.6531  0.0431 -1.4228
 5374SOL     OW27757   3.409   1.587   5.599 -0.6224 -0.5534  0.4293
 5374SOL    HW127758   3.491   1.556   5.637 -0.7504  0.3084  1.3808
 5374SOL    HW227759   3.463   1.646   5.547  0.8671 -0.5125  2.0416
 5375SOL     OW27760   3.851   1.257   3.162  0.3271 -0.2040 -0.1892
 5375SOL    HW127761   3.792   1.332   3.169 -1.1274 -1.5641  2.5443
 5375SOL    HW227762   3.807   1.181   3.202  3.3686 -1.5249  0.6361
 5376SOL     OW27763   1.806   2.894   1.871  0.0228  0.1737 -0.4203
 5376SOL    HW127764   1.877   2.899   1.808 -0.5403 -1.5165 -1.1822
 5376SOL    HW227765   1.732   2.947   1.841 -0.2937  0.5938  1.0927
 5377SOL     OW27766   3.846   4.055   4.373 -0.2294  0.2011  0.6427
 5377SOL    HW127767   3.901   3.977   4.387 -1.6978 -0.9215  0.1784
 5377SOL    HW227768   3.900   4.101   4.309  0.6632 -2.0124 -0.2155
 5378SOL     OW27769   2.768   2.477   4.622  0.2818 -0.1294  0.1356
 5378SOL    HW127770   2.743   2.569   4.621  1.4760  0.1770 -1.1952
 5378SOL    HW227771   2.709   2.446   4.553 -0.1668  1.8069 -0.3525
 5379SOL     OW27772   2.399   1.193   3.625  0.0701 -0.0048  0.7589
 5379SOL    HW127773   2.383   1.205   3.531  0.2252  1.0537  0.8665
 5379SOL    HW227774   2.445   1.111   3.610  3.5221  2.4927 -2.2677
 5380SOL     OW27775   4.719   1.185  14.509 -0.0927  0.4774 -0.3308
 5380SOL    HW127776   4.639   1.237  14.510 -0.2133  0.2946 -0.4089
 5380SOL    HW227777   4.719   1.152  14.599 -3.8789  1.0104 -0.1037
 5381SOL     OW27778   2.337   2.560   0.763  0.2168 -0.7982 -0.0925
 5381SOL    HW127779   2.389   2.615   0.822 -0.6751  1.8341 -1.8110
 5381SOL    HW227780   2.301   2.496   0.825 -3.4274 -0.1433 -1.5678
 5382SOL     OW27781   0.826   2.162   6.463  0.0539  0.3158  0.6190
 5382SOL    HW127782   0.760   2.219   6.424  0.5905 -0.2296 -1.0824
 5382SOL    HW227783   0.913   2.192   6.437 -0.2542 -1.0010 -1.9187
 5383SOL     OW27784   2.814   2.210   0.071  0.6724 -0.5776  0.4556
 5383SOL    HW127785   2.846   2.211   0.161 -0.2726  1.0536  0.7712
 5383SOL    HW227786   2.875   2.260   0.016 -0.1119 -1.3218 -1.0926
 5384SOL     OW27787   1.617   4.144   2.046  0.3638  0.3204 -0.1245
 5384SOL    HW127788   1.539   4.155   1.992  0.8620 -2.0189 -1.3530
 5384SOL    HW227789   1.674   4.107   1.977  0.5720 -1.1285  0.8116
 5385SOL     OW27790   2.168   3.726  14.253  0.6091 -0.2901  0.0824
 5385SOL    HW127791   2.085   3.734  14.206 -0.4307 -0.1698  1.9756
 5385SOL    HW227792   2.231   3.722  14.180 -1.2574 -0.1803 -1.5416
 5386SOL     OW27793   2.903   0.609   9.252  0.4536 -0.1744  0.2174
 5386SOL    HW127794   2.836   0.633   9.187  0.0363 -0.5667  0.5031
 5386SOL    HW227795   2.970   0.572   9.193 -0.4204 -0.9813 -0.2788
 5387SOL     OW27796   0.785   1.788   3.545 -0.0975 -0.2221  0.0358
 5387SOL    HW127797   0.787   1.844   3.622  1.4744  0.4766 -0.5082
 5387SOL    HW227798   0.880   1.786   3.534 -0.0942  0.8103 -0.1319
 5388SOL     OW27799   0.929   3.717   9.868 -0.0448 -0.3079  0.6932
 5388SOL    HW127800   0.960   3.635   9.906  1.3608 -1.1366 -2.2045
 5388SOL    HW227801   0.888   3.695   9.784 -4.5270  2.4420  2.1414
 5389SOL     OW27802   2.597   2.054  16.762 -0.0991 -0.4804  0.1103
 5389SOL    HW127803   2.509   2.078  16.731  1.0697  0.4783 -2.4924
 5389SOL    HW227804   2.624   1.989  16.697  1.9550  0.0833  0.4204
 5390SOL     OW27805   1.408   2.345   6.830  0.1455 -0.1631 -0.6325
 5390SOL    HW127806   1.463   2.270   6.852  2.3300  1.3109 -0.9957
 5390SOL    HW227807   1.365   2.325   6.746  1.1682  0.1266 -1.2265
 5391SOL     OW27808   3.954   3.606   1.850 -0.5981 -0.1754 -0.0195
 5391SOL    HW127809   3.862   3.596   1.874 -0.5120  1.2194  0.8961
 5391SOL    HW227810   3.973   3.517   1.819 -0.7990 -0.0108 -0.6224
 5392SOL     OW27811   0.157   4.223   1.469 -0.1004 -0.1277  0.1356
 5392SOL    HW127812   0.199   4.146   1.507 -0.0350 -1.6350 -2.9377
 5392SOL    HW227813   0.226   4.243   1.405 -0.6630  0.2100 -0.3594
 5393SOL     OW27814   1.225   0.529  17.528  0.0565 -0.1716 -0.1213
 5393SOL    HW127815   1.177   0.503  17.449  1.4729  0.7224 -1.2699
 5393SOL    HW227816   1.176   0.492  17.601  0.8038 -0.8553  0.0244
 5394SOL     OW27817   4.102   4.352  13.251  0.4492 -0.4128  0.0037
 5394SOL    HW127818   4.055   4.403  13.185 -0.5370 -0.3855  0.7260
 5394SOL    HW227819   4.108   4.414  13.323 -0.2620  0.7924 -0.9604
 5395SOL     OW27820   1.123   2.649   8.527 -0.2279 -0.0841 -0.4030
 5395SOL    HW127821   1.078   2.733   8.531  2.7550  1.5150 -0.5633
 5395SOL    HW227822   1.048   2.591   8.539 -1.6547  1.7041 -0.6698
 5396SOL     OW27823   0.053   2.437   1.093  0.0142  0.2982  0.2823
 5396SOL    HW127824   0.019   2.504   1.034  2.7557  3.9640  2.9171
 5396SOL    HW227825   4.715   2.377   1.102  2.8097 -3.0394  1.0453
 5397SOL     OW27826   3.981   2.510   7.411 -0.3413 -0.2519 -0.5882
 5397SOL    HW127827   4.065   2.485   7.449 -1.2173 -2.0979  0.1283
 5397SOL    HW227828   3.969   2.449   7.339  1.1542  0.2877 -1.2932
 5398SOL     OW27829   4.324   4.638   9.299  0.2434 -0.7624  0.1528
 5398SOL    HW127830   4.361   4.680   9.376  0.3660 -0.8272  0.1290
 5398SOL    HW227831   4.283   4.560   9.335 -0.1265 -0.5587  0.1708
 5399SOL     OW27832   4.196   1.618   8.552 -0.5113 -0.0626 -0.0574
 5399SOL    HW127833   4.154   1.638   8.468  1.3381 -1.6718 -1.3560
 5399SOL    HW227834   4.141   1.556   8.601  0.9190 -0.4090  1.0989
 5400SOL     OW27835   2.903   1.532   1.544 -0.3333  0.0443  0.1150
 5400SOL    HW127836   2.942   1.608   1.501  0.5143  1.2025  2.9449
 5400SOL    HW227837   2.817   1.519   1.503  0.9023 -1.3249 -2.0741
 5401SOL     OW27838   0.454   0.183   4.900 -0.3386 -0.1306  0.1544
 5401SOL    HW127839   0.458   0.094   4.936  1.3395 -0.2678 -0.3540
 5401SOL    HW227840   0.391   0.227   4.957  0.6138  1.2520  0.1257
 5402SOL     OW27841   2.280   1.812   8.614  0.3198  0.5650 -0.3345
 5402SOL    HW127842   2.246   1.889   8.568  0.8666  1.5504  0.9012
 5402SOL    HW227843   2.253   1.826   8.704  0.2428 -0.4874 -0.1997
 5403SOL     OW27844   1.330   1.240   2.917 -0.1812 -0.1429 -0.1129
 5403SOL    HW127845   1.339   1.320   2.864 -0.5733  0.6262  0.9710
 5403SOL    HW227846   1.306   1.181   2.846  0.2459 -1.4661  0.8578
 5404SOL     OW27847   2.308   4.525   3.702  0.3122  0.1845  0.4457
 5404SOL    HW127848   2.316   4.537   3.607 -3.2618  1.7212  0.3501
 5404SOL    HW227849   2.215   4.519   3.722 -0.0164  1.8093 -0.6014
 5405SOL     OW27850   0.569   0.136   1.850  0.4228  0.6687 -0.1986
 5405SOL    HW127851   0.618   0.166   1.926 -0.8030 -2.1729  1.6900
 5405SOL    HW227852   0.563   0.213   1.792  3.0410  1.5959  0.8044
 5406SOL     OW27853   1.049   0.243   6.074 -0.6360  0.1661  0.3629
 5406SOL    HW127854   1.059   0.189   6.152 -0.5511 -0.0915  0.1739
 5406SOL    HW227855   0.974   0.202   6.031 -0.7726  0.6809  0.1083
 5407SOL     OW27856   3.752   3.189   3.136 -0.8395  0.4622 -0.1329
 5407SOL    HW127857   3.789   3.102   3.147 -1.2408  0.3600  0.3675
 5407SOL    HW227858   3.821   3.225   3.079 -0.2079 -0.1639  0.2339
 5408SOL     OW27859   0.528   3.718  17.183  0.3431  0.2628 -0.1769
 5408SOL    HW127860   0.576   3.694  17.262  1.8354  0.9306 -0.8830
 5408SOL    HW227861   0.499   3.809  17.192  0.3278  0.3498 -1.0887
 5409SOL     OW27862   0.269   2.701  10.804  0.4584  0.5738 -0.0192
 5409SOL    HW127863   0.206   2.727  10.871 -0.3582 -0.2825 -0.4467
 5409SOL    HW227864   0.206   2.684  10.733  0.3686 -0.7592  0.3805
 5410SOL     OW27865   3.547   4.003   9.988 -0.1553  0.5972  0.1401
 5410SOL    HW127866   3.622   4.024   9.933 -0.0909 -0.8786 -0.3144
 5410SOL    HW227867   3.530   4.090  10.026 -0.1409  1.1988 -1.2414
 5411SOL     OW27868   0.473   4.454   7.509 -0.5940 -0.0207  0.0913
 5411SOL    HW127869   0.388   4.474   7.470 -0.8331 -1.5698 -0.2035
 5411SOL    HW227870   0.477   4.358   7.502  0.2344 -0.1231  1.9571
 5412SOL     OW27871   2.674   2.761   2.930 -0.1297 -0.0611 -0.1842
 5412SOL    HW127872   2.663   2.669   2.905 -0.5435 -0.5926  1.9859
 5412SOL    HW227873   2.768   2.770   2.947 -0.1429  1.9298 -1.1161
 5413SOL     OW27874   1.483   3.520   2.527 -0.7058 -0.4133  0.3299
 5413SOL    HW127875   1.466   3.556   2.614  3.2413  1.5663  0.2751
 5413SOL    HW227876   1.441   3.591   2.479 -2.8477 -2.3912 -0.7257
 5414SOL     OW27877   0.952   1.805   8.120  0.3241 -0.3555  0.2133
 5414SOL    HW127878   1.039   1.834   8.148  1.2088 -1.8028 -1.0582
 5414SOL    HW227879   0.933   1.724   8.168 -0.1698  1.3447  2.9113
 5415SOL     OW27880   0.335   0.508   7.669  0.3364 -0.3301 -0.1076
 5415SOL    HW127881   0.359   0.599   7.682 -1.8280  0.4638 -1.6730
 5415SOL    HW227882   0.408   0.465   7.714  0.8385  1.5739  0.8650
 5416SOL     OW27883   3.917   1.158   7.998  0.2597 -0.0552  0.1738
 5416SOL    HW127884   3.857   1.083   7.995 -1.2107  1.1027  1.1047
 5416SOL    HW227885   3.879   1.218   7.933 -0.6362 -1.1448 -0.3137
 5417SOL     OW27886   3.366   1.019   6.331  0.1527  0.4982  0.2418
 5417SOL    HW127887   3.405   0.932   6.329  1.3012  1.0110  0.4547
 5417SOL    HW227888   3.416   1.072   6.392  0.2832  0.8264 -0.1508
 5418SOL     OW27889   2.796   1.641  16.414  0.2174 -0.5936  0.2917
 5418SOL    HW127890   2.754   1.564  16.376 -1.4989 -0.0675  1.1438
 5418SOL    HW227891   2.820   1.610  16.501  0.4698 -2.5043 -0.4635
 5419SOL     OW27892   3.402   0.513   7.165  0.3065 -0.1843 -0.5368
 5419SOL    HW127893   3.319   0.498   7.209  0.2605  0.5620 -0.3699
 5419SOL    HW227894   3.424   0.603   7.191 -1.5989 -0.1942  1.0821
 5420SOL     OW27895   1.279   4.612  14.518  0.2128  0.5058 -0.2616
 5420SOL    HW127896   1.265   4.529  14.473  1.5140  0.0508  0.1598
 5420SOL    HW227897   1.370   4.605  14.548  0.2645 -0.9311 -0.7433
 5421SOL     OW27898   0.763   2.981   0.841 -0.0029  0.1913  0.4023
 5421SOL    HW127899   0.769   3.034   0.762 -0.7656 -0.3664 -0.0243
 5421SOL    HW227900   0.804   3.033   0.910  0.8224  1.7161 -1.2386
 5422SOL     OW27901   3.808   1.033   4.486 -1.0638  0.1111  0.1265
 5422SOL    HW127902   3.771   1.120   4.472 -2.2046 -0.6543 -1.7097
 5422SOL    HW227903   3.868   1.023   4.412 -0.3240  3.4872  0.2554
 5423SOL     OW27904   0.943   0.194   0.035 -0.1081 -0.3281 -0.4235
 5423SOL    HW127905   0.984   0.108   0.042 -2.1270 -1.2150  0.5384
 5423SOL    HW227906   0.879   0.181  17.710 -0.9219  3.2276 -0.3431
 5424SOL     OW27907   2.180   3.840  16.292  0.2045  0.1338 -0.2567
 5424SOL    HW127908   2.211   3.749  16.289 -0.6237 -0.1276 -0.7573
 5424SOL    HW227909   2.246   3.870  16.355  0.1886 -0.3413 -0.0115
 5425SOL     OW27910   2.327   2.598   2.801  0.2920 -0.4097  0.1899
 5425SOL    HW127911   2.263   2.669   2.803 -0.6397 -1.2384 -0.0192
 5425SOL    HW227912   2.299   2.554   2.720 -0.3739  0.4544 -0.0546
 5426SOL     OW27913   4.199   3.103  14.301  0.0706  0.7755 -0.2962
 5426SOL    HW127914   4.250   3.122  14.223 -1.3729  1.2980 -1.1181
 5426SOL    HW227915   4.241   3.022  14.330 -1.6041 -0.2713 -0.7997
 5427SOL     OW27916   2.776   1.931  14.128 -0.0116  0.6040 -0.0630
 5427SOL    HW127917   2.811   2.012  14.091 -1.4650  0.9777 -0.6168
 5427SOL    HW227918   2.684   1.941  14.103 -0.7207 -0.0105  2.2494
 5428SOL     OW27919   0.277   2.650   3.863  0.0882  0.5745  0.3088
 5428SOL    HW127920   0.312   2.698   3.788  0.0248 -1.0546 -0.7625
 5428SOL    HW227921   0.358   2.637   3.913 -0.9540 -1.7489  1.3651
 5429SOL     OW27922   0.704   4.167   5.234 -0.0189 -0.4997  0.0829
 5429SOL    HW127923   0.695   4.083   5.280  0.5176 -1.2844 -1.2438
 5429SOL    HW227924   0.752   4.145   5.155 -1.3385 -1.9208 -0.3314
 5430SOL     OW27925   0.112   0.444   1.349  0.4186 -0.2853  0.4402
 5430SOL    HW127926   0.139   0.457   1.440 -0.1411 -0.5365  0.6424
 5430SOL    HW227927   0.043   0.511   1.344 -0.4246 -1.0225  2.0448
 5431SOL     OW27928   4.234   3.879   6.976 -0.7890  0.4564  0.2988
 5431SOL    HW127929   4.169   3.907   6.911  1.1449  2.7629 -0.6621
 5431SOL    HW227930   4.185   3.802   7.004 -0.3516 -0.1898 -0.7112
 5432SOL     OW27931   3.645   4.245  11.087 -0.4310  0.2310 -0.0982
 5432SOL    HW127932   3.740   4.258  11.093 -0.6323  2.0622 -0.9300
 5432SOL    HW227933   3.626   4.278  11.175 -2.1304 -0.6769 -0.1323
 5433SOL     OW27934   4.444   2.298   4.341  0.3303  0.3722  0.0990
 5433SOL    HW127935   4.479   2.226   4.394  1.6251  1.2290  0.4014
 5433SOL    HW227936   4.433   2.366   4.407  1.3953  1.2892 -0.6811
 5434SOL     OW27937   4.320   2.071   4.573  0.7497 -0.0996 -0.2341
 5434SOL    HW127938   4.402   2.022   4.580  0.9374  0.3622  0.8248
 5434SOL    HW227939   4.344   2.160   4.600 -1.1444  0.6765 -1.0674
 5435SOL     OW27940   2.738   3.375   1.893  0.1817 -0.0406  0.3036
 5435SOL    HW127941   2.728   3.390   1.799 -1.5422  2.7796  0.9182
 5435SOL    HW227942   2.686   3.447   1.929 -0.9545  0.4449 -2.2854
 5436SOL     OW27943   0.637   2.666   3.526  0.2324  0.1406 -0.6723
 5436SOL    HW127944   0.637   2.673   3.430  0.9940 -0.9875 -0.7578
 5436SOL    HW227945   0.549   2.631   3.536  0.8214 -1.5139 -1.2541
 5437SOL     OW27946   3.230   0.482   4.129  0.3041 -0.3781  0.4325
 5437SOL    HW127947   3.244   0.403   4.077  1.6103  0.6976 -0.8654
 5437SOL    HW227948   3.138   0.475   4.154 -0.2087  0.3479 -1.2305
 5438SOL     OW27949   1.512   3.257   2.438 -0.0313 -0.3600 -0.1866
 5438SOL    HW127950   1.540   3.296   2.356  1.5538 -0.5461  0.2753
 5438SOL    HW227951   1.496   3.334   2.493  0.0189 -0.9458  0.6457
 5439SOL     OW27952   4.052   4.644   4.638 -0.0346  0.2858 -0.1118
 5439SOL    HW127953   4.059   4.552   4.663  1.0057  1.0353  2.4097
 5439SOL    HW227954   4.069   4.688   4.722  1.0968 -2.1638  0.9332
 5440SOL     OW27955   0.497   0.801  13.648  0.1356 -0.1562 -1.0068
 5440SOL    HW127956   0.435   0.874  13.653 -1.2622 -1.5615  2.3836
 5440SOL    HW227957   0.478   0.759  13.732 -1.6409 -0.0681 -1.3832
 5441SOL     OW27958   1.611   2.178   5.318  0.1113 -0.0452  0.2668
 5441SOL    HW127959   1.637   2.124   5.392  4.2698  1.7674  0.1765
 5441SOL    HW227960   1.542   2.234   5.354 -1.2918 -1.4041 -0.3703
 5442SOL     OW27961   0.132   1.602   4.820 -0.1738 -0.4273  0.1704
 5442SOL    HW127962   0.179   1.521   4.798 -0.8722 -1.6059  2.9900
 5442SOL    HW227963   0.098   1.623   4.733  2.4208  1.0564 -0.4889
 5443SOL     OW27964   0.155   2.333   3.594  1.1574  0.2076 -0.2925
 5443SOL    HW127965   0.125   2.388   3.667  0.5725 -1.3667  0.6399
 5443SOL    HW227966   0.128   2.251   3.633 -1.1271  0.8644 -0.4659
 5444SOL     OW27967   2.375   0.284   7.735  0.3994 -0.3349  1.1300
 5444SOL    HW127968   2.380   0.340   7.657 -0.3443 -0.7816  0.7699
 5444SOL    HW227969   2.303   0.223   7.720  0.7034 -0.4688  0.2561
 5445SOL     OW27970   0.790   0.206   8.729 -0.0284  0.4342 -0.5408
 5445SOL    HW127971   0.773   0.112   8.728  2.0552  0.0533  1.7922
 5445SOL    HW227972   0.761   0.237   8.815 -0.8979  0.7510 -0.9424
 5446SOL     OW27973   4.031   2.667   4.081 -0.4372  0.1656  0.3138
 5446SOL    HW127974   3.939   2.692   4.095 -0.0052  0.3641  2.8610
 5446SOL    HW227975   4.038   2.587   4.132  1.4026  0.6527  0.8296
 5447SOL     OW27976   1.616   2.799   4.780  0.2782  0.1599 -0.6365
 5447SOL    HW127977   1.659   2.849   4.851 -4.7075 -1.0473  3.2257
 5447SOL    HW227978   1.566   2.864   4.731  1.1313  0.1434 -1.5243
 5448SOL     OW27979   3.377   0.400  10.555 -0.9041  0.2356  0.0898
 5448SOL    HW127980   3.383   0.307  10.577 -2.3486 -0.0274 -0.5899
 5448SOL    HW227981   3.463   0.434  10.533 -1.4811  1.6743  0.0450
 5449SOL     OW27982   3.417   0.095  16.883 -0.1750  0.2401  0.0263
 5449SOL    HW127983   3.453   0.165  16.829  0.7537  0.4095  0.8543
 5449SOL    HW227984   3.457   0.014  16.852  1.3186  0.4678  1.3616
 5450SOL     OW27985   2.049   3.103   5.234  0.5301 -0.5688  0.0326
 5450SOL    HW127986   2.121   3.065   5.286  0.8100  1.1412  0.9064
 5450SOL    HW227987   2.004   3.025   5.202  2.0685 -1.1932 -0.6361
 5451SOL     OW27988   4.178   2.349   5.485 -0.0004  0.4380 -0.2631
 5451SOL    HW127989   4.221   2.307   5.411  1.6786  1.9155 -0.1235
 5451SOL    HW227990   4.122   2.283   5.527 -2.5270  3.3770  1.0096
 5452SOL     OW27991   0.894   1.990  14.196  0.3585 -0.2291 -0.3781
 5452SOL    HW127992   0.985   1.959  14.204  0.0080 -0.5980  2.3370
 5452SOL    HW227993   0.877   2.018  14.286  1.9950  0.5614 -0.3007
 5453SOL     OW27994   3.471   1.916   2.839  0.3949  0.2001  0.6356
 5453SOL    HW127995   3.408   1.988   2.838 -0.4939 -0.6299 -3.0813
 5453SOL    HW227996   3.428   1.865   2.907 -0.0460 -2.5435 -1.6851
 5454SOL     OW27997   1.017   3.803   2.245 -0.6127  0.3872 -0.1126
 5454SOL    HW127998   0.946   3.755   2.204  2.1828 -2.6667 -1.3697
 5454SOL    HW227999   1.052   3.862   2.178  0.3220  0.1776  0.1820
 5455SOL     OW28000   3.180   0.281   5.460  0.5048  0.6195 -0.2466
 5455SOL    HW128001   3.108   0.317   5.513  0.9746 -0.5771  1.2088
 5455SOL    HW228002   3.227   0.248   5.536  2.2619 -0.1567 -1.6845
 5456SOL     OW28003   3.920   0.280   3.394 -0.1266 -0.6565 -0.2944
 5456SOL    HW128004   3.987   0.212   3.395 -0.2125 -0.7420 -0.3065
 5456SOL    HW228005   3.844   0.230   3.365 -0.4026 -1.1695  1.3039
 5457SOL     OW28006   0.754   1.126  16.717 -0.7087 -0.5489 -0.3509
 5457SOL    HW128007   0.666   1.141  16.752 -1.1190 -1.8207 -0.8327
 5457SOL    HW228008   0.785   1.060  16.779  0.4981 -0.8369 -1.2630
 5458SOL     OW28009   2.850   4.307   3.053 -0.1400 -0.5226  0.1838
 5458SOL    HW128010   2.760   4.328   3.080  0.3106 -0.2973  1.5086
 5458SOL    HW228011   2.837   4.215   3.030  1.5773  0.1291 -3.2568
 5459SOL     OW28012   2.547   2.217  10.881 -0.6478 -0.6518  0.1922
 5459SOL    HW128013   2.626   2.192  10.929 -1.1638 -1.1159  0.8036
 5459SOL    HW228014   2.553   2.310  10.900 -0.3526 -0.6267 -0.0303
 5460SOL     OW28015   4.524   3.189  16.606  0.2243 -0.2715  0.0709
 5460SOL    HW128016   4.530   3.156  16.695  2.2434 -0.7762 -0.2592
 5460SOL    HW228017   4.435   3.224  16.610  0.2847 -0.2801  1.3674
 5461SOL     OW28018   3.649   2.017   9.457 -0.0350  0.1365 -0.6213
 5461SOL    HW128019   3.651   2.112   9.464 -1.2957 -0.0460  2.0470
 5461SOL    HW228020   3.569   2.005   9.509  0.2222  1.0371 -0.0276
 5462SOL     OW28021   0.233   3.761   8.708  0.1996 -0.1895 -0.4300
 5462SOL    HW128022   0.236   3.840   8.654 -0.0122 -2.9306 -4.4717
 5462SOL    HW228023   0.325   3.735   8.700  0.0913 -0.4133 -0.9980
 5463SOL     OW28024   2.956   0.850  12.368 -0.4495 -0.0420 -0.1650
 5463SOL    HW128025   2.987   0.866  12.458  0.5092 -1.9871 -0.1581
 5463SOL    HW228026   2.914   0.765  12.379 -1.7239  0.6840  0.7229
 5464SOL     OW28027   1.952   1.138   1.298  0.1832  0.2371 -0.0716
 5464SOL    HW128028   1.979   1.150   1.207 -0.5439 -1.5612 -0.5183
 5464SOL    HW228029   2.011   1.073   1.335  0.6619  0.8577  0.2551
 5465SOL     OW28030   2.209   4.046  17.645  0.0908  0.4617  0.7399
 5465SOL    HW128031   2.254   4.003  17.718  0.2383 -1.3032 -0.3979
 5465SOL    HW228032   2.143   4.105  17.683 -0.3883 -1.0296  2.2283
 5466SOL     OW28033   0.581   1.952   6.221 -0.4383  0.1504  0.3381
 5466SOL    HW128034   0.582   1.898   6.301  0.1439  2.0308  1.5857
 5466SOL    HW228035   0.490   1.982   6.225  0.7348  3.3455  2.7903
 5467SOL     OW28036   2.439   1.394  11.965 -0.1246  0.2788  0.2543
 5467SOL    HW128037   2.442   1.365  11.874  0.3649  0.3927  0.2371
 5467SOL    HW228038   2.369   1.342  12.005 -1.2985  2.7656  1.4170
 5468SOL     OW28039   4.730   2.582   8.973  0.1410 -0.3743  0.2938
 5468SOL    HW128040   4.697   2.671   8.990  0.1312 -0.2644 -0.2930
 5468SOL    HW228041   4.669   2.576   8.899  0.0444  0.5261  0.2928
 5469SOL     OW28042   0.587   0.996   9.023 -0.0099  0.5159 -0.4052
 5469SOL    HW128043   0.560   0.916   9.069 -0.8729  0.2566 -1.3543
 5469SOL    HW228044   0.513   1.052   9.044 -1.3818 -2.2364  2.0511
 5470SOL     OW28045   4.310   3.147  14.045  0.1711 -0.1885 -0.5450
 5470SOL    HW128046   4.325   3.059  14.009  2.2731 -0.5816  1.2573
 5470SOL    HW228047   4.398   3.181  14.029  0.5444 -1.1659 -0.5956
 5471SOL     OW28048   0.587   0.914  15.665 -0.5057 -0.2951 -0.0447
 5471SOL    HW128049   0.677   0.947  15.665  0.0445 -1.8033 -0.7584
 5471SOL    HW228050   0.560   0.935  15.755  0.8301 -0.1920  0.3356
 5472SOL     OW28051   0.066   1.984   5.540  0.1414 -0.1136 -0.3461
 5472SOL    HW128052   0.064   2.076   5.514 -0.8870 -0.1491 -0.3890
 5472SOL    HW228053   0.055   1.939   5.457  0.5303 -2.9808  1.1489
 5473SOL     OW28054   2.814   2.665   7.429 -0.3650  0.3080  0.3678
 5473SOL    HW128055   2.779   2.718   7.358 -0.9329 -1.2580 -0.5335
 5473SOL    HW228056   2.733   2.617   7.443 -0.7144  0.7807 -0.0680
 5474SOL     OW28057   3.460   0.356   3.045 -0.2522 -0.0307 -0.0626
 5474SOL    HW128058   3.391   0.298   3.012 -0.4959 -0.2231  0.7694
 5474SOL    HW228059   3.402   0.423   3.082  0.1320  0.0926  0.3096
 5475SOL     OW28060   4.171   4.680   4.895  0.6825  0.0539  0.4043
 5475SOL    HW128061   4.184   4.712   4.985 -2.0030 -0.7793  1.1102
 5475SOL    HW228062   4.196   4.588   4.899 -1.0549 -0.4061  0.9679
 5476SOL     OW28063   2.540   0.252   9.985 -0.5135  0.2186  0.0838
 5476SOL    HW128064   2.547   0.302  10.066  2.0638  2.0624 -1.2827
 5476SOL    HW228065   2.446   0.263   9.969 -0.4814  1.8372  1.0317
 5477SOL     OW28066   0.992   4.356   1.731 -0.4771  0.2676  0.3516
 5477SOL    HW128067   1.038   4.353   1.647 -0.0260  1.6544  0.5448
 5477SOL    HW228068   1.030   4.435   1.770  1.4274 -0.3915 -0.1743
 5478SOL     OW28069   1.568   0.875   5.459  0.2513  0.0941 -0.3923
 5478SOL    HW128070   1.562   0.946   5.522 -0.0211 -0.2947  0.0220
 5478SOL    HW228071   1.474   0.864   5.441  0.1265 -0.5725  0.6904
 5479SOL     OW28072   1.428   1.059   5.690  0.2852 -0.0594  0.5122
 5479SOL    HW128073   1.357   1.000   5.666  1.9630 -1.0978 -1.9872
 5479SOL    HW228074   1.377   1.133   5.721  1.2260  1.0992 -0.6621
 5480SOL     OW28075   3.266   1.222  12.348  0.4311  0.2739  0.1189
 5480SOL    HW128076   3.193   1.212  12.410 -0.3285  1.3162 -0.5983
 5480SOL    HW228077   3.328   1.257  12.412  1.2703 -0.2919 -0.4032
 5481SOL     OW28078   4.410   2.770   8.529 -0.1330 -0.0041 -0.2293
 5481SOL    HW128079   4.429   2.679   8.552  0.0718  0.4376  1.2948
 5481SOL    HW228080   4.444   2.777   8.439  0.9836 -0.1673  0.1819
 5482SOL     OW28081   1.542   0.272   0.202  0.2481  0.1250 -0.0053
 5482SOL    HW128082   1.485   0.314   0.266  2.4878  0.5255  1.7259
 5482SOL    HW228083   1.623   0.315   0.229  0.4726 -0.0674 -0.3739
 5483SOL     OW28084   2.926   0.147   5.667  0.5541  0.0834 -0.5198
 5483SOL    HW128085   2.850   0.142   5.726 -0.5253  1.6842 -1.7819
 5483SOL    HW228086   2.945   0.057   5.642  0.8419 -0.3760  1.3446
 5484SOL     OW28087   0.193   1.522   7.231  0.4535  0.4608 -0.7964
 5484SOL    HW128088   0.242   1.466   7.292  0.4850  1.3030 -0.0455
 5484SOL    HW228089   0.153   1.461   7.169  0.5205 -1.5526  1.1381
 5485SOL     OW28090   3.648   1.832   9.061 -0.5155  0.3380  0.0896
 5485SOL    HW128091   3.623   1.803   9.148  1.3808  2.1564  1.2257
 5485SOL    HW228092   3.560   1.831   9.023 -0.7094 -1.4089  0.5426
 5486SOL     OW28093   2.611   1.020   4.658 -0.4076 -0.1754  0.1727
 5486SOL    HW128094   2.517   1.008   4.650 -0.9171  2.9657  1.4458
 5486SOL    HW228095   2.628   0.989   4.747 -1.4130 -1.2929 -0.0195
 5487SOL     OW28096   3.716   3.340  13.782 -0.0680 -0.1794  0.3517
 5487SOL    HW128097   3.792   3.397  13.794  1.3449 -1.8799 -0.5640
 5487SOL    HW228098   3.709   3.343  13.687 -0.7157  0.8853  0.4316
 5488SOL     OW28099   3.731   1.507   3.159 -0.6117  0.0424 -0.1485
 5488SOL    HW128100   3.800   1.536   3.100  0.7800 -1.7759  0.6018
 5488SOL    HW228101   3.725   1.575   3.227 -1.7148 -1.3374  1.1487
 5489SOL     OW28102   3.208   4.678   2.057 -0.5826 -0.0378  0.0495
 5489SOL    HW128103   3.172   0.027   2.082  2.0649  0.3659  2.3920
 5489SOL    HW228104   3.201   4.625   2.136 -2.3278 -0.5383 -0.4332
 5490SOL     OW28105   2.092   3.820   2.225  0.3971  0.3529 -0.3218
 5490SOL    HW128106   2.063   3.869   2.148 -2.5165  1.4842  1.4892
 5490SOL    HW228107   2.013   3.782   2.264 -1.2700  1.6309 -2.5001
 5491SOL     OW28108   3.342   0.085   8.122 -0.2093  0.7774  0.0838
 5491SOL    HW128109   3.428   0.085   8.081  1.2992 -0.7304  3.2245
 5491SOL    HW228110   3.299   0.156   8.075  0.5143 -0.0242 -1.7910
 5492SOL     OW28111   3.760   4.070   3.001  0.1359  0.8198  0.2066
 5492SOL    HW128112   3.723   4.154   3.027  0.3537  1.3512 -1.2129
 5492SOL    HW228113   3.725   4.017   3.072  0.3401  1.0617  0.4888
 5493SOL     OW28114   2.654   3.861   6.170 -0.5449  0.0132  0.1207
 5493SOL    HW128115   2.738   3.815   6.163  0.5775  2.3916 -2.1204
 5493SOL    HW228116   2.669   3.910   6.250  2.5693 -0.7415  0.0029
 5494SOL     OW28117   2.044   2.212   4.398  0.2815 -0.2586  0.5783
 5494SOL    HW128118   1.951   2.191   4.390 -0.2241  1.7127  1.2060
 5494SOL    HW228119   2.085   2.132   4.367 -1.2548 -0.5310 -0.7562
 5495SOL     OW28120   2.675   4.706  15.215 -0.0002  0.4170 -0.0816
 5495SOL    HW128121   2.677   0.032  15.143 -0.8689 -2.0442 -2.2530
 5495SOL    HW228122   2.584   4.701  15.245  0.1433  2.5055  0.6992
 5496SOL     OW28123   1.019   1.203  16.559 -0.3636 -0.0347  0.2765
 5496SOL    HW128124   0.934   1.163  16.575 -0.3555 -0.2945 -0.3219
 5496SOL    HW228125   0.998   1.294  16.582 -0.2939  0.3197 -1.0559
 5497SOL     OW28126   0.319   1.120   5.879  0.2293 -0.5435  0.0812
 5497SOL    HW128127   0.256   1.166   5.823 -1.1186  0.0610  2.1132
 5497SOL    HW228128   0.261   1.086   5.947  1.9017 -0.1454  1.6921
 5498SOL     OW28129   3.001   2.272   4.362 -1.0979  0.3009  0.2025
 5498SOL    HW128130   2.973   2.337   4.297 -1.2841 -0.7957 -0.8307
 5498SOL    HW228131   2.922   2.246   4.409 -1.3507  1.8505  0.6393
 5499SOL     OW28132   2.200   1.481   5.598 -0.1957 -0.1166 -0.2172
 5499SOL    HW128133   2.212   1.504   5.505 -1.6773  2.7403  0.2787
 5499SOL    HW228134   2.244   1.397   5.589 -1.0964 -0.7566  1.4511
 5500SOL     OW28135   0.402   4.610   8.440  0.4100 -0.2230  0.0597
 5500SOL    HW128136   0.343   4.539   8.412  2.1173 -1.1295 -1.2424
 5500SOL    HW228137   0.485   4.581   8.403  1.6464  0.1797  2.5427
 5501SOL     OW28138   1.932   2.432   7.116 -0.1489 -0.2243 -0.2360
 5501SOL    HW128139   1.913   2.482   7.195  1.1003 -1.9630  1.1417
 5501SOL    HW228140   1.931   2.339   7.137 -0.0754  0.3750  2.3511
 5502SOL     OW28141   4.159   3.697   5.152 -0.6201  0.1984 -0.6516
 5502SOL    HW128142   4.099   3.772   5.149  0.6466  1.2305  0.2752
 5502SOL    HW228143   4.179   3.675   5.243  0.4377  1.9627 -0.4590
 5503SOL     OW28144   0.724   0.873   8.793 -0.0217 -0.2726  0.3054
 5503SOL    HW128145   0.641   0.849   8.752  0.1415 -3.1596  1.6725
 5503SOL    HW228146   0.693   0.923   8.868 -1.4546  0.5016 -0.8144
 5504SOL     OW28147   1.551   0.741   7.875 -0.3896 -0.4621  0.4065
 5504SOL    HW128148   1.594   0.669   7.827  1.9223  1.7278 -0.8146
 5504SOL    HW228149   1.458   0.722   7.872 -0.0561 -2.3659  1.8652
 5505SOL     OW28150   3.180   3.401   6.030  0.2394  0.1173  0.1463
 5505SOL    HW128151   3.146   3.491   6.028  1.4368  0.5804  0.3999
 5505SOL    HW228152   3.181   3.376   6.122  0.9543 -1.6101 -0.3458
 5506SOL     OW28153   4.268   1.488   4.230  0.6495 -0.1365 -0.2543
 5506SOL    HW128154   4.258   1.393   4.228 -2.1681  0.2315 -3.0086
 5506SOL    HW228155   4.360   1.503   4.254  0.3139 -1.2108  1.7397
 5507SOL     OW28156   4.374   3.892  14.957 -0.0991 -0.6869 -0.0649
 5507SOL    HW128157   4.433   3.872  14.884 -0.7479 -0.0500 -0.7621
 5507SOL    HW228158   4.366   3.987  14.956  1.8810 -0.5526 -1.6381
 5508SOL     OW28159   4.668   0.889  12.180  0.3264 -0.0775 -0.1106
 5508SOL    HW128160   4.686   0.872  12.273 -1.4386 -0.2368  0.1970
 5508SOL    HW228161   4.582   0.927  12.193  0.2556  0.5877 -2.5943
 5509SOL     OW28162   3.522   0.476  16.715 -0.2563  0.1667  0.0087
 5509SOL    HW128163   3.491   0.457  16.626  0.1545  0.4695 -0.1961
 5509SOL    HW228164   3.547   0.388  16.743  2.3847  0.4570 -1.4197
 5510SOL     OW28165   2.155   0.743   4.612  0.2863  0.3748 -0.8833
 5510SOL    HW128166   2.070   0.716   4.647 -0.3655  0.2006 -2.6068
 5510SOL    HW228167   2.223   0.722   4.676 -0.7045 -1.7458 -0.5285
 5511SOL     OW28168   1.866   3.038   7.880 -0.1752 -0.5715  0.8048
 5511SOL    HW128169   1.771   3.051   7.871 -0.0807 -0.0842  0.5497
 5511SOL    HW228170   1.894   3.130   7.872 -2.2731  0.2807  3.1823
 5512SOL     OW28171   2.273   2.590  10.484  0.7081  0.4492  0.4246
 5512SOL    HW128172   2.251   2.520  10.546  1.6492 -0.4547 -0.2585
 5512SOL    HW228173   2.183   2.605  10.454  0.6517 -3.1137 -1.1563
 5513SOL     OW28174   2.238   1.613   8.977  0.1811 -0.4465 -0.0903
 5513SOL    HW128175   2.243   1.622   9.072 -1.7021 -0.7474  0.0462
 5513SOL    HW228176   2.143   1.611   8.965  0.2360 -2.4212 -0.2076
 5514SOL     OW28177   0.290   1.799   3.741  0.1066  0.6089 -0.0533
 5514SOL    HW128178   0.198   1.776   3.743  0.6180 -1.3631  0.9556
 5514SOL    HW228179   0.298   1.879   3.792  4.1554 -0.3656  0.8586
 5515SOL     OW28180   3.866   0.005   5.074 -0.8457  0.2932  0.6100
 5515SOL    HW128181   3.937   0.069   5.071 -1.0734  0.5533  0.7624
 5515SOL    HW228182   3.822   0.036   4.995  2.3670 -2.0179 -2.1329
 5516SOL     OW28183   2.013   4.007   4.673 -0.0702  0.1736 -0.1213
 5516SOL    HW128184   1.976   4.093   4.654 -1.0432 -0.3525 -0.6000
 5516SOL    HW228185   1.942   3.956   4.636  0.1865 -1.2322  1.3496
 5517SOL     OW28186   1.488   4.659  17.710  0.2906 -0.7456  0.6823
 5517SOL    HW128187   1.422   4.723  17.681  2.6304  2.2877  2.0153
 5517SOL    HW228188   1.504   4.692   0.053 -0.4484 -1.8206  1.2105
 5518SOL     OW28189   3.148   1.978   4.429 -0.2728 -0.3139 -0.4668
 5518SOL    HW128190   3.194   2.058   4.404 -0.3292 -0.1581 -0.0856
 5518SOL    HW228191   3.218   1.916   4.409 -0.0885 -0.0464 -0.6383
 5519SOL     OW28192   4.503   3.958   6.024  0.0339  0.0704  0.0927
 5519SOL    HW128193   4.523   3.865   6.039 -1.0198  0.2045  2.3735
 5519SOL    HW228194   4.459   3.971   6.108  0.4651 -0.9114  0.4832
 5520SOL     OW28195   0.268   3.567   4.939 -0.5097 -0.1017 -0.0391
 5520SOL    HW128196   0.186   3.518   4.941 -0.0576 -0.9014 -1.0583
 5520SOL    HW228197   0.294   3.578   5.030  0.4108  3.3827 -0.7231
 5521SOL     OW28198   4.203   2.707   2.008  0.0438 -0.1880 -0.1065
 5521SOL    HW128199   4.175   2.740   2.093 -0.8038 -0.3865 -0.3086
 5521SOL    HW228200   4.294   2.700   2.037  0.1310  1.8450  0.0770
 5522SOL     OW28201   0.469   1.547   5.422 -0.2892  0.3523  0.1597
 5522SOL    HW128202   0.474   1.598   5.503  1.3844 -2.4350  1.8379
 5522SOL    HW228203   0.536   1.601   5.381 -1.4413 -0.1621 -2.3447
 5523SOL     OW28204   0.593   3.916   8.126  0.3248  0.4252  0.4594
 5523SOL    HW128205   0.564   4.004   8.150 -2.3783 -0.6467  1.0316
 5523SOL    HW228206   0.576   3.860   8.201  1.9237 -0.4053  0.2109
 5524SOL     OW28207   1.142   0.103   8.501 -0.0424  0.2339  0.5220
 5524SOL    HW128208   1.191   0.168   8.450  1.2091 -0.5982  0.6633
 5524SOL    HW228209   1.123   0.159   8.577  0.1092 -0.9050  1.4071
 5525SOL     OW28210   2.127   3.160   4.258  0.4410 -0.0501 -0.1870
 5525SOL    HW128211   2.130   3.247   4.218 -0.6881 -0.1207 -0.4052
 5525SOL    HW228212   2.192   3.186   4.324  1.8912  0.2116 -1.7013
 5526SOL     OW28213   3.491   0.699   0.880 -0.3728 -0.0679 -0.3756
 5526SOL    HW128214   3.398   0.717   0.861 -0.8836  1.1661  3.3636
 5526SOL    HW228215   3.508   0.612   0.845  0.0296  0.1040 -0.6098
 5527SOL     OW28216   2.335   4.547  11.406  0.2063  0.4104  0.2382
 5527SOL    HW128217   2.316   4.570  11.497  0.4837  0.3584  0.3108
 5527SOL    HW228218   2.291   4.463  11.408  0.2864  0.2623 -3.8809
 5528SOL     OW28219   2.572   0.425  11.648 -0.0145  0.5422  0.0318
 5528SOL    HW128220   2.535   0.458  11.566 -0.1770  0.5583  0.1104
 5528SOL    HW228221   2.510   0.442  11.719  0.0157 -1.8914  0.6172
 5529SOL     OW28222   1.305   2.056   4.795 -0.2145  0.1375 -0.9184
 5529SOL    HW128223   1.295   2.148   4.770 -0.2823  0.5337  0.5664
 5529SOL    HW228224   1.217   2.037   4.829  0.8914 -1.3821  1.0813
 5530SOL     OW28225   4.157   1.725  10.213 -0.2872 -0.4186  0.5125
 5530SOL    HW128226   4.087   1.752  10.154 -0.3623 -1.7118  0.0180
 5530SOL    HW228227   4.097   1.685  10.276 -3.3176  0.9192 -1.5388
 5531SOL     OW28228   2.877   4.674   9.110  0.5630  0.4115  0.0509
 5531SOL    HW128229   2.921   4.702   9.029  0.5415  1.3219  0.3534
 5531SOL    HW228230   2.938   4.610   9.147 -1.0345 -1.2661 -0.2405
 5532SOL     OW28231   3.198   3.476   1.819 -0.0758 -0.6820 -0.0748
 5532SOL    HW128232   3.267   3.460   1.884  0.8722 -0.4408 -1.0203
 5532SOL    HW228233   3.154   3.558   1.843 -0.2943 -1.0289  0.7338
 5533SOL     OW28234   4.309   2.297  15.008  0.0981 -0.0591 -0.1184
 5533SOL    HW128235   4.259   2.359  15.061 -3.6967 -0.9428 -2.7223
 5533SOL    HW228236   4.263   2.215  15.027  1.1185 -1.0126 -1.7465
 5534SOL     OW28237   3.153   3.022  17.553 -0.5722 -0.0762 -0.4293
 5534SOL    HW128238   3.185   3.092  17.496 -1.1134  0.3716 -0.1862
 5534SOL    HW228239   3.103   3.079  17.611 -0.0742  0.3890 -0.4527
 5535SOL     OW28240   3.588   0.895   2.382 -0.0160  0.1987 -0.4861
 5535SOL    HW128241   3.518   0.944   2.340 -1.6721 -2.1664 -0.4863
 5535SOL    HW228242   3.656   0.898   2.314 -0.9770  0.3399 -1.4313
 5536SOL     OW28243   3.603   0.761   8.136 -0.7280  0.2803  0.0430
 5536SOL    HW128244   3.563   0.689   8.088  0.6544 -0.1187 -0.5073
 5536SOL    HW228245   3.536   0.827   8.115  0.7426  1.5113 -0.8459
 5537SOL     OW28246   0.642   0.011  12.071 -0.3442  0.1733  0.4834
 5537SOL    HW128247   0.593   0.089  12.043  0.3844  0.0272 -1.2002
 5537SOL    HW228248   0.675   0.052  12.151 -2.5443  1.1846  0.9010
 5538SOL     OW28249   1.766   1.729   8.359  0.3855  0.1808  0.0190
 5538SOL    HW128250   1.680   1.763   8.385  0.1350 -0.3033 -0.1690
 5538SOL    HW228251   1.739   1.649   8.314  0.9232  0.8108 -1.4453
 5539SOL     OW28252   2.340   3.227   8.957 -0.4918  0.0902  0.0993
 5539SOL    HW128253   2.297   3.297   8.907  0.1068  0.4718  0.1182
 5539SOL    HW228254   2.423   3.218   8.910 -0.5043  2.7152 -0.4626
 5540SOL     OW28255   0.699   1.296   8.158 -0.4151 -0.2139 -0.4308
 5540SOL    HW128256   0.767   1.241   8.195  0.4287  2.4679  1.9553
 5540SOL    HW228257   0.624   1.276   8.214  0.7401 -0.6544  0.9263
 5541SOL     OW28258   3.808   2.262   3.447 -1.3478  0.1659  0.6091
 5541SOL    HW128259   3.791   2.318   3.371 -0.2686 -0.6251 -0.2091
 5541SOL    HW228260   3.740   2.195   3.437 -0.5728 -0.4653 -0.4948
 5542SOL     OW28261   4.074   3.165  14.549  0.4322  0.4240  0.0520
 5542SOL    HW128262   4.133   3.226  14.593  1.9912 -0.9525 -0.1423
 5542SOL    HW228263   4.126   3.136  14.474 -1.9548 -0.4644 -1.2870
 5543SOL     OW28264   0.370   3.185   5.269 -0.7060  0.1172  0.0243
 5543SOL    HW128265   0.354   3.267   5.315 -0.3678  0.9226 -1.2994
 5543SOL    HW228266   0.374   3.119   5.338 -0.3592 -0.2482 -0.3451
 5544SOL     OW28267   3.504   0.325   6.590 -0.3323  0.0270  0.1171
 5544SOL    HW128268   3.509   0.268   6.513 -1.2629 -1.1755  0.9454
 5544SOL    HW228269   3.507   0.264   6.663 -1.0178 -1.5703 -1.1975
 5545SOL     OW28270   4.339   1.542   7.017  0.3967 -0.3116 -0.3649
 5545SOL    HW128271   4.244   1.548   7.014  0.6574  4.6322  2.3953
 5545SOL    HW228272   4.350   1.449   7.039  3.1218 -0.4759 -2.4009
 5546SOL     OW28273   0.069   3.320  12.129 -0.6626 -0.2720 -0.1354
 5546SOL    HW128274   0.118   3.238  12.135 -1.1032 -0.4227  1.1771
 5546SOL    HW228275   0.135   3.383  12.158 -0.0039 -0.2151 -1.7185
 5547SOL     OW28276   2.583   2.924   1.771 -0.2179  0.5745 -0.3687
 5547SOL    HW128277   2.624   2.853   1.820  1.5228  0.8268 -1.4634
 5547SOL    HW228278   2.609   2.888   1.686  1.7521  2.2237 -0.4596
 5548SOL     OW28279   1.711   2.100   8.878  0.0771 -1.0415 -0.2685
 5548SOL    HW128280   1.703   2.072   8.787  0.6072  2.5799 -1.4493
 5548SOL    HW228281   1.697   2.192   8.857  0.2439 -0.8788  0.3502
 5549SOL     OW28282   3.539   2.693   8.449  0.1393  0.6704 -0.2010
 5549SOL    HW128283   3.485   2.742   8.510  0.4274 -0.9437  1.3640
 5549SOL    HW228284   3.509   2.602   8.452 -0.2259  0.7836 -0.5098
 5550SOL     OW28285   0.901   3.829  14.416  0.2691 -0.0767  0.0942
 5550SOL    HW128286   0.866   3.747  14.384 -0.0494  0.2118 -0.2912
 5550SOL    HW228287   0.877   3.885  14.342 -3.5669 -0.3105  1.1578
 5551SOL     OW28288   4.268   2.793  16.314  0.2003  0.2044 -0.1357
 5551SOL    HW128289   4.210   2.750  16.252 -0.5805 -0.6245  1.1809
 5551SOL    HW228290   4.330   2.838  16.255 -0.2230  1.0747  0.0789
 5552SOL     OW28291   2.456   2.963   3.633 -0.1698 -0.5961 -0.4973
 5552SOL    HW128292   2.448   3.058   3.620 -0.5833 -0.7785 -1.5309
 5552SOL    HW228293   2.539   2.941   3.592  0.3601  1.0219 -0.3042
 5553SOL     OW28294   4.047   2.821  16.725  0.2608  0.0606  0.7445
 5553SOL    HW128295   3.979   2.841  16.660 -1.3831 -0.8743  2.1626
 5553SOL    HW228296   4.099   2.901  16.725  0.4972 -0.0942  0.6424
 5554SOL     OW28297   1.087   4.302   5.174 -0.3311  0.0279 -0.2186
 5554SOL    HW128298   1.120   4.256   5.097 -0.4411  1.1900 -0.9609
 5554SOL    HW228299   1.023   4.356   5.127 -0.5215 -0.0415 -0.0413
 5555SOL     OW28300   4.600   3.718   6.111 -0.6102 -0.4909  0.4729
 5555SOL    HW128301   4.580   3.625   6.115  1.3841 -1.0093 -1.5125
 5555SOL    HW228302   4.599   3.751   6.201  1.4709 -3.6346  1.6615
 5556SOL     OW28303   3.242   3.423   8.313  0.0886  0.2143  0.6547
 5556SOL    HW128304   3.160   3.471   8.320 -0.0145  0.3260 -1.2771
 5556SOL    HW228305   3.250   3.363   8.388  0.7840  1.0872  1.2756
 5557SOL     OW28306   3.116   4.613   3.604  0.2399 -0.5658 -0.2556
 5557SOL    HW128307   3.172   4.557   3.657  1.0752 -0.9960 -1.5919
 5557SOL    HW228308   3.057   4.552   3.560  0.8671 -0.4889 -1.1965
 5558SOL     OW28309   0.441   2.825   8.543 -0.1828 -0.1821  0.6517
 5558SOL    HW128310   0.410   2.758   8.604 -1.3264 -0.0805  0.1963
 5558SOL    HW228311   0.531   2.849   8.564  0.3239 -0.8768 -0.7150
 5559SOL     OW28312   4.573   1.465  16.866 -0.4718  0.1739 -0.6532
 5559SOL    HW128313   4.493   1.485  16.817 -0.9433  1.5077  0.6979
 5559SOL    HW228314   4.593   1.388  16.813 -0.5137  0.8759 -1.6910
 5560SOL     OW28315   3.507   3.701   8.623 -0.1464 -0.3082 -0.0667
 5560SOL    HW128316   3.476   3.619   8.660  0.5763  0.3062  1.9205
 5560SOL    HW228317   3.575   3.717   8.689  1.4128 -1.1087 -1.4693
 5561SOL     OW28318   1.808   2.679  16.671  0.2042  0.3131 -0.1314
 5561SOL    HW128319   1.847   2.643  16.591 -0.2291  0.4561 -0.4073
 5561SOL    HW228320   1.733   2.724  16.633  0.4023  0.3215 -0.5128
 5562SOL     OW28321   2.579   0.872   6.443 -0.7194 -0.5246 -0.3144
 5562SOL    HW128322   2.571   0.942   6.508  2.7103 -1.2898  0.9236
 5562SOL    HW228323   2.489   0.883   6.411 -1.1816  1.9632  1.8097
 5563SOL     OW28324   1.121   1.201   5.339 -0.6554 -0.1272 -0.4991
 5563SOL    HW128325   1.215   1.181   5.342 -0.8034 -0.9972 -2.0026
 5563SOL    HW228326   1.089   1.111   5.342 -1.0816  0.0216 -0.7497
 5564SOL     OW28327   4.441   2.931   4.682 -0.0732  0.1366  0.1674
 5564SOL    HW128328   4.509   2.946   4.748 -2.3894  1.7420  2.1947
 5564SOL    HW228329   4.404   3.019   4.691  1.3105  0.9157 -1.6957
 5565SOL     OW28330   1.023   1.659  15.371 -0.1362 -0.2706  0.4346
 5565SOL    HW128331   1.079   1.636  15.446 -0.0584 -0.5754  0.2818
 5565SOL    HW228332   1.088   1.705  15.317 -0.9318  0.0681 -0.2253
 5566SOL     OW28333   0.618   4.420   8.334  0.4885 -0.3834  1.0358
 5566SOL    HW128334   0.594   4.328   8.335 -0.5413 -0.1324 -0.0653
 5566SOL    HW228335   0.677   4.424   8.258 -0.2725 -0.3859  0.4394
 5567SOL     OW28336   1.149   2.607  13.149 -0.6639 -0.0028 -0.3380
 5567SOL    HW128337   1.145   2.601  13.244 -0.7503 -0.5034 -0.3754
 5567SOL    HW228338   1.137   2.702  13.139 -0.3835 -0.1293 -1.9321
 5568SOL     OW28339   0.721   2.279   6.721 -0.0082  0.4188  0.1870
 5568SOL    HW128340   0.792   2.339   6.701 -0.3155  1.4785  2.2739
 5568SOL    HW228341   0.727   2.218   6.648 -0.7782  1.0038 -0.3660
 5569SOL     OW28342   3.806   0.992  15.173  0.7483  0.5131 -0.1354
 5569SOL    HW128343   3.883   1.030  15.130  0.9197  0.9308  0.5353
 5569SOL    HW228344   3.755   1.072  15.158 -1.7833 -0.9423  0.7309
 5570SOL     OW28345   4.138   0.104   5.883 -0.3013  0.0380  0.7247
 5570SOL    HW128346   4.122   0.117   5.976 -1.0395  0.8737  0.4832
 5570SOL    HW228347   4.059   0.052   5.871 -0.5268  0.7648 -1.0437
 5571SOL     OW28348   0.990   0.335   1.576 -0.2026  0.5313 -0.6466
 5571SOL    HW128349   1.059   0.283   1.617 -1.7383 -2.6197 -2.0858
 5571SOL    HW228350   0.994   0.406   1.640 -0.9574  0.7651 -0.8553
 5572SOL     OW28351   3.864   3.193   7.321 -0.2924  0.0535 -0.0574
 5572SOL    HW128352   3.951   3.201   7.361  0.5247  0.3861 -1.9421
 5572SOL    HW228353   3.864   3.264   7.258 -1.5243 -0.3569 -0.5118
 5573SOL     OW28354   0.781   2.727   4.321  0.4105  0.6700 -0.3776
 5573SOL    HW128355   0.804   2.643   4.280  0.4306  1.8219 -2.6999
 5573SOL    HW228356   0.861   2.778   4.314  0.5528  0.3034 -1.4326
 5574SOL     OW28357   4.544   0.301   7.249  0.0563 -0.2010  0.2115
 5574SOL    HW128358   4.467   0.345   7.285  1.4981  0.7109  2.1281
 5574SOL    HW228359   4.522   0.302   7.155  3.1246  2.3523 -0.4429
 5575SOL     OW28360   0.863   1.097   5.986 -0.6150  0.4281  0.1079
 5575SOL    HW128361   0.872   1.159   6.059  2.1166 -0.5897  0.6305
 5575SOL    HW228362   0.772   1.067   5.993 -0.6930  1.0167  1.6846
 5576SOL     OW28363   3.507   1.516  16.566 -0.3467  0.1194 -0.4361
 5576SOL    HW128364   3.518   1.581  16.496  0.6112 -0.6465 -0.9949
 5576SOL    HW228365   3.530   1.434  16.523 -5.1675 -1.1997 -0.4643
 5577SOL     OW28366   0.007   2.345   6.592  0.1774 -0.0626  0.4597
 5577SOL    HW128367   4.696   2.305   6.664 -2.1491 -0.1279 -1.1091
 5577SOL    HW228368   0.056   2.268   6.561 -0.4464 -0.9212  1.6279
 5578SOL     OW28369   4.215   2.799   7.204 -0.6397  0.3946 -0.3561
 5578SOL    HW128370   4.245   2.848   7.127 -3.2219  1.0090 -0.9889
 5578SOL    HW228371   4.139   2.759   7.163 -0.4161 -0.9330  0.5430
 5579SOL     OW28372   2.002   2.151   7.188 -0.0820 -0.0444  0.1475
 5579SOL    HW128373   1.968   2.131   7.276 -1.6141 -0.8896 -0.6474
 5579SOL    HW228374   2.094   2.173   7.205  0.2885 -1.4402 -0.0617
 5580SOL     OW28375   1.028   3.516   4.331  0.1789  0.3193  0.4751
 5580SOL    HW128376   0.953   3.565   4.364  0.5795  1.1402  0.1765
 5580SOL    HW228377   0.988   3.452   4.273 -0.9122 -1.7480  3.5511
 5581SOL     OW28378   1.286   0.403   8.570 -0.3554  0.2306 -0.3742
 5581SOL    HW128379   1.261   0.426   8.480  2.1877  0.0865 -1.1186
 5581SOL    HW228380   1.215   0.358   8.614 -2.1568  1.6658 -1.7958
 5582SOL     OW28381   1.486   0.519   5.636 -0.8041 -0.2972 -0.9620
 5582SOL    HW128382   1.549   0.456   5.600 -0.5641  0.6836 -2.2283
 5582SOL    HW228383   1.408   0.467   5.652 -1.0799  0.6238  0.6841
 5583SOL     OW28384   0.388   1.054   7.523  0.0291  0.2273 -0.2356
 5583SOL    HW128385   0.432   1.084   7.602 -0.5254  0.3531  0.0318
 5583SOL    HW228386   0.444   1.097   7.458  1.0526 -0.6686  0.0701
 5584SOL     OW28387   2.344   0.684   4.789  0.3481  0.2932 -0.1466
 5584SOL    HW128388   2.383   0.612   4.839  1.1356  1.1813  0.5140
 5584SOL    HW228389   2.369   0.754   4.850 -2.1443  1.3602 -0.3558
 5585SOL     OW28390   2.825   3.377   1.049  0.1473 -0.3341  0.0815
 5585SOL    HW128391   2.840   3.401   1.140  0.1823  3.4246 -0.9263
 5585SOL    HW228392   2.836   3.463   1.010 -0.2773  0.6141  2.0868
 5586SOL     OW28393   0.848   4.674   1.666 -0.2155  0.2679 -0.4972
 5586SOL    HW128394   0.886   4.687   1.753  0.3237 -0.2076 -0.6585
 5586SOL    HW228395   0.815   0.027   1.657  0.4942  0.5086 -0.7298
 5587SOL     OW28396   1.661   3.477   8.941  0.1296 -0.0380 -0.2461
 5587SOL    HW128397   1.592   3.495   9.005  0.2144  1.9956 -0.7280
 5587SOL    HW228398   1.684   3.387   8.961 -2.1839 -0.4846  0.4244
 5588SOL     OW28399   2.221   2.468   1.005 -0.3756 -0.3390  0.3266
 5588SOL    HW128400   2.138   2.429   1.033 -1.2768 -0.7157 -2.8974
 5588SOL    HW228401   2.255   2.491   1.092  1.5892 -0.5937 -0.3697
 5589SOL     OW28402   1.618   1.803   4.965  0.0868  0.2660 -0.3732
 5589SOL    HW128403   1.631   1.898   4.966  0.3074  0.2114  2.0126
 5589SOL    HW228404   1.531   1.789   5.003  0.4604 -2.5443 -0.5977
 5590SOL     OW28405   0.461   4.409   1.880 -0.0876  0.3355  0.7285
 5590SOL    HW128406   0.403   4.337   1.856  2.4263 -0.7342 -2.2676
 5590SOL    HW228407   0.484   4.446   1.795 -1.0665 -1.7885 -0.4667
 5591SOL     OW28408   4.581   2.701  16.144 -0.0117 -0.3271  0.7203
 5591SOL    HW128409   4.628   2.742  16.071 -0.3119 -0.2267  0.5851
 5591SOL    HW228410   4.548   2.778  16.190  1.4337 -0.5607  2.1374
 5592SOL     OW28411   0.895   0.154   9.950 -0.0565  0.1328  0.3541
 5592SOL    HW128412   0.910   0.213  10.024  2.9608  1.8375 -1.5955
 5592SOL    HW228413   0.970   0.182   9.897  0.4825 -2.5048 -0.2663
 5593SOL     OW28414   2.619   3.964   4.322  0.1985  0.2905  0.1163
 5593SOL    HW128415   2.602   4.057   4.304 -1.5765 -0.1915 -0.6392
 5593SOL    HW228416   2.625   3.944   4.228 -1.0607  2.3384 -0.4145
 5594SOL     OW28417   1.109   1.536   8.892 -0.4621 -0.4631  0.2069
 5594SOL    HW128418   1.070   1.459   8.933  0.2514 -0.9347  0.0161
 5594SOL    HW228419   1.069   1.608   8.940 -1.6362 -0.7600 -0.3323
 5595SOL     OW28420   2.779   1.762  11.850 -0.5523 -0.3073 -0.0682
 5595SOL    HW128421   2.841   1.757  11.778 -0.6461  1.1707 -0.2520
 5595SOL    HW228422   2.741   1.846  11.824  0.8514  0.6456  0.9147
 5596SOL     OW28423   3.390   4.480   1.381  0.1684 -0.2906 -0.1225
 5596SOL    HW128424   3.451   4.406   1.380  2.6225  1.7289 -2.0456
 5596SOL    HW228425   3.303   4.444   1.367  0.5553 -1.4083  0.3518
 5597SOL     OW28426   1.391   3.511   3.762 -0.1417 -0.2805 -0.1997
 5597SOL    HW128427   1.358   3.423   3.779 -1.5466  0.3759  0.4095
 5597SOL    HW228428   1.472   3.490   3.716 -0.9764 -0.9133 -1.3802
 5598SOL     OW28429   4.398   1.407   7.842  0.1830  0.5169  0.5063
 5598SOL    HW128430   4.492   1.400   7.830 -0.0317 -2.1451  0.3550
 5598SOL    HW228431   4.374   1.380   7.753 -0.3419  2.1842  0.1396
 5599SOL     OW28432   1.029   2.500  14.769 -0.6476  0.2484  0.3623
 5599SOL    HW128433   1.066   2.550  14.841  2.8167 -3.1729  0.9672
 5599SOL    HW228434   1.054   2.550  14.691  0.1819  0.8402  1.0143
 5600SOL     OW28435   2.695   0.583  16.372 -0.1502 -0.8990  0.4392
 5600SOL    HW128436   2.707   0.626  16.287  0.0410  1.3629  1.6213
 5600SOL    HW228437   2.783   0.552  16.393 -0.0516 -1.0172 -0.1303
 5601SOL     OW28438   0.601   1.826   4.957  0.0026 -0.2942 -0.0370
 5601SOL    HW128439   0.517   1.784   4.978  0.7293 -2.4268 -1.4208
 5601SOL    HW228440   0.587   1.865   4.871 -1.8235  0.8422  0.7695
 5602SOL     OW28441   3.374   3.021   5.327  0.1794  0.2097  0.2873
 5602SOL    HW128442   3.451   3.076   5.344 -1.1214  1.7214  1.2300
 5602SOL    HW228443   3.306   3.074   5.367  0.5296  1.2801 -0.5377
 5603SOL     OW28444   4.605   1.119   4.032 -0.7266  0.3283 -0.8014
 5603SOL    HW128445   4.517   1.157   4.031 -0.7153  0.3450 -1.6347
 5603SOL    HW228446   4.576   1.031   4.057 -1.5659  0.8465  0.0487
 5604SOL     OW28447   1.494   1.849   8.409 -0.5876  0.1577  0.5495
 5604SOL    HW128448   1.532   1.933   8.382 -1.2592  0.3680  0.2347
 5604SOL    HW228449   1.401   1.872   8.406 -0.3821  0.6914 -1.8124
 5605SOL     OW28450   3.730   4.470  13.702 -0.2024  0.0527  0.2086
 5605SOL    HW128451   3.654   4.501  13.752 -0.0659 -0.3677  0.6838
 5605SOL    HW228452   3.692   4.461  13.615  4.1096  0.2498 -1.6783
 5606SOL     OW28453   1.631   3.548  15.869  0.2336 -0.0214  0.4858
 5606SOL    HW128454   1.547   3.555  15.824  0.4509 -0.8279 -0.0270
 5606SOL    HW228455   1.610   3.485  15.938  1.3651  0.0560  0.9085
 5607SOL     OW28456   0.013   1.248   8.063  0.1772 -0.2666  0.3025
 5607SOL    HW128457   4.696   1.293   7.999  0.4594  2.4240  1.9642
 5607SOL    HW228458   4.700   1.258   8.145  2.2385 -0.3613  1.5679
 5608SOL     OW28459   3.603   2.759  17.737  0.1251  0.3892  0.0814
 5608SOL    HW128460   3.591   2.846  17.698 -1.0867 -0.0296 -0.4949
 5608SOL    HW228461   3.682   2.790   0.037  0.0165  0.7122  0.0538
 5609SOL     OW28462   3.769   4.362  15.714 -0.3704 -0.6458 -0.2655
 5609SOL    HW128463   3.849   4.387  15.760 -0.3451  0.3292 -0.8258
 5609SOL    HW228464   3.722   4.438  15.748 -0.3149 -0.4185 -0.6900
 5610SOL     OW28465   3.299   2.886  11.664  0.8766 -0.3757 -0.3405
 5610SOL    HW128466   3.247   2.926  11.733  1.7739 -0.1860  0.2297
 5610SOL    HW228467   3.371   2.844  11.712  0.7550  1.2715  1.2822
 5611SOL     OW28468   1.197   2.378   2.718  0.2243 -0.2983  0.1714
 5611SOL    HW128469   1.208   2.304   2.659  1.9590 -0.1282  0.2824
 5611SOL    HW228470   1.131   2.342   2.777  0.1000 -1.2242 -0.5495
 5612SOL     OW28471   0.428   3.875   3.455  0.4026  0.4976  0.2708
 5612SOL    HW128472   0.517   3.840   3.458 -0.0280 -0.6175 -0.0567
 5612SOL    HW228473   0.443   3.966   3.430  1.2987  0.0410 -0.8225
 5613SOL     OW28474   3.815   0.428   3.658 -0.5084 -0.2578 -0.3450
 5613SOL    HW128475   3.902   0.453   3.627 -0.9244  0.4592 -0.9212
 5613SOL    HW228476   3.797   0.351   3.604 -1.6941  0.7368 -1.3661
 5614SOL     OW28477   4.299   4.662  14.535 -0.3798 -0.0755 -0.2210
 5614SOL    HW128478   4.315   4.682  14.443 -1.9742  0.0730 -0.4534
 5614SOL    HW228479   4.349   4.580  14.535 -0.0200  0.1259 -3.1576
 5615SOL     OW28480   0.098   3.222  11.488  0.3506 -0.0781  0.0670
 5615SOL    HW128481   0.110   3.153  11.422  0.6097 -0.1015  0.1381
 5615SOL    HW228482   0.192   3.240  11.489  0.3980 -0.2278 -1.0277
 5616SOL     OW28483   2.077   1.967   1.382  0.1080  0.1467  0.5042
 5616SOL    HW128484   2.144   2.001   1.322 -0.1127  0.0452  0.2030
 5616SOL    HW228485   2.120   1.895   1.427 -1.6676  0.1625  2.2192
 5617SOL     OW28486   3.925   2.335  17.417  0.8581  0.2252  0.2900
 5617SOL    HW128487   4.007   2.376  17.388  1.5036 -0.7452  0.7570
 5617SOL    HW228488   3.889   2.304  17.334  0.4790 -2.4209  1.4353
 5618SOL     OW28489   0.884   4.691  11.965 -0.6205 -0.1308  0.2108
 5618SOL    HW128490   0.893   0.032  11.909 -0.8732 -0.2780 -0.0325
 5618SOL    HW228491   0.799   4.714  12.004  0.3010  3.2715  0.2283
 5619SOL     OW28492   1.673   4.270   6.754  0.0127  0.0190 -0.3944
 5619SOL    HW128493   1.748   4.210   6.750 -1.2308 -1.6305  0.9487
 5619SOL    HW228494   1.655   4.276   6.661 -1.7403 -0.5759 -0.0869
 5620SOL     OW28495   1.432   3.961  11.544 -0.4068  0.0335  0.6654
 5620SOL    HW128496   1.503   3.903  11.514 -0.0007  0.2716  1.1620
 5620SOL    HW228497   1.476   4.025  11.600  2.9437 -0.8362 -0.9374
 5621SOL     OW28498   2.698   0.436   7.679  0.5637  0.1656 -0.4201
 5621SOL    HW128499   2.722   0.434   7.771  0.7895  0.1073 -0.4817
 5621SOL    HW228500   2.655   0.351   7.677  0.0634  0.4221 -0.7465
 5622SOL     OW28501   1.503   3.976   0.869  0.4617 -0.1082 -0.3654
 5622SOL    HW128502   1.559   3.966   0.946  1.7225 -1.8632 -1.4967
 5622SOL    HW228503   1.469   3.887   0.866 -0.5185  0.2515  0.2863
 5623SOL     OW28504   1.148   2.262   8.747 -0.1827 -0.0958 -0.1521
 5623SOL    HW128505   1.146   2.175   8.705  1.9667  0.1996 -0.9029
 5623SOL    HW228506   1.231   2.292   8.708  0.1718 -1.5121 -0.5006
 5624SOL     OW28507   4.077   1.010   8.155  0.4722  0.1053  0.3140
 5624SOL    HW128508   4.043   0.922   8.173 -0.3093  0.5160  0.8948
 5624SOL    HW228509   4.001   1.042   8.106  0.7673  1.8628  0.9929
 5625SOL     OW28510   2.941   3.511   3.047  0.1077  0.0223 -0.1299
 5625SOL    HW128511   2.881   3.509   3.122  1.2962 -1.4749  0.7944
 5625SOL    HW228512   2.880   3.478   2.982 -0.0533 -0.8234  0.4493
 5626SOL     OW28513   0.172   3.115   2.523  0.0365  0.5782  0.2680
 5626SOL    HW128514   0.226   3.069   2.459  0.5367  0.0656  1.0636
 5626SOL    HW228515   0.084   3.110   2.487  0.6935  1.2385 -1.4802
 5627SOL     OW28516   4.324   3.091   6.472 -0.0117 -0.4973  0.2544
 5627SOL    HW128517   4.327   3.000   6.443 -0.3714 -0.9667  1.6829
 5627SOL    HW228518   4.233   3.109   6.451  0.2644  0.4843 -0.0660
 5628SOL     OW28519   1.098   0.790   2.099 -0.0505 -0.5709  0.1628
 5628SOL    HW128520   1.013   0.788   2.055  0.6056  1.2263 -1.2105
 5628SOL    HW228521   1.114   0.884   2.111 -0.1775 -0.6282  0.7792
 5629SOL     OW28522   1.765   0.373   4.127  0.1070  0.2862 -0.9443
 5629SOL    HW128523   1.756   0.285   4.163  1.1036  1.2102  1.5121
 5629SOL    HW228524   1.687   0.387   4.073  0.2337  1.0190 -0.9397
 5630SOL     OW28525   0.472   4.316   5.268 -0.1927  0.1953  0.1504
 5630SOL    HW128526   0.555   4.269   5.266 -1.3599 -1.8161 -0.6774
 5630SOL    HW228527   0.498   4.387   5.209 -1.9304 -0.1917 -1.0650
 5631SOL     OW28528   1.560   4.056   1.775 -0.4872  0.2395  0.0783
 5631SOL    HW128529   1.592   4.143   1.752 -0.4844  0.4688  0.9587
 5631SOL    HW228530   1.483   4.054   1.718 -2.0590  1.3127  2.1998
 5632SOL     OW28531   0.903   3.667   5.375  0.3360 -0.3477 -0.3917
 5632SOL    HW128532   0.935   3.725   5.305 -1.7235 -0.2835 -1.2836
 5632SOL    HW228533   0.949   3.584   5.361 -0.4227 -0.6593 -1.0692
 5633SOL     OW28534   3.624   0.330   9.201 -0.6998 -0.6551 -0.5427
 5633SOL    HW128535   3.545   0.281   9.223 -0.3311 -1.9901 -2.2269
 5633SOL    HW228536   3.635   0.383   9.281  1.1113 -0.2206 -1.0846
 5634SOL     OW28537   1.452   3.380   5.527  0.4929 -0.3677 -0.0567
 5634SOL    HW128538   1.375   3.324   5.537 -0.1832  0.5237 -0.2770
 5634SOL    HW228539   1.489   3.339   5.449  1.7593  0.7507 -0.0571
 5635SOL     OW28540   1.855   0.852   3.069  0.3440  0.1900 -0.5134
 5635SOL    HW128541   1.863   0.835   2.975  0.0974  0.8102 -0.6442
 5635SOL    HW228542   1.760   0.852   3.078  0.2991 -3.1948 -0.7690
 5636SOL     OW28543   1.422   1.072   1.800 -0.1542 -0.3956  0.6132
 5636SOL    HW128544   1.399   1.164   1.787 -0.6641 -0.5062  0.7488
 5636SOL    HW228545   1.517   1.083   1.803 -0.3606  1.3186  0.9991
 5637SOL     OW28546   2.131   3.827   5.031 -0.3888  0.2130  0.2267
 5637SOL    HW128547   2.146   3.914   4.993  0.7971 -0.0439  0.1057
 5637SOL    HW228548   2.211   3.806   5.080 -0.6319  0.9961  0.9604
 5638SOL     OW28549   2.678   0.006  16.701 -0.6125  0.7549 -0.3295
 5638SOL    HW128550   2.639   0.089  16.672 -1.3665  0.5192  0.0115
 5638SOL    HW228551   2.769   0.034  16.695 -0.4682 -0.0174 -1.7561
 5639SOL     OW28552   2.080   0.729   6.102 -0.2515 -0.1051  0.3585
 5639SOL    HW128553   2.165   0.762   6.073 -0.8660  0.8182 -0.3954
 5639SOL    HW228554   2.028   0.784   6.043  0.2536 -1.2382 -1.1230
 5640SOL     OW28555   2.708   2.520  11.391 -0.2048 -0.4786 -0.6672
 5640SOL    HW128556   2.733   2.432  11.419  1.7403  0.6659  1.1811
 5640SOL    HW228557   2.775   2.569  11.439  0.7099 -0.8200 -1.5787
 5641SOL     OW28558   0.849   3.366   6.392 -0.5552  0.4791 -0.0507
 5641SOL    HW128559   0.806   3.282   6.376 -1.0615  0.4124  1.7610
 5641SOL    HW228560   0.904   3.336   6.464 -1.2490 -2.1940 -0.6461
 5642SOL     OW28561   0.708   0.540   7.986 -0.1849 -0.3162 -0.1939
 5642SOL    HW128562   0.623   0.576   7.963  0.9595  3.2072  1.0120
 5642SOL    HW228563   0.721   0.560   8.078 -2.1945 -0.8041  0.1879
 5643SOL     OW28564   1.481   2.213   4.217 -0.1863  0.5175  0.3876
 5643SOL    HW128565   1.472   2.212   4.122  1.0186 -0.7745  0.2909
 5643SOL    HW228566   1.536   2.291   4.228 -1.6789  1.5760  0.4306
 5644SOL     OW28567   1.618   0.127   2.101 -0.8574 -0.1860  0.1010
 5644SOL    HW128568   1.607   0.041   2.060 -3.9795  0.8005 -1.1234
 5644SOL    HW228569   1.665   0.112   2.182  1.1840  1.0154 -0.8547
 5645SOL     OW28570   0.548   0.507   4.596 -0.1989 -0.2365 -0.0560
 5645SOL    HW128571   0.595   0.442   4.544  1.7410  0.0506  1.3552
 5645SOL    HW228572   0.605   0.522   4.671 -0.8495 -0.7951  0.5436
 5646SOL     OW28573   1.469   3.834  16.934  0.1404 -0.1112 -0.0438
 5646SOL    HW128574   1.487   3.858  16.843 -0.3383 -3.6768 -1.1085
 5646SOL    HW228575   1.469   3.913  16.988  1.0531  1.0111 -1.7030
 5647SOL     OW28576   0.192   3.399  14.644 -0.2792  0.2166 -0.3900
 5647SOL    HW128577   0.194   3.474  14.584  3.0819  0.8743  0.5017
 5647SOL    HW228578   0.141   3.433  14.717  0.0408 -0.3574  0.1018
 5648SOL     OW28579   4.151   0.063   9.022 -0.7259 -0.3142 -0.1487
 5648SOL    HW128580   4.062   0.055   8.987 -1.3818 -0.4184  1.5487
 5648SOL    HW228581   4.163   4.726   9.082 -1.9448 -1.6902 -1.6019
 5649SOL     OW28582   4.734   3.524   6.348 -0.1239 -0.3228  0.9046
 5649SOL    HW128583   4.651   3.572   6.348 -1.5149 -2.7069  0.5370
 5649SOL    HW228584   0.017   3.502   6.439 -0.3369  0.0595  1.0450
 5650SOL     OW28585   2.047   0.076   4.457  0.2032 -0.5731 -0.2340
 5650SOL    HW128586   1.965   0.078   4.506 -1.2745 -1.8520 -2.6181
 5650SOL    HW228587   2.055   0.159   4.411  2.8405 -0.3095  0.6868
 5651SOL     OW28588   0.559   3.749  10.812  0.2133 -0.0959 -0.0130
 5651SOL    HW128589   0.644   3.790  10.797  0.9921 -1.3029  1.0101
 5651SOL    HW228590   0.508   3.795  10.746  1.2122  0.0683 -0.6735
 5652SOL     OW28591   2.134   0.015   1.458 -0.5436 -0.0557 -0.1812
 5652SOL    HW128592   2.182   0.065   1.523 -0.7741  0.9584 -0.7815
 5652SOL    HW228593   2.185   0.040   1.381  1.0072 -0.4370  0.7204
 5653SOL     OW28594   0.556   0.255  11.950  0.7982  0.2496  0.3817
 5653SOL    HW128595   0.540   0.342  11.986  3.8934 -0.0883  2.6022
 5653SOL    HW228596   0.470   0.238  11.911  0.4920  0.4009  0.9914
 5654SOL     OW28597   0.240   1.327  11.584  0.2070 -0.1698  0.5916
 5654SOL    HW128598   0.306   1.371  11.638  0.7876  0.9354 -1.0055
 5654SOL    HW228599   0.243   1.381  11.504  2.0394  3.2037  2.9681
 5655SOL     OW28600   1.617   2.153   3.170 -0.2831 -0.3181  0.3266
 5655SOL    HW128601   1.633   2.061   3.149 -1.0755 -0.8996  2.2924
 5655SOL    HW228602   1.521   2.147   3.163 -0.1001 -0.4579 -2.1323
 5656SOL     OW28603   3.277   3.650  12.904  0.8766  0.1487 -0.1878
 5656SOL    HW128604   3.254   3.605  12.985  2.3342  2.0140  1.2548
 5656SOL    HW228605   3.301   3.740  12.927 -1.7220  0.4950  1.1497
 5657SOL     OW28606   0.176   0.943   6.054  0.0055  0.1875  0.0660
 5657SOL    HW128607   0.268   0.920   6.061  0.1846  0.9180  0.1124
 5657SOL    HW228608   0.133   0.858   6.066  0.1393  0.4319  2.3453
 5658SOL     OW28609   4.730   1.674  16.323  0.0101  0.6248 -0.2110
 5658SOL    HW128610   4.679   1.593  16.321  1.4640 -0.3018  0.1595
 5658SOL    HW228611   4.715   1.703  16.413  1.0110 -0.0842  0.1890
 5659SOL     OW28612   4.539   1.574   5.210  0.2273  0.2224 -0.0766
 5659SOL    HW128613   4.495   1.508   5.158 -0.1458 -0.8442  1.5866
 5659SOL    HW228614   4.562   1.639   5.144 -0.6911 -1.1542 -1.7365
 5660SOL     OW28615   0.844   3.069   3.886 -0.7934 -0.4381  0.3040
 5660SOL    HW128616   0.895   3.150   3.877  2.5314 -2.7447 -1.4106
 5660SOL    HW228617   0.772   3.083   3.825 -1.3243 -1.4485  0.6961
 5661SOL     OW28618   0.970   0.884   2.764 -0.1451  0.0841 -0.2095
 5661SOL    HW128619   1.056   0.894   2.806 -1.1489  0.9013  1.6594
 5661SOL    HW228620   0.917   0.924   2.832  1.5101  0.6088  0.7857
 5662SOL     OW28621   1.444   2.055   8.041  0.4499 -0.6314 -0.1650
 5662SOL    HW128622   1.438   1.974   7.991  0.3035 -1.0527  0.5460
 5662SOL    HW228623   1.416   2.117   7.972  1.0363 -0.5615 -0.3409
 5663SOL     OW28624   0.490   2.106   7.764 -0.0391 -0.2150 -0.6696
 5663SOL    HW128625   0.501   2.133   7.673  0.2657 -0.9260 -0.8418
 5663SOL    HW228626   0.441   2.025   7.750 -1.8886  1.0611 -1.5058
 5664SOL     OW28627   1.267   0.681   7.903  0.1305 -0.2945 -0.3731
 5664SOL    HW128628   1.304   0.596   7.928  1.4427 -0.2842 -2.3707
 5664SOL    HW228629   1.176   0.650   7.908 -0.5400  2.2264  2.8519
 5665SOL     OW28630   4.725   1.828   4.937  0.1352  0.1330 -0.3324
 5665SOL    HW128631   0.021   1.848   4.849 -0.5603  1.0727 -0.3777
 5665SOL    HW228632   0.020   1.738   4.929 -0.6701 -0.3460  1.9197
 5666SOL     OW28633   3.524   4.484   6.979  0.3546 -0.2266 -0.6394
 5666SOL    HW128634   3.532   4.398   7.021 -2.3605  0.0766  0.4620
 5666SOL    HW228635   3.430   4.474   6.965 -0.0747  2.6546  0.2447
 5667SOL     OW28636   3.001   4.304   2.193 -0.4311 -0.1212 -0.6122
 5667SOL    HW128637   2.923   4.249   2.185 -1.0744  0.6173  0.4764
 5667SOL    HW228638   2.973   4.351   2.272  0.1048  1.6349 -1.4583
 5668SOL     OW28639   4.610   4.693   8.063  0.0256  0.1661 -0.8242
 5668SOL    HW128640   4.685   4.648   8.101 -0.5010 -2.2604 -2.6693
 5668SOL    HW228641   4.543   4.658   8.122 -0.4169  4.1236  1.0133
 5669SOL     OW28642   0.552   4.185   4.588  0.2607 -0.1829  0.0423
 5669SOL    HW128643   0.534   4.152   4.500  1.9267 -0.0977 -0.3177
 5669SOL    HW228644   0.515   4.274   4.590 -0.6013 -0.4658 -2.7459
 5670SOL     OW28645   1.442   2.462   2.871 -0.4084  0.2935  0.8988
 5670SOL    HW128646   1.483   2.380   2.843 -2.2922 -0.5815  0.6946
 5670SOL    HW228647   1.372   2.480   2.808  0.8107  0.8832 -0.2936
 5671SOL     OW28648   4.021   3.279   4.518  0.2310 -0.1355  0.0324
 5671SOL    HW128649   4.024   3.325   4.434 -1.6566 -1.8612 -0.9729
 5671SOL    HW228650   3.974   3.203   4.483  1.4543 -0.8210 -0.1136
 5672SOL     OW28651   3.594   0.677   3.409  0.4597 -0.2031 -0.0307
 5672SOL    HW128652   3.661   0.738   3.379  0.1140 -0.3132 -1.0404
 5672SOL    HW228653   3.631   0.589   3.396 -0.1877 -0.5156  0.2357
 5673SOL     OW28654   4.638   0.639   8.582 -0.3531  0.4437 -0.5277
 5673SOL    HW128655   4.672   0.706   8.641  2.4859 -2.5247  1.1769
 5673SOL    HW228656   4.718   0.600   8.546 -0.2237 -0.1014  0.3575
 5674SOL     OW28657   4.118   3.617   7.033  0.1176  0.0996  0.2887
 5674SOL    HW128658   4.121   3.589   6.941  1.6501  1.6506 -0.1241
 5674SOL    HW228659   4.025   3.601   7.051 -0.3328  0.1445 -1.9646
 5675SOL     OW28660   4.410   0.139   2.292  0.0073 -0.2606 -0.1579
 5675SOL    HW128661   4.498   0.112   2.317  0.3370  0.1881 -0.8383
 5675SOL    HW228662   4.416   0.144   2.197 -0.7912 -0.3089 -0.2120
 5676SOL     OW28663   4.278   1.434   5.535 -0.0430 -0.0161  0.5112
 5676SOL    HW128664   4.317   1.513   5.498 -0.8130  0.4941  0.7864
 5676SOL    HW228665   4.297   1.379   5.459 -0.5617  0.2861  0.1629
 5677SOL     OW28666   4.645   1.966   6.449 -0.4251 -0.2866  0.0194
 5677SOL    HW128667   4.638   1.932   6.538 -2.6500  2.4248  0.8776
 5677SOL    HW228668   4.590   2.043   6.463 -1.8875 -1.6060  1.5535
 5678SOL     OW28669   0.602   3.001   3.186  0.0190 -0.1381 -0.2953
 5678SOL    HW128670   0.610   3.096   3.197 -1.1895  0.0305 -0.8252
 5678SOL    HW228671   0.509   2.985   3.204  0.1702 -1.0111 -0.3202
 5679SOL     OW28672   2.736   3.425   5.543 -0.8678  0.1631 -0.2149
 5679SOL    HW128673   2.655   3.464   5.509 -0.4310 -0.1219 -1.5963
 5679SOL    HW228674   2.700   3.376   5.616  1.6023  1.6838  2.0089
 5680SOL     OW28675   2.967   1.874   3.114 -0.0792  0.1712  0.2061
 5680SOL    HW128676   2.931   1.832   3.193 -0.8079  1.2091  0.4245
 5680SOL    HW228677   2.885   1.876   3.066 -0.8646 -1.1449  1.4886
 5681SOL     OW28678   2.659   1.092   8.092  0.2472  0.3949 -0.1060
 5681SOL    HW128679   2.610   1.159   8.139  0.8317  1.5691 -1.1522
 5681SOL    HW228680   2.693   1.037   8.163  0.2396  1.2524  0.5591
 5682SOL     OW28681   3.382   1.433  15.228  0.2366  0.3430 -0.3684
 5682SOL    HW128682   3.337   1.362  15.183  1.6160 -0.3281 -0.6720
 5682SOL    HW228683   3.446   1.450  15.160 -0.5894  1.4228 -0.8893
 5683SOL     OW28684   1.630   4.651   5.895  0.7345 -0.3898 -0.5503
 5683SOL    HW128685   1.620   0.008   5.912 -1.1033 -0.5603 -0.7180
 5683SOL    HW228686   1.584   4.641   5.812  1.2105 -0.7164 -0.7700
 5684SOL     OW28687   3.602   4.423   6.001 -0.2526 -0.4692 -0.5796
 5684SOL    HW128688   3.611   4.395   5.909 -0.9897 -0.3671 -0.6822
 5684SOL    HW228689   3.535   4.490   6.006  0.0115 -0.4728  2.9352
 5685SOL     OW28690   2.524   1.045  11.477  0.3452 -0.0249 -0.1856
 5685SOL    HW128691   2.534   1.017  11.568 -0.1767 -0.1188 -0.1572
 5685SOL    HW228692   2.568   0.981  11.421  1.2377 -0.4367  0.9979
 5686SOL     OW28693   2.416   1.746   7.277 -0.6310 -0.3590 -0.1018
 5686SOL    HW128694   2.376   1.684   7.217  0.2270 -1.2119  0.2033
 5686SOL    HW228695   2.404   1.690   7.354 -2.3694 -0.7377 -0.6444
 5687SOL     OW28696   1.296   2.640   0.730  0.3495 -0.3098  0.0306
 5687SOL    HW128697   1.239   2.687   0.791  0.5539 -0.6798  0.5064
 5687SOL    HW228698   1.251   2.556   0.723  0.2109 -0.0374 -2.5652
 5688SOL     OW28699   3.200   2.557   4.046  0.0269 -0.3591  0.1822
 5688SOL    HW128700   3.290   2.565   4.015  0.2686  0.6009  1.1282
 5688SOL    HW228701   3.210   2.575   4.140 -1.0321 -1.2209  0.4687
 5689SOL     OW28702   0.068   0.480   4.975  0.1008 -0.1093 -0.5254
 5689SOL    HW128703   0.154   0.503   5.009  0.2004 -2.7108  1.0185
 5689SOL    HW228704   0.033   0.565   4.948 -1.1711 -0.7810 -0.9847
 5690SOL     OW28705   1.305   2.154   4.403  0.6880  0.8122 -0.4723
 5690SOL    HW128706   1.378   2.176   4.345  0.1346  2.3001 -0.6152
 5690SOL    HW228707   1.347   2.109   4.476 -0.6392 -0.7669 -0.6863
 5691SOL     OW28708   3.119   4.645  12.205  0.3948 -0.5321 -0.5009
 5691SOL    HW128709   3.047   4.585  12.221 -0.8644  1.5265  1.5166
 5691SOL    HW228710   3.177   4.584  12.159  1.5872 -0.1079  0.4399
 5692SOL     OW28711   1.462   1.778   8.682 -0.3097 -0.1366  0.1166
 5692SOL    HW128712   1.477   1.683   8.689 -0.3734 -0.2183 -0.8889
 5692SOL    HW228713   1.494   1.802   8.595 -0.0314 -0.6986  0.0647
 5693SOL     OW28714   0.944   1.007   3.226  0.3871  0.0730 -0.9991
 5693SOL    HW128715   0.895   1.067   3.281  0.2454  0.1402 -1.2009
 5693SOL    HW228716   0.893   1.023   3.147 -2.8886 -2.8244  0.5609
 5694SOL     OW28717   0.003   2.651   5.664  0.9185  0.2002 -0.3169
 5694SOL    HW128718   4.677   2.611   5.725 -0.6462  1.7970 -0.8639
 5694SOL    HW228719   0.062   2.695   5.726  0.6046 -0.8815  0.7435
 5695SOL     OW28720   1.051   1.270  11.144  0.2107  0.0833 -0.4350
 5695SOL    HW128721   1.097   1.345  11.106  2.0444  0.1576  1.9228
 5695SOL    HW228722   1.126   1.220  11.177 -0.6116  0.0929  1.4436
 5696SOL     OW28723   0.497   3.998   1.320  0.3411 -0.2937  0.1364
 5696SOL    HW128724   0.528   4.074   1.271  0.6403 -0.3411  0.2536
 5696SOL    HW228725   0.565   3.938   1.290  1.1269  0.9440 -0.5545
 5697SOL     OW28726   3.095   1.668   4.918  0.4074  0.4874 -0.3293
 5697SOL    HW128727   3.036   1.713   4.978  0.3727 -0.2574  0.1981
 5697SOL    HW228728   3.085   1.702   4.829 -1.3899 -2.2566 -1.1674
 5698SOL     OW28729   1.802   3.843   5.562 -0.0241  0.7305  0.1564
 5698SOL    HW128730   1.792   3.750   5.542  1.1293  0.5212  0.5750
 5698SOL    HW228731   1.710   3.859   5.582 -0.3573 -0.7110 -0.2792
 5699SOL     OW28732   2.088   0.029   1.851  0.2693 -0.6491 -0.3709
 5699SOL    HW128733   2.152   0.071   1.908 -1.1130  0.8515  0.0771
 5699SOL    HW228734   2.035   0.103   1.822 -1.4474 -1.4894  0.6047
 5700SOL     OW28735   3.407   3.348   6.306  0.4987  0.4893 -0.1209
 5700SOL    HW128736   3.433   3.290   6.377 -0.2844  1.0445  0.6174
 5700SOL    HW228737   3.332   3.293   6.281 -0.6906  1.2998  1.6462
 5701SOL     OW28738   1.079   3.514  11.358  0.1764 -0.2870  0.2906
 5701SOL    HW128739   1.027   3.439  11.328 -2.3688  0.5694  2.5741
 5701SOL    HW228740   1.133   3.533  11.281  0.6188 -0.3447  0.5892
 5702SOL     OW28741   0.365   1.803   8.228 -0.4345  0.1293  0.3949
 5702SOL    HW128742   0.460   1.803   8.226 -0.4432 -1.7855  0.2794
 5702SOL    HW228743   0.355   1.840   8.316  0.9115  0.6010  0.3457
 5703SOL     OW28744   2.787   2.779  10.448 -0.0776  0.5330  0.2499
 5703SOL    HW128745   2.719   2.730  10.493 -0.5922  1.1457  0.1243
 5703SOL    HW228746   2.854   2.780  10.517 -0.7259 -0.3370  0.8840
 5704SOL     OW28747   2.134   1.164   5.668 -0.0950 -0.3749 -0.2461
 5704SOL    HW128748   2.177   1.211   5.739 -2.1816  2.0563 -0.5787
 5704SOL    HW228749   2.139   1.072   5.693 -0.2832 -0.3315 -0.0516
 5705SOL     OW28750   1.402   2.231   5.901  0.5307 -0.4836 -0.7013
 5705SOL    HW128751   1.469   2.168   5.927  0.5548  0.0201  0.4299
 5705SOL    HW228752   1.314   2.196   5.915  1.7216 -2.6724  1.3254
 5706SOL     OW28753   1.055   3.150  15.876  0.3597 -0.3974 -0.2843
 5706SOL    HW128754   0.992   3.177  15.943 -0.2591 -4.4896  0.8004
 5706SOL    HW228755   1.031   3.208  15.804  0.4117  0.7733  0.6306
 5707SOL     OW28756   4.308   3.212   4.628  0.7227  0.1866  0.0772
 5707SOL    HW128757   4.217   3.225   4.603  0.8112  0.6791 -0.0064
 5707SOL    HW228758   4.345   3.295   4.595 -1.5189  0.1721 -2.4567
 5708SOL     OW28759   4.062   1.064   4.613 -0.5307  0.3331  0.1341
 5708SOL    HW128760   3.986   1.076   4.556 -0.6996  1.3277  0.5744
 5708SOL    HW228761   4.019   1.084   4.696  1.4243  0.7425  1.0384
 5709SOL     OW28762   2.525   2.836   8.797 -0.4350 -0.0112 -0.6030
 5709SOL    HW128763   2.606   2.809   8.752 -0.1152  1.1976 -0.7621
 5709SOL    HW228764   2.515   2.771   8.866  1.3302  0.3105 -0.0480
 5710SOL     OW28765   2.532   0.668   8.729 -0.0871 -0.6310  0.0798
 5710SOL    HW128766   2.503   0.696   8.816  1.1679 -1.1245  0.6496
 5710SOL    HW228767   2.627   0.666   8.743 -0.0954 -0.1862  0.2260
 5711SOL     OW28768   2.000   1.841   5.961  0.3854  0.0728 -0.3592
 5711SOL    HW128769   2.046   1.899   5.900 -0.7322 -0.2354 -1.5013
 5711SOL    HW228770   2.030   1.753   5.939  2.0281  0.7986 -1.0013
 5712SOL     OW28771   2.973   4.716   5.956  0.0476 -0.7398 -0.0639
 5712SOL    HW128772   2.992   4.732   5.864 -0.8893 -1.7413 -0.4185
 5712SOL    HW228773   2.916   4.639   5.951 -0.8198 -0.0368 -0.9883
 5713SOL     OW28774   1.508   1.795   1.981 -0.1880 -0.3122 -0.4074
 5713SOL    HW128775   1.447   1.726   1.953 -1.1531  0.4058 -0.0907
 5713SOL    HW228776   1.543   1.831   1.900  0.7332  1.3555  0.7493
 5714SOL     OW28777   2.916   1.184   3.255  0.6883  0.2403 -0.5157
 5714SOL    HW128778   2.858   1.159   3.327  0.7354  0.2342 -0.4796
 5714SOL    HW228779   2.855   1.199   3.183  3.3000 -0.8046 -2.9637
 5715SOL     OW28780   3.624   4.538  10.019  0.5410  1.0691  0.6468
 5715SOL    HW128781   3.579   4.531   9.934  1.8930 -1.1381  0.1173
 5715SOL    HW228782   3.543   4.553  10.068 -1.1512 -0.8598 -1.4983
 5716SOL     OW28783   4.380   1.058   8.132  0.4759  0.6569  0.1949
 5716SOL    HW128784   4.409   1.041   8.042 -0.4793  0.8008 -0.1398
 5716SOL    HW228785   4.285   1.057   8.119  1.0056  0.5027 -3.7995
 5717SOL     OW28786   1.075   4.422   9.708 -0.5563  0.0296  0.7532
 5717SOL    HW128787   0.984   4.435   9.736 -0.7120 -1.6768  1.0599
 5717SOL    HW228788   1.110   4.510   9.720  0.7706 -0.6439  1.7773
 5718SOL     OW28789   4.003   2.569   6.762 -0.1396  0.1088  0.2546
 5718SOL    HW128790   4.013   2.496   6.702  2.4734  1.4804 -0.9799
 5718SOL    HW228791   4.000   2.528   6.848  0.2649 -0.5683 -0.0555
 5719SOL     OW28792   3.928   2.727   9.182  0.2615  0.0060  0.1424
 5719SOL    HW128793   3.926   2.808   9.234  0.3508 -0.9190  1.5922
 5719SOL    HW228794   3.845   2.735   9.135  0.2095  0.6188  0.3261
 5720SOL     OW28795   4.643   0.090  11.360 -0.0782 -0.3977  0.1811
 5720SOL    HW128796   4.601   0.154  11.302 -2.2562 -1.9646  0.0091
 5720SOL    HW228797   4.581   0.098  11.432 -1.1191 -0.0585 -0.7445
 5721SOL     OW28798   3.278   3.241   2.898  0.2956 -0.2371  0.2437
 5721SOL    HW128799   3.219   3.199   2.960 -0.9812 -1.5356 -1.8054
 5721SOL    HW228800   3.363   3.217   2.934  0.0437  1.0833  1.6794
 5722SOL     OW28801   3.830   4.112   3.595 -0.3000 -0.3114 -0.5190
 5722SOL    HW128802   3.866   4.044   3.651 -1.8351 -0.2745  0.5065
 5722SOL    HW228803   3.735   4.103   3.591 -0.2446  0.0238 -2.5641
 5723SOL     OW28804   2.584   3.660  11.822 -0.0170  0.1454  0.2667
 5723SOL    HW128805   2.513   3.690  11.765  0.4377 -0.9581 -0.8716
 5723SOL    HW228806   2.608   3.737  11.874  0.4239  1.6464 -2.1064
 5724SOL     OW28807   2.094   3.871   5.464  0.3345  0.3659 -0.1552
 5724SOL    HW128808   2.006   3.836   5.478  0.4614  0.6304  1.3070
 5724SOL    HW228809   2.101   3.929   5.541  1.0503  0.3175 -0.1814
 5725SOL     OW28810   4.713   0.626   5.751  0.1566  0.2725 -0.1185
 5725SOL    HW128811   4.703   0.531   5.747  1.9679  0.1114 -1.0893
 5725SOL    HW228812   4.637   0.669   5.714  0.4514  1.3667  0.5488
 5726SOL     OW28813   3.089   0.790   8.378 -0.0161 -0.2861  0.1515
 5726SOL    HW128814   3.082   0.794   8.473 -2.3652  0.1668 -0.0353
 5726SOL    HW228815   3.113   0.879   8.353  0.6347 -1.0231 -1.8151
 5727SOL     OW28816   4.173   2.441   8.760 -0.2478 -0.2891 -0.3466
 5727SOL    HW128817   4.115   2.368   8.782  0.1407 -0.9064 -1.3385
 5727SOL    HW228818   4.253   2.388   8.754 -0.2870 -0.4963  1.0492
 5728SOL     OW28819   1.991   3.979  14.447 -0.3095  0.0524  0.3489
 5728SOL    HW128820   2.013   4.013  14.360  1.0664  0.9454  1.0388
 5728SOL    HW228821   2.081   3.978  14.480  0.5174  0.2166 -1.8471
 5729SOL     OW28822   1.869   4.325   2.626  0.0986 -0.7625 -0.1794
 5729SOL    HW128823   1.942   4.316   2.687  1.3451  0.0240 -1.5594
 5729SOL    HW228824   1.887   4.260   2.558 -0.5809  0.3034 -1.3693
 5730SOL     OW28825   3.878   3.699  11.799  0.5889  0.1062 -0.1168
 5730SOL    HW128826   3.793   3.738  11.777  0.3486 -0.8701 -0.9287
 5730SOL    HW228827   3.930   3.740  11.730  1.7799 -0.8066  0.2544
 5731SOL     OW28828   3.491   4.531  13.260  0.0644  0.7769  0.2185
 5731SOL    HW128829   3.503   4.475  13.337 -0.6713  0.5393  0.1562
 5731SOL    HW228830   3.465   4.609  13.310 -0.2771  1.1177 -0.4910
 5732SOL     OW28831   2.237   2.541   5.956  0.3444 -0.0027 -0.1558
 5732SOL    HW128832   2.326   2.575   5.961  0.1067  0.6285 -0.2137
 5732SOL    HW228833   2.257   2.477   5.888 -0.1362 -1.9738  1.5575
 5733SOL     OW28834   3.826   4.644  15.588 -0.0216  0.0727  0.2881
 5733SOL    HW128835   3.740   4.685  15.576 -0.5548 -0.6561  1.6577
 5733SOL    HW228836   3.821   4.633  15.683  0.7441  1.5785  0.4992
 5734SOL     OW28837   2.268   0.304   3.126 -0.4323  0.0819 -0.0581
 5734SOL    HW128838   2.318   0.223   3.116 -0.2264  0.4326 -1.8409
 5734SOL    HW228839   2.296   0.340   3.211  2.3909  0.1099 -0.9959
 5735SOL     OW28840   4.347   4.636   3.945  0.3368 -0.2438  0.7858
 5735SOL    HW128841   4.321   4.576   4.015 -0.8677 -1.1076 -0.3862
 5735SOL    HW228842   4.383   4.578   3.877 -0.9331  0.6608 -0.6686
 5736SOL     OW28843   0.764   0.876   6.265 -0.3546 -0.4035 -0.2145
 5736SOL    HW128844   0.826   0.910   6.329  1.8100 -0.8409 -2.0963
 5736SOL    HW228845   0.824   0.845   6.197 -0.2774  0.6465 -0.6281
 5737SOL     OW28846   1.508   0.443   2.441 -0.0336  0.1411 -0.0644
 5737SOL    HW128847   1.516   0.402   2.526  0.0099 -0.2799 -0.2714
 5737SOL    HW228848   1.594   0.464   2.403  0.7543 -0.5732  1.3483
 5738SOL     OW28849   1.321   1.524  17.026  0.2370 -0.1066  0.2141
 5738SOL    HW128850   1.311   1.617  17.049  1.0455 -0.1134  0.5970
 5738SOL    HW228851   1.257   1.521  16.956  0.8363  2.1942 -0.4215
 5739SOL     OW28852   0.559   3.588  17.627  0.0250 -0.5328  0.9387
 5739SOL    HW128853   0.534   3.499  17.602 -2.0282 -0.3830  2.4126
 5739SOL    HW228854   0.476   3.613  17.668 -0.8872 -0.8436 -0.7213
 5740SOL     OW28855   2.541   1.057   3.986  0.4273  0.3445 -0.4019
 5740SOL    HW128856   2.490   1.034   4.064 -2.2633 -0.3495 -2.3702
 5740SOL    HW228857   2.618   1.081   4.038 -1.6016  2.1158  1.7924
 5741SOL     OW28858   1.455   2.908   8.915 -0.9518  0.5159 -0.1049
 5741SOL    HW128859   1.460   2.993   8.960  0.9878  0.6406 -0.5302
 5741SOL    HW228860   1.400   2.870   8.983 -2.2782  1.5742 -0.6005
 5742SOL     OW28861   0.657   0.374   7.180  0.4106 -0.4100 -0.2350
 5742SOL    HW128862   0.666   0.313   7.253  1.1801 -0.1394 -0.1039
 5742SOL    HW228863   0.562   0.385   7.187  0.5435  0.4591  0.0842
 5743SOL     OW28864   2.545   2.859   0.338 -0.3087 -0.5493  0.0330
 5743SOL    HW128865   2.455   2.885   0.318  0.0620 -0.0827 -1.0424
 5743SOL    HW228866   2.598   2.918   0.284  0.4773  0.1341  1.5764
 5744SOL     OW28867   4.149   2.951  15.375  0.4017 -0.6043  0.6758
 5744SOL    HW128868   4.207   2.932  15.449  2.4226  1.5552 -0.3605
 5744SOL    HW228869   4.065   2.960  15.421  0.9680  0.6030  1.4800
 5745SOL     OW28870   2.570   4.438  11.488  0.1705 -0.4973 -0.3838
 5745SOL    HW128871   2.493   4.394  11.524  0.1563  1.2312  1.7221
 5745SOL    HW228872   2.526   4.481  11.414  0.0790 -0.2952 -0.2140
 5746SOL     OW28873   2.778   4.520   3.568 -0.4237  0.3420  0.4765
 5746SOL    HW128874   2.739   4.436   3.593 -0.0526  0.3185  0.9677
 5746SOL    HW228875   2.856   4.482   3.528 -1.0113 -1.5257  1.0897
 5747SOL     OW28876   0.093   0.119   6.839  0.0119 -0.1205  0.0950
 5747SOL    HW128877   0.161   0.083   6.783  0.3585  0.3355  0.2266
 5747SOL    HW228878   0.133   0.202   6.865 -0.2990  0.0248  0.1093
 5748SOL     OW28879   0.415   3.789   6.092  0.1326 -0.2013 -0.3624
 5748SOL    HW128880   0.366   3.859   6.048 -2.7339 -1.7237  0.3892
 5748SOL    HW228881   0.350   3.729   6.128  0.2519 -0.7510 -1.0693
 5749SOL     OW28882   0.646   0.126   3.097 -0.6605  0.2205 -0.1391
 5749SOL    HW128883   0.611   0.191   3.158 -1.5316  2.0241 -2.5425
 5749SOL    HW228884   0.602   0.139   3.013  0.2330  0.7894 -0.5217
 5750SOL     OW28885   1.962   0.131   3.151 -0.1528  0.7002 -0.0670
 5750SOL    HW128886   1.870   0.127   3.175 -0.0628  0.9480  0.3212
 5750SOL    HW228887   1.962   0.197   3.082  0.5932 -1.0235 -1.7091
 5751SOL     OW28888   3.212   2.216   8.935  0.0109 -0.2554  0.2452
 5751SOL    HW128889   3.308   2.219   8.944  0.0178 -2.5060  0.9013
 5751SOL    HW228890   3.206   2.151   8.865 -1.7536  0.2075 -0.0297
 5752SOL     OW28891   0.167   4.378   2.976  0.6303  1.4922  0.2705
 5752SOL    HW128892   0.151   4.359   2.883 -0.7893  1.7776  0.4546
 5752SOL    HW228893   0.074   4.393   2.996  0.7290  1.1629  0.9768
 5753SOL     OW28894   2.999   0.188   7.015 -0.4245 -0.1252 -0.1359
 5753SOL    HW128895   3.005   0.230   6.929 -0.1631 -1.1031 -0.5880
 5753SOL    HW228896   3.024   0.263   7.070  2.1158 -1.2171  0.1715
 5754SOL     OW28897   1.865   1.598  12.438  0.2508  0.0125 -0.8488
 5754SOL    HW128898   1.905   1.639  12.361 -1.3174  0.8305 -1.2407
 5754SOL    HW228899   1.905   1.659  12.500  1.8171 -0.6917 -1.1844
 5755SOL     OW28900   0.143   3.327   3.940  0.0477 -0.4354 -0.4238
 5755SOL    HW128901   0.143   3.356   4.031 -2.3336 -1.5039 -0.0990
 5755SOL    HW228902   0.186   3.405   3.906  0.6769  0.7334  3.0026
 5756SOL     OW28903   0.491   3.994  15.188  0.3517 -0.4875 -0.4350
 5756SOL    HW128904   0.585   3.978  15.183  0.2193 -2.1361  2.4599
 5756SOL    HW228905   0.482   4.077  15.141 -2.3616  1.1771  3.0399
 5757SOL     OW28906   2.958   1.754   9.225  0.1415  0.0896 -0.5674
 5757SOL    HW128907   2.959   1.749   9.130 -2.2318 -0.8816 -0.5365
 5757SOL    HW228908   2.981   1.665   9.250  1.1277  0.6791  0.7108
 5758SOL     OW28909   0.891   4.037   1.081  0.1069  0.1840 -0.2872
 5758SOL    HW128910   0.967   4.086   1.113  0.2613  0.4277 -1.0389
 5758SOL    HW228911   0.914   4.019   0.990  0.9062 -2.5157  0.4693
 5759SOL     OW28912   0.808   3.887   7.023 -0.1403  0.0784  0.0238
 5759SOL    HW128913   0.720   3.861   6.996 -1.1677  2.1924  1.3535
 5759SOL    HW228914   0.799   3.982   7.013  1.0408  0.1893 -0.0327
 5760SOL     OW28915   1.859   0.120   7.793  0.1024  0.4146  0.3254
 5760SOL    HW128916   1.831   0.201   7.835 -0.4919 -0.0575  0.8367
 5760SOL    HW228917   1.841   0.139   7.701 -3.5614 -0.8866  0.7690
 5761SOL     OW28918   3.433   3.366   7.796  0.1085 -0.2082 -0.3300
 5761SOL    HW128919   3.415   3.369   7.890 -2.7184  2.3378 -0.9466
 5761SOL    HW228920   3.346   3.388   7.763  0.7131  1.5361 -0.7264
 5762SOL     OW28921   0.569   3.473   4.266  0.2222  0.2027 -0.2357
 5762SOL    HW128922   0.528   3.418   4.199  0.6306 -0.2623 -0.1033
 5762SOL    HW228923   0.518   3.461   4.345 -0.4127 -0.5716 -0.7637
 5763SOL     OW28924   3.149   2.512  13.120  0.1874 -0.6532 -0.0133
 5763SOL    HW128925   3.221   2.572  13.143 -0.4383 -0.2866  1.0098
 5763SOL    HW228926   3.191   2.426  13.122  0.4130 -0.5109  1.8995
 5764SOL     OW28927   2.385   2.983   5.680  0.0628 -0.8743  0.4401
 5764SOL    HW128928   2.406   2.902   5.633  0.3503 -0.5466 -0.0026
 5764SOL    HW228929   2.293   2.979   5.655 -0.5385 -2.9839  3.0398
 5765SOL     OW28930   1.175   3.054   3.299  0.5048 -0.0188 -0.4720
 5765SOL    HW128931   1.218   3.099   3.371 -1.4901 -0.2847  0.9031
 5765SOL    HW228932   1.131   2.987   3.351  2.5886  0.3078  1.6872
 5766SOL     OW28933   0.033   0.721   7.534 -0.7387  0.0899 -0.1287
 5766SOL    HW128934   0.125   0.736   7.509 -0.2895 -2.0380  0.2154
 5766SOL    HW228935   0.045   0.717   7.629  1.0079  0.8449 -0.3130
 5767SOL     OW28936   3.176   2.320   6.700 -0.0765  0.0284  0.6397
 5767SOL    HW128937   3.218   2.332   6.615 -0.9100 -0.8949  0.0828
 5767SOL    HW228938   3.242   2.268   6.746  1.0558  1.4799  0.6367
 5768SOL     OW28939   3.983   0.306  13.351 -0.6045 -0.3364 -0.0672
 5768SOL    HW128940   3.932   0.281  13.428 -1.6675 -0.5652 -0.8488
 5768SOL    HW228941   3.946   0.393  13.335 -0.8158 -0.4457 -0.1674
 5769SOL     OW28942   0.040   2.818   2.580  0.0103 -0.2879  0.4114
 5769SOL    HW128943   0.052   2.846   2.671 -2.3602  1.0014  0.3140
 5769SOL    HW228944   0.116   2.760   2.572  0.5040  0.1632  1.7324
 5770SOL     OW28945   2.596   4.632   8.213 -0.0271  0.5729 -0.3418
 5770SOL    HW128946   2.528   4.657   8.276 -0.2014 -1.4877  0.2874
 5770SOL    HW228947   2.628   4.550   8.252  3.1718  2.2575  0.5780
 5771SOL     OW28948   0.256   1.508  17.477 -0.0087  0.3397 -0.2679
 5771SOL    HW128949   0.311   1.443  17.433 -1.5214 -0.1506 -1.4338
 5771SOL    HW228950   0.316   1.582  17.485  1.1002 -0.6763  0.8590
 5772SOL     OW28951   2.876   1.255   2.886  0.0380  0.2544 -0.0603
 5772SOL    HW128952   2.955   1.206   2.907 -0.1614  0.4380  1.1483
 5772SOL    HW228953   2.814   1.192   2.922 -1.0449  0.4451 -1.5836
 5773SOL     OW28954   1.642   3.790  14.886  0.1133  0.2492 -0.2346
 5773SOL    HW128955   1.581   3.724  14.919  0.7713 -0.5208 -0.5447
 5773SOL    HW228956   1.711   3.725  14.870 -0.2054 -0.3085  0.6447
 5774SOL     OW28957   0.555   0.936  14.461 -0.5055 -0.1560 -0.0441
 5774SOL    HW128958   0.523   0.964  14.376 -1.3711  0.2782  0.4316
 5774SOL    HW228959   0.639   0.983  14.464  0.6785 -2.2558  0.2874
 5775SOL     OW28960   1.098   0.221   9.779  0.0499 -0.5616  0.3982
 5775SOL    HW128961   1.097   0.239   9.685 -0.2762  1.8438  0.8526
 5775SOL    HW228962   1.184   0.258   9.800 -1.2302  2.0560  0.9999
 5776SOL     OW28963   4.529   2.329   3.540  0.2995  0.6781  0.3265
 5776SOL    HW128964   4.564   2.243   3.515 -0.4788 -0.3986  2.9723
 5776SOL    HW228965   4.609   2.363   3.580 -0.6406  1.1877  1.7434
 5777SOL     OW28966   2.848   0.292  16.339 -0.3102  0.2903  0.6825
 5777SOL    HW128967   2.897   0.367  16.373 -1.5366 -0.3539  3.8515
 5777SOL    HW228968   2.780   0.334  16.288  0.8527  0.3914 -0.7955
 5778SOL     OW28969   1.099   1.275  14.715 -0.0975  0.1162  0.2792
 5778SOL    HW128970   1.090   1.308  14.805 -1.2313  1.8902 -0.4760
 5778SOL    HW228971   1.022   1.219  14.701  0.3509 -0.4500  0.1054
 5779SOL     OW28972   1.212   2.444   5.445  0.6654 -0.2733 -0.2356
 5779SOL    HW128973   1.290   2.393   5.467  0.6515 -0.0909  0.2486
 5779SOL    HW228974   1.145   2.376   5.440  0.4430  0.0554 -1.6991
 5780SOL     OW28975   2.006   1.895   6.232  0.3647  0.1685  0.5307
 5780SOL    HW128976   1.983   1.884   6.140  1.1011  1.2887  0.2073
 5780SOL    HW228977   2.081   1.951   6.212  1.1469 -0.7720  0.8218
 5781SOL     OW28978   0.567   2.408  15.207 -0.0135  0.0591 -0.6225
 5781SOL    HW128979   0.599   2.482  15.156 -2.4588  1.0493 -0.7305
 5781SOL    HW228980   0.504   2.380  15.141  0.7660  1.0891 -1.7885
 5782SOL     OW28981   2.989   2.361   6.927  0.2219 -0.4717 -0.0555
 5782SOL    HW128982   2.957   2.275   6.953  3.6124 -1.2710  1.4242
 5782SOL    HW228983   3.054   2.343   6.859  1.0997 -1.2861  1.0013
 5783SOL     OW28984   0.268   4.315   6.337 -0.3424  0.1579 -0.1337
 5783SOL    HW128985   0.274   4.225   6.304 -0.7664  0.8971 -2.1898
 5783SOL    HW228986   0.318   4.309   6.419 -0.9293 -1.1397  0.1355
 5784SOL     OW28987   1.732   2.090   2.646  0.1626  0.0198  0.4245
 5784SOL    HW128988   1.749   2.146   2.570  1.8446  1.1991  1.6568
 5784SOL    HW228989   1.806   2.124   2.696  0.3653 -0.4960  0.4747
 5785SOL     OW28990   2.677   1.932  10.053  0.0279 -0.3424 -0.3833
 5785SOL    HW128991   2.652   2.023  10.038  1.8816  0.1543 -0.5469
 5785SOL    HW228992   2.622   1.886   9.990 -0.7032 -2.8614  2.1198
 5786SOL     OW28993   4.293   1.698   2.584 -0.0522 -0.2496  0.2405
 5786SOL    HW128994   4.198   1.708   2.592  0.0557  0.1974  1.0137
 5786SOL    HW228995   4.296   1.613   2.541 -0.3431 -0.5386  0.7827
 5787SOL     OW28996   1.117   4.405   6.454  0.2123  0.2278  0.1146
 5787SOL    HW128997   1.116   4.310   6.439  1.4644  0.1373  0.5488
 5787SOL    HW228998   1.202   4.425   6.495  1.5971 -2.5120 -1.4185
 5788SOL     OW28999   4.019   2.262   4.463 -0.4422 -0.1830 -0.6111
 5788SOL    HW129000   4.033   2.219   4.379 -1.3118  0.1172 -0.9105
 5788SOL    HW229001   4.025   2.193   4.529 -1.4146 -0.4931 -0.8409
 5789SOL     OW29002   2.479   3.227   8.448  0.0763 -0.6338  0.2440
 5789SOL    HW129003   2.400   3.174   8.459 -0.8933  0.2613 -2.4256
 5789SOL    HW229004   2.542   3.160   8.476  1.9396  1.7324  1.7149
 5790SOL     OW29005   3.196   1.248   2.198 -0.1597  0.2170 -0.5840
 5790SOL    HW129006   3.219   1.337   2.225 -0.1085  0.3097 -0.9311
 5790SOL    HW229007   3.117   1.227   2.248  0.2488  0.9454  0.3515
 5791SOL     OW29008   0.399   4.578   0.427  0.0606  0.1870  0.3862
 5791SOL    HW129009   0.446   4.656   0.397 -0.2842 -0.0390 -0.7211
 5791SOL    HW229010   0.364   4.614   0.509  0.4060  1.2029  0.0918
 5792SOL     OW29011   3.467   1.429   4.865  0.9477 -0.5708  0.0538
 5792SOL    HW129012   3.436   1.494   4.928  0.6656  1.2392 -1.9755
 5792SOL    HW229013   3.413   1.356   4.895  1.2814 -0.2686  1.3835
 5793SOL     OW29014   4.558   0.960   3.056  0.0650  0.3858  0.2872
 5793SOL    HW129015   4.521   0.879   3.092  0.2598  1.3969  2.7424
 5793SOL    HW229016   4.477   1.011   3.057  0.4506  0.9975 -0.9376
 5794SOL     OW29017   1.044   2.316   3.180  0.2476  0.1162 -0.1366
 5794SOL    HW129018   1.005   2.305   3.267  0.0722  1.2193 -0.0763
 5794SOL    HW229019   1.014   2.401   3.148 -0.0896 -0.0928 -0.3685
 5795SOL     OW29020   1.694   1.679   4.640  0.5713  0.7665 -0.1805
 5795SOL    HW129021   1.624   1.737   4.609 -0.9687 -0.7153  0.5701
 5795SOL    HW229022   1.731   1.656   4.554  0.1164  1.0650 -0.4541
 5796SOL     OW29023   3.704   1.258   5.618 -0.4727  0.3315  0.4658
 5796SOL    HW129024   3.635   1.257   5.684  0.3471  1.6626  1.3389
 5796SOL    HW229025   3.785   1.253   5.669  0.3011 -0.2413 -0.8197
 5797SOL     OW29026   2.384   1.629   7.781 -0.1906  0.3072  0.1114
 5797SOL    HW129027   2.379   1.716   7.819  1.9685  1.0194 -1.2154
 5797SOL    HW229028   2.352   1.651   7.693 -1.1007 -0.5816  0.2323
 5798SOL     OW29029   1.179   3.099   9.808  0.1696 -0.4872 -0.2247
 5798SOL    HW129030   1.086   3.112   9.791  0.0188 -0.7117  0.4153
 5798SOL    HW229031   1.199   3.190   9.828  0.5939 -0.9692  1.5307
 5799SOL     OW29032   2.755   1.295  16.613 -0.5564  0.1656 -0.2012
 5799SOL    HW129033   2.756   1.347  16.533  0.0661  0.2605 -0.1305
 5799SOL    HW229034   2.847   1.276  16.627 -0.4491  2.7266  2.7945
 5800SOL     OW29035   1.334   4.300   1.799 -0.4284 -0.5343 -0.4249
 5800SOL    HW129036   1.287   4.378   1.769 -0.3977 -0.6638 -0.8154
 5800SOL    HW229037   1.309   4.298   1.891 -3.1201 -1.6631 -1.1903
 5801SOL     OW29038   0.061   0.865   6.360  0.0809 -0.7310  0.2410
 5801SOL    HW129039   0.008   0.875   6.439  0.0246  1.0169 -0.0175
 5801SOL    HW229040   0.133   0.929   6.360  0.1152 -0.7821 -1.3112
 5802SOL     OW29041   4.586   2.473   5.100  0.5178  0.3711 -0.1116
 5802SOL    HW129042   4.519   2.509   5.041 -0.8441 -1.7147  0.1685
 5802SOL    HW229043   4.668   2.506   5.064  0.7444  0.4629  0.4865
 5803SOL     OW29044   0.891   0.304  15.946  0.0707  0.7220  0.0041
 5803SOL    HW129045   0.886   0.336  15.856  1.1294 -0.6535 -0.5401
 5803SOL    HW229046   0.832   0.363  15.993 -0.8658  0.0779 -0.3826
 5804SOL     OW29047   4.627   2.479   4.759  0.9074  0.0008  0.2667
 5804SOL    HW129048   4.718   2.508   4.764  1.3400 -1.8629  3.1259
 5804SOL    HW229049   4.630   2.397   4.809  1.6827  0.4822  0.9877
 5805SOL     OW29050   4.561   0.473   3.301 -0.0507  0.0768 -0.4130
 5805SOL    HW129051   4.635   0.456   3.243  0.9466 -1.2701  1.2262
 5805SOL    HW229052   4.525   0.558   3.278 -1.3251 -0.7752 -1.5174
 5806SOL     OW29053   1.551   2.836   8.636 -0.2237 -0.0091 -0.1182
 5806SOL    HW129054   1.519   2.751   8.609 -0.5801 -0.1911  0.8725
 5806SOL    HW229055   1.509   2.843   8.722 -1.4632 -0.9949 -0.6544
 5807SOL     OW29056   4.429   3.783   7.849 -0.3071  0.1484  0.3376
 5807SOL    HW129057   4.441   3.829   7.766 -0.4276  1.6718  1.1461
 5807SOL    HW229058   4.488   3.835   7.903  0.4234 -2.2498  1.8360
 5808SOL     OW29059   0.572   2.688  11.160 -0.0093  0.0740  0.0849
 5808SOL    HW129060   0.651   2.730  11.126 -1.7393  1.2134 -2.5663
 5808SOL    HW229061   0.593   2.595  11.155 -0.6675  0.0292 -2.1079
 5809SOL     OW29062   1.114   2.568  12.888  0.0860  0.4267 -0.3041
 5809SOL    HW129063   1.119   2.656  12.850 -0.1012  1.0995  1.2436
 5809SOL    HW229064   1.094   2.583  12.980 -0.1520  0.0054 -0.2867
 5810SOL     OW29065   2.450   3.303   5.671  0.0478 -0.0998  0.8979
 5810SOL    HW129066   2.477   3.368   5.606 -2.7350  0.2289  0.0409
 5810SOL    HW229067   2.359   3.325   5.692 -0.1879  0.4189 -0.6353
 5811SOL     OW29068   3.939   2.432   5.334  0.0961 -0.0029 -0.0966
 5811SOL    HW129069   3.916   2.420   5.426  0.1807 -1.7834 -0.3002
 5811SOL    HW229070   4.030   2.459   5.342 -0.6475  1.6934  2.4303
 5812SOL     OW29071   4.704   1.035   7.692 -0.2989 -0.5025 -0.2965
 5812SOL    HW129072   4.732   1.114   7.646 -0.1890 -1.1941 -1.4233
 5812SOL    HW229073   4.661   0.999   7.614 -2.2851  1.1252  0.0424
 5813SOL     OW29074   3.977   3.842   4.567  0.0416 -0.0404 -0.2362
 5813SOL    HW129075   3.910   3.887   4.617 -1.6517 -1.2005 -1.4657
 5813SOL    HW229076   4.058   3.859   4.615  0.8538  1.8717 -2.2923
 5814SOL     OW29077   3.430   2.294   4.733 -0.7653  0.4536  1.1445
 5814SOL    HW129078   3.342   2.328   4.750 -0.5805  0.0729  2.8461
 5814SOL    HW229079   3.480   2.313   4.813 -0.9141  1.4065  1.0149
 5815SOL     OW29080   1.508   3.153   7.023 -0.5507 -0.0322  0.3013
 5815SOL    HW129081   1.577   3.183   7.082 -0.1080 -2.0986  0.8024
 5815SOL    HW229082   1.451   3.231   7.016  0.1484  0.3689 -0.9411
 5816SOL     OW29083   3.793   2.283  15.900  0.3872  0.3409 -0.3256
 5816SOL    HW129084   3.783   2.378  15.906  1.2877  0.4214 -0.2189
 5816SOL    HW229085   3.824   2.265  15.988 -1.5219  1.3276  0.5497
 5817SOL     OW29086   0.171   0.976   1.363  0.0147  0.4965  0.6967
 5817SOL    HW129087   0.218   1.057   1.382  0.2783  0.1168  1.6459
 5817SOL    HW229088   0.219   0.904   1.404  0.5488 -0.2417 -1.1948
 5818SOL     OW29089   1.203   3.887  16.612 -0.3645 -0.1834 -0.1666
 5818SOL    HW129090   1.116   3.917  16.587 -0.2503 -0.6490 -1.0919
 5818SOL    HW229091   1.182   3.890  16.706  1.2290  1.1992  0.1450
 5819SOL     OW29092   3.742   4.431   6.769 -0.8697 -0.2107 -0.5022
 5819SOL    HW129093   3.705   4.451   6.683 -1.4747 -0.1577 -0.2243
 5819SOL    HW229094   3.669   4.451   6.827 -0.0790  0.4064  0.2834
 5820SOL     OW29095   1.506   0.508   8.358 -0.5936 -0.4300  0.0227
 5820SOL    HW129096   1.547   0.422   8.368  0.4771  0.3016  1.9644
 5820SOL    HW229097   1.417   0.477   8.342 -0.4377 -0.8483 -0.0177
 5821SOL     OW29098   1.134   2.559  17.633  0.5178  0.6940  0.0387
 5821SOL    HW129099   1.203   2.495  17.647  1.3849  1.5263 -0.4235
 5821SOL    HW229100   1.169   2.629  17.687 -3.0049  2.3011  0.2247
 5822SOL     OW29101   3.506   1.435  12.969  0.1483  0.1584 -0.5313
 5822SOL    HW129102   3.434   1.444  13.032  1.2088 -1.0155  0.8377
 5822SOL    HW229103   3.582   1.443  13.026 -0.6743  2.7200  0.2379
 5823SOL     OW29104   2.007   2.042  17.275  0.4585 -0.7521  0.2057
 5823SOL    HW129105   2.032   2.091  17.197  1.8800 -1.3844  0.2694
 5823SOL    HW229106   2.064   2.083  17.340 -0.9829 -0.9916  1.6364
 5824SOL     OW29107   4.234   3.877   4.651 -0.1105 -0.0573 -0.4429
 5824SOL    HW129108   4.295   3.912   4.716 -0.9021 -0.9478  0.7905
 5824SOL    HW229109   4.266   3.931   4.579 -1.0728 -2.0828 -2.3904
 5825SOL     OW29110   3.375   3.193   5.933 -0.8630  0.2570  0.6872
 5825SOL    HW129111   3.394   3.248   5.858  0.9052  0.1929  1.0895
 5825SOL    HW229112   3.324   3.251   5.989 -1.1083  0.2750  0.4456
 5826SOL     OW29113   2.048   2.881   0.957 -0.3717 -0.0301  0.2435
 5826SOL    HW129114   2.125   2.883   1.014 -1.5363  0.5108  1.7754
 5826SOL    HW229115   2.004   2.801   0.987 -2.2405  1.2343  0.8482
 5827SOL     OW29116   3.556   4.361  12.937  0.2823 -0.0368  0.3975
 5827SOL    HW129117   3.562   4.392  12.846 -1.6158 -0.8423 -0.0083
 5827SOL    HW229118   3.461   4.373  12.947  0.4468  0.9468  0.8102
 5828SOL     OW29119   1.125   1.347   3.101  0.4659 -0.0029 -0.0833
 5828SOL    HW129120   1.140   1.297   3.020  1.0508  2.0625 -1.2385
 5828SOL    HW229121   1.131   1.433   3.060 -1.8134  1.1843  2.0855
 5829SOL     OW29122   0.774   4.183   6.552 -0.3674 -0.3494  0.0791
 5829SOL    HW129123   0.697   4.129   6.536 -0.4759 -0.1896  0.0623
 5829SOL    HW229124   0.832   4.168   6.477  0.3241 -1.5234  0.8527
 5830SOL     OW29125   2.421   2.166  14.717 -0.1816  0.1084  0.1262
 5830SOL    HW129126   2.499   2.111  14.725  1.1530  2.3251  2.3162
 5830SOL    HW229127   2.426   2.231  14.787 -4.2654 -0.0764  0.6033
 5831SOL     OW29128   2.627   1.514   8.389  0.4825 -0.2997  0.0936
 5831SOL    HW129129   2.648   1.549   8.302  1.2488  1.7054  1.0953
 5831SOL    HW229130   2.577   1.589   8.420 -1.0062 -0.6506 -1.4144
 5832SOL     OW29131   2.494   3.897  17.521  0.8091 -0.2759  0.0522
 5832SOL    HW129132   2.468   3.866  17.608  1.8852  0.7985  0.7603
 5832SOL    HW229133   2.417   3.872  17.471 -0.1104  1.3134  0.6724
 5833SOL     OW29134   1.398   1.989   3.408 -0.1178  0.0022 -1.0007
 5833SOL    HW129135   1.489   2.019   3.402  0.2784 -0.8282  1.0118
 5833SOL    HW229136   1.411   1.896   3.426 -0.5664  0.4657  1.7894
 5834SOL     OW29137   3.226   1.652  12.401 -0.4022  0.3226  0.3068
 5834SOL    HW129138   3.320   1.660  12.388 -0.1992 -0.2660  1.4347
 5834SOL    HW229139   3.195   1.733  12.442  3.7572  1.6509  0.7693
 5835SOL     OW29140   4.018   0.541   3.473  0.1277  0.6346  0.0573
 5835SOL    HW129141   4.113   0.533   3.466  0.2929  2.3524  0.2273
 5835SOL    HW229142   3.998   0.463   3.421  1.1069  1.4192 -1.5048
 5836SOL     OW29143   2.784   3.454   2.835  0.7653  0.1872 -0.4042
 5836SOL    HW129144   2.708   3.505   2.865 -0.6353 -2.3285  0.3363
 5836SOL    HW229145   2.749   3.368   2.814  0.2287  0.6833 -1.5602
 5837SOL     OW29146   1.417   1.101  13.705  0.1156  0.2813 -0.3225
 5837SOL    HW129147   1.418   1.043  13.781  0.9219  1.1784  0.3513
 5837SOL    HW229148   1.508   1.132  13.704 -0.1305  1.0231  0.5846
 5838SOL     OW29149   1.595   3.367   2.213 -0.1693  0.2802  0.0914
 5838SOL    HW129150   1.560   3.454   2.195  0.1301  0.2985 -0.4099
 5838SOL    HW229151   1.688   3.386   2.220  0.2109 -1.3812 -0.3238
 5839SOL     OW29152   1.226   4.332   8.591  0.4419 -0.3469 -0.1042
 5839SOL    HW129153   1.211   4.423   8.563  1.3515 -0.1988 -0.1038
 5839SOL    HW229154   1.281   4.350   8.667  1.5205  0.6771 -1.1214
 5840SOL     OW29155   1.775   3.566   5.291  0.6195 -0.1126  0.0876
 5840SOL    HW129156   1.808   3.614   5.215  1.7978  0.4031  0.9337
 5840SOL    HW229157   1.695   3.618   5.304 -0.6839 -2.3209  0.7893
 5841SOL     OW29158   3.402   1.354  13.615  0.1160  0.3398 -0.0205
 5841SOL    HW129159   3.344   1.368  13.540 -1.2935 -0.8720  0.8463
 5841SOL    HW229160   3.332   1.343  13.680  1.2161 -0.6020  0.9945
 5842SOL     OW29161   4.489   3.036   7.824 -0.1033 -0.5852 -0.3692
 5842SOL    HW129162   4.518   3.107   7.880 -0.4585 -0.5703 -0.2070
 5842SOL    HW229163   4.446   3.079   7.751  1.9695 -1.1012 -1.8965
 5843SOL     OW29164   0.771   0.175   1.529 -0.3045  0.6316 -0.0837
 5843SOL    HW129165   0.841   0.229   1.490  1.4747  1.2989  4.0539
 5843SOL    HW229166   0.685   0.200   1.497 -0.4168  1.4509  0.8657
 5844SOL     OW29167   3.088   4.261   5.411  0.0780  0.1773 -0.3410
 5844SOL    HW129168   3.173   4.268   5.455 -0.0512  2.2886 -0.4117
 5844SOL    HW229169   3.116   4.324   5.345  1.8987 -0.0910  0.1568
 5845SOL     OW29170   3.411   3.444   3.802 -0.0356  0.2319 -0.5242
 5845SOL    HW129171   3.451   3.358   3.811  0.1597  0.4892  1.0099
 5845SOL    HW229172   3.382   3.466   3.891 -0.1051  1.6836 -0.9119
 5846SOL     OW29173   4.161   3.265  15.603 -0.7421 -0.4856  0.0502
 5846SOL    HW129174   4.190   3.248  15.513 -0.4375 -2.3313  0.5062
 5846SOL    HW229175   4.168   3.361  15.599 -0.9465 -0.5137 -0.8924
 5847SOL     OW29176   3.761   1.165   8.706 -0.1521 -0.0944 -0.4831
 5847SOL    HW129177   3.784   1.082   8.664  1.0714 -0.1824  0.3597
 5847SOL    HW229178   3.744   1.231   8.639 -0.7346 -2.9194 -3.1248
 5848SOL     OW29179   0.192   0.291   6.558  0.0871  0.3701  0.2413
 5848SOL    HW129180   0.205   0.357   6.626  1.8254 -0.5510  0.7867
 5848SOL    HW229181   0.184   0.210   6.608 -0.0010 -0.1581 -0.6274
 5849SOL     OW29182   3.076   2.301   3.574  0.1678  0.2406 -0.3989
 5849SOL    HW129183   3.089   2.253   3.492 -0.7262 -0.1707 -0.3046
 5849SOL    HW229184   3.018   2.242   3.622  0.1047  1.4305  0.9730
 5850SOL     OW29185   0.150   0.011   3.290 -0.0418 -0.5876  0.1113
 5850SOL    HW129186   0.153   0.003   3.385  0.4690 -0.0991  0.1365
 5850SOL    HW229187   0.243   0.010   3.269 -0.0139  1.5304  0.1581
 5851SOL     OW29188   2.302   4.159   4.450 -0.1457 -0.0709 -0.1163
 5851SOL    HW129189   2.367   4.139   4.383 -0.8149  0.6646 -0.9959
 5851SOL    HW229190   2.219   4.162   4.402  0.5410 -2.0993 -1.4215
 5852SOL     OW29191   1.366   4.006  12.179  0.1792 -0.8761  0.0418
 5852SOL    HW129192   1.289   4.059  12.203 -1.0353 -3.2688  1.4602
 5852SOL    HW229193   1.397   3.995  12.269 -2.5993  1.6810  1.3291
 5853SOL     OW29194   3.351   3.080   4.881 -0.4769 -0.4107 -0.0212
 5853SOL    HW129195   3.428   3.060   4.934 -0.5153  0.4938  0.3874
 5853SOL    HW229196   3.323   3.165   4.917 -2.0240 -0.8428 -0.2012
 5854SOL     OW29197   0.845   3.794   6.279  0.1163 -0.5327  0.0924
 5854SOL    HW129198   0.852   3.730   6.349  0.0634 -0.6220  0.0167
 5854SOL    HW229199   0.784   3.750   6.219 -0.5613  0.8875 -0.2704
 5855SOL     OW29200   2.776   0.498   3.656 -0.2864  0.3051 -0.1781
 5855SOL    HW129201   2.694   0.485   3.702 -0.2570  0.8275  0.0235
 5855SOL    HW229202   2.814   0.410   3.647 -0.9988  0.0361 -0.5233
 5856SOL     OW29203   3.481   0.210   3.760  1.0238 -0.1753  0.0863
 5856SOL    HW129204   3.503   0.117   3.749  2.2186 -0.0006  0.9869
 5856SOL    HW229205   3.435   0.234   3.680 -0.8536 -4.1354 -0.0374
 5857SOL     OW29206   4.370   3.144   1.483 -0.0917 -0.0163  0.4907
 5857SOL    HW129207   4.443   3.099   1.439 -0.0452  1.9024 -1.4179
 5857SOL    HW229208   4.402   3.233   1.494  0.1314 -0.1707  1.0498
 5858SOL     OW29209   3.935   0.547   3.996  0.1588 -0.2164 -0.1732
 5858SOL    HW129210   3.994   0.618   3.971  1.5037 -1.3155 -0.1239
 5858SOL    HW229211   3.985   0.473   3.959  0.3608 -0.5412  0.7500
 5859SOL     OW29212   3.023   3.088   2.503 -0.7687  0.2170 -0.0685
 5859SOL    HW129213   2.957   3.069   2.569 -2.1717  0.7671 -1.3044
 5859SOL    HW229214   3.006   3.178   2.475 -0.8190  0.4381  0.6729
 5860SOL     OW29215   0.006   2.757   5.397 -0.2082  0.0197 -0.0327
 5860SOL    HW129216   4.652   2.755   5.366 -0.3755  1.3460  0.3525
 5860SOL    HW229217   4.736   2.702   5.475  3.5458 -0.5007 -0.0884
 5861SOL     OW29218   2.306   2.645   8.295  0.5154 -0.6080 -0.1381
 5861SOL    HW129219   2.211   2.649   8.286  0.3821  1.7653  2.5123
 5861SOL    HW229220   2.325   2.551   8.288  3.4269 -0.1693  2.3801
 5862SOL     OW29221   3.700   3.636   1.952 -0.0647 -0.2692 -0.2941
 5862SOL    HW129222   3.677   3.550   1.989  0.6031  0.5058  1.9573
 5862SOL    HW229223   3.625   3.683   1.989  0.2200 -0.4409  0.4973
 5863SOL     OW29224   2.328   0.318   8.823 -0.0813 -0.3349 -0.9675
 5863SOL    HW129225   2.261   0.335   8.756 -1.3408 -0.8429  0.1676
 5863SOL    HW229226   2.276   0.266   8.883  1.9026  0.8419  1.7381
 5864SOL     OW29227   4.450   3.576  16.972  0.0127 -0.4302  0.0808
 5864SOL    HW129228   4.469   3.487  16.941 -1.8884 -0.7094 -0.2784
 5864SOL    HW229229   4.428   3.566  17.064  0.1755 -0.3137  0.1325
 5865SOL     OW29230   2.953   3.932   6.224  0.1853 -1.0016  0.7114
 5865SOL    HW129231   3.039   3.959   6.192 -0.1507 -0.9728 -0.1428
 5865SOL    HW229232   2.893   4.000   6.196  0.3118 -2.2059 -2.4124
 5866SOL     OW29233   3.041   1.351  12.912  0.3028 -0.2127  0.2010
 5866SOL    HW129234   3.112   1.329  12.972 -0.5681 -2.3967  0.4406
 5866SOL    HW229235   3.065   1.294  12.838 -0.3820 -2.1879  1.4829
 5867SOL     OW29236   0.769   1.131  17.475  0.0632 -0.2657 -0.2513
 5867SOL    HW129237   0.779   1.053  17.528  0.9563  0.1500  0.1735
 5867SOL    HW229238   0.764   1.199  17.542  1.8894 -0.6509  0.2529
 5868SOL     OW29239   2.423   2.350  10.054 -0.0348  0.1400 -0.3051
 5868SOL    HW129240   2.437   2.431  10.004  0.0735  0.6201  0.5021
 5868SOL    HW229241   2.329   2.338  10.039 -0.1626  0.2278  0.4323
 5869SOL     OW29242   1.168   1.763   9.287  0.1725  0.5445 -0.0649
 5869SOL    HW129243   1.195   1.685   9.334  0.6801 -0.1562 -1.5205
 5869SOL    HW229244   1.233   1.826   9.320  0.9474 -0.2849 -0.0184
 5870SOL     OW29245   0.384   2.499   3.538 -0.5239 -0.0088 -0.3000
 5870SOL    HW129246   0.304   2.551   3.531  0.2314  0.9463 -1.9930
 5870SOL    HW229247   0.355   2.408   3.533 -0.9443  0.1490 -0.7891
 5871SOL     OW29248   4.418   3.269   3.642  0.0883  0.5887  0.0052
 5871SOL    HW129249   4.451   3.219   3.568 -1.1207 -0.2292  0.0065
 5871SOL    HW229250   4.482   3.248   3.710 -2.2754  1.6038  2.5857
 5872SOL     OW29251   2.969   4.672  17.561 -0.4328  0.5046  0.4140
 5872SOL    HW129252   3.060   4.670  17.529 -0.9734  1.5960 -1.1757
 5872SOL    HW229253   2.954   4.579  17.578 -1.9092  1.0382  1.9782
 5873SOL     OW29254   1.489   4.217   2.872 -0.8540  0.0344 -0.2921
 5873SOL    HW129255   1.530   4.133   2.851 -0.1830  0.8572 -2.2448
 5873SOL    HW229256   1.404   4.209   2.827 -1.9549  0.5202  1.7023
 5874SOL     OW29257   3.102   0.045   6.537 -0.6154 -0.0900 -0.1760
 5874SOL    HW129258   3.112   0.078   6.448 -2.8485  1.1500  0.0362
 5874SOL    HW229259   3.171   0.090   6.586 -1.6825 -0.8606  2.0616
 5875SOL     OW29260   2.469   4.485   6.952 -0.0422 -0.0218 -0.2792
 5875SOL    HW129261   2.432   4.550   6.892 -0.3121  0.9876  0.9745
 5875SOL    HW229262   2.423   4.405   6.927 -0.2319  0.0587 -0.1882
 5876SOL     OW29263   0.187   3.998   7.974 -0.0942 -0.2595 -0.1989
 5876SOL    HW129264   0.098   4.011   7.940 -1.0474 -2.0285  1.5758
 5876SOL    HW229265   0.242   3.999   7.896  1.8333  0.5782  1.1838
 5877SOL     OW29266   3.436   0.228   2.270  0.4384 -0.2789  0.1690
 5877SOL    HW129267   3.493   0.287   2.320 -0.9858  0.8842  0.4206
 5877SOL    HW229268   3.369   0.291   2.243  0.2713 -0.9608 -1.0319
 5878SOL     OW29269   0.965   0.677   2.581  0.4349 -0.4393  0.7465
 5878SOL    HW129270   0.938   0.719   2.663 -1.7317 -0.7510  0.2024
 5878SOL    HW229271   1.051   0.715   2.561  0.8259 -2.8839 -2.2390
 5879SOL     OW29272   3.440   0.449   4.606  0.7435 -0.1837  0.3542
 5879SOL    HW129273   3.352   0.410   4.610  0.1177  1.2184  0.1764
 5879SOL    HW229274   3.445   0.450   4.511 -1.6122 -1.3013  0.2245
 5880SOL     OW29275   1.762   0.303   5.135 -0.3260 -0.5049  0.1373
 5880SOL    HW129276   1.835   0.303   5.072  1.4365  0.5331  2.1705
 5880SOL    HW229277   1.685   0.289   5.081 -0.1151 -0.7284 -0.1092
 5881SOL     OW29278   1.336   4.240  14.845 -0.2305  0.4617 -0.7378
 5881SOL    HW129279   1.385   4.159  14.855  0.1648  0.8307  0.3119
 5881SOL    HW229280   1.408   4.280  14.795  1.9164 -0.5395  1.5601
 5882SOL     OW29281   2.572   2.131   6.715  0.0275  0.0045  0.1294
 5882SOL    HW129282   2.603   2.210   6.759  0.7594  1.1945 -2.5234
 5882SOL    HW229283   2.604   2.060   6.770 -0.0302  0.4646  0.7568
 5883SOL     OW29284   1.968   4.529  13.239  0.1177  0.2646 -0.4405
 5883SOL    HW129285   1.983   4.577  13.158  3.0145 -0.7371 -0.5067
 5883SOL    HW229286   1.959   4.444  13.198 -0.7996 -1.5313  3.4831
 5884SOL     OW29287   0.755   0.212   1.062 -0.1601  0.3019 -0.2000
 5884SOL    HW129288   0.692   0.155   1.107  0.3216 -0.8884 -1.0464
 5884SOL    HW229289   0.699   0.264   1.005 -1.4335  1.3668  1.9966
 5885SOL     OW29290   0.473   1.354   2.714 -0.2639  0.3766  0.6835
 5885SOL    HW129291   0.432   1.377   2.797  1.5797 -0.6453  1.9052
 5885SOL    HW229292   0.551   1.410   2.716  1.5627 -2.1000 -1.3014
 5886SOL     OW29293   2.507   1.131  14.280  0.1969  0.0533 -0.2035
 5886SOL    HW129294   2.432   1.091  14.236 -0.4406  2.6852 -1.4936
 5886SOL    HW229295   2.575   1.104  14.220  0.3622 -0.5997  0.2763
 5887SOL     OW29296   2.236   1.966   3.514 -0.2249  0.3304  0.0029
 5887SOL    HW129297   2.257   1.873   3.524  0.5073  0.6308  1.1483
 5887SOL    HW229298   2.266   1.998   3.599  0.2214 -1.2008  0.4171
 5888SOL     OW29299   1.852   3.594   3.488  0.1671 -0.6448 -0.0034
 5888SOL    HW129300   1.942   3.611   3.459 -0.0816  0.0947 -0.3483
 5888SOL    HW229301   1.871   3.564   3.576  1.2602  1.2024  0.3819
 5889SOL     OW29302   2.884   1.638   5.702 -0.1433  0.7028 -0.1315
 5889SOL    HW129303   2.979   1.631   5.714 -0.1041 -0.1733 -0.9237
 5889SOL    HW229304   2.864   1.551   5.667 -0.8150  0.4775  0.8339
 5890SOL     OW29305   4.717   3.180  14.132  0.0137 -0.0329  0.3409
 5890SOL    HW129306   4.659   3.183  14.055  0.3434 -0.7030  0.0663
 5890SOL    HW229307   4.735   3.274  14.135 -0.4168  0.0699 -0.2068
 5891SOL     OW29308   3.022   2.366   9.047  0.1020  0.0420  0.1501
 5891SOL    HW129309   3.074   2.418   9.108  2.2798 -0.7856 -1.0372
 5891SOL    HW229310   3.088   2.316   8.998  0.8276 -1.6604  2.8622
 5892SOL     OW29311   2.200   2.760   3.016 -0.7008  0.3687  0.6517
 5892SOL    HW129312   2.268   2.692   3.017 -0.9421  0.1119  0.0478
 5892SOL    HW229313   2.182   2.771   3.109 -0.7934  0.0019  0.6768
 5893SOL     OW29314   3.236   2.299   1.936  0.4537  0.4024 -0.3619
 5893SOL    HW129315   3.247   2.375   1.878  0.0068  1.8180  1.4053
 5893SOL    HW229316   3.262   2.345   2.016  1.7937  0.8088 -1.0314
 5894SOL     OW29317   2.752   2.577   9.374  0.1354  0.4697  0.2684
 5894SOL    HW129318   2.689   2.641   9.340 -2.4792 -1.0594  2.2746
 5894SOL    HW229319   2.835   2.607   9.338  0.7351  1.1220  2.2014
 5895SOL     OW29320   2.085   3.421   2.372  0.1576  0.1974  0.2046
 5895SOL    HW129321   2.107   3.350   2.432 -0.5555  0.3104  0.5966
 5895SOL    HW229322   2.157   3.422   2.309  2.3051 -2.6324  2.6180
 5896SOL     OW29323   1.411   0.391  12.873 -0.1891  0.1765  0.2739
 5896SOL    HW129324   1.350   0.361  12.940 -1.6052  1.8984 -0.2439
 5896SOL    HW229325   1.353   0.433  12.809 -0.7998  1.0748  1.4326
 5897SOL     OW29326   3.927   3.897   3.765 -0.4056  0.4269 -0.0629
 5897SOL    HW129327   3.896   3.807   3.749  0.8275  0.4667 -2.6812
 5897SOL    HW229328   4.019   3.896   3.740 -0.1507  0.2977  0.8763
 5898SOL     OW29329   0.037   4.080   6.055 -0.2689  0.0104  0.5302
 5898SOL    HW129330   0.020   4.171   6.079  1.6428  0.9533 -1.6827
 5898SOL    HW229331   4.685   4.046   6.038 -0.4445  1.1029 -0.7712
 5899SOL     OW29332   3.112   2.171  15.112  0.0386 -0.1378 -0.9472
 5899SOL    HW129333   3.062   2.089  15.109 -0.5601  0.1197  1.8168
 5899SOL    HW229334   3.069   2.229  15.049 -0.2813  0.5875 -0.0613
 5900SOL     OW29335   2.532   1.734  16.357 -0.0189  0.4630  0.4534
 5900SOL    HW129336   2.610   1.739  16.412  0.1717  1.5042  0.0723
 5900SOL    HW229337   2.561   1.793  16.288  1.6709  0.2988  1.0243
 5901SOL     OW29338   3.208   3.096  10.182  0.5281 -0.1322 -0.4176
 5901SOL    HW129339   3.301   3.079  10.198  0.8226  0.5442 -1.4346
 5901SOL    HW229340   3.206   3.115  10.088 -0.2137  0.0200 -0.3657
 5902SOL     OW29341   2.186   3.348   5.763 -0.5188  0.1769  0.9537
 5902SOL    HW129342   2.126   3.418   5.735 -0.2415 -0.6618 -1.7754
 5902SOL    HW229343   2.117   3.282   5.768 -0.0449 -0.1795  2.7968
 5903SOL     OW29344   1.742   0.856  12.468 -0.4357 -0.3033  0.0040
 5903SOL    HW129345   1.666   0.807  12.500 -0.7347 -0.1508 -0.4835
 5903SOL    HW229346   1.711   0.881  12.381  0.4238  1.2336  0.1311
 5904SOL     OW29347   1.765   3.330   1.306 -0.0255 -0.0834 -0.0872
 5904SOL    HW129348   1.803   3.278   1.235  0.4032 -0.2146  0.2398
 5904SOL    HW229349   1.836   3.394   1.304  0.1986 -0.3188  0.3130
 5905SOL     OW29350   1.970   3.934   3.801 -0.5883 -0.0978  0.0544
 5905SOL    HW129351   1.893   3.964   3.850 -0.2063  1.1908 -0.1488
 5905SOL    HW229352   2.016   4.017   3.805 -1.3682  0.4216 -1.8363
 5906SOL     OW29353   4.012   1.842   6.434  0.2824 -0.1550 -0.6381
 5906SOL    HW129354   4.081   1.785   6.468  1.9984  1.5600 -1.2303
 5906SOL    HW229355   3.943   1.779   6.411  0.9259 -0.8723 -0.5855
 5907SOL     OW29356   0.558   3.525  16.419 -0.0965 -0.7210 -0.3577
 5907SOL    HW129357   0.487   3.475  16.378 -0.0949  0.3251 -1.6366
 5907SOL    HW229358   0.526   3.534  16.509  0.4000 -1.3173 -0.1169
 5908SOL     OW29359   2.724   1.260   7.829 -0.2393 -0.1373  0.2875
 5908SOL    HW129360   2.692   1.215   7.907 -0.1248 -1.6245 -0.5156
 5908SOL    HW229361   2.643   1.310   7.820 -0.1268 -0.0931 -0.4298
 5909SOL     OW29362   4.273   4.225   7.312  0.0076 -0.4918  0.0057
 5909SOL    HW129363   4.278   4.301   7.370 -3.9934  0.1657 -0.4929
 5909SOL    HW229364   4.212   4.255   7.245  0.6571 -0.0687 -0.3939
 5910SOL     OW29365   4.564   0.040   7.565 -0.0709 -0.9259  0.9140
 5910SOL    HW129366   4.582   0.056   7.473 -0.9300 -1.8717  0.5842
 5910SOL    HW229367   4.531   4.687   7.561 -2.1852 -0.0408 -1.6950
 5911SOL     OW29368   4.146   0.177  14.494  0.0428 -0.2436  0.2967
 5911SOL    HW129369   4.202   0.100  14.491  1.1204  0.4917  1.3599
 5911SOL    HW229370   4.208   0.239  14.454 -0.0463 -0.8130 -0.7145
 5912SOL     OW29371   0.521   2.028  10.791 -0.7345  0.2562 -0.0022
 5912SOL    HW129372   0.431   2.031  10.758 -1.4737 -0.3750  1.9686
 5912SOL    HW229373   0.506   2.049  10.883 -1.5623 -0.6500  0.0673
 5913SOL     OW29374   2.198   4.529  16.357  0.5739 -0.1474  0.6266
 5913SOL    HW129375   2.156   4.491  16.434  1.1361  0.9533  1.4770
 5913SOL    HW229376   2.284   4.543  16.398  0.5115 -0.4745  0.8659
 5914SOL     OW29377   0.415   0.551  10.684 -0.3668  0.1087  0.8296
 5914SOL    HW129378   0.392   0.619  10.747  0.5814  0.7515  0.4927
 5914SOL    HW229379   0.347   0.553  10.617 -0.1006  0.3616  0.5605
 5915SOL     OW29380   0.824   1.606   9.216 -0.4999 -0.2881  0.1925
 5915SOL    HW129381   0.805   1.512   9.218  0.0818 -0.4460 -1.3375
 5915SOL    HW229382   0.765   1.645   9.151 -1.9760 -0.6016  1.3587
 5916SOL     OW29383   2.339   1.523   6.323 -0.1771 -0.8022 -0.4541
 5916SOL    HW129384   2.359   1.522   6.416  2.1802 -1.1998 -0.9713
 5916SOL    HW229385   2.270   1.589   6.329  0.4194 -0.0437 -1.8493
 5917SOL     OW29386   1.059   3.036   5.367 -0.3129  0.2131 -0.2581
 5917SOL    HW129387   0.989   3.083   5.320 -0.5271  0.4341  0.2859
 5917SOL    HW229388   1.013   2.972   5.421  1.4960 -1.3019 -0.4979
 5918SOL     OW29389   0.965   2.817   5.532  0.3858  0.2480 -0.0187
 5918SOL    HW129390   0.922   2.750   5.478 -1.4596 -0.9132  2.9323
 5918SOL    HW229391   1.043   2.770   5.562  0.1407 -0.5177 -0.5886
 5919SOL     OW29392   1.467   4.492   1.185 -0.0475  0.2980  0.7165
 5919SOL    HW129393   1.544   4.447   1.220  0.7988 -0.2819 -1.8594
 5919SOL    HW229394   1.482   4.585   1.202 -0.4033  0.1158  2.0153
 5920SOL     OW29395   2.774   1.403   5.351  0.3303  0.0160  0.3123
 5920SOL    HW129396   2.740   1.423   5.263 -0.9058 -1.4808  0.4458
 5920SOL    HW229397   2.704   1.446   5.400 -1.6072 -2.8386  0.0152
 5921SOL     OW29398   0.399   4.348   7.219  0.0518 -0.2149 -0.0308
 5921SOL    HW129399   0.410   4.420   7.156 -2.3512 -0.9036 -1.2289
 5921SOL    HW229400   0.323   4.383   7.265 -0.5792  0.5257 -1.6478
 5922SOL     OW29401   1.576   4.121   3.752  0.3619  0.5296 -0.2022
 5922SOL    HW129402   1.655   4.105   3.700 -1.6831 -0.7616 -2.8880
 5922SOL    HW229403   1.530   4.192   3.707 -2.0489 -0.8501  0.0766
 5923SOL     OW29404   0.613   2.230   5.104 -0.1007 -0.0077  0.7007
 5923SOL    HW129405   0.539   2.290   5.090  0.7523  0.8687 -0.0003
 5923SOL    HW229406   0.572   2.176   5.172  0.3999 -1.3512 -0.0804
 5924SOL     OW29407   2.775   2.212  11.052 -0.3440  0.5618 -0.1773
 5924SOL    HW129408   2.812   2.125  11.039  0.4273  0.8326  0.1629
 5924SOL    HW229409   2.860   2.257  11.058  0.0527 -0.2819  0.4267
 5925SOL     OW29410   1.613   0.740   8.347 -0.4393  0.0591  0.2227
 5925SOL    HW129411   1.577   0.651   8.343  1.2606 -0.5747 -1.0637
 5925SOL    HW229412   1.637   0.749   8.255  0.7726 -0.5437  0.4807
 5926SOL     OW29413   2.856   1.341  13.241 -0.0668 -0.7757 -0.4556
 5926SOL    HW129414   2.940   1.381  13.264 -1.7127  1.7685  1.1404
 5926SOL    HW229415   2.890   1.252  13.236  0.6171 -0.5705  0.5432
 5927SOL     OW29416   3.177   4.200   5.087  0.0293 -0.2161 -0.1970
 5927SOL    HW129417   3.160   4.290   5.117 -1.5507 -0.7410  0.4735
 5927SOL    HW229418   3.087   4.168   5.083  0.3511 -1.3214  1.6155
 5928SOL     OW29419   3.550   1.275  16.446 -0.2862 -0.2078  0.3269
 5928SOL    HW129420   3.642   1.261  16.421 -1.7999 -1.8730 -4.3849
 5928SOL    HW229421   3.516   1.296  16.359  0.4186 -0.9194 -0.1241
 5929SOL     OW29422   1.432   3.644   3.164 -0.1098 -0.6157  0.7697
 5929SOL    HW129423   1.480   3.720   3.133  0.7205 -1.4319  0.0467
 5929SOL    HW229424   1.354   3.678   3.209 -1.4374 -1.8053 -0.6208
 5930SOL     OW29425   1.516   2.765   0.646 -0.0622  0.0966  0.2189
 5930SOL    HW129426   1.440   2.708   0.653  0.3022  0.1112  4.1217
 5930SOL    HW229427   1.581   2.715   0.595 -1.5597  0.0021 -1.6034
 5931SOL     OW29428   1.924   1.988   2.402 -0.0620  0.6313 -0.3556
 5931SOL    HW129429   1.866   1.927   2.356 -0.4751  1.5497 -1.0643
 5931SOL    HW229430   1.922   2.062   2.341  0.3694  0.2290 -0.8541
 5932SOL     OW29431   2.701   1.324   6.941  0.3481 -0.7945 -1.0139
 5932SOL    HW129432   2.736   1.324   6.852  0.1497 -0.2336 -1.0955
 5932SOL    HW229433   2.783   1.335   6.988  0.4992  1.1438 -1.7135
 5933SOL     OW29434   2.589   3.574   2.047 -0.6499 -0.1571  0.2931
 5933SOL    HW129435   2.630   3.644   2.098 -1.4630 -0.9124  2.0036
 5933SOL    HW229436   2.573   3.515   2.121  0.2275 -0.3845  0.3068
 5934SOL     OW29437   1.893   4.074   6.723  0.0161 -0.2626  0.4025
 5934SOL    HW129438   1.868   4.070   6.815 -0.0607  0.5910  0.4149
 5934SOL    HW229439   1.953   4.148   6.713  0.4944 -0.8077 -0.7803
 5935SOL     OW29440   2.541   3.817   5.657  0.3769  0.0409  0.6217
 5935SOL    HW129441   2.462   3.813   5.603  0.3193  2.1766  0.5637
 5935SOL    HW229442   2.518   3.755   5.727  0.4040  1.1256  1.5834
 5936SOL     OW29443   1.810   4.690   3.740  0.8376  0.1197 -0.5750
 5936SOL    HW129444   1.790   4.689   3.647 -0.5303  0.9597 -0.2826
 5936SOL    HW229445   1.815   0.048   3.754 -1.5846 -0.2082  2.4341
 5937SOL     OW29446   2.133   3.645   1.442  0.6818  0.6531 -0.1106
 5937SOL    HW129447   2.156   3.674   1.530 -1.7145  0.0023  0.7221
 5937SOL    HW229448   2.166   3.556   1.454 -1.5491 -0.0195  1.0990
 5938SOL     OW29449   0.516   4.169  11.019 -0.3652  0.3739 -0.6449
 5938SOL    HW129450   0.596   4.139  11.062 -2.0929 -0.7847  1.7926
 5938SOL    HW229451   0.541   4.257  10.992  1.3680  0.8271  2.4684
 5939SOL     OW29452   4.490   2.223   9.401 -0.3056 -0.1990  0.1494
 5939SOL    HW129453   4.510   2.195   9.490 -0.0153  3.7393  1.3349
 5939SOL    HW229454   4.569   2.203   9.352  0.8618  0.9086  1.5668
 5940SOL     OW29455   3.096   0.467   5.264 -0.5845  0.2059 -0.2537
 5940SOL    HW129456   3.106   0.411   5.341 -0.2492  1.3079  0.5173
 5940SOL    HW229457   3.148   0.543   5.292  1.0963 -0.7132 -0.9295
 5941SOL     OW29458   2.733   0.735   9.079 -0.1855  0.0146 -0.2375
 5941SOL    HW129459   2.698   0.821   9.057 -0.1388  0.0046 -0.3486
 5941SOL    HW229460   2.789   0.721   9.003  0.1292 -1.2625  0.2254
 5942SOL     OW29461   2.338   2.814   1.148  0.2700 -0.0139 -0.1104
 5942SOL    HW129462   2.347   2.736   1.203 -0.9580 -0.1086 -0.0495
 5942SOL    HW229463   2.400   2.876   1.187 -0.9794  0.3300  1.3224
 5943SOL     OW29464   3.253   0.480  13.797  0.7308 -0.1089 -0.3712
 5943SOL    HW129465   3.171   0.528  13.805  0.7578 -0.0657 -0.3549
 5943SOL    HW229466   3.218   0.393  13.813 -2.0204  1.1384  0.4883
 5944SOL     OW29467   4.101   0.718   9.020  0.0985  0.6178  0.2486
 5944SOL    HW129468   4.110   0.651   9.087  0.7536  0.0562 -0.3897
 5944SOL    HW229469   4.133   0.798   9.060  1.1181 -0.2552  1.1616
 5945SOL     OW29470   2.182   3.690   5.810 -0.5737 -0.1169 -0.2464
 5945SOL    HW129471   2.108   3.653   5.761 -0.2822 -0.4985 -0.4000
 5945SOL    HW229472   2.141   3.758   5.864  0.1375  1.8231 -2.1692
 5946SOL     OW29473   1.880   1.520   7.046  0.6372  1.0349  0.0460
 5946SOL    HW129474   1.868   1.595   6.988  0.4912 -0.1265 -1.4201
 5946SOL    HW229475   1.839   1.560   7.123 -1.8000 -0.3393 -0.5312
 5947SOL     OW29476   3.776   3.551   8.571  0.2079  0.1938  0.3582
 5947SOL    HW129477   3.718   3.609   8.522 -2.3761 -1.7063  1.2270
 5947SOL    HW229478   3.786   3.604   8.650  1.0797 -0.6433  0.8041
 5948SOL     OW29479   1.258   1.588   0.445 -0.4137 -0.2416 -0.3993
 5948SOL    HW129480   1.237   1.583   0.352  0.0492 -1.7631 -0.4187
 5948SOL    HW229481   1.339   1.637   0.455 -0.3867 -0.5754  1.1102
 5949SOL     OW29482   1.263   2.648   8.283 -0.0463 -0.1124 -0.4928
 5949SOL    HW129483   1.197   2.691   8.228 -0.4389 -0.5866 -0.3917
 5949SOL    HW229484   1.212   2.630   8.362 -0.6899 -2.1280 -1.3609
 5950SOL     OW29485   1.471   2.781   9.971  0.0906 -0.4079  0.3676
 5950SOL    HW129486   1.442   2.707  10.026 -1.6293 -0.3850 -0.5171
 5950SOL    HW229487   1.436   2.759   9.885 -0.9618 -1.4018  1.0578
 5951SOL     OW29488   2.564   0.091   1.839 -0.2469 -0.0529  0.3811
 5951SOL    HW129489   2.514   0.139   1.905  0.7373  0.8075  0.5007
 5951SOL    HW229490   2.637   0.057   1.891 -1.7491 -1.7253  1.3844
 5952SOL     OW29491   2.294   4.730   2.792 -0.6365  0.0345  0.6997
 5952SOL    HW129492   2.228   0.057   2.820  0.1631  1.1220  0.0825
 5952SOL    HW229493   2.376   0.036   2.817 -0.0420 -0.3174 -0.6517
 5953SOL     OW29494   4.511   0.528   5.542  0.2588 -0.0317 -0.8507
 5953SOL    HW129495   4.562   0.466   5.490  1.0345 -0.1563  0.0607
 5953SOL    HW229496   4.462   0.478   5.607 -0.8691  0.5181 -1.2769
 5954SOL     OW29497   3.515   0.943   9.503 -0.0536 -0.7616 -0.0822
 5954SOL    HW129498   3.580   0.953   9.434 -0.0485  1.7415  0.2757
 5954SOL    HW229499   3.535   1.014   9.564  3.5314 -1.1408 -0.8054
 5955SOL     OW29500   1.938   1.691   2.028  0.0278 -0.6768 -0.5355
 5955SOL    HW129501   1.887   1.642   1.964  0.7942 -1.3926 -0.6077
 5955SOL    HW229502   1.951   1.772   1.980 -1.2657  0.7402  1.5199
 5956SOL     OW29503   2.199   2.377   2.381  0.5906  0.0431 -0.3268
 5956SOL    HW129504   2.228   2.389   2.471  2.0142  2.4066 -1.0956
 5956SOL    HW229505   2.183   2.468   2.356 -1.0671 -0.4246 -0.9840
 5957SOL     OW29506   3.648   1.199  12.949 -0.7075  0.2441  0.6057
 5957SOL    HW129507   3.705   1.252  12.892 -0.2428 -0.5022  0.3723
 5957SOL    HW229508   3.574   1.259  12.956 -0.6531  0.4045 -0.1820
 5958SOL     OW29509   2.392   0.887   4.968  0.5530  0.0024 -0.4561
 5958SOL    HW129510   2.384   0.904   5.062 -0.8812  1.3501 -0.8200
 5958SOL    HW229511   2.306   0.927   4.951 -0.2029 -1.4118  0.0122
 5959SOL     OW29512   3.375   1.553  15.461  0.6729  0.4360 -0.3760
 5959SOL    HW129513   3.378   1.499  15.382 -0.9364  0.3553 -0.3902
 5959SOL    HW229514   3.341   1.631  15.418  0.3259  0.2602 -0.4287
 5960SOL     OW29515   0.865   4.327   2.727  0.1563 -0.0322  0.1249
 5960SOL    HW129516   0.903   4.242   2.747  1.4560  0.1771 -1.4889
 5960SOL    HW229517   0.862   4.358   2.817 -0.1876 -0.5447  0.2903
 5961SOL     OW29518   2.595   4.630   1.354 -0.1314  0.0762  0.0315
 5961SOL    HW129519   2.578   4.634   1.448  0.9678 -0.0654  0.2431
 5961SOL    HW229520   2.684   4.595   1.360 -0.9841 -2.1989 -0.3009
 5962SOL     OW29521   3.697   1.827   5.865 -0.1948 -1.1536  0.2949
 5962SOL    HW129522   3.660   1.879   5.936 -3.2147  0.0604 -2.1598
 5962SOL    HW229523   3.658   1.742   5.887 -0.7082 -1.1603 -0.6309
 5963SOL     OW29524   0.483   4.179  11.316 -0.2889  0.1459  0.5087
 5963SOL    HW129525   0.543   4.112  11.349 -3.0800 -1.9327  1.3485
 5963SOL    HW229526   0.487   4.174  11.220 -0.8634 -1.1223  0.5542
 5964SOL     OW29527   1.633   3.594   1.038  0.1548 -0.7815 -0.5306
 5964SOL    HW129528   1.582   3.675   1.048  0.8929 -0.4213  0.3812
 5964SOL    HW229529   1.614   3.535   1.111 -0.6337 -0.1795 -0.2433
 5965SOL     OW29530   2.365   2.656  15.252  0.0196  0.1098 -0.5146
 5965SOL    HW129531   2.359   2.601  15.174 -1.9600  2.6091 -2.1054
 5965SOL    HW229532   2.320   2.736  15.224  0.4400  0.4893 -0.1028
 5966SOL     OW29533   3.277   1.584   8.387 -0.3914  0.6296  0.0662
 5966SOL    HW129534   3.293   1.581   8.292 -0.7287 -1.6161  0.0866
 5966SOL    HW229535   3.355   1.632   8.415 -0.3216  1.0046 -0.7724
 5967SOL     OW29536   1.618   1.448   4.101  0.3112  0.8458  0.7026
 5967SOL    HW129537   1.524   1.435   4.114  0.4954  0.4948  1.7029
 5967SOL    HW229538   1.642   1.537   4.126  1.0929  0.8194  0.0521
 5968SOL     OW29539   0.958   0.716  10.256 -0.0955  0.3210  0.0202
 5968SOL    HW129540   0.982   0.797  10.301  1.9368 -1.8533  2.7967
 5968SOL    HW229541   1.032   0.699  10.197  2.1961  3.1580  2.0914
 5969SOL     OW29542   1.740   4.616   8.361  0.2752 -0.0386 -0.2538
 5969SOL    HW129543   1.767   4.684   8.422  0.1483 -1.3178  1.2167
 5969SOL    HW229544   1.775   4.538   8.403  0.2162  1.2819  2.2100
 5970SOL     OW29545   1.038   1.595  10.746 -0.0717  0.3614  0.0711
 5970SOL    HW129546   0.973   1.584  10.677  0.4241 -1.2032 -0.1409
 5970SOL    HW229547   1.115   1.623  10.697 -0.7984  1.6406 -0.3525
 5971SOL     OW29548   4.018   3.936   6.709  0.5251  0.2182  0.3227
 5971SOL    HW129549   3.998   3.845   6.730  1.9866 -0.1243  0.2675
 5971SOL    HW229550   3.987   3.950   6.620  2.1339 -0.8362 -0.4124
 5972SOL     OW29551   3.933   2.241   9.152 -0.1610 -0.0384  0.5361
 5972SOL    HW129552   4.013   2.226   9.202  2.4488  0.4516 -3.4874
 5972SOL    HW229553   3.904   2.326   9.184  0.0481  0.1444  0.2434
 5973SOL     OW29554   0.303   3.231   8.061 -0.4415 -0.3962  0.1969
 5973SOL    HW129555   0.325   3.280   8.141 -2.1343 -0.2264  0.5816
 5973SOL    HW229556   0.257   3.154   8.095 -0.4148 -0.7989 -0.6875
 5974SOL     OW29557   4.173   2.431   4.684 -0.0934 -0.0844  0.3979
 5974SOL    HW129558   4.139   2.415   4.596  0.0171  4.0105 -0.3655
 5974SOL    HW229559   4.145   2.522   4.691 -1.6990 -0.7180  2.3723
 5975SOL     OW29560   1.316   0.531   4.993  0.3580 -0.1263  0.3988
 5975SOL    HW129561   1.307   0.585   5.072  1.0998 -0.1832  0.5251
 5975SOL    HW229562   1.275   0.446   5.008 -2.9444  1.4379  0.1714
 5976SOL     OW29563   2.463   1.571  12.650 -0.8236 -0.1701 -0.0534
 5976SOL    HW129564   2.514   1.641  12.608 -1.7901  1.1662  0.9672
 5976SOL    HW229565   2.537   1.526  12.691 -2.0062 -0.4239  1.7867
 5977SOL     OW29566   0.325   2.436   5.811 -0.1452  0.0631 -0.1061
 5977SOL    HW129567   0.354   2.446   5.901 -0.2943 -0.8543  0.0512
 5977SOL    HW229568   0.409   2.430   5.765  0.6251 -0.8887  1.4300
 5978SOL     OW29569   0.265   4.621   1.144 -0.1488 -0.4731  0.0451
 5978SOL    HW129570   0.266   4.538   1.096 -0.4633 -0.4399 -0.0181
 5978SOL    HW229571   0.308   4.607   1.228 -0.6654 -0.6545  0.2774
 5979SOL     OW29572   2.869   0.806   2.488 -0.2308  0.7946  0.0702
 5979SOL    HW129573   2.881   0.886   2.540 -1.6599  0.8061  0.3906
 5979SOL    HW229574   2.774   0.792   2.495  0.0101  0.1467  2.1497
 5980SOL     OW29575   2.703   3.224   9.528 -0.1245  0.1824  0.0117
 5980SOL    HW129576   2.753   3.200   9.606 -0.8853 -1.4096  0.0081
 5980SOL    HW229577   2.615   3.217   9.564 -1.5042 -0.2297 -3.5321
 5981SOL     OW29578   3.546   0.340   6.974 -0.1946 -0.1384  0.3189
 5981SOL    HW129579   3.625   0.302   7.011  1.2853  0.1987 -2.5280
 5981SOL    HW229580   3.507   0.382   7.051 -1.1800  0.5605 -0.5477
 5982SOL     OW29581   2.699   4.368  16.596  0.1394  0.1533 -0.0650
 5982SOL    HW129582   2.732   4.403  16.513 -0.4179 -1.7319 -1.0759
 5982SOL    HW229583   2.744   4.284  16.599 -1.2799 -0.5823  0.4745
 5983SOL     OW29584   4.119   1.430   5.226  0.6050 -0.2327  0.1298
 5983SOL    HW129585   4.212   1.409   5.237  1.1577  1.6020 -1.0191
 5983SOL    HW229586   4.116   1.525   5.236 -0.3123 -0.2617  0.1258
 5984SOL     OW29587   0.661   2.937   2.913  0.0939  0.1583  0.3200
 5984SOL    HW129588   0.629   2.953   3.001 -0.7800  1.0745 -0.1626
 5984SOL    HW229589   0.735   2.876   2.917 -1.8884 -2.2750  0.0675
 5985SOL     OW29590   4.648   0.061   8.715  0.7236 -0.0096  0.8233
 5985SOL    HW129591   4.566   0.018   8.740 -0.5587  2.1595  0.3015
 5985SOL    HW229592   4.622   0.089   8.627 -0.0363 -2.4890  0.2437
 5986SOL     OW29593   3.467   3.497  11.649  0.2718 -0.2452  0.3530
 5986SOL    HW129594   3.547   3.445  11.649  1.1467  1.1042  1.1777
 5986SOL    HW229595   3.465   3.531  11.738  1.1517 -1.1815  0.7238
 5987SOL     OW29596   1.075   1.454  14.917 -0.2350  0.3097 -0.0143
 5987SOL    HW129597   1.050   1.546  14.907  1.0473  0.3962 -2.5563
 5987SOL    HW229598   1.147   1.447  14.980  0.3988 -0.2719 -0.8050
 5988SOL     OW29599   1.329   0.358   7.601 -0.4524 -0.3789  0.1060
 5988SOL    HW129600   1.402   0.414   7.576  0.5968 -1.2464  1.2291
 5988SOL    HW229601   1.256   0.418   7.584 -0.3394 -0.5013 -0.8093
 5989SOL     OW29602   3.623   4.025   5.955 -0.4873  0.2629 -0.6859
 5989SOL    HW129603   3.571   3.946   5.971 -1.1307  0.6115 -1.0509
 5989SOL    HW229604   3.553   4.084   5.926 -0.8963  0.4410  0.6759
 5990SOL     OW29605   0.019   0.718   5.998 -0.5881  0.0230  0.1300
 5990SOL    HW129606   0.023   0.625   6.023  0.7462  0.8988  3.1909
 5990SOL    HW229607   4.724   0.704   5.908  1.2938 -0.7847 -0.4107
 5991SOL     OW29608   0.208   0.248  11.254  0.3546  1.0889  0.1822
 5991SOL    HW129609   0.236   0.329  11.212  0.9381  0.5718 -0.4193
 5991SOL    HW229610   0.217   0.272  11.346  0.9200  1.5208  0.0129
 5992SOL     OW29611   2.768   4.039   3.750 -0.4289  0.4739  0.3724
 5992SOL    HW129612   2.722   4.053   3.667 -2.6789 -2.8421  1.0662
 5992SOL    HW229613   2.823   4.117   3.742  0.9602 -0.4286  1.0639
 5993SOL     OW29614   1.531   4.696   4.697  0.2110  0.1922  0.3933
 5993SOL    HW129615   1.441   4.689   4.729  0.1952  1.1983  0.5671
 5993SOL    HW229616   1.583   4.667   4.772 -1.9843  0.9185  2.1998
 5994SOL     OW29617   4.435   0.075   3.522 -0.5949 -0.1025  0.4043
 5994SOL    HW129618   4.362   0.039   3.573 -1.2591  1.1407  0.3438
 5994SOL    HW229619   4.472   4.736   3.476 -1.4269 -0.1280 -0.2288
 5995SOL     OW29620   2.243   3.225   5.022  0.0861 -0.3118  0.4271
 5995SOL    HW129621   2.157   3.193   5.048  0.2428 -0.7246  0.4383
 5995SOL    HW229622   2.232   3.263   4.935  1.5516 -1.2413 -0.1606
 5996SOL     OW29623   3.606   2.215   5.413  0.6028 -0.1141  0.5146
 5996SOL    HW129624   3.665   2.275   5.460 -0.5121  0.5166  1.1114
 5996SOL    HW229625   3.595   2.261   5.330  0.8350 -1.2624 -0.1446
 5997SOL     OW29626   2.003   4.591   3.398 -0.0588 -0.3047 -0.2091
 5997SOL    HW129627   2.058   4.665   3.422 -1.3686  0.6892 -0.2789
 5997SOL    HW229628   2.009   4.601   3.303  3.4572  3.5705  0.4428
 5998SOL     OW29629   0.210   0.532   8.211  0.6654 -0.8868  0.8424
 5998SOL    HW129630   0.142   0.520   8.145  1.1576  0.7768  0.0554
 5998SOL    HW229631   0.238   0.617   8.178  0.6703 -0.7745  1.1404
 5999SOL     OW29632   1.934   3.378   5.956  0.5736  0.3858 -0.1685
 5999SOL    HW129633   1.919   3.436   6.031  1.9569  0.5102 -0.0034
 5999SOL    HW229634   1.969   3.304   6.005 -0.5010 -0.0719 -0.0900
 6000SOL     OW29635   0.078   4.546   9.186  0.5014 -0.2324 -0.0588
 6000SOL    HW129636   0.080   4.608   9.258 -2.5249  0.7201 -0.8231
 6000SOL    HW229637   0.067   4.464   9.235  0.5308 -0.9837 -1.2988
 6001SOL     OW29638   3.834   4.277   4.802  0.3830 -0.0734  0.2508
 6001SOL    HW129639   3.906   4.301   4.743  0.7005 -3.1141 -0.6061
 6001SOL    HW229640   3.888   4.229   4.865  1.3136 -0.8190 -1.1123
 6002SOL     OW29641   2.065   1.670   6.787  0.3515 -0.3800  0.1680
 6002SOL    HW129642   2.139   1.681   6.846  1.3577  1.0419 -1.3445
 6002SOL    HW229643   2.080   1.577   6.772 -1.9939 -0.9308  1.2525
 6003SOL     OW29644   1.142   4.006   2.108  0.0964  0.4418  0.0715
 6003SOL    HW129645   1.178   4.035   2.025 -0.5832 -0.0650 -0.4009
 6003SOL    HW229646   1.091   4.086   2.124  1.8876  1.7577 -0.7357
 6004SOL     OW29647   4.397   3.051  11.964  0.1354  0.4782  0.0029
 6004SOL    HW129648   4.307   3.046  11.996 -0.0870 -0.1294 -0.6981
 6004SOL    HW229649   4.440   2.996  12.029 -0.8756  0.7844  0.9300
 6005SOL     OW29650   4.094   4.418   9.842  0.3519  0.0802 -0.3201
 6005SOL    HW129651   4.139   4.487   9.794  0.8065  0.1847  0.2649
 6005SOL    HW229652   4.056   4.473   9.910 -1.1325 -0.6339 -0.5782
 6006SOL     OW29653   3.894   2.858   5.367 -0.4859 -0.2529 -0.1711
 6006SOL    HW129654   3.888   2.916   5.291  0.3529 -1.1781 -0.9369
 6006SOL    HW229655   3.954   2.792   5.332 -0.5918 -0.6597  0.4274
 6007SOL     OW29656   1.698   2.428   1.232 -0.3701  0.0160 -0.5948
 6007SOL    HW129657   1.703   2.390   1.145  1.3794  2.8466 -1.7149
 6007SOL    HW229658   1.674   2.519   1.215 -1.5691  0.0293  1.1480
 6008SOL     OW29659   1.368   3.734   7.542 -0.0371 -0.2855  0.0219
 6008SOL    HW129660   1.404   3.800   7.482 -0.9324  0.2882  0.1113
 6008SOL    HW229661   1.406   3.753   7.628 -1.5947  2.1458  0.1709
 6009SOL     OW29662   3.917   0.504   8.428 -0.2986 -0.1541 -0.3350
 6009SOL    HW129663   3.996   0.453   8.445 -0.2072 -0.0486 -0.4390
 6009SOL    HW229664   3.931   0.582   8.482  1.1833  0.7913 -2.0615
 6010SOL     OW29665   4.339   3.987  14.170 -0.0512  0.4748 -0.1412
 6010SOL    HW129666   4.375   4.013  14.085  0.9412 -0.2046  0.0665
 6010SOL    HW229667   4.252   3.971  14.135 -0.3589  0.7836  0.4848
 6011SOL     OW29668   3.977   1.503  13.882 -0.3836  0.2226  0.0136
 6011SOL    HW129669   3.905   1.561  13.905 -1.5119 -0.8292 -0.8447
 6011SOL    HW229670   3.952   1.427  13.935  0.3910  0.2584  0.4256
 6012SOL     OW29671   1.733   3.156   1.555 -0.1207 -0.2762 -0.2676
 6012SOL    HW129672   1.692   3.072   1.571  3.5467 -1.7388  1.4193
 6012SOL    HW229673   1.714   3.165   1.462 -1.3700 -4.3905 -0.3681
 6013SOL     OW29674   2.390   2.609   2.423  0.2250 -0.8889 -0.2327
 6013SOL    HW129675   2.378   2.592   2.330  2.8091 -2.1666 -0.3435
 6013SOL    HW229676   2.303   2.644   2.442  1.3653  0.8071  1.7954
 6014SOL     OW29677   3.989   1.451   4.991 -0.3476 -0.5459  0.2646
 6014SOL    HW129678   4.022   1.460   5.081 -0.8709 -1.0099  0.5018
 6014SOL    HW229679   4.070   1.477   4.948  0.1314 -1.5506  0.5753
 6015SOL     OW29680   2.528   0.480   2.138  0.0420 -0.1343  0.0528
 6015SOL    HW129681   2.587   0.463   2.211  2.3012  0.1083 -1.7231
 6015SOL    HW229682   2.514   0.396   2.094 -1.2412 -0.6369  1.4174
 6016SOL     OW29683   0.898   0.016  16.500 -0.3090  1.0145  0.2324
 6016SOL    HW129684   0.968   0.069  16.537  0.8818  0.8652 -1.8431
 6016SOL    HW229685   0.856   0.083  16.446  1.2371  1.6785 -0.1271
 6017SOL     OW29686   1.015   0.927   5.679 -0.2492  1.0201  0.3441
 6017SOL    HW129687   1.082   0.907   5.744 -1.0924 -1.5323  0.4180
 6017SOL    HW229688   0.990   1.018   5.692 -0.0786  1.1277 -0.0717
 6018SOL     OW29689   0.425   2.648   6.086 -0.3314 -0.2948 -0.0634
 6018SOL    HW129690   0.517   2.619   6.084 -0.1758  0.3067 -1.3171
 6018SOL    HW229691   0.427   2.734   6.045  1.7319 -0.6566 -0.7311
 6019SOL     OW29692   4.397   0.927   4.072 -0.6998  0.1159  0.5652
 6019SOL    HW129693   4.370   0.887   4.155  0.3095 -0.5580  0.5708
 6019SOL    HW229694   4.382   0.859   4.006  1.7765  1.8128 -1.7439
 6020SOL     OW29695   1.486   2.685   3.656  0.0638 -0.2076  0.6024
 6020SOL    HW129696   1.467   2.756   3.596  1.0541  0.5785  1.2103
 6020SOL    HW229697   1.454   2.610   3.606 -1.9032  0.9435  0.1777
 6021SOL     OW29698   3.077   0.777   7.625  0.1882 -0.1308  0.0852
 6021SOL    HW129699   2.994   0.824   7.634  1.4184  2.0694 -0.1954
 6021SOL    HW229700   3.044   0.691   7.652  1.3062 -0.5784  0.0138
 6022SOL     OW29701   1.372   4.435   5.779  0.1517 -0.1044 -0.3980
 6022SOL    HW129702   1.332   4.509   5.825  0.1981 -0.7795  0.7318
 6022SOL    HW229703   1.327   4.357   5.812  0.2863 -1.0789 -2.4832
 6023SOL     OW29704   1.942   1.407   4.360  0.1889  0.3376 -0.4444
 6023SOL    HW129705   1.984   1.372   4.281  0.3107 -2.7955  1.0359
 6023SOL    HW229706   1.938   1.324   4.407  0.9711  1.4764  1.6329
 6024SOL     OW29707   3.808   2.274  17.706  0.3446  0.1019  0.5092
 6024SOL    HW129708   3.795   2.360   0.002 -0.9092  0.8331 -1.4474
 6024SOL    HW229709   3.834   2.309  17.621  0.8824  0.2533  0.7399
 6025SOL     OW29710   3.165   2.012   2.185 -0.5265 -0.0214 -0.1606
 6025SOL    HW129711   3.180   2.073   2.114 -1.6717  1.5064  0.9066
 6025SOL    HW229712   3.207   2.060   2.256  1.3073 -2.9858  0.7536
 6026SOL     OW29713   0.666   3.621   4.016 -0.2402 -0.2211  0.1192
 6026SOL    HW129714   0.631   3.583   4.097  1.4289  0.1154  1.0012
 6026SOL    HW229715   0.584   3.661   3.987  1.2594  0.8491 -2.7144
 6027SOL     OW29716   2.661   2.357   5.630 -0.3009  0.2062 -0.2023
 6027SOL    HW129717   2.602   2.324   5.698 -1.4347  2.6399 -0.0046
 6027SOL    HW229718   2.722   2.284   5.624 -1.2385 -0.8016  2.4741
 6028SOL     OW29719   2.353   4.136  10.105  0.6233  0.5880  0.1113
 6028SOL    HW129720   2.374   4.204  10.169  2.1172 -1.0229  1.3438
 6028SOL    HW229721   2.378   4.061  10.160 -1.3288  0.3620  0.6989
 6029SOL     OW29722   1.877   0.932   3.476  0.5555  0.1913 -0.2341
 6029SOL    HW129723   1.849   0.875   3.548  1.0052  1.1431  0.7025
 6029SOL    HW229724   1.838   0.880   3.406  3.3486  0.8528 -2.2958
 6030SOL     OW29725   3.104   3.258   6.600  0.4987  0.0949  1.0526
 6030SOL    HW129726   3.103   3.303   6.685 -0.7918 -2.5032  2.4253
 6030SOL    HW229727   3.096   3.324   6.531 -0.5841  0.2703  1.3311
 6031SOL     OW29728   0.622   4.529   1.045  0.0055 -0.5018  0.2523
 6031SOL    HW129729   0.716   4.517   1.057  0.0989 -0.9243 -0.8999
 6031SOL    HW229730   0.596   4.580   1.122  2.1166  0.1265  0.5545
 6032SOL     OW29731   1.139   4.686   7.826  0.4275  0.3844 -0.2145
 6032SOL    HW129732   1.217   0.003   7.820  0.1816  1.0163  2.0932
 6032SOL    HW229733   1.130   4.677   7.921 -0.5373  1.0928 -0.2417
 6033SOL     OW29734   2.299   1.900  10.684 -0.7729  0.1026 -0.0694
 6033SOL    HW129735   2.290   1.965  10.753 -1.4487 -0.1172  0.0507
 6033SOL    HW229736   2.383   1.919  10.644  0.4577 -1.4242  1.7673
 6034SOL     OW29737   1.265   1.329   4.061 -0.5455 -0.4284 -0.2235
 6034SOL    HW129738   1.194   1.269   4.038 -1.8283  0.7441  0.7002
 6034SOL    HW229739   1.263   1.401   3.997 -0.1739 -0.4405 -0.2467
 6035SOL     OW29740   2.296   4.285   0.903 -0.0414  0.0493 -0.1445
 6035SOL    HW129741   2.264   4.297   0.992 -0.1255 -0.8084 -0.0562
 6035SOL    HW229742   2.217   4.294   0.850  0.1174  1.9191 -0.0602
 6036SOL     OW29743   3.116   4.216   7.322  0.0648 -0.1297  0.1352
 6036SOL    HW129744   3.104   4.307   7.349 -0.8087 -0.3602  0.5351
 6036SOL    HW229745   3.131   4.176   7.408  0.3172 -0.2118  0.0520
 6037SOL     OW29746   2.111   2.271  11.714 -0.9015 -0.0847 -0.6042
 6037SOL    HW129747   2.097   2.344  11.774  0.1992 -1.3667  1.2200
 6037SOL    HW229748   2.196   2.247  11.751 -1.0909  1.8536  1.0487
 6038SOL     OW29749   0.956   1.221   8.276  0.1002  0.5886  0.3363
 6038SOL    HW129750   0.994   1.137   8.303  0.1486  1.1325  1.9533
 6038SOL    HW229751   0.888   1.232   8.342 -1.4759 -0.4882 -1.1129
 6039SOL     OW29752   4.331   2.526   9.010 -0.5492 -0.6712  0.1928
 6039SOL    HW129753   4.247   2.504   8.969 -1.4479  2.5802  0.3371
 6039SOL    HW229754   4.298   2.561   9.093  1.3427 -0.4576  0.8608
 6040SOL     OW29755   0.905   0.529   7.210  0.1033 -0.3551 -0.1306
 6040SOL    HW129756   0.949   0.450   7.181  0.6895  0.2471 -0.8907
 6040SOL    HW229757   0.812   0.506   7.212  0.2217 -0.9015 -1.0052
 6041SOL     OW29758   3.631   3.678   8.390  0.7533 -0.9196 -0.6108
 6041SOL    HW129759   3.609   3.608   8.328  1.8603 -0.7485 -1.2029
 6041SOL    HW229760   3.559   3.678   8.452  2.6443 -1.0111  1.5918
 6042SOL     OW29761   0.740   0.417   7.580  0.2577  0.1874 -0.2796
 6042SOL    HW129762   0.703   0.341   7.535 -2.2494  0.8988  0.5479
 6042SOL    HW229763   0.695   0.419   7.665 -1.4741  2.4669 -1.2555
 6043SOL     OW29764   2.151   0.155   0.302 -0.6755  0.0438  0.1216
 6043SOL    HW129765   2.166   0.062   0.284  0.6903  0.7008 -1.9875
 6043SOL    HW229766   2.059   0.152   0.331 -0.0053  0.7312  2.2827
 6044SOL     OW29767   3.502   3.866   3.103  0.1638  0.4953  0.0735
 6044SOL    HW129768   3.535   3.793   3.156 -1.2479 -1.4268 -1.7073
 6044SOL    HW229769   3.415   3.831   3.083 -0.8109  1.8713  1.9659
 6045SOL     OW29770   0.888   2.585   8.852  0.3514 -0.0663 -0.2935
 6045SOL    HW129771   0.904   2.671   8.891 -0.4114 -0.2397  0.3878
 6045SOL    HW229772   0.962   2.530   8.880 -0.4241 -0.4163  1.0921
 6046SOL     OW29773   3.838   0.919   7.121 -0.5233 -0.7328 -0.1705
 6046SOL    HW129774   3.772   0.946   7.185 -1.9303 -2.2500 -0.9855
 6046SOL    HW229775   3.806   0.968   7.045 -0.4678 -0.1945  0.1468
 6047SOL     OW29776   1.545   4.334   7.585  0.3735 -0.2282  0.5295
 6047SOL    HW129777   1.551   4.422   7.547  0.2935 -0.1682  0.6575
 6047SOL    HW229778   1.635   4.326   7.614  0.0619  0.1405  1.5962
 6048SOL     OW29779   1.098   4.376   2.554 -0.1470 -0.3631  0.1205
 6048SOL    HW129780   1.071   4.462   2.587  3.1990  0.1280  1.6204
 6048SOL    HW229781   1.021   4.330   2.589 -0.2977  1.1769  1.8280
 6049SOL     OW29782   4.219   1.779   6.771 -0.2234  0.2844 -0.1144
 6049SOL    HW129783   4.213   1.730   6.689  1.9865 -1.8872  1.0577
 6049SOL    HW229784   4.275   1.853   6.750 -0.4547  0.1333 -1.2647
 6050SOL     OW29785   2.956   3.238   6.125 -0.6031  0.2885 -0.9273
 6050SOL    HW129786   2.956   3.332   6.140 -0.8421 -0.2092  2.0744
 6050SOL    HW229787   2.933   3.212   6.214  0.6616  2.1846 -0.0680
 6051SOL     OW29788   0.924   4.455  14.850  0.2710  0.0140 -0.4209
 6051SOL    HW129789   0.849   4.410  14.812 -1.0648  1.8749  0.0031
 6051SOL    HW229790   0.878   4.529  14.889  0.2242 -1.7384  2.7923
 6052SOL     OW29791   1.580   2.166   1.362  0.1640  0.5002  0.0691
 6052SOL    HW129792   1.623   2.245   1.328 -1.6372  1.3326 -0.2698
 6052SOL    HW229793   1.649   2.100   1.357  0.6054  1.0575 -1.1111
 6053SOL     OW29794   1.832   4.152   3.935  0.2573  0.5822 -0.1041
 6053SOL    HW129795   1.835   4.170   4.029  1.5679 -0.1192 -0.0130
 6053SOL    HW229796   1.747   4.186   3.908 -0.6578  0.0468  2.0372
 6054SOL     OW29797   3.440   4.210   5.874 -0.3133 -0.2453  0.0074
 6054SOL    HW129798   3.476   4.257   5.799 -0.1761 -2.9332 -1.6187
 6054SOL    HW229799   3.350   4.240   5.862 -0.6151 -0.3249  2.0559
 6055SOL     OW29800   2.797   3.949   1.020 -0.4499  0.4593 -0.2018
 6055SOL    HW129801   2.787   4.006   1.097 -0.7120 -2.2236  1.7317
 6055SOL    HW229802   2.855   3.881   1.055  1.2024  1.2640 -1.3682
 6056SOL     OW29803   0.769   0.012   2.019 -0.5255 -0.4891 -0.5909
 6056SOL    HW129804   0.696   4.702   2.059 -0.1507  0.8597  1.6717
 6056SOL    HW229805   0.793   0.066   2.094  1.4877  1.0684 -2.3596
 6057SOL     OW29806   4.661   3.708  12.707  0.0843 -0.3874 -0.4164
 6057SOL    HW129807   4.624   3.626  12.674  0.5428 -1.2163  1.0667
 6057SOL    HW229808   4.580   3.757  12.713 -0.5911 -1.7525  1.6169
 6058SOL     OW29809   4.467   3.378   8.681 -0.7293 -0.1537  0.2546
 6058SOL    HW129810   4.412   3.443   8.724  2.5882  1.9520  1.3186
 6058SOL    HW229811   4.446   3.402   8.590  1.2229 -0.9658 -0.4151
 6059SOL     OW29812   2.101   4.174  14.295 -0.1233 -0.8527 -0.4305
 6059SOL    HW129813   2.172   4.235  14.274 -0.4446 -0.8504 -1.5541
 6059SOL    HW229814   2.041   4.206  14.227 -2.7874 -0.4843  2.0583
 6060SOL     OW29815   1.370   0.042   5.105 -0.4835 -0.6192 -0.1155
 6060SOL    HW129816   1.287   0.077   5.139  0.8751  2.3612  0.1616
 6060SOL    HW229817   1.401   0.128   5.077  0.5067 -1.1892 -0.7800
 6061SOL     OW29818   3.255   0.349  11.739  0.6796 -0.2947 -0.1382
 6061SOL    HW129819   3.270   0.300  11.658 -2.8302 -1.2774 -0.1463
 6061SOL    HW229820   3.288   0.434  11.710 -2.6266  0.9387 -0.2259
 6062SOL     OW29821   0.868   0.450   3.514 -0.0485  0.3278  0.0238
 6062SOL    HW129822   0.932   0.517   3.492 -2.1212  2.6684  1.0662
 6062SOL    HW229823   0.818   0.513   3.567 -0.5098  0.3000 -0.3767
 6063SOL     OW29824   3.333   0.666   4.747 -0.1532  0.0263  0.6814
 6063SOL    HW129825   3.246   0.680   4.707 -0.9383  1.1681  2.8066
 6063SOL    HW229826   3.376   0.603   4.689 -1.1436 -0.6724  0.7000
 6064SOL     OW29827   2.072   3.647   8.779  0.1525  1.1457 -0.0211
 6064SOL    HW129828   1.998   3.692   8.740  0.2271  2.2244  1.0768
 6064SOL    HW229829   2.049   3.632   8.871  2.2324  1.7077  0.5995
 6065SOL     OW29830   2.071   2.954  17.428 -0.3938 -0.1666  0.0560
 6065SOL    HW129831   2.043   2.876  17.380  1.6301 -1.0644  0.3418
 6065SOL    HW229832   2.161   2.925  17.438 -0.5442 -0.6872 -0.0937
 6066SOL     OW29833   3.452   4.041   4.892  0.0662 -0.9276  0.6365
 6066SOL    HW129834   3.528   3.983   4.890  0.4517 -0.4126  0.2152
 6066SOL    HW229835   3.487   4.124   4.923 -0.3610 -0.3818 -0.3201
 6067SOL     OW29836   4.182   2.770  14.694 -0.0414  0.3113 -0.5049
 6067SOL    HW129837   4.148   2.793  14.607  0.7918 -2.2695 -1.5065
 6067SOL    HW229838   4.240   2.695  14.678  0.1056  0.4930 -0.8295
 6068SOL     OW29839   3.378   1.945   9.064 -0.6242 -0.3243 -0.5713
 6068SOL    HW129840   3.339   1.888   9.131 -0.2866 -0.1573 -0.2346
 6068SOL    HW229841   3.393   2.016   9.126  2.9528 -2.3889  0.9055
 6069SOL     OW29842   2.394   0.441  11.851 -0.1665 -0.2206 -0.4708
 6069SOL    HW129843   2.324   0.504  11.868  1.7176  1.7428 -0.0121
 6069SOL    HW229844   2.438   0.433  11.935 -0.4628 -0.1827 -0.3138
 6070SOL     OW29845   4.307   2.846   5.901  1.1116  0.0287  0.1441
 6070SOL    HW129846   4.328   2.902   5.976  0.6407 -1.3770  1.3164
 6070SOL    HW229847   4.325   2.757   5.931  0.0347  0.2564  1.4811
 6071SOL     OW29848   0.500   1.728   0.861 -0.3960  0.3305 -0.2568
 6071SOL    HW129849   0.448   1.780   0.799  2.1663  0.1439 -2.5202
 6071SOL    HW229850   0.421   1.706   0.911 -0.0867  0.6268  0.3715
 6072SOL     OW29851   4.540   2.363   8.378 -0.0074  0.7631  0.0573
 6072SOL    HW129852   4.512   2.271   8.369  0.9004  0.2513  2.3414
 6072SOL    HW229853   4.560   2.391   8.289  0.5022  0.6978  0.1455
 6073SOL     OW29854   1.950   2.398   3.570 -0.5897  0.0240  0.3834
 6073SOL    HW129855   1.891   2.414   3.644 -0.6096 -0.0458  0.3824
 6073SOL    HW229856   1.942   2.303   3.561 -2.0019  0.2465 -0.7908
 6074SOL     OW29857   1.131   4.605   2.195  0.4506  0.4024  0.1659
 6074SOL    HW129858   1.042   4.605   2.232 -0.2274 -0.5760 -1.4510
 6074SOL    HW229859   1.119   4.563   2.109  0.8918 -0.5014  0.5528
 6075SOL     OW29860   1.375   0.543   1.123  0.1487  0.1458  0.1652
 6075SOL    HW129861   1.295   0.595   1.111 -0.5557 -0.9135  0.2417
 6075SOL    HW229862   1.430   0.620   1.138  0.6702 -0.4837  1.4366
 6076SOL     OW29863   3.638   1.752   9.711 -0.1076  0.0388  0.1180
 6076SOL    HW129864   3.565   1.803   9.676  0.1661 -0.6192 -1.4440
 6076SOL    HW229865   3.716   1.806   9.715 -0.8070  1.0053  0.7121
 6077SOL     OW29866   3.433   2.601  10.479  0.0156  0.1787 -0.5360
 6077SOL    HW129867   3.429   2.650  10.561  0.8550 -1.5521  0.5410
 6077SOL    HW229868   3.338   2.588  10.472  0.1582 -0.4821 -1.2295
 6078SOL     OW29869   4.574   2.881   4.292 -0.0795  0.1083 -0.2538
 6078SOL    HW129870   4.530   2.805   4.254 -2.0487  0.5815  1.1201
 6078SOL    HW229871   4.623   2.909   4.214 -0.8785  1.4005 -0.2958
 6079SOL     OW29872   0.559   0.706   6.350 -0.5917 -0.1316 -0.4988
 6079SOL    HW129873   0.642   0.745   6.321  0.2610 -1.3368  0.3036
 6079SOL    HW229874   0.552   0.772   6.418  0.2498  1.4014 -1.9150
 6080SOL     OW29875   4.716   1.428  17.437 -0.1586 -0.5256  0.2158
 6080SOL    HW129876   0.071   1.447  17.454  0.0659 -0.3463 -1.1467
 6080SOL    HW229877   0.003   1.352  17.384  0.1978 -0.1633 -0.1402
 6081SOL     OW29878   0.390   1.677  11.530  0.0011  0.0012  0.1643
 6081SOL    HW129879   0.408   1.592  11.569  0.9026  0.2680  0.3273
 6081SOL    HW229880   0.423   1.668  11.440 -2.9578 -1.9243 -0.7427
 6082SOL     OW29881   3.169   3.912   8.539 -0.1857 -0.4110  0.0204
 6082SOL    HW129882   3.208   3.869   8.463  1.6600  2.4470 -0.6572
 6082SOL    HW229883   3.247   3.922   8.593 -0.8979 -0.5329  1.0677
 6083SOL     OW29884   4.529   4.720   9.500 -0.2944  0.3868  0.3502
 6083SOL    HW129885   4.614   4.676   9.501  0.3163  1.5654  0.1213
 6083SOL    HW229886   4.561   0.069   9.528 -0.2558  0.3553  0.4026
 6084SOL     OW29887   0.446   3.352   1.319 -0.1379 -0.1541  0.6508
 6084SOL    HW129888   0.513   3.296   1.359 -1.3894 -0.5716  2.1269
 6084SOL    HW229889   0.408   3.291   1.256 -0.1514 -0.9345  1.4113
 6085SOL     OW29890   3.894   4.478   8.149 -0.1675  0.3642  0.6981
 6085SOL    HW129891   3.838   4.401   8.163  0.1343 -0.0348 -0.2590
 6085SOL    HW229892   3.837   4.537   8.197 -0.8470 -0.5379  0.9972
 6086SOL     OW29893   1.186   2.985   0.839 -0.5237 -0.0643 -0.7182
 6086SOL    HW129894   1.264   2.947   0.881 -0.7673 -1.4557 -1.5071
 6086SOL    HW229895   1.135   3.027   0.908  0.3352  0.8671 -0.6403
 6087SOL     OW29896   3.066   1.589  12.190 -0.2335  0.1376  0.0658
 6087SOL    HW129897   3.072   1.497  12.218  0.0667  0.7671  2.0913
 6087SOL    HW229898   3.117   1.626  12.262  0.9259 -1.1990 -0.0694
 6088SOL     OW29899   4.186   0.604  13.382 -0.0813 -0.0637  0.1597
 6088SOL    HW129900   4.265   0.554  13.403 -1.0446 -1.0431  1.4005
 6088SOL    HW229901   4.193   0.627  13.289 -2.3602  0.6942  0.1696
 6089SOL     OW29902   2.569   0.439   0.054  0.0883  0.1639 -0.4186
 6089SOL    HW129903   2.542   0.348   0.055  1.4816 -0.2542 -0.3757
 6089SOL    HW229904   2.644   0.447   0.113 -1.5427 -1.3158  1.8439
 6090SOL     OW29905   0.826   3.424   9.981  0.1879 -0.1763  0.8816
 6090SOL    HW129906   0.911   3.417  10.023  0.1960 -0.8705  0.7509
 6090SOL    HW229907   0.773   3.466  10.049 -0.2936 -1.3313  1.2201
 6091SOL     OW29908   0.197   4.223   8.125  0.4053 -0.2197  0.1793
 6091SOL    HW129909   0.254   4.261   8.058 -0.1417  1.9340  0.9395
 6091SOL    HW229910   0.209   4.128   8.122 -1.9795 -0.5399  1.0725
 6092SOL     OW29911   3.023   3.722   2.752  0.0215  0.0391  0.4962
 6092SOL    HW129912   2.972   3.664   2.697 -0.6735  0.3626  0.8060
 6092SOL    HW229913   3.056   3.657   2.814  2.7441  0.6233 -0.3288
 6093SOL     OW29914   0.930   3.226   6.631  0.2776  0.2140 -0.0579
 6093SOL    HW129915   1.019   3.234   6.666  0.3485 -0.1439 -0.1673
 6093SOL    HW229916   0.882   3.240   6.713  2.0200  2.9317  0.5208
 6094SOL     OW29917   0.537   2.733  16.089 -0.4490  0.0555  0.4343
 6094SOL    HW129918   0.586   2.775  16.018 -0.1224 -0.3480  0.4228
 6094SOL    HW229919   0.588   2.652  16.097 -1.0735 -0.4620 -0.8462
 6095SOL     OW29920   1.123   3.809   8.144 -0.3096 -0.0093 -0.2925
 6095SOL    HW129921   1.042   3.836   8.186  0.4653  1.3891  0.2967
 6095SOL    HW229922   1.176   3.785   8.219  1.4236  1.4056 -1.0540
 6096SOL     OW29923   4.349   4.297   3.500 -0.0430 -0.1051 -0.0685
 6096SOL    HW129924   4.286   4.225   3.492 -1.5891  1.1469  0.9044
 6096SOL    HW229925   4.366   4.311   3.407  0.5569 -2.1005 -0.2665
 6097SOL     OW29926   1.939   0.534   1.685  0.1483 -0.9857  0.1486
 6097SOL    HW129927   1.939   0.620   1.642 -3.8835 -0.8413  0.4641
 6097SOL    HW229928   1.995   0.484   1.627  0.6146  1.6644 -1.6725
 6098SOL     OW29929   3.720   1.873   5.157  0.0575  0.1611 -0.1362
 6098SOL    HW129930   3.786   1.915   5.104  0.4108 -1.5104 -1.0093
 6098SOL    HW229931   3.744   1.895   5.248  1.3826 -0.6461 -0.2967
 6099SOL     OW29932   4.468   1.157   9.264  0.0444 -0.1295 -0.1036
 6099SOL    HW129933   4.510   1.100   9.200 -0.6490  0.3570 -0.9957
 6099SOL    HW229934   4.438   1.222   9.200 -2.0648 -0.8311  0.1640
 6100SOL     OW29935   1.710   1.390   0.138 -0.0306  0.1151 -0.0035
 6100SOL    HW129936   1.795   1.366   0.173  0.1954  0.3985 -0.3549
 6100SOL    HW229937   1.673   1.305   0.112  0.4138 -0.1497  0.2436
 6101SOL     OW29938   1.030   2.866   3.445 -0.3045  0.0962 -0.1731
 6101SOL    HW129939   1.028   2.802   3.516  1.6468 -0.7089 -0.8396
 6101SOL    HW229940   0.943   2.903   3.461 -0.3520  0.7572 -1.9757
 6102SOL     OW29941   4.239   3.653   4.781  0.3546  0.0022  0.0575
 6102SOL    HW129942   4.301   3.601   4.730  2.1675 -0.4765  2.7697
 6102SOL    HW229943   4.231   3.730   4.724 -3.2090 -1.7952 -1.8411
 6103SOL     OW29944   3.119   0.153   2.200  0.1178  0.2837 -0.3640
 6103SOL    HW129945   3.113   0.211   2.276 -0.0574 -0.4536  0.1881
 6103SOL    HW229946   3.075   0.210   2.137 -0.0874 -2.5359 -2.7533
 6104SOL     OW29947   2.218   4.370  11.143 -0.0812 -0.3174 -0.5498
 6104SOL    HW129948   2.131   4.339  11.119 -1.2874  1.7482  1.1602
 6104SOL    HW229949   2.211   4.347  11.236 -1.2631  2.8211  0.1139
 6105SOL     OW29950   1.847   4.169   4.222  0.2113 -0.3322 -0.3520
 6105SOL    HW129951   1.800   4.090   4.247  2.4376 -0.5095  3.1621
 6105SOL    HW229952   1.810   4.229   4.287  0.5173  1.3855 -1.7580
 6106SOL     OW29953   4.429   2.999   2.373 -0.5561  0.3791  0.5980
 6106SOL    HW129954   4.469   2.999   2.286 -1.4068  0.8363  0.2090
 6106SOL    HW229955   4.473   2.919   2.402 -0.8044  1.5899  4.2871
 6107SOL     OW29956   3.724   3.814   8.765  0.7167  0.1406 -0.2900
 6107SOL    HW129957   3.673   3.876   8.818  1.0980  0.7752 -0.6627
 6107SOL    HW229958   3.781   3.773   8.830 -0.7079  0.4901  1.1828
 6108SOL     OW29959   1.207   4.406   1.240  0.3085 -0.2937  0.2881
 6108SOL    HW129960   1.181   4.491   1.204 -1.5154 -1.1445 -0.3953
 6108SOL    HW229961   1.302   4.411   1.242  0.2553 -0.4096  2.6732
 6109SOL     OW29962   0.454   1.563  16.594  0.5330  0.2643 -0.4399
 6109SOL    HW129963   0.519   1.493  16.596 -1.7883 -1.8784  0.8850
 6109SOL    HW229964   0.464   1.610  16.676  3.0697 -1.1914  0.0826
 6110SOL     OW29965   2.024   2.576   5.604  0.0660  0.5253 -0.2976
 6110SOL    HW129966   2.010   2.669   5.621 -1.0418  0.2380  0.3636
 6110SOL    HW229967   1.938   2.541   5.580  1.6076 -3.0180 -0.6932
 6111SOL     OW29968   0.856   0.693  17.027  0.0146  0.3869 -0.4215
 6111SOL    HW129969   0.807   0.613  17.008  1.1580  0.4037 -3.4007
 6111SOL    HW229970   0.837   0.733  16.942 -0.6511 -1.4922 -1.1399
 6112SOL     OW29971   2.945   3.969  17.093  0.1709  0.5435 -0.0556
 6112SOL    HW129972   2.990   3.909  17.152 -1.0018  0.0729  0.3438
 6112SOL    HW229973   2.967   3.927  17.009 -1.6953 -0.2666 -0.1474
 6113SOL     OW29974   1.349   3.983   2.554  1.1268  0.0897  0.5008
 6113SOL    HW129975   1.308   3.988   2.467  2.1409  0.0546  0.0138
 6113SOL    HW229976   1.308   4.056   2.600  0.0871  0.2544 -0.6724
 6114SOL     OW29977   0.768   0.671  16.748 -0.2884 -0.2850  0.0506
 6114SOL    HW129978   0.759   0.758  16.710 -2.4076 -0.8569 -0.7496
 6114SOL    HW229979   0.675   0.655  16.762 -0.5000  0.2293 -0.8122
 6115SOL     OW29980   1.399   2.967   2.996 -0.2265 -0.1928 -0.3965
 6115SOL    HW129981   1.468   2.942   3.057 -1.5843 -1.4398  0.6449
 6115SOL    HW229982   1.416   2.899   2.930 -1.1724 -0.4996 -0.3231
 6116SOL     OW29983   4.416   2.322   4.656  0.2559 -0.0724 -0.0360
 6116SOL    HW129984   4.343   2.381   4.675 -0.4794  0.1179 -3.5581
 6116SOL    HW229985   4.491   2.377   4.679  0.8684 -1.6969  1.8757
 6117SOL     OW29986   2.829   4.492   5.942  0.6122 -0.3527 -0.0730
 6117SOL    HW129987   2.747   4.495   5.992  1.2507  1.1967  0.8956
 6117SOL    HW229988   2.797   4.457   5.859 -0.4322  0.5481 -0.0594
 6118SOL     OW29989   0.105   3.332   5.975  0.0444 -0.6225  0.0759
 6118SOL    HW129990   0.155   3.282   6.039  0.6961  0.2289  0.2273
 6118SOL    HW229991   0.178   3.354   5.917  1.4250 -0.9192  1.7300
 6119SOL     OW29992   4.401   2.252   1.352  0.0496  0.2087  0.4695
 6119SOL    HW129993   4.313   2.281   1.331  0.2455  1.7804  1.8547
 6119SOL    HW229994   4.381   2.174   1.403  0.9821 -0.4906 -0.2267
 6120SOL     OW29995   1.251   0.688   6.640  0.3990  0.1387  0.0837
 6120SOL    HW129996   1.276   0.763   6.693 -1.2935  1.2285 -0.6633
 6120SOL    HW229997   1.305   0.694   6.561  0.7787 -1.2721  0.2363
 6121SOL     OW29998   0.803   2.435   4.197  0.5954 -0.1256  1.2043
 6121SOL    HW129999   0.831   2.350   4.162 -1.1795 -0.5633  0.8389
 6121SOL    HW230000   0.849   2.487   4.131  0.7233  0.9831  2.1584
 6122SOL     OW30001   4.424   2.076   2.566  0.1615  0.2288 -0.6367
 6122SOL    HW130002   4.428   2.017   2.491  1.2063 -1.1760  0.5154
 6122SOL    HW230003   4.484   2.144   2.534 -1.0353  0.1563 -3.0334
 6123SOL     OW30004   4.249   1.144  14.203  0.0449 -0.1673 -0.6724
 6123SOL    HW130005   4.292   1.117  14.284  0.6741  0.8284 -0.6772
 6123SOL    HW230006   4.159   1.113  14.210 -0.7194  2.3038  0.4294
 6124SOL     OW30007   2.297   2.257  14.497  0.0514  0.0693 -0.6202
 6124SOL    HW130008   2.225   2.194  14.493 -1.2121  1.6734 -2.6101
 6124SOL    HW230009   2.342   2.230  14.578 -0.4752 -0.8796 -0.6420
 6125SOL     OW30010   1.697   3.376   5.811 -0.0276  0.0458  0.1668
 6125SOL    HW130011   1.694   3.447   5.746  0.4142  0.2227  0.3435
 6125SOL    HW230012   1.787   3.382   5.844  0.7410  1.0415 -2.0888
 6126SOL     OW30013   4.141   3.480   8.995  0.0237 -0.0420  0.0100
 6126SOL    HW130014   4.116   3.572   9.001 -1.8995 -0.5874  0.6060
 6126SOL    HW230015   4.226   3.491   8.953  0.1768 -3.5296 -0.6502
 6127SOL     OW30016   3.638   0.394  13.539  0.3103 -0.5505 -0.2224
 6127SOL    HW130017   3.553   0.351  13.546  0.6577 -1.1356  0.3989
 6127SOL    HW230018   3.697   0.319  13.552 -0.3239 -0.6638  2.0990
 6128SOL     OW30019   4.631   1.043   1.463  0.4691 -0.5605  0.0963
 6128SOL    HW130020   4.664   1.028   1.551 -1.7042  2.0886  1.3657
 6128SOL    HW230021   4.677   0.972   1.418 -2.6100 -2.9126  0.5670
 6129SOL     OW30022   2.307   4.253   4.712  0.1600 -0.3917 -0.1551
 6129SOL    HW130023   2.400   4.250   4.732 -0.2243 -3.0827  1.1895
 6129SOL    HW230024   2.308   4.225   4.620 -0.8349 -1.6998  0.2251
 6130SOL     OW30025   2.959   3.361   6.889  0.3603 -0.6936  0.3539
 6130SOL    HW130026   3.012   3.438   6.910 -0.6589  0.3114 -0.7264
 6130SOL    HW230027   2.904   3.385   6.815 -0.4235 -0.6411  0.9563
 6131SOL     OW30028   2.223   1.840  11.027 -0.3284  0.0301 -0.2741
 6131SOL    HW130029   2.305   1.791  11.025  0.0875  0.7328 -0.2806
 6131SOL    HW230030   2.263   1.922  10.997  1.4942 -1.1086 -0.9339
 6132SOL     OW30031   0.029   1.874   6.930  0.0586  0.4889  0.0506
 6132SOL    HW130032   4.722   1.886   7.014 -0.5053 -0.0001 -0.1707
 6132SOL    HW230033   0.104   1.818   6.951  1.7819  2.7929 -0.0760
 6133SOL     OW30034   2.327   3.061  11.464 -0.1238 -0.1755  0.0314
 6133SOL    HW130035   2.411   3.084  11.424 -1.1038  1.5672 -1.0205
 6133SOL    HW230036   2.340   2.969  11.486  0.8476 -0.4128 -1.4983
 6134SOL     OW30037   2.948   4.155   3.314  0.0268  0.6774 -0.1036
 6134SOL    HW130038   3.040   4.160   3.288 -0.5460 -2.4489 -2.8051
 6134SOL    HW230039   2.905   4.101   3.248 -2.3655 -1.0116  2.8505
 6135SOL     OW30040   2.549   1.258  14.805 -0.6652  0.4403  0.6316
 6135SOL    HW130041   2.481   1.307  14.851 -1.8863 -2.8407  2.3060
 6135SOL    HW230042   2.517   1.240  14.717  1.1524  0.5754 -0.0572
 6136SOL     OW30043   3.988   3.644   7.745  0.2709 -0.0392  0.1888
 6136SOL    HW130044   4.048   3.610   7.813  0.1275  1.1403  0.9108
 6136SOL    HW230045   4.024   3.595   7.671 -0.9818 -1.2898  0.4119
 6137SOL     OW30046   0.061   1.332  13.714 -0.0877  0.6947 -0.0443
 6137SOL    HW130047   0.022   1.420  13.709 -0.3906  0.6739  1.8609
 6137SOL    HW230048   0.142   1.369  13.750  0.8580 -0.2540 -1.2308
 6138SOL     OW30049   4.317   2.052   8.592 -0.1757 -0.6360 -0.3195
 6138SOL    HW130050   4.346   1.961   8.588 -0.1099 -0.6162 -0.2980
 6138SOL    HW230051   4.251   2.058   8.523 -0.0391 -1.7351 -0.5481
 6139SOL     OW30052   1.958   3.839  11.959 -0.2023  0.6743 -0.2266
 6139SOL    HW130053   1.944   3.916  12.013  0.9021  1.2886 -0.8283
 6139SOL    HW230054   1.993   3.771  12.017  1.1328 -0.6090 -2.5245
 6140SOL     OW30055   2.754   4.235  17.012 -0.0852 -0.1114 -0.4052
 6140SOL    HW130056   2.711   4.272  17.089  2.0222  0.7616  0.3496
 6140SOL    HW230057   2.805   4.164  17.051  0.6365 -0.2099 -1.5213
 6141SOL     OW30058   3.273   3.061  10.605 -0.1809  0.4482  0.3007
 6141SOL    HW130059   3.222   3.069  10.685 -0.5475  0.9331  0.0240
 6141SOL    HW230060   3.224   2.996  10.555 -1.0500  1.8474 -0.7069
 6142SOL     OW30061   1.035   2.409  17.254  0.0494 -0.2471 -0.8768
 6142SOL    HW130062   0.964   2.439  17.198 -1.8363 -0.9098  1.1368
 6142SOL    HW230063   0.999   2.446  17.335 -0.3914  0.5643 -1.4407
 6143SOL     OW30064   1.192   1.885   7.430  0.4458  0.1454 -0.3137
 6143SOL    HW130065   1.115   1.869   7.484  1.2089  0.1523  0.7781
 6143SOL    HW230066   1.171   1.861   7.340 -1.0811 -0.6531  0.2575
 6144SOL     OW30067   1.640   4.352  17.474  0.1429  0.0064 -0.2731
 6144SOL    HW130068   1.703   4.297  17.427 -1.2600 -1.6910 -0.1674
 6144SOL    HW230069   1.665   4.442  17.453  2.1711 -0.6504 -0.6426
 6145SOL     OW30070   2.113   4.000  12.332  0.3598 -0.7794  0.6005
 6145SOL    HW130071   2.060   3.933  12.375 -0.3113  1.0910  2.7111
 6145SOL    HW230072   2.052   4.042  12.271  1.5810 -3.6173 -2.5322
 6146SOL     OW30073   2.375   2.622   7.763 -0.1855 -0.3955  0.5421
 6146SOL    HW130074   2.358   2.656   7.851 -2.0644 -1.9669  0.8050
 6146SOL    HW230075   2.468   2.643   7.761 -0.7323  2.0357  0.7007
 6147SOL     OW30076   3.230   2.977   7.332 -0.0427  0.1258  0.0746
 6147SOL    HW130077   3.254   3.069   7.331  0.1539  0.0719 -0.1442
 6147SOL    HW230078   3.200   2.972   7.423  0.9592  2.0127  0.5038
 6148SOL     OW30079   3.056   0.482  14.837  0.3089 -0.0081 -0.0478
 6148SOL    HW130080   3.044   0.422  14.763 -0.9178  1.5154 -1.0919
 6148SOL    HW230081   3.106   0.553  14.798 -1.1425  1.4688  0.7788
 6149SOL     OW30082   4.604   4.556   3.549  0.1937  0.1899 -0.2775
 6149SOL    HW130083   4.606   4.527   3.458  0.6170 -1.1437  0.1661
 6149SOL    HW230084   4.690   4.596   3.557  0.3957 -0.3295  0.1499
 6150SOL     OW30085   2.888   3.807   7.427 -0.0583 -0.2624 -0.2482
 6150SOL    HW130086   2.817   3.798   7.364  0.6524 -0.4777 -1.0118
 6150SOL    HW230087   2.972   3.819   7.382  0.0655  1.3960  0.4181
 6151SOL     OW30088   1.071   2.037   3.127 -0.0764  0.6967  0.2717
 6151SOL    HW130089   1.046   2.129   3.134 -1.4757  0.3718 -0.5050
 6151SOL    HW230090   1.075   2.018   3.220  1.1824  0.5717  0.1918
 6152SOL     OW30091   2.470   3.577  14.123  0.1160 -0.2148 -0.3780
 6152SOL    HW130092   2.547   3.621  14.086  1.3365 -0.8841  1.3748
 6152SOL    HW230093   2.410   3.563  14.050 -1.2000  1.4401  0.3686
 6153SOL     OW30094   1.745   3.825   3.984  0.2397 -0.2656 -0.3424
 6153SOL    HW130095   1.683   3.825   3.912 -0.4214  2.1239  0.2166
 6153SOL    HW230096   1.722   3.747   4.034  1.0737 -0.3300 -0.0483
 6154SOL     OW30097   2.195   4.634   5.383  0.1626 -0.1152 -0.0944
 6154SOL    HW130098   2.101   4.618   5.398 -0.5173  2.4799 -1.6038
 6154SOL    HW230099   2.188   4.671   5.295 -0.6718  0.4416  0.2015
 6155SOL     OW30100   3.312   4.010  12.801  0.5005 -0.0098 -0.2468
 6155SOL    HW130101   3.315   4.104  12.782 -0.9154 -0.2651 -1.7430
 6155SOL    HW230102   3.323   4.012  12.896  0.8129 -0.4266 -0.2763
 6156SOL     OW30103   4.094   1.415   2.842 -0.0652 -0.4484 -0.4167
 6156SOL    HW130104   4.139   1.359   2.780 -1.6840 -0.7753 -1.2894
 6156SOL    HW230105   4.122   1.369   2.921 -1.4959  0.1837  0.4728
 6157SOL     OW30106   2.889   1.144   8.325  0.4387 -0.3707  0.0496
 6157SOL    HW130107   2.866   1.174   8.413  0.5881 -0.2127  0.0334
 6157SOL    HW230108   2.848   1.058   8.338  2.1556 -1.0563  0.9610
 6158SOL     OW30109   1.060   1.893   3.946 -0.0075 -0.0432  0.0736
 6158SOL    HW130110   1.132   1.846   3.988 -0.1346 -0.1880  0.1288
 6158SOL    HW230111   1.066   1.966   4.008  0.1101  0.3420 -0.3914
 6159SOL     OW30112   0.559   2.812   7.647  0.0062 -0.0483 -0.3743
 6159SOL    HW130113   0.500   2.880   7.681  2.3516  1.9955 -0.3892
 6159SOL    HW230114   0.621   2.816   7.720  1.5256  1.9959 -1.8041
 6160SOL     OW30115   3.030   4.496   2.430  0.4422  0.2844  0.6900
 6160SOL    HW130116   3.089   4.445   2.487  2.2623  0.1838 -1.2806
 6160SOL    HW230117   3.074   4.580   2.415  2.5170 -1.0231 -0.5625
 6161SOL     OW30118   3.301   1.506  13.118  0.3250 -0.4638  0.0514
 6161SOL    HW130119   3.258   1.429  13.155 -2.7176  0.6856 -1.0981
 6161SOL    HW230120   3.305   1.568  13.191  0.7669  0.5377 -0.8180
 6162SOL     OW30121   1.936   3.691  16.260 -0.0593 -0.3341 -0.0565
 6162SOL    HW130122   1.877   3.727  16.325 -0.3926 -0.6405 -0.1930
 6162SOL    HW230123   2.002   3.761  16.261  1.5466 -1.8243 -1.8616
 6163SOL     OW30124   0.158   3.558   7.458  0.4325  0.0894  0.6720
 6163SOL    HW130125   0.236   3.523   7.503  0.5572 -0.3232  0.1323
 6163SOL    HW230126   0.156   3.516   7.372  0.6156  0.0938  0.6651
 6164SOL     OW30127   4.113   1.954   8.900 -0.1795 -0.4206  0.0678
 6164SOL    HW130128   4.159   1.900   8.836  0.0132  1.2393 -1.2010
 6164SOL    HW230129   4.139   1.906   8.979 -0.8584  0.1168  0.6218
 6165SOL     OW30130   3.899   3.376  13.196  0.1954 -0.2284  0.4901
 6165SOL    HW130131   3.910   3.436  13.270  0.3495 -0.5043  0.6914
 6165SOL    HW230132   3.921   3.427  13.118 -2.0266 -0.0482 -0.0140
 6166SOL     OW30133   0.268   3.067   1.243  0.4455 -0.4942  0.4454
 6166SOL    HW130134   0.326   2.995   1.218  2.2700  1.1126  0.0919
 6166SOL    HW230135   0.280   3.129   1.172 -0.1668 -3.0849 -1.9076
 6167SOL     OW30136   0.307   1.985   6.250  0.0398  0.1366 -0.4491
 6167SOL    HW130137   0.252   2.055   6.285  1.5321  0.3390  1.4704
 6167SOL    HW230138   0.246   1.957   6.182 -1.3374 -0.3141  0.9667
 6168SOL     OW30139   2.869   1.526   3.264 -0.2969 -0.3349 -0.0852
 6168SOL    HW130140   2.861   1.444   3.312  1.0284 -0.7785 -0.6369
 6168SOL    HW230141   2.929   1.504   3.193  0.2338  0.9830 -0.0521
 6169SOL     OW30142   3.587   1.190   9.173 -0.3283 -0.0132 -0.7537
 6169SOL    HW130143   3.656   1.168   9.235  0.9902  2.2554 -1.4246
 6169SOL    HW230144   3.644   1.189   9.097  0.9413  1.4085  0.1859
 6170SOL     OW30145   0.340   3.893   4.929 -0.1883  0.4686 -0.1320
 6170SOL    HW130146   0.370   3.836   5.000  1.5944 -1.8138 -2.7217
 6170SOL    HW230147   0.330   3.981   4.965 -0.0330  0.4686 -0.0888
 6171SOL     OW30148   4.586   2.119   1.645 -0.4451 -0.5949  0.1927
 6171SOL    HW130149   4.554   2.201   1.683  1.9989 -0.3941  1.7824
 6171SOL    HW230150   4.659   2.084   1.696 -2.4003 -1.3723  2.4038
 6172SOL     OW30151   1.809   1.599   3.085 -0.3145 -0.3218  0.2884
 6172SOL    HW130152   1.752   1.522   3.085  0.7087 -1.0805 -0.9916
 6172SOL    HW230153   1.845   1.568   3.169 -1.9815 -0.8805  0.7918
 6173SOL     OW30154   4.725   1.446   2.822  0.6066  0.2559 -0.4716
 6173SOL    HW130155   0.053   1.514   2.805  0.8618 -0.2727 -1.6258
 6173SOL    HW230156   0.037   1.373   2.782  0.2340  0.5950 -1.5500
 6174SOL     OW30157   1.784   0.332   8.804  0.3613  0.3498  0.8799
 6174SOL    HW130158   1.812   0.308   8.892 -1.0062 -1.3531  0.8447
 6174SOL    HW230159   1.746   0.248   8.780  1.2239  0.0742  0.5002
 6175SOL     OW30160   2.565   1.213   4.262  0.0872  0.5965 -0.5824
 6175SOL    HW130161   2.657   1.240   4.267  0.2697  0.1438 -1.4502
 6175SOL    HW230162   2.535   1.249   4.345 -1.7022 -0.0664 -0.9415
 6176SOL     OW30163   3.676   3.155   5.416  0.2735 -0.0649  0.2398
 6176SOL    HW130164   3.613   3.095   5.456  0.7674 -1.4406 -1.0326
 6176SOL    HW230165   3.708   3.108   5.339 -0.3334  0.6379 -0.4319
 6177SOL     OW30166   1.594   1.145   8.598 -0.1710 -0.4177 -0.1701
 6177SOL    HW130167   1.610   1.226   8.549  1.7342 -2.2757 -2.6691
 6177SOL    HW230168   1.597   1.082   8.525  2.3790  0.6293 -0.9554
 6178SOL     OW30169   3.410   4.522   8.217 -0.1357  0.2676 -0.1880
 6178SOL    HW130170   3.495   4.544   8.179  1.2780 -0.2863  2.6103
 6178SOL    HW230171   3.430   4.449   8.276 -0.4201  0.1591 -0.2280
 6179SOL     OW30172   1.938   1.947   1.898 -0.3280 -0.4584  0.5031
 6179SOL    HW130173   1.903   2.031   1.929 -1.6887 -0.4513 -1.0733
 6179SOL    HW230174   1.919   1.939   1.804  1.9793  2.6122 -0.2333
 6180SOL     OW30175   3.618   3.521   5.682  0.6109  0.0177  0.1056
 6180SOL    HW130176   3.677   3.454   5.645 -1.5541 -1.2495 -1.0402
 6180SOL    HW230177   3.638   3.514   5.775 -0.2332  0.2399  0.2999
 6181SOL     OW30178   4.518   3.173  16.127 -0.5317  0.6913 -0.6232
 6181SOL    HW130179   4.557   3.251  16.088  2.9431 -0.7315 -0.0231
 6181SOL    HW230180   4.459   3.222  16.184 -0.7915  0.9120 -1.0836
 6182SOL     OW30181   3.482   2.396   2.192  0.1877  0.0710 -0.2493
 6182SOL    HW130182   3.444   2.465   2.137  1.5058 -0.2120 -1.5102
 6182SOL    HW230183   3.567   2.380   2.151  0.6146  3.6280 -0.8065
 6183SOL     OW30184   3.590   4.221  13.588  0.1469  0.2466 -0.3866
 6183SOL    HW130185   3.533   4.261  13.653 -1.3924 -2.3170 -0.1812
 6183SOL    HW230186   3.561   4.130  13.594 -0.8834  0.5667 -0.5009
 6184SOL     OW30187   2.515   1.973   3.979  0.3190 -0.1339 -0.8509
 6184SOL    HW130188   2.533   2.055   4.023 -3.7444  1.1236 -1.4940
 6184SOL    HW230189   2.513   1.907   4.049  0.9143 -1.0192 -1.6616
 6185SOL     OW30190   3.256   4.175   4.717 -0.2127  0.1222  0.5368
 6185SOL    HW130191   3.349   4.166   4.695 -0.7359 -1.6529 -0.8767
 6185SOL    HW230192   3.263   4.267   4.745  0.7403  0.2680 -0.1815
 6186SOL     OW30193   0.782   1.735   7.595  0.0317  0.2631  0.8237
 6186SOL    HW130194   0.824   1.659   7.554  0.4892  0.0670  1.6660
 6186SOL    HW230195   0.739   1.688   7.667 -1.1284 -0.0036 -0.0322
 6187SOL     OW30196   1.914   3.512  11.389  0.1246  0.1597  0.1478
 6187SOL    HW130197   1.947   3.469  11.468  1.1004 -0.7676 -0.7540
 6187SOL    HW230198   1.905   3.599  11.426  0.1201 -0.4743  1.6225
 6188SOL     OW30199   2.577   4.452   4.078 -0.0248  0.1896 -0.1802
 6188SOL    HW130200   2.662   4.496   4.072 -0.3728  0.7908 -0.6757
 6188SOL    HW230201   2.551   4.474   4.167  0.2543 -0.6377  0.1126
 6189SOL     OW30202   4.402   4.472   9.755  0.0931  0.6187 -0.0778
 6189SOL    HW130203   4.422   4.417   9.830 -1.2061 -0.1746 -0.3236
 6189SOL    HW230204   4.477   4.531   9.748 -0.2393  0.7609 -2.3601
 6190SOL     OW30205   0.361   1.144  14.538 -0.0556  0.0246 -0.3776
 6190SOL    HW130206   0.288   1.084  14.522  0.2177  0.0352 -1.6194
 6190SOL    HW230207   0.441   1.096  14.518 -0.8049 -1.0855 -0.7281
 6191SOL     OW30208   0.166   1.791   7.182 -0.1887 -0.2825  0.3658
 6191SOL    HW130209   0.126   1.798   7.269  0.6330  0.8990  0.6516
 6191SOL    HW230210   0.177   1.696   7.173 -2.6210 -0.4336 -0.9837
 6192SOL     OW30211   1.541   0.204   3.681  0.5951  0.5701 -0.4656
 6192SOL    HW130212   1.497   0.288   3.695 -0.1588 -0.0096  0.5929
 6192SOL    HW230213   1.471   0.142   3.700  0.5950  0.8280  0.3966
 6193SOL     OW30214   3.040   0.844   9.356  0.1927  0.4376  0.8560
 6193SOL    HW130215   2.989   0.766   9.334  0.3530 -0.4158  3.4995
 6193SOL    HW230216   3.079   0.850   9.269  1.3462 -0.1312  1.3261
 6194SOL     OW30217   1.661   2.313  10.828  0.0636 -0.0595 -0.5380
 6194SOL    HW130218   1.612   2.249  10.879 -0.1020  0.9457  0.5734
 6194SOL    HW230219   1.752   2.290  10.842  0.7988  1.5656 -2.6325
 6195SOL     OW30220   0.789   4.588   4.645  0.2983 -0.0452 -0.2831
 6195SOL    HW130221   0.780   4.644   4.568 -0.2868 -1.3236 -1.1486
 6195SOL    HW230222   0.851   4.522   4.613 -0.4904 -0.4984 -0.8845
 6196SOL     OW30223   3.486   4.673   4.685  0.1253 -0.0029 -0.3482
 6196SOL    HW130224   3.550   4.612   4.649 -0.7181 -1.4041  0.5034
 6196SOL    HW230225   3.527   0.021   4.665  0.6602 -0.1907 -0.0192
 6197SOL     OW30226   3.624   4.579  11.406  0.2500 -0.0774  0.1460
 6197SOL    HW130227   3.666   4.518  11.345  2.3722  1.6899 -0.1506
 6197SOL    HW230228   3.593   4.647  11.346  0.5789 -0.0144  0.0457
 6198SOL     OW30229   1.130   0.235   1.996 -0.1533  0.6666 -0.3014
 6198SOL    HW130230   1.071   0.260   2.067 -2.1583 -0.7454 -1.4570
 6198SOL    HW230231   1.204   0.289   2.024  0.4682 -0.0409 -0.5792
 6199SOL     OW30232   0.102   2.042  11.447 -0.5699  0.3967 -0.6114
 6199SOL    HW130233   0.135   2.050  11.537  0.6873 -0.2653 -1.0075
 6199SOL    HW230234   0.059   2.127  11.439 -2.7576 -0.6659  0.0069
 6200SOL     OW30235   3.872   4.648   5.891  0.7909  0.3222  0.1913
 6200SOL    HW130236   3.827   4.700   5.958  0.5954  0.5738 -0.1385
 6200SOL    HW230237   3.817   4.672   5.817 -0.5348 -1.4287  0.6121
 6201SOL     OW30238   3.776   3.042   4.135  0.1770 -0.6483 -0.4229
 6201SOL    HW130239   3.694   3.064   4.179 -0.8824 -0.0645 -2.6503
 6201SOL    HW230240   3.836   3.049   4.208 -1.2580  2.1225  0.5002
 6202SOL     OW30241   1.868   1.853   7.632 -0.0800  0.5180  0.0661
 6202SOL    HW130242   1.924   1.780   7.660  2.0115  1.7242 -0.9146
 6202SOL    HW230243   1.783   1.824   7.663 -0.6284  2.9870  0.8474
 6203SOL     OW30244   1.856   2.132   1.019  0.3953  0.4739  0.1942
 6203SOL    HW130245   1.882   2.075   0.946 -0.1298 -0.1162  0.4651
 6203SOL    HW230246   1.763   2.123   1.000  0.2094  3.1085 -0.1235
 6204SOL     OW30247   2.374   2.096  17.072  0.3202 -0.1567  0.2176
 6204SOL    HW130248   2.459   2.076  17.111  1.5145  0.0733 -2.2710
 6204SOL    HW230249   2.405   2.169  17.019 -0.1961 -0.1742 -0.1025
 6205SOL     OW30250   2.647   2.028   5.427  0.6118 -0.3651 -0.6143
 6205SOL    HW130251   2.715   1.995   5.485 -0.1205 -0.0808  0.4140
 6205SOL    HW230252   2.689   2.110   5.401  1.0084 -0.2910  0.2841
 6206SOL     OW30253   3.785   3.966   9.083  0.0038  0.5152  0.1637
 6206SOL    HW130254   3.828   4.042   9.045  0.6148  2.2844  4.3300
 6206SOL    HW230255   3.761   4.000   9.170 -4.5244 -1.3037 -0.3775
 6207SOL     OW30256   0.216   0.384   4.396  0.0131  0.2480 -0.0108
 6207SOL    HW130257   0.244   0.351   4.481 -0.0871 -1.1632 -0.5172
 6207SOL    HW230258   0.136   0.430   4.421 -1.7207 -1.5608 -2.2043
 6208SOL     OW30259   3.698   2.381   8.181 -0.0526 -0.0890 -0.2740
 6208SOL    HW130260   3.686   2.441   8.255 -0.4971  0.1594 -0.5427
 6208SOL    HW230261   3.791   2.393   8.160  0.1271  0.1254  0.6773
 6209SOL     OW30262   0.204   2.855  15.247  0.5196 -0.5814 -0.0168
 6209SOL    HW130263   0.281   2.880  15.297 -1.5642  3.3949  1.2279
 6209SOL    HW230264   0.183   2.767  15.279  0.4020 -1.5429 -2.6922
 6210SOL     OW30265   0.566   0.488  12.126  0.3266  0.1582 -0.2612
 6210SOL    HW130266   0.661   0.499  12.113  0.1656 -0.8171 -2.2573
 6210SOL    HW230267   0.561   0.416  12.189 -0.2138 -0.4485 -1.0042
 6211SOL     OW30268   0.210   0.724   2.567  0.1280  0.7594  0.5055
 6211SOL    HW130269   0.262   0.723   2.487 -0.7649  0.5674 -0.0744
 6211SOL    HW230270   0.284   0.751   2.622 -1.0313  0.2935  2.3053
 6212SOL     OW30271   3.922   0.975   9.031  0.3676 -0.5624 -0.0034
 6212SOL    HW130272   3.959   1.062   9.048  1.2410 -1.5052  2.8593
 6212SOL    HW230273   3.925   0.935   9.117  2.3878 -1.2631 -0.3955
 6213SOL     OW30274   2.149   4.687   6.573  0.1302  0.2868 -0.1663
 6213SOL    HW130275   2.184   0.037   6.592 -1.8115  1.3577 -1.4808
 6213SOL    HW230276   2.111   4.666   6.658  0.4389 -2.0671 -0.6245
 6214SOL     OW30277   1.195   3.838   0.968  0.0146 -0.1952 -1.0979
 6214SOL    HW130278   1.114   3.868   0.926 -1.8050 -3.3579  0.1430
 6214SOL    HW230279   1.228   3.924   0.995  0.6698 -1.2395  1.4614
 6215SOL     OW30280   1.378   1.790   2.249  0.1190  0.3583 -0.3086
 6215SOL    HW130281   1.384   1.717   2.187 -0.9443  0.0758 -0.0796
 6215SOL    HW230282   1.404   1.862   2.192 -1.0977 -2.2929 -4.2160
 6216SOL     OW30283   3.449   2.600   9.095  0.1011  0.0179 -0.0791
 6216SOL    HW130284   3.382   2.598   9.163  0.0124 -2.2532 -0.2157
 6216SOL    HW230285   3.389   2.613   9.021 -1.9034  0.0509  1.5465
 6217SOL     OW30286   3.372   3.344   8.070 -0.0230 -0.7916  0.2133
 6217SOL    HW130287   3.405   3.282   8.136 -1.6499  0.1939  1.9598
 6217SOL    HW230288   3.300   3.393   8.110 -0.3949  0.3253 -1.8565
 6218SOL     OW30289   1.585   1.864   1.028  0.2104 -0.7107 -0.1683
 6218SOL    HW130290   1.539   1.781   1.033  0.2658 -0.6453  1.4788
 6218SOL    HW230291   1.630   1.849   1.111  2.2474  0.4221 -1.0432
 6219SOL     OW30292   4.410   2.940  16.130 -0.2769 -0.0107 -0.1639
 6219SOL    HW130293   4.334   2.954  16.074 -0.5361  0.6144  0.3403
 6219SOL    HW230294   4.443   3.028  16.146  1.8829 -0.4980 -1.9537
 6220SOL     OW30295   0.988   1.155  12.919 -0.3665  0.2153  0.3937
 6220SOL    HW130296   0.975   1.240  12.962  1.0631  1.8093 -2.3630
 6220SOL    HW230297   1.083   1.149  12.914 -0.3347  2.0175 -1.0917
 6221SOL     OW30298   2.665   4.259  12.931  0.2715 -0.5721 -0.3731
 6221SOL    HW130299   2.699   4.349  12.939 -0.7223 -0.2534  0.2129
 6221SOL    HW230300   2.644   4.243  12.839  0.0074 -0.1784 -0.3820
 6222SOL     OW30301   0.179   0.903   7.266 -0.3177 -0.1590 -0.2966
 6222SOL    HW130302   0.184   0.996   7.242 -3.4590 -0.9076 -3.8906
 6222SOL    HW230303   0.271   0.880   7.281  0.7015  1.8313 -3.4614
 6223SOL     OW30304   0.125   2.643   8.007  0.1046 -0.4680 -0.3836
 6223SOL    HW130305   0.117   2.732   7.971 -0.0429 -0.6137 -0.7098
 6223SOL    HW230306   0.051   2.591   7.976  1.5942 -1.4792 -2.2296
 6224SOL     OW30307   0.551   0.953  15.941 -0.2108 -0.3916  0.2270
 6224SOL    HW130308   0.551   0.870  15.988  2.5003  0.4016  1.6022
 6224SOL    HW230309   0.506   1.002  16.010  0.4897  2.7339 -1.5371
 6225SOL     OW30310   4.675   1.857  15.246 -0.2015 -0.6043  0.3076
 6225SOL    HW130311   4.727   1.779  15.228  1.8331  0.5061  1.4248
 6225SOL    HW230312   4.730   1.923  15.202 -0.9462 -0.7581 -0.8731
 6226SOL     OW30313   1.075   1.222   6.881 -0.2665  0.0470 -0.0459
 6226SOL    HW130314   1.083   1.316   6.896 -1.8913  0.6954 -3.3396
 6226SOL    HW230315   1.007   1.206   6.947 -1.1554  1.6154 -0.5999
 6227SOL     OW30316   3.504   1.268   5.831 -0.5103 -0.4014 -0.1979
 6227SOL    HW130317   3.428   1.259   5.889  0.1718  0.9680  0.9072
 6227SOL    HW230318   3.551   1.198   5.876 -0.9684 -0.8040 -0.3495
 6228SOL     OW30319   3.140   0.535   7.280 -0.0301 -0.3423  0.2869
 6228SOL    HW130320   3.167   0.501   7.365 -0.4522 -2.9513 -0.6091
 6228SOL    HW230321   3.064   0.484   7.254  0.7903 -0.7177 -1.4093
 6229SOL     OW30322   0.730   0.646   5.338 -0.0065 -0.6194 -0.1207
 6229SOL    HW130323   0.745   0.710   5.407 -0.0560 -0.5381 -0.1842
 6229SOL    HW230324   0.775   0.687   5.264  1.9972 -4.2889 -0.8979
 6230SOL     OW30325   1.342   0.584   8.908  0.2558 -0.2638  0.2553
 6230SOL    HW130326   1.373   0.612   8.994 -0.5251 -0.8239  0.7205
 6230SOL    HW230327   1.345   0.489   8.916 -0.7529 -0.4476 -1.3965
 6231SOL     OW30328   3.560   0.078   8.430  0.1229 -0.0120  0.1369
 6231SOL    HW130329   3.580   0.148   8.369 -0.7410 -0.9730 -1.2498
 6231SOL    HW230330   3.476   0.052   8.392 -0.4716 -1.1480  2.2165
 6232SOL     OW30331   2.358   3.800   5.159 -0.6594  0.1133 -0.7151
 6232SOL    HW130332   2.406   3.729   5.116 -1.2763 -0.7395 -0.0123
 6232SOL    HW230333   2.411   3.876   5.136 -2.2416  1.4989  0.2257
 6233SOL     OW30334   3.910   0.080   1.927 -0.2092  0.1236  0.2050
 6233SOL    HW130335   3.836   0.100   1.870  0.8279  0.1249 -1.1262
 6233SOL    HW230336   3.890   4.725   1.947 -1.4062  0.5025  0.7422
 6234SOL     OW30337   0.375   4.084   2.340 -0.3829  0.1789 -0.5192
 6234SOL    HW130338   0.375   4.138   2.419 -0.6074 -0.8894  0.2105
 6234SOL    HW230339   0.326   4.008   2.370  0.6892 -0.8173 -1.3314
 6235SOL     OW30340   1.773   3.969   8.502 -0.1069  0.6282  0.0066
 6235SOL    HW130341   1.737   3.964   8.414  0.4403 -2.2213 -0.0689
 6235SOL    HW230342   1.697   4.009   8.545  0.2872  2.6075 -1.1629
 6236SOL     OW30343   0.271   0.951   8.914  0.7826  0.4146 -0.0621
 6236SOL    HW130344   0.297   0.996   8.995  0.3485 -1.5497  1.1730
 6236SOL    HW230345   0.345   0.890   8.913  1.0913  0.8156 -1.3117
 6237SOL     OW30346   3.457   3.572   6.529 -0.0548 -0.0140  0.2017
 6237SOL    HW130347   3.480   3.568   6.437  2.6568  0.2426  0.8617
 6237SOL    HW230348   3.515   3.504   6.564  1.3478  0.8009 -0.5672
 6238SOL     OW30349   0.810   4.716  15.549 -0.2313 -0.0496  0.2379
 6238SOL    HW130350   0.765   0.044  15.604 -1.7785 -1.9508  1.1844
 6238SOL    HW230351   0.864   0.022  15.483 -0.6792  0.9320  0.5102
 6239SOL     OW30352   4.662   0.367   4.643  0.6725 -0.2630  0.0227
 6239SOL    HW130353   4.578   0.413   4.638  0.5346 -0.3641  1.2900
 6239SOL    HW230354   4.720   0.443   4.641  0.4619 -0.0691  1.6250
 6240SOL     OW30355   4.679   2.583   3.317 -0.0778  0.3674 -0.1543
 6240SOL    HW130356   4.694   2.534   3.236  1.0552 -0.0200  0.2879
 6240SOL    HW230357   4.583   2.586   3.315 -0.1090  1.2004  2.3709
 6241SOL     OW30358   2.939   3.422   2.139  0.0372 -0.2341 -0.2058
 6241SOL    HW130359   2.856   3.380   2.115  0.2444 -1.6494  1.5243
 6241SOL    HW230360   2.934   3.503   2.089 -0.0112  0.5961  1.1209
 6242SOL     OW30361   0.716   1.120  11.691 -0.3576 -0.4350 -0.3814
 6242SOL    HW130362   0.718   1.111  11.786 -3.5570 -0.2118 -0.3228
 6242SOL    HW230363   0.791   1.180  11.679  1.8750 -3.4004 -1.3314
 6243SOL     OW30364   0.453   1.068   8.083  0.6377  0.2175 -0.2394
 6243SOL    HW130365   0.404   1.102   8.008  1.8201  2.4172 -0.0001
 6243SOL    HW230366   0.500   0.994   8.045 -0.1817 -0.4632  0.0702
 6244SOL     OW30367   4.187   3.925   3.695  0.0504  0.0723  0.3353
 6244SOL    HW130368   4.273   3.959   3.720 -0.3812 -0.5718  2.7748
 6244SOL    HW230369   4.212   3.835   3.673 -2.0011 -0.3567 -0.1601
 6245SOL     OW30370   1.705   2.169  17.154 -0.3992 -0.9221  0.3486
 6245SOL    HW130371   1.669   2.253  17.183  2.3763  1.4774 -3.1617
 6245SOL    HW230372   1.634   2.117  17.191 -0.2163 -1.0533  0.5172
 6246SOL     OW30373   2.552   2.480  10.944 -0.1243 -0.4799  0.1085
 6246SOL    HW130374   2.628   2.513  10.991 -0.2641 -1.2551  0.8697
 6246SOL    HW230375   2.508   2.561  10.917 -0.4016 -0.2461  1.2668
 6247SOL     OW30376   0.570   3.844   1.665  0.7610  0.3534 -0.4602
 6247SOL    HW130377   0.609   3.840   1.578  2.3622  2.0950  0.1645
 6247SOL    HW230378   0.631   3.797   1.722 -0.3001 -0.2802  0.1620
 6248SOL     OW30379   3.943   3.985   2.818 -0.0999 -0.0558  0.4933
 6248SOL    HW130380   3.862   4.017   2.857 -0.5210 -1.8028  1.0574
 6248SOL    HW230381   3.980   4.066   2.784 -0.6768 -0.2314 -0.5463
 6249SOL     OW30382   1.990   2.111   6.452 -0.0817 -0.2633  0.1099
 6249SOL    HW130383   1.940   2.067   6.383  2.5087 -2.1918 -0.4977
 6249SOL    HW230384   2.070   2.059   6.454  1.2718  1.7750 -2.4383
 6250SOL     OW30385   1.270   4.015   8.043  0.3481 -0.2311  0.6718
 6250SOL    HW130386   1.252   4.008   7.949  2.1225 -1.4810  0.4238
 6250SOL    HW230387   1.242   3.928   8.074  0.5891  0.3099  2.4246
 6251SOL     OW30388   2.118   4.061   4.045  0.2242 -0.0848 -0.2805
 6251SOL    HW130389   2.068   3.989   4.084 -2.2972  2.3132  0.9061
 6251SOL    HW230390   2.113   4.121   4.120 -4.5984 -0.6110 -0.1757
 6252SOL     OW30391   2.452   4.624   0.663 -0.3706 -0.1539  0.1006
 6252SOL    HW130392   2.394   4.563   0.618 -0.6931 -0.6583  1.1991
 6252SOL    HW230393   2.510   4.663   0.598 -0.0467 -1.5009 -0.4075
 6253SOL     OW30394   1.864   3.248   4.855 -0.0551 -0.0007  0.1626
 6253SOL    HW130395   1.894   3.325   4.902  1.9078  0.2816 -1.5686
 6253SOL    HW230396   1.941   3.194   4.876  2.1125  2.8060 -0.6734
 6254SOL     OW30397   3.715   1.695  12.839  0.0596  0.5793  0.1074
 6254SOL    HW130398   3.663   1.734  12.910 -0.7840 -2.1494  0.9639
 6254SOL    HW230399   3.658   1.712  12.765  0.3579 -2.4672 -0.8185
 6255SOL     OW30400   2.103   0.971  11.827  0.1363  0.2726  0.3021
 6255SOL    HW130401   2.183   0.957  11.775 -0.8309 -2.5874 -0.3863
 6255SOL    HW230402   2.082   0.879  11.840 -0.1191 -0.0219 -2.0633
 6256SOL     OW30403   4.127   4.054   1.882  0.1810 -0.3191 -0.3386
 6256SOL    HW130404   4.193   4.018   1.942 -0.1442 -0.9585 -0.3605
 6256SOL    HW230405   4.155   4.145   1.871  0.2280 -0.2437  0.3735
 6257SOL     OW30406   3.816   3.079   8.813 -0.5583  0.0058  0.5325
 6257SOL    HW130407   3.877   3.132   8.864 -0.0158 -0.0052 -0.1088
 6257SOL    HW230408   3.798   3.139   8.741 -0.4848  1.4421  1.7144
 6258SOL     OW30409   0.338   1.667   4.994 -0.3748 -0.5577  0.1517
 6258SOL    HW130410   0.253   1.657   4.953 -0.7076  1.0925  0.4325
 6258SOL    HW230411   0.352   1.576   5.020  2.1002 -0.2442 -0.0826
 6259SOL     OW30412   3.551   0.137   5.769  0.6290  0.0530  0.2899
 6259SOL    HW130413   3.580   0.198   5.837 -2.3832  1.5508  0.2122
 6259SOL    HW230414   3.627   0.139   5.712  0.5463  2.8209  0.2800
 6260SOL     OW30415   2.477   4.206   2.601 -0.2969  0.1274 -0.0306
 6260SOL    HW130416   2.429   4.288   2.603 -2.0419 -0.8883 -0.3705
 6260SOL    HW230417   2.408   4.143   2.620 -0.1221 -0.8472 -2.6131
 6261SOL     OW30418   0.185   4.367  11.956 -0.1587 -0.4804  0.2837
 6261SOL    HW130419   0.238   4.341  11.881 -1.4329 -1.3859 -0.3039
 6261SOL    HW230420   0.190   4.294  12.019  0.6655  0.2276  1.0455
 6262SOL     OW30421   1.711   3.205   8.952  0.1346  0.3320  0.0241
 6262SOL    HW130422   1.782   3.166   9.003  1.3258  2.9151  0.3210
 6262SOL    HW230423   1.710   3.155   8.870 -0.1147  0.0684  0.1871
 6263SOL     OW30424   0.718   0.150  17.170 -0.2634  0.8073 -0.0897
 6263SOL    HW130425   0.790   0.116  17.223 -0.2954  2.4012  0.9764
 6263SOL    HW230426   0.751   0.237  17.149  0.3404  0.2473 -1.4536
 6264SOL     OW30427   4.158   0.696   3.023 -0.2075  0.2845  0.0205
 6264SOL    HW130428   4.186   0.759   2.958  0.9676  0.7046  0.9298
 6264SOL    HW230429   4.131   0.757   3.092 -0.2767 -1.5292  1.6369
 6265SOL     OW30430   3.646   4.276   3.184  0.1305  0.7442  0.4253
 6265SOL    HW130431   3.579   4.337   3.153 -2.4589 -0.2371  4.0395
 6265SOL    HW230432   3.696   4.329   3.246  3.3346  0.6896 -2.1119
 6266SOL     OW30433   0.072   1.016  11.009  0.1177 -0.5483  0.2116
 6266SOL    HW130434   4.720   1.011  11.046 -0.1786 -0.2817 -0.4525
 6266SOL    HW230435   0.066   0.945  10.945  0.1041  0.9076 -1.4074
 6267SOL     OW30436   1.075   0.659   4.836 -0.0418 -0.1269  0.4144
 6267SOL    HW130437   1.127   0.658   4.916 -0.2684  0.2889  0.5698
 6267SOL    HW230438   1.066   0.566   4.819  1.7026 -0.4834  1.4112
 6268SOL     OW30439   4.536   3.223   3.368  0.0594  0.0329 -0.0022
 6268SOL    HW130440   4.614   3.245   3.420 -0.1854 -0.3929  0.5430
 6268SOL    HW230441   4.567   3.163   3.301 -1.6429  0.2436 -0.9657
 6269SOL     OW30442   0.465   2.987  14.875 -0.1329 -0.3656 -0.0541
 6269SOL    HW130443   0.542   3.035  14.846 -1.1713  0.8142 -0.8565
 6269SOL    HW230444   0.414   3.057  14.916 -1.2186 -0.5539 -1.0907
 6270SOL     OW30445   2.781   0.326  12.363 -0.1401 -0.2539 -0.1680
 6270SOL    HW130446   2.826   0.272  12.428 -1.0990  0.0191  0.7347
 6270SOL    HW230447   2.778   0.263  12.291 -0.3498 -1.6449  1.0327
 6271SOL     OW30448   3.963   1.473   5.525  0.6790  0.4081  0.2891
 6271SOL    HW130449   3.918   1.393   5.500  1.7909 -0.0970 -0.1024
 6271SOL    HW230450   4.052   1.452   5.495  1.2021  0.4455  1.7678
 6272SOL     OW30451   2.702   0.948   1.080 -0.2104 -0.4020 -0.1188
 6272SOL    HW130452   2.667   0.979   1.163 -0.3246 -0.9180  0.0269
 6272SOL    HW230453   2.641   0.881   1.047 -0.3688  0.6982 -2.0866
 6273SOL     OW30454   4.648   3.616   1.153  0.8355 -0.5113 -0.1973
 6273SOL    HW130455   4.659   3.690   1.212  0.3253  1.1613 -2.2050
 6273SOL    HW230456   4.630   3.552   1.222  0.1549  0.8088  0.8362
 6274SOL     OW30457   3.640   1.471  14.777  0.6719 -0.1200 -0.5514
 6274SOL    HW130458   3.687   1.543  14.736  0.9993  0.5306  0.9652
 6274SOL    HW230459   3.601   1.422  14.705  0.0253 -0.1497 -0.1820
 6275SOL     OW30460   3.417   1.247  16.969  0.4170  0.0647  0.0045
 6275SOL    HW130461   3.385   1.181  17.030  0.2403 -0.4657 -0.6717
 6275SOL    HW230462   3.454   1.313  17.028 -3.0780  0.9220  1.2151
 6276SOL     OW30463   1.133   2.712  17.372  0.4897 -0.0152  0.5527
 6276SOL    HW130464   1.216   2.686  17.412  0.1986  0.9736  1.8064
 6276SOL    HW230465   1.070   2.662  17.424 -0.4600  2.1829  1.4926
 6277SOL     OW30466   1.465   3.460  14.197  0.3828 -0.3600 -0.4027
 6277SOL    HW130467   1.423   3.382  14.161  1.0989 -0.7682 -0.3470
 6277SOL    HW230468   1.531   3.426  14.257 -0.3655  2.7691  2.1601
 6278SOL     OW30469   3.784   1.796   4.592 -0.2498  0.3733 -0.3921
 6278SOL    HW130470   3.763   1.884   4.624 -2.0455 -0.5789  1.0917
 6278SOL    HW230471   3.857   1.764   4.645 -0.6310 -0.5053 -0.3845
 6279SOL     OW30472   1.794   1.304   1.421 -0.0432  0.4086 -0.2729
 6279SOL    HW130473   1.825   1.376   1.366  3.5034  0.7716  2.2218
 6279SOL    HW230474   1.847   1.236   1.379 -1.4616  0.9183 -2.9166
 6280SOL     OW30475   1.528   3.391  14.463 -0.0133  0.1684  0.1914
 6280SOL    HW130476   1.611   3.356  14.495  1.1982  0.7883 -2.2504
 6280SOL    HW230477   1.469   3.363  14.533 -0.9856  0.8702 -0.3368
 6281SOL     OW30478   0.186   2.668  13.438 -0.2222 -0.1138  0.3007
 6281SOL    HW130479   0.235   2.675  13.520  0.3889 -0.0687 -0.0669
 6281SOL    HW230480   0.218   2.583  13.408  1.4360  0.9220 -0.8543
 6282SOL     OW30481   4.455   3.857  12.617 -0.0882 -0.0115  0.0277
 6282SOL    HW130482   4.425   3.884  12.704  1.4497  1.5886  0.0345
 6282SOL    HW230483   4.482   3.940  12.578 -2.5126  0.6331 -0.2808
 6283SOL     OW30484   1.742   0.044   1.776 -0.5348 -0.1110 -1.3491
 6283SOL    HW130485   1.735   0.014   1.685  0.5404  1.4126 -1.9520
 6283SOL    HW230486   1.785   0.129   1.760 -1.6994  0.4192 -1.6461
 6284SOL     OW30487   4.411   0.419  13.171  0.4981 -0.0199  0.1373
 6284SOL    HW130488   4.324   0.454  13.156  1.0382  1.3679  0.2481
 6284SOL    HW230489   4.440   0.446  13.258 -0.2573  2.1062 -0.2828
 6285SOL     OW30490   2.375   1.240   6.793 -0.2222 -0.3958  0.1597
 6285SOL    HW130491   2.413   1.284   6.717 -0.3336 -1.3620 -0.4632
 6285SOL    HW230492   2.450   1.194   6.831 -0.8280 -0.6671  1.0418
 6286SOL     OW30493   2.225   0.769   7.185 -0.2691  0.2501  0.4190
 6286SOL    HW130494   2.270   0.774   7.101  0.7310 -0.3767  0.9109
 6286SOL    HW230495   2.188   0.681   7.184  0.0758  0.1131 -0.7115
 6287SOL     OW30496   4.634   0.053   7.315 -0.1242 -0.7341  0.3555
 6287SOL    HW130497   4.628   0.140   7.276  2.0422  0.0979  1.8534
 6287SOL    HW230498   4.690   0.012   7.248 -0.3261  2.6802 -1.9054
 6288SOL     OW30499   0.313   2.037   1.069  0.3003  0.6975  0.4157
 6288SOL    HW130500   0.305   1.980   0.992  1.2363 -0.9396  1.5351
 6288SOL    HW230501   0.405   2.063   1.068  0.5517 -0.2852 -2.3804
 6289SOL     OW30502   2.980   2.299  15.356 -0.1090 -0.4326 -0.0109
 6289SOL    HW130503   3.064   2.311  15.313  0.2450 -0.7139  0.6106
 6289SOL    HW230504   2.914   2.331  15.295  0.1623 -1.8179 -1.0351
 6290SOL     OW30505   0.801   1.099   7.209  0.5930  0.0077 -0.0649
 6290SOL    HW130506   0.804   1.120   7.116 -2.0614 -0.1196 -0.1874
 6290SOL    HW230507   0.887   1.059   7.221  0.2235 -0.8526 -0.3441
 6291SOL     OW30508   1.038   2.615  12.054 -0.9238  0.3039 -0.3925
 6291SOL    HW130509   0.948   2.589  12.071  0.4776 -4.0494  0.2571
 6291SOL    HW230510   1.047   2.664  12.137  2.6817 -0.1212 -0.5144
 6292SOL     OW30511   1.905   1.909  14.060 -0.2135  0.0689 -0.8649
 6292SOL    HW130512   1.980   1.850  14.056 -1.6328 -1.6517 -2.1193
 6292SOL    HW230513   1.939   1.976  14.119 -0.8981  1.8448 -2.4869
 6293SOL     OW30514   4.611   3.040   6.234  0.3473 -0.9460 -0.7166
 6293SOL    HW130515   4.702   3.030   6.205  0.9002 -0.5387  0.8737
 6293SOL    HW230516   4.608   2.984   6.312  0.8025  0.3688  0.2419
 6294SOL     OW30517   3.979   4.316   3.862 -0.5580  0.1258  0.1605
 6294SOL    HW130518   3.929   4.236   3.879  1.7979 -1.6374 -1.2451
 6294SOL    HW230519   3.906   4.372   3.835  0.1520  0.5859 -0.7652
 6295SOL     OW30520   1.562   3.656  17.131  0.7269  0.3540 -0.2075
 6295SOL    HW130521   1.485   3.677  17.185  1.4654 -0.9824  1.3484
 6295SOL    HW230522   1.547   3.692  17.043  2.4473 -0.8338 -0.9757
 6296SOL     OW30523   2.534   1.110   5.526  0.6167  0.4143  0.3180
 6296SOL    HW130524   2.563   1.093   5.615  1.9340  3.3571  0.4334
 6296SOL    HW230525   2.575   1.032   5.488  0.1077 -0.4517  1.5576
 6297SOL     OW30526   0.308   2.700   2.833 -0.1973 -0.1975  0.1380
 6297SOL    HW130527   0.224   2.743   2.846  0.5691  1.2769  0.2309
 6297SOL    HW230528   0.288   2.652   2.753 -1.1354 -1.4893  1.1418
 6298SOL     OW30529   2.068   2.854   0.312  0.2727  0.7490  0.2869
 6298SOL    HW130530   1.974   2.843   0.321  0.6761 -1.6338  1.6835
 6298SOL    HW230531   2.079   2.917   0.240  1.8309  1.2088  0.9246
 6299SOL     OW30532   4.522   2.021   4.881 -0.1686  0.3736  0.4809
 6299SOL    HW130533   4.539   1.990   4.792  1.6050  4.0701 -0.4287
 6299SOL    HW230534   4.608   2.008   4.922  0.3935  0.8180 -0.5624
 6300SOL     OW30535   1.773   4.265   5.027 -0.6339 -0.1027  0.1954
 6300SOL    HW130536   1.785   4.324   5.102 -1.1328 -0.4831  0.5759
 6300SOL    HW230537   1.789   4.313   4.946 -0.6803  0.1607  0.3395
 6301SOL     OW30538   1.424   0.531   7.398 -0.4004 -0.2860  0.5388
 6301SOL    HW130539   1.392   0.445   7.372 -3.1154  0.7211  0.5478
 6301SOL    HW230540   1.347   0.585   7.383  1.8119  2.5507 -0.7196
 6302SOL     OW30541   1.975   2.409  17.174 -0.3160 -0.0091  0.4709
 6302SOL    HW130542   1.915   2.370  17.237 -0.1847 -0.6282  0.2149
 6302SOL    HW230543   1.929   2.404  17.090 -1.1267  1.8448  0.8042
 6303SOL     OW30544   2.634   0.145  12.737  0.4918  0.2523  0.5612
 6303SOL    HW130545   2.707   0.206  12.746  0.3649  0.8135 -2.2955
 6303SOL    HW230546   2.560   0.184  12.782  0.4476  1.1197 -0.2767
 6304SOL     OW30547   1.805   0.499  16.835  0.4123 -0.0265  0.3469
 6304SOL    HW130548   1.852   0.501  16.918  1.2730 -0.5806 -0.1310
 6304SOL    HW230549   1.760   0.583  16.851  2.8405  1.5077 -0.8829
 6305SOL     OW30550   0.227   3.129   3.552  0.4963  0.1702  0.1219
 6305SOL    HW130551   0.185   3.056   3.597  1.1487  0.5393  1.3138
 6305SOL    HW230552   0.161   3.140   3.483 -0.8969  3.5111  2.0034
 6306SOL     OW30553   2.314   0.582   1.929 -0.1662  0.1902  0.0482
 6306SOL    HW130554   2.319   0.657   1.870  0.3847  0.1909  0.0979
 6306SOL    HW230555   2.404   0.571   1.961  0.0435  0.1124 -0.5784
 6307SOL     OW30556   1.447   4.407  10.756  0.3721 -0.0058  0.1181
 6307SOL    HW130557   1.511   4.415  10.686  2.8181 -2.4791  2.1154
 6307SOL    HW230558   1.508   4.376  10.823  1.0865  0.9292 -0.0873
 6308SOL     OW30559   0.000   3.141   6.762  0.3536  0.6446 -0.4850
 6308SOL    HW130560   0.032   3.078   6.827 -1.0207  0.3319 -0.1040
 6308SOL    HW230561   0.060   3.135   6.688  0.7290 -0.3453 -0.1059
 6309SOL     OW30562   0.772   1.971   1.934  0.7239  0.3754  0.3730
 6309SOL    HW130563   0.858   1.987   1.895  0.5246 -0.6534 -0.5051
 6309SOL    HW230564   0.786   1.916   2.011 -3.4541 -1.1400  0.0829
 6310SOL     OW30565   2.221   2.574   5.186  0.0832 -0.0251 -0.1763
 6310SOL    HW130566   2.288   2.518   5.146  1.5105  1.1362  0.5661
 6310SOL    HW230567   2.270   2.587   5.267  0.4846 -1.4075 -0.1959
 6311SOL     OW30568   2.498   3.440   8.224  0.2603  0.0271 -0.4423
 6311SOL    HW130569   2.504   3.388   8.304 -0.8468  1.1059  0.3536
 6311SOL    HW230570   2.562   3.397   8.167  2.5132  0.4747  1.7448
 6312SOL     OW30571   0.303   4.164   5.593 -0.1149  0.7330  0.4745
 6312SOL    HW130572   0.314   4.254   5.565  0.0683  0.6515  0.2883
 6312SOL    HW230573   0.281   4.177   5.685  1.3008 -0.2403  0.9554
 6313SOL     OW30574   3.952   4.350   1.820  0.0960 -0.2552  0.4134
 6313SOL    HW130575   3.990   4.436   1.805 -1.3058  1.0281  4.3816
 6313SOL    HW230576   3.938   4.350   1.914 -1.3329 -0.0941  0.2015
 6314SOL     OW30577   4.115   1.049   5.053  0.4684  0.2612  0.1190
 6314SOL    HW130578   4.096   1.063   5.145  2.2042  0.2401  0.4697
 6314SOL    HW230579   4.036   1.002   5.024 -0.0163  1.4998 -0.5924
 6315SOL     OW30580   1.232   0.036   0.132  0.1037 -0.4433  0.3224
 6315SOL    HW130581   1.176   4.695   0.137 -1.9837  0.9679 -1.0207
 6315SOL    HW230582   1.251   0.053   0.040  0.4679  3.1381  1.0600
 6316SOL     OW30583   4.689   4.200   5.685  0.1778 -0.2970  0.3807
 6316SOL    HW130584   4.606   4.229   5.722  0.2784 -0.6894  0.9195
 6316SOL    HW230585   4.693   4.111   5.719  1.9814 -0.1759  0.5092
 6317SOL     OW30586   2.251   3.224   6.362  0.1020 -0.2912 -0.3721
 6317SOL    HW130587   2.269   3.274   6.283  0.2270  3.5006  2.0441
 6317SOL    HW230588   2.221   3.140   6.328 -1.0599  0.2041 -0.5404
 6318SOL     OW30589   2.479   2.551   3.297 -0.6123  0.3133 -0.0371
 6318SOL    HW130590   2.482   2.558   3.393 -2.2454  0.4645  0.0060
 6318SOL    HW230591   2.499   2.640   3.268 -0.0633 -0.1077 -0.9382
 6319SOL     OW30592   2.446   0.320   5.054 -0.6785  0.0641 -0.4873
 6319SOL    HW130593   2.443   0.246   4.993  0.8610  0.5706 -1.1621
 6319SOL    HW230594   2.532   0.313   5.094 -0.9202  1.6445  0.3105
 6320SOL     OW30595   4.215   2.393   6.529 -0.0663 -0.2220  0.2987
 6320SOL    HW130596   4.133   2.383   6.480  0.1685  2.2793 -0.6396
 6320SOL    HW230597   4.181   2.347   6.606 -1.1584 -0.7180 -0.4775
 6321SOL     OW30598   4.016   4.257   8.695 -0.3201  0.4469  0.2808
 6321SOL    HW130599   4.016   4.285   8.603 -0.0538 -0.1674  0.0968
 6321SOL    HW230600   4.062   4.321   8.751 -1.2527  0.1419  1.3890
 6322SOL     OW30601   3.033   0.503  11.240  0.3519 -0.0827  0.0375
 6322SOL    HW130602   3.125   0.491  11.214  0.3060 -0.3583 -0.0036
 6322SOL    HW230603   3.029   0.474  11.331  0.3232 -0.2616 -0.0205
 6323SOL     OW30604   4.633   0.854   6.571  0.2999 -0.1433 -0.0529
 6323SOL    HW130605   4.548   0.836   6.532  0.7113 -2.2516  0.0395
 6323SOL    HW230606   4.609   0.861   6.663 -0.9105  0.0461 -0.3901
 6324SOL     OW30607   0.781   1.577   0.578  0.1404  0.4776  0.0471
 6324SOL    HW130608   0.719   1.508   0.602  0.0227  0.4970 -0.2021
 6324SOL    HW230609   0.782   1.628   0.659 -0.2631  0.5071  0.0329
 6325SOL     OW30610   1.079   0.538   8.814 -0.2717  0.3707 -0.4251
 6325SOL    HW130611   1.039   0.554   8.900 -2.0754 -1.3387 -0.9561
 6325SOL    HW230612   1.169   0.568   8.827 -0.7110  0.7027  1.8748
 6326SOL     OW30613   4.235   4.188   4.891 -0.5734 -0.8204  0.0341
 6326SOL    HW130614   4.308   4.129   4.873 -2.2999 -1.8824 -3.4559
 6326SOL    HW230615   4.274   4.242   4.960  1.7073 -1.6093 -0.6628
 6327SOL     OW30616   2.953   4.421  13.715 -0.3895  0.0922 -0.2426
 6327SOL    HW130617   3.000   4.341  13.737 -0.3040  0.0563 -0.5481
 6327SOL    HW230618   2.869   4.393  13.680 -0.8276  1.2579 -0.1297
 6328SOL     OW30619   4.147   3.376   8.505 -0.4183 -0.4874 -0.6355
 6328SOL    HW130620   4.133   3.303   8.565  1.2794  0.7589  1.2735
 6328SOL    HW230621   4.226   3.353   8.457  0.2620  2.6276 -1.0233
 6329SOL     OW30622   1.677   0.061  14.567 -0.0614  0.4924 -0.2797
 6329SOL    HW130623   1.642   4.720  14.612 -0.9425 -0.0916 -1.9695
 6329SOL    HW230624   1.596   0.069  14.517  1.0792  1.9675 -1.9051
 6330SOL     OW30625   2.903   3.702  14.850  0.0557  0.1223  0.4358
 6330SOL    HW130626   2.995   3.709  14.877 -0.2089  0.6055  1.2059
 6330SOL    HW230627   2.866   3.787  14.875 -2.0605 -0.0520 -2.1110
 6331SOL     OW30628   3.403   3.211   0.461 -0.2081 -0.0441 -0.1222
 6331SOL    HW130629   3.361   3.289   0.425 -0.3615  0.3519  0.9194
 6331SOL    HW230630   3.351   3.142   0.419 -0.5765  1.0270 -1.4380
 6332SOL     OW30631   4.042   2.844   6.815  0.1703  0.0080 -0.3226
 6332SOL    HW130632   4.039   2.748   6.808 -1.0539  0.0227 -0.1053
 6332SOL    HW230633   3.971   2.857   6.752  0.3280  0.7207 -0.3537
 6333SOL     OW30634   0.650   4.193   4.884  0.6275 -0.5523  0.2629
 6333SOL    HW130635   0.586   4.199   4.813  0.4593 -0.7123  0.4009
 6333SOL    HW230636   0.646   4.282   4.918  3.0560 -0.2866 -0.1537
 6334SOL     OW30637   0.939   2.843   4.666  0.4496 -0.5629  0.1407
 6334SOL    HW130638   0.967   2.785   4.596  3.1951 -0.5764  1.2523
 6334SOL    HW230639   0.855   2.876   4.633  1.2402  2.1737  0.8592
 6335SOL     OW30640   0.467   4.157   7.035  0.0002  0.2767  0.4204
 6335SOL    HW130641   0.391   4.189   6.987 -0.3919 -0.7736  0.3309
 6335SOL    HW230642   0.456   4.207   7.115  0.0379 -2.0075  1.8507
 6336SOL     OW30643   3.432   3.343   1.416 -0.5928 -0.2171 -0.5567
 6336SOL    HW130644   3.337   3.355   1.411 -0.1653  2.5813 -1.8286
 6336SOL    HW230645   3.465   3.425   1.380  0.2100 -0.0728  0.5138
 6337SOL     OW30646   1.520   3.459   6.415 -0.2465 -0.4661  0.4035
 6337SOL    HW130647   1.542   3.477   6.506 -2.5053  1.7954  0.5059
 6337SOL    HW230648   1.426   3.473   6.406 -0.3715 -3.1341 -2.4525
 6338SOL     OW30649   2.926   0.107   0.581 -0.5305 -0.0154  0.5558
 6338SOL    HW130650   2.932   0.059   0.663  2.5512 -0.0956  0.2846
 6338SOL    HW230651   2.959   0.045   0.516 -0.8837  0.7524 -0.3488
 6339SOL     OW30652   2.235   0.999   8.224 -0.5707  0.0713 -0.2390
 6339SOL    HW130653   2.326   1.011   8.251 -0.2854 -0.8654 -0.8280
 6339SOL    HW230654   2.190   0.933   8.277  0.5471 -1.0574 -0.7197
 6340SOL     OW30655   0.500   3.442  13.893 -0.2785  0.0369  0.4726
 6340SOL    HW130656   0.417   3.397  13.876 -0.9186  1.7018 -0.8359
 6340SOL    HW230657   0.536   3.422  13.807 -1.9796  1.2745 -0.5368
 6341SOL     OW30658   2.262   3.657   2.077  0.6252  0.5401 -0.0355
 6341SOL    HW130659   2.195   3.707   2.124  2.8489  1.7457  1.8207
 6341SOL    HW230660   2.335   3.719   2.077  2.0044 -1.0973 -1.6504
 6342SOL     OW30661   1.356   3.624   6.728 -0.7514  0.2020  0.8607
 6342SOL    HW130662   1.323   3.642   6.640  1.1062  1.0099  0.3134
 6342SOL    HW230663   1.296   3.556   6.758  1.4177 -2.1489 -0.1593
 6343SOL     OW30664   3.776   3.415   4.233  0.1686  0.5408 -0.1175
 6343SOL    HW130665   3.866   3.387   4.248  0.2548  0.8892  0.0142
 6343SOL    HW230666   3.761   3.389   4.142 -1.5121 -1.8582  0.8221
 6344SOL     OW30667   0.168   2.625   1.311 -0.0424 -0.2262  0.2111
 6344SOL    HW130668   0.144   2.579   1.392  0.8741  1.2492  1.3048
 6344SOL    HW230669   0.157   2.556   1.245 -1.6179  1.1752 -0.9988
 6345SOL     OW30670   3.260   1.469   5.782 -0.0597  0.0710  0.3788
 6345SOL    HW130671   3.279   1.524   5.858 -1.4227  0.2609  0.5770
 6345SOL    HW230672   3.309   1.523   5.720  0.8074  1.3233  2.1533
 6346SOL     OW30673   1.729   4.386   2.831 -0.0393 -0.2814  0.2449
 6346SOL    HW130674   1.781   4.361   2.754  1.9725  1.1290  1.1524
 6346SOL    HW230675   1.644   4.345   2.817 -0.9931  2.0784 -0.8537
 6347SOL     OW30676   2.858   3.029  15.862 -0.4379  0.3994  0.0564
 6347SOL    HW130677   2.852   2.941  15.900 -0.9778 -0.2453 -1.5265
 6347SOL    HW230678   2.950   3.044  15.844 -0.4373 -0.5994 -0.7590
 6348SOL     OW30679   4.697   3.098   1.772  0.3269  0.3188 -0.6097
 6348SOL    HW130680   0.047   3.072   1.802  0.6038 -1.9618 -3.4779
 6348SOL    HW230681   4.696   3.191   1.798 -0.2844 -0.3100  1.6738
 6349SOL     OW30682   0.629   3.566   5.324  0.1018 -0.3992  0.5119
 6349SOL    HW130683   0.712   3.602   5.354 -0.6681  1.1912  0.7568
 6349SOL    HW230684   0.568   3.628   5.365  0.4004  1.1712 -1.4243
 6350SOL     OW30685   0.298   1.896  15.829 -0.1107  0.3993 -0.2990
 6350SOL    HW130686   0.209   1.862  15.821 -0.5241  1.5145 -0.4302
 6350SOL    HW230687   0.335   1.863  15.747 -1.7708  0.2527 -0.9888
 6351SOL     OW30688   2.027   0.670   5.071 -0.5928  0.3021 -0.4776
 6351SOL    HW130689   1.948   0.678   5.018 -2.1635  0.3701  1.8526
 6351SOL    HW230690   2.102   0.630   5.027  0.2339  0.8748  0.3688
 6352SOL     OW30691   0.326   3.432   5.346  0.3285 -0.4590 -0.0729
 6352SOL    HW130692   0.333   3.492   5.273 -1.1721 -1.2132 -0.8392
 6352SOL    HW230693   0.282   3.500   5.397 -1.4958 -1.3178 -0.5178
 6353SOL     OW30694   4.604   2.591   4.159  0.0007  0.2654  0.2519
 6353SOL    HW130695   4.684   2.594   4.108 -0.6266 -0.8095 -0.7927
 6353SOL    HW230696   4.645   2.580   4.245  1.8188  1.2842 -0.4754
 6354SOL     OW30697   0.724   3.193  16.276  0.0195  0.4771 -0.0464
 6354SOL    HW130698   0.731   3.289  16.269  1.1307  0.5057  1.4776
 6354SOL    HW230699   0.631   3.173  16.277  0.1258 -0.0375 -0.8034
 6355SOL     OW30700   0.714   1.231  12.198 -0.4162  0.4659 -0.0054
 6355SOL    HW130701   0.761   1.282  12.132  0.8720 -0.5028  0.1660
 6355SOL    HW230702   0.702   1.290  12.273 -2.2376  0.0547  0.0290
 6356SOL     OW30703   3.044   4.662   0.389  0.1354 -0.5630  0.1148
 6356SOL    HW130704   3.121   4.611   0.366  1.1275  0.8973  0.1753
 6356SOL    HW230705   2.975   4.596   0.387  1.6616 -2.1407  0.3814
 6357SOL     OW30706   4.558   3.046   2.736  0.6335 -0.6418  0.1889
 6357SOL    HW130707   4.587   3.071   2.649  0.9118 -0.5224  0.3148
 6357SOL    HW230708   4.549   3.131   2.781  0.3202 -0.3260 -0.4750
 6358SOL     OW30709   2.671   3.331   7.855  0.0955 -0.2533 -0.4524
 6358SOL    HW130710   2.591   3.284   7.833  0.4297 -1.3311  0.6114
 6358SOL    HW230711   2.664   3.306   7.947  0.9657 -2.8764 -1.0890
 6359SOL     OW30712   3.433   0.452  13.160  0.0023  0.2855  0.5525
 6359SOL    HW130713   3.340   0.469  13.144  0.3677  0.6041 -1.3247
 6359SOL    HW230714   3.425   0.361  13.133  0.0468  0.6133 -0.6050
 6360SOL     OW30715   2.345   0.989   4.613  0.2841 -0.1750  0.4541
 6360SOL    HW130716   2.258   0.952   4.593  0.8473 -2.3664  2.0407
 6360SOL    HW230717   2.319   1.023   4.698 -0.4090  0.9675 -0.2184
 6361SOL     OW30718   1.247   0.179   2.614  0.2901  0.6217 -0.4059
 6361SOL    HW130719   1.195   0.258   2.624  2.1745  1.5497  2.0970
 6361SOL    HW230720   1.327   0.189   2.666  0.3557 -0.6582 -0.2537
 6362SOL     OW30721   1.194   4.723   2.888  0.3691 -0.1768 -0.1993
 6362SOL    HW130722   1.224   4.633   2.875 -1.9655 -0.9018 -0.6909
 6362SOL    HW230723   1.267   0.038   2.854 -0.6606  1.5431  0.1866
 6363SOL     OW30724   3.048   1.514  13.369 -0.5573  0.1955  0.0023
 6363SOL    HW130725   3.093   1.450  13.424 -0.5747 -0.3222 -0.5917
 6363SOL    HW230726   3.123   1.570  13.350  1.3678 -2.5906 -0.6656
 6364SOL     OW30727   3.323   0.362   0.258 -0.4747 -0.5039 -0.2945
 6364SOL    HW130728   3.258   0.425   0.287  0.6741  0.1808  0.8087
 6364SOL    HW230729   3.264   0.287   0.260  0.7033 -1.4041  1.9395
 6365SOL     OW30730   3.786   0.032   3.325 -0.1632 -0.4091 -0.3014
 6365SOL    HW130731   3.827   4.682   3.324 -0.7458 -0.6857  0.3243
 6365SOL    HW230732   3.744   0.049   3.241 -1.7144  1.2166  0.8228
 6366SOL     OW30733   0.709   4.630   5.362  0.3276 -0.3219 -0.4784
 6366SOL    HW130734   0.729   4.553   5.414 -0.3633  1.2212  2.0477
 6366SOL    HW230735   0.642   4.676   5.412  0.7964 -2.2943  1.9411
 6367SOL     OW30736   0.274   0.681  10.879  0.2997 -0.0237  0.2159
 6367SOL    HW130737   0.209   0.752  10.875 -1.9991 -2.0571  1.5248
 6367SOL    HW230738   0.284   0.670  10.974 -2.0665 -2.6612  0.1365
 6368SOL     OW30739   4.176   0.274   7.867  0.3505  0.1860  0.0911
 6368SOL    HW130740   4.147   0.198   7.919  1.9780 -1.4851 -1.4380
 6368SOL    HW230741   4.219   0.228   7.795 -0.1515 -0.3452  0.1222
 6369SOL     OW30742   3.836   0.366   5.008 -0.2569 -0.0168 -0.2331
 6369SOL    HW130743   3.758   0.367   4.952 -0.3609  0.6235 -0.0757
 6369SOL    HW230744   3.902   0.399   4.947  0.2822 -0.5842  0.0417
 6370SOL     OW30745   2.505   4.327   3.499 -0.0869  0.5929  0.3539
 6370SOL    HW130746   2.437   4.394   3.488 -1.9532 -1.5844 -1.2869
 6370SOL    HW230747   2.477   4.293   3.584  3.4581 -0.3895  1.1534
 6371SOL     OW30748   3.359   0.997   2.182  0.4929  0.4240 -0.2208
 6371SOL    HW130749   3.292   1.065   2.193  0.6271  0.7291 -1.3071
 6371SOL    HW230750   3.411   1.027   2.108 -0.9067 -1.2263 -1.8626
 6372SOL     OW30751   2.743   0.470  10.205  0.4802  0.3684  0.3147
 6372SOL    HW130752   2.824   0.521  10.218 -0.9606  2.6734  0.3461
 6372SOL    HW230753   2.693   0.483  10.286  0.2575 -0.5132  0.3155
 6373SOL     OW30754   0.338   0.580   6.506 -0.0150  0.3004 -0.3038
 6373SOL    HW130755   0.274   0.556   6.439  0.2853 -0.8743 -0.1799
 6373SOL    HW230756   0.397   0.630   6.450 -0.0853  1.7844  0.9686
 6374SOL     OW30757   4.515   1.472   5.825  0.2243 -0.3469  0.2305
 6374SOL    HW130758   4.543   1.383   5.804  1.4929  0.7225 -2.6245
 6374SOL    HW230759   4.549   1.519   5.749 -0.2163 -1.7768 -0.8562
 6375SOL     OW30760   3.309   1.647   3.256 -0.5004 -0.0853 -0.2329
 6375SOL    HW130761   3.345   1.567   3.294 -0.0112 -0.1056 -0.7527
 6375SOL    HW230762   3.221   1.645   3.294  0.1729 -0.1109  1.3307
 6376SOL     OW30763   4.648   1.853   5.744  0.5867  0.0709 -0.0969
 6376SOL    HW130764   4.716   1.787   5.747 -1.1662 -1.8464 -2.7220
 6376SOL    HW230765   4.659   1.889   5.656  1.9379  1.1751  0.5289
 6377SOL     OW30766   4.697   4.531   8.823 -0.1781 -0.7125 -0.1265
 6377SOL    HW130767   4.705   4.528   8.728 -2.6582  0.3339 -0.3629
 6377SOL    HW230768   4.713   4.440   8.849  0.8261 -0.7532 -0.9176
 6378SOL     OW30769   3.844   0.292   2.343  0.0805  0.0054 -0.3200
 6378SOL    HW130770   3.814   0.382   2.337 -0.7964 -0.1308  2.1047
 6378SOL    HW230771   3.835   0.264   2.251  2.2957 -0.8647 -0.2867
 6379SOL     OW30772   2.921   1.338   3.839 -0.4324  0.0388  0.3641
 6379SOL    HW130773   2.923   1.433   3.839  1.3265 -0.0147 -0.3176
 6379SOL    HW230774   2.949   1.330   3.931 -0.0905  2.2970  0.4510
 6380SOL     OW30775   3.229   4.063   6.576  0.1322 -0.2831 -0.1586
 6380SOL    HW130776   3.215   4.065   6.670 -0.0675  0.4438 -0.2051
 6380SOL    HW230777   3.296   4.129   6.561  0.3035 -0.7531 -1.5105
 6381SOL     OW30778   0.292   0.445   8.952  0.7300 -0.3411  0.0373
 6381SOL    HW130779   0.249   0.384   9.012  1.7712 -0.3790  0.7492
 6381SOL    HW230780   0.249   0.427   8.868  3.2540 -0.3932 -1.2593
 6382SOL     OW30781   1.608   4.244  13.572  0.4130  0.0304  0.3562
 6382SOL    HW130782   1.544   4.304  13.534  1.8844  0.5594 -1.3269
 6382SOL    HW230783   1.690   4.294  13.575  1.3544 -1.5002 -0.3738
 6383SOL     OW30784   2.476   3.105   2.157 -0.1019 -0.0372  0.5830
 6383SOL    HW130785   2.455   3.119   2.249 -0.4368 -0.8167  0.6269
 6383SOL    HW230786   2.501   3.013   2.167 -1.5667 -0.8493 -3.5208
 6384SOL     OW30787   2.623   0.518  10.445 -0.4332  0.0639  1.3715
 6384SOL    HW130788   2.699   0.574  10.459 -0.6282  1.0633 -1.6331
 6384SOL    HW230789   2.553   0.563  10.493 -0.3538  1.3825  0.2534
 6385SOL     OW30790   2.729   0.572   8.205 -0.1638 -0.0091 -0.3361
 6385SOL    HW130791   2.762   0.539   8.289 -0.5835 -1.2864 -0.6708
 6385SOL    HW230792   2.647   0.616   8.231 -1.2789 -2.6440  0.5862
 6386SOL     OW30793   3.657   0.493  16.434  0.2463 -0.5464  0.1355
 6386SOL    HW130794   3.671   0.421  16.495 -0.6009  0.4601  1.5099
 6386SOL    HW230795   3.663   0.573  16.486  1.0543  1.2538 -2.6842
 6387SOL     OW30796   0.602   2.979   4.875  0.5692 -0.0432 -0.0766
 6387SOL    HW130797   0.639   3.066   4.883  0.2175  0.1130 -0.1761
 6387SOL    HW230798   0.515   2.996   4.910  1.0274 -0.5828  1.3462
 6388SOL     OW30799   4.541   1.914  12.906 -0.1727  0.4987 -0.7092
 6388SOL    HW130800   4.618   1.965  12.933 -0.4326  0.0161  0.9131
 6388SOL    HW230801   4.586   1.843  12.859 -1.1195 -0.9758  0.6529
 6389SOL     OW30802   3.475   0.880  13.091 -0.0504 -0.4026 -0.1891
 6389SOL    HW130803   3.381   0.872  13.110 -0.6961  1.4301 -2.4747
 6389SOL    HW230804   3.492   0.962  13.137  1.8757 -0.3520 -0.9923
 6390SOL     OW30805   4.046   0.739   3.865 -0.0147  0.2977 -0.2822
 6390SOL    HW130806   4.137   0.768   3.862 -0.4292  1.6168 -0.0099
 6390SOL    HW230807   4.027   0.735   3.771 -1.3895  0.7702 -0.0124
 6391SOL     OW30808   0.082   0.710   9.037  0.0429  0.0822 -0.5316
 6391SOL    HW130809   0.027   0.634   9.053  2.1139 -1.4613 -0.7542
 6391SOL    HW230810   0.124   0.737   9.118 -1.3389  1.6881 -0.3444
 6392SOL     OW30811   0.454   0.155   3.654 -0.6987  0.2727 -0.1966
 6392SOL    HW130812   0.462   0.238   3.701 -3.7333  1.1764 -1.2770
 6392SOL    HW230813   0.371   0.123   3.689  0.2324 -0.0570  1.7063
 6393SOL     OW30814   1.800   1.186  15.874  0.1851  0.4797  0.0804
 6393SOL    HW130815   1.843   1.183  15.960 -0.4552  0.0090  0.3815
 6393SOL    HW230816   1.862   1.242  15.826  0.3572  0.2517  0.0385
 6394SOL     OW30817   1.130   2.380   1.132  0.3015 -0.3036  0.2100
 6394SOL    HW130818   1.164   2.296   1.164 -0.5944 -0.5293  0.5861
 6394SOL    HW230819   1.198   2.442   1.156 -1.7155  0.9324  2.7350
 6395SOL     OW30820   0.859   2.339   6.090 -0.0107  0.3145 -0.0382
 6395SOL    HW130821   0.892   2.401   6.154 -0.5383  0.5197  0.0306
 6395SOL    HW230822   0.941   2.324   6.042  1.3440  0.0403  2.3576
 6396SOL     OW30823   1.055   2.962   2.639 -0.5915  0.4095 -0.0093
 6396SOL    HW130824   1.117   2.946   2.710  3.4634  3.1298 -2.9327
 6396SOL    HW230825   1.091   2.908   2.569  3.8028  4.7322 -1.0477
 6397SOL     OW30826   0.794   2.613  11.812  0.5314  0.3830  0.1852
 6397SOL    HW130827   0.747   2.555  11.872 -0.4443  0.1554 -0.7907
 6397SOL    HW230828   0.736   2.622  11.736 -0.5018 -1.6730  0.7236
 6398SOL     OW30829   2.844   4.485   0.491 -0.1336 -0.4013  0.5826
 6398SOL    HW130830   2.881   4.495   0.579  1.2745  0.4949 -0.1072
 6398SOL    HW230831   2.826   4.391   0.490 -1.7529 -0.0843 -0.0663
 6399SOL     OW30832   1.767   1.616   6.811 -0.3395  0.6404 -0.2805
 6399SOL    HW130833   1.728   1.664   6.738  0.0105  3.3135  1.2670
 6399SOL    HW230834   1.861   1.624   6.796 -0.1611  1.0212  1.0235
 6400SOL     OW30835   0.564   0.447   1.685 -0.0926 -0.2097 -0.1521
 6400SOL    HW130836   0.538   0.377   1.626  2.0165 -0.1644 -1.1254
 6400SOL    HW230837   0.490   0.508   1.675  0.2962 -0.0915 -2.2877
 6401SOL     OW30838   4.175   4.420   4.014  0.0660  0.7345 -0.2563
 6401SOL    HW130839   4.184   4.345   4.074 -1.6919 -0.2278 -1.1864
 6401SOL    HW230840   4.108   4.391   3.952 -0.8448 -0.0440  1.0659
 6402SOL     OW30841   0.832   4.063   6.298  0.7507  0.1122  0.6594
 6402SOL    HW130842   0.846   3.969   6.310  1.7604  0.5042  2.5266
 6402SOL    HW230843   0.737   4.072   6.304  0.6914 -0.6962  1.0913
 6403SOL     OW30844   1.708   0.276  13.101  0.2294 -0.0851 -0.7755
 6403SOL    HW130845   1.715   0.371  13.092  2.5348 -0.2827 -1.1258
 6403SOL    HW230846   1.746   0.259  13.188 -1.5907  1.8569  0.3987
 6404SOL     OW30847   3.798   0.107   2.950  0.5085  0.2221  0.2200
 6404SOL    HW130848   3.747   0.159   3.014  0.5675 -0.2007  0.6092
 6404SOL    HW230849   3.764   0.020   2.969  0.2137  0.5444  1.1900
 6405SOL     OW30850   2.559   2.490   2.913 -0.7163  0.0888 -0.2994
 6405SOL    HW130851   2.492   2.533   2.860 -1.0903  0.7482  0.7199
 6405SOL    HW230852   2.518   2.436   2.980  1.0459 -0.6237  0.2087
 6406SOL     OW30853   3.561   0.568   5.759 -0.5078  0.9343  0.3191
 6406SOL    HW130854   3.619   0.620   5.815 -0.4522  0.7403  0.4417
 6406SOL    HW230855   3.535   0.502   5.823  2.9173  2.2278  3.0761
 6407SOL     OW30856   1.880   4.363  13.610  0.3733 -0.1678 -0.0587
 6407SOL    HW130857   1.962   4.410  13.595 -0.4900  1.7807  1.2004
 6407SOL    HW230858   1.889   4.317  13.694  1.3058  1.5177  0.7730
 6408SOL     OW30859   2.169   3.445   7.345  0.2204  0.3063 -0.0116
 6408SOL    HW130860   2.243   3.429   7.288 -0.6678 -1.0099 -0.7921
 6408SOL    HW230861   2.192   3.400   7.427 -1.0640 -0.4190 -0.0381
 6409SOL     OW30862   0.611   2.934   1.201 -0.4177  0.2428 -0.2893
 6409SOL    HW130863   0.582   2.947   1.111 -0.4738 -2.5402 -0.6583
 6409SOL    HW230864   0.549   2.870   1.235  0.6732  0.7827  2.7080
 6410SOL     OW30865   0.691   3.345   7.273  0.1948  0.7659 -0.0557
 6410SOL    HW130866   0.717   3.262   7.313 -2.4715 -0.6509 -1.2707
 6410SOL    HW230867   0.717   3.406   7.342 -0.1955 -1.1384  1.7847
 6411SOL     OW30868   3.004   4.217   8.270  0.5300  0.4603  0.6616
 6411SOL    HW130869   3.018   4.311   8.279  0.0903  0.3763  2.1469
 6411SOL    HW230870   2.936   4.206   8.336  0.0043  0.3729  0.1033
 6412SOL     OW30871   3.076   3.516   9.315  0.2968  0.0186  0.0057
 6412SOL    HW130872   3.009   3.467   9.362  0.4896  0.8971  1.2037
 6412SOL    HW230873   3.146   3.524   9.380 -0.3935  0.5999  0.6774
 6413SOL     OW30874   2.524   2.182   5.832 -0.3566  0.2199  0.2888
 6413SOL    HW130875   2.600   2.175   5.890 -0.5051 -3.7128 -0.0217
 6413SOL    HW230876   2.526   2.093   5.797  1.1063  0.6321 -0.6964
 6414SOL     OW30877   3.689   0.687   3.057 -0.3840  0.2208 -0.2998
 6414SOL    HW130878   3.728   0.616   3.107  0.9465  1.4053  0.3272
 6414SOL    HW230879   3.700   0.756   3.123 -0.8467 -0.2584  0.2722
 6415SOL     OW30880   1.773   4.109   3.573  0.2529 -0.1141 -0.3216
 6415SOL    HW130881   1.847   4.060   3.609  0.9227  1.7392  0.8188
 6415SOL    HW230882   1.821   4.168   3.513 -0.2777  0.4975 -0.1463
 6416SOL     OW30883   3.986   3.775   4.149  0.3339  0.1452 -0.0838
 6416SOL    HW130884   3.925   3.772   4.223 -1.8956 -0.7595 -1.9860
 6416SOL    HW230885   3.990   3.685   4.118 -0.7542 -0.2284  0.8655
 6417SOL     OW30886   2.548   3.528   9.178 -0.1199  0.3638  0.3296
 6417SOL    HW130887   2.486   3.468   9.219 -2.4373  1.7119 -1.1795
 6417SOL    HW230888   2.487   3.593   9.142  2.1463  1.8082 -0.9544
 6418SOL     OW30889   3.684   3.873   7.369  0.2410  0.0713 -0.2487
 6418SOL    HW130890   3.624   3.800   7.349  1.5958 -0.7691 -1.2406
 6418SOL    HW230891   3.692   3.910   7.281  1.2780  0.0538 -0.1595
 6419SOL     OW30892   4.204   1.648   4.887 -0.2972  0.1569  0.0969
 6419SOL    HW130893   4.197   1.661   4.982  1.0537  1.3761  0.0312
 6419SOL    HW230894   4.263   1.722   4.873  1.8064 -1.4489  0.3521
 6420SOL     OW30895   1.699   0.230  14.326  0.0100 -0.1439 -0.5374
 6420SOL    HW130896   1.677   0.249  14.417  0.0371 -0.5947 -0.4342
 6420SOL    HW230897   1.722   0.138  14.339  1.2322  0.2879  0.4159
 6421SOL     OW30898   1.855   3.181   8.381  0.3898  0.6121 -0.2313
 6421SOL    HW130899   1.885   3.262   8.423  0.6492  0.9566 -1.0941
 6421SOL    HW230900   1.933   3.152   8.333  0.3072 -1.4586  0.8557
 6422SOL     OW30901   3.997   2.447   6.997  0.6281  0.3475  0.1748
 6422SOL    HW130902   4.082   2.437   7.040  0.2818  0.7869  0.9591
 6422SOL    HW230903   3.941   2.386   7.044 -1.0636  0.8620 -1.1905
 6423SOL     OW30904   2.185   0.815   4.334  0.5990 -0.1944  0.9555
 6423SOL    HW130905   2.115   0.781   4.279  0.8421  0.4013  0.2791
 6423SOL    HW230906   2.162   0.794   4.424 -1.9184 -0.1682  0.3030
 6424SOL     OW30907   0.736   2.731   1.677  0.6135  0.1788  0.2138
 6424SOL    HW130908   0.775   2.787   1.609 -0.3744  1.7016  0.9113
 6424SOL    HW230909   0.720   2.651   1.628  2.4384  1.2176 -2.1221
 6425SOL     OW30910   0.134   3.820   6.318  0.0290 -0.2355 -0.0875
 6425SOL    HW130911   0.052   3.868   6.312  0.4436  0.5175  0.2930
 6425SOL    HW230912   0.127   3.790   6.409  1.3144  2.8167  1.0210
 6426SOL     OW30913   1.616   1.626   2.163  0.0728  0.4538  0.2067
 6426SOL    HW130914   1.560   1.553   2.138  0.0677  0.1358  1.1391
 6426SOL    HW230915   1.589   1.684   2.093 -1.2898  1.1475  1.3017
 6427SOL     OW30916   0.962   2.954   5.875 -0.4331 -0.3760 -0.3478
 6427SOL    HW130917   1.056   2.940   5.866 -0.3133 -0.0716  0.4595
 6427SOL    HW230918   0.953   3.027   5.937 -2.5917 -1.0073  0.0945
 6428SOL     OW30919   3.696   4.521  12.520  0.5153  0.2679  0.0748
 6428SOL    HW130920   3.723   4.600  12.473  1.1751 -0.2166 -0.3525
 6428SOL    HW230921   3.783   4.494  12.549  0.9774  0.7361 -0.9107
 6429SOL     OW30922   4.417   1.959   7.882 -0.5482 -0.0118 -0.5625
 6429SOL    HW130923   4.448   1.869   7.878  2.5843  1.0444 -0.3988
 6429SOL    HW230924   4.483   2.010   7.931  0.6052 -1.6609 -0.4051
 6430SOL     OW30925   4.354   0.071   4.716  0.3565  0.0484 -0.4439
 6430SOL    HW130926   4.305   4.735   4.755  0.1201  0.5223  0.1379
 6430SOL    HW230927   4.332   0.146   4.771 -0.6756  0.3442 -1.2349
 6431SOL     OW30928   0.519   4.654   2.397  0.4849  0.0118 -0.1061
 6431SOL    HW130929   0.478   4.589   2.453 -1.2271  0.3719 -0.9251
 6431SOL    HW230930   0.523   4.723   2.464 -0.3930  1.2231 -1.2917
 6432SOL     OW30931   3.531   2.942   4.339 -0.4806 -0.0127 -0.1563
 6432SOL    HW130932   3.519   2.893   4.258 -0.3724 -0.7613  0.2867
 6432SOL    HW230933   3.498   3.029   4.316  0.6682  0.7045  0.8833
 6433SOL     OW30934   0.298   4.637  14.482  0.3251 -0.1883 -0.1728
 6433SOL    HW130935   0.270   4.560  14.532 -1.9069  0.4975 -0.3657
 6433SOL    HW230936   0.266   4.709  14.536  2.0820 -0.0780  0.7439
 6434SOL     OW30937   0.924   1.816   3.237 -0.5102  0.0538  0.1422
 6434SOL    HW130938   0.964   1.873   3.171 -2.1714 -0.5172 -1.3648
 6434SOL    HW230939   0.993   1.759   3.270 -0.7594  0.8461  2.0294
 6435SOL     OW30940   1.926   2.598   7.533 -0.1542 -0.1644 -0.6649
 6435SOL    HW130941   1.854   2.541   7.560  0.9945 -1.1450  0.3228
 6435SOL    HW230942   1.940   2.553   7.449  0.1854 -2.1664  0.4588
 6436SOL     OW30943   3.040   4.525  13.135  0.1407 -0.1229  0.0461
 6436SOL    HW130944   3.011   4.470  13.209  0.3122  1.3387  1.2034
 6436SOL    HW230945   3.051   4.468  13.059 -0.5606 -0.2101  0.0085
 6437SOL     OW30946   4.718   3.854   7.806 -0.1048 -0.2103 -0.4427
 6437SOL    HW130947   4.654   3.834   7.737  1.9114 -1.1846 -2.0260
 6437SOL    HW230948   0.058   3.859   7.748  0.8968 -1.1797  0.8104
 6438SOL     OW30949   1.058   1.178   7.886  0.2401  0.7000 -0.0154
 6438SOL    HW130950   0.980   1.144   7.843  1.7210  0.0401 -2.1731
 6438SOL    HW230951   1.078   1.108   7.948 -1.1491  1.4137  1.2343
 6439SOL     OW30952   3.340   0.707   3.972  0.3518 -0.0785 -0.4081
 6439SOL    HW130953   3.300   0.627   4.005 -1.5716  0.7001 -0.7956
 6439SOL    HW230954   3.295   0.709   3.887 -1.3198 -1.8298  0.4414
 6440SOL     OW30955   4.640   2.848  15.156 -0.4470 -0.3811 -0.2858
 6440SOL    HW130956   4.594   2.900  15.222  1.7224 -2.3283  2.7913
 6440SOL    HW230957   4.728   2.848  15.195  0.6137  1.2748 -2.7160
 6441SOL     OW30958   0.096   1.181   7.178  0.1027 -0.2935 -0.1819
 6441SOL    HW130959   0.123   1.238   7.106 -1.9895  2.3008  1.0931
 6441SOL    HW230960   0.132   1.225   7.255  1.6696  0.6473 -1.4498
 6442SOL     OW30961   1.997   2.732   6.505  0.7394  0.2951  0.1844
 6442SOL    HW130962   2.027   2.770   6.423  0.6346 -0.4306 -0.1892
 6442SOL    HW230963   2.000   2.803   6.569 -1.5717 -0.0866  0.7455
 6443SOL     OW30964   0.936   4.094   7.979  0.7569  0.1211  0.2653
 6443SOL    HW130965   0.942   4.152   8.055  2.0358  2.0096 -1.2750
 6443SOL    HW230966   0.978   4.155   7.917  1.2162 -0.2470  0.2167
 6444SOL     OW30967   2.307   0.046   4.894  0.0821 -0.7900 -0.1181
 6444SOL    HW130968   2.332   4.691   4.897  0.3050 -0.6021  3.0706
 6444SOL    HW230969   2.221   0.034   4.852  0.8809 -0.9759 -1.7131
 6445SOL     OW30970   1.521   2.680   7.976 -1.0156  0.1734  0.4577
 6445SOL    HW130971   1.517   2.742   8.049  2.0042 -0.0334  0.7897
 6445SOL    HW230972   1.525   2.738   7.900  0.4895 -1.2194 -0.5271
 6446SOL     OW30973   0.454   2.043   1.463 -0.4266 -0.0220 -0.0221
 6446SOL    HW130974   0.539   2.086   1.472  0.0099 -0.5751 -1.4841
 6446SOL    HW230975   0.479   1.962   1.419 -0.2612  0.5037 -0.9049
 6447SOL     OW30976   1.876   4.477   5.775  0.4314  0.3818  0.6307
 6447SOL    HW130977   1.862   4.570   5.755 -0.0507 -0.2666 -2.1233
 6447SOL    HW230978   1.955   4.464   5.723  0.1362  4.2032 -0.7668
 6448SOL     OW30979   3.717   1.096   0.888 -0.5535 -0.6283  0.2061
 6448SOL    HW130980   3.789   1.068   0.945  0.9754  0.5119 -1.1699
 6448SOL    HW230981   3.687   1.168   0.944  2.1449 -0.9734  2.1152
 6449SOL     OW30982   1.834   3.778   6.743  0.4761 -0.4877 -0.3485
 6449SOL    HW130983   1.885   3.741   6.816  0.8343 -2.9115 -1.8370
 6449SOL    HW230984   1.878   3.863   6.745 -0.5951  0.0592 -0.2713
 6450SOL     OW30985   1.390   3.965   3.391  0.3057 -0.4115  0.0890
 6450SOL    HW130986   1.441   3.968   3.311  0.1125 -0.7634 -0.0482
 6450SOL    HW230987   1.465   3.972   3.450  0.1289 -0.0160  0.2684
 6451SOL     OW30988   4.312   1.761   8.748 -0.3094 -0.3749  0.3136
 6451SOL    HW130989   4.399   1.745   8.710 -0.8855 -2.6367 -0.0508
 6451SOL    HW230990   4.258   1.723   8.679 -1.2905  0.7128  0.4747
 6452SOL     OW30991   0.563   1.272   7.678  0.8732  0.8816  0.4318
 6452SOL    HW130992   0.608   1.345   7.722  0.2412  2.0182 -0.8116
 6452SOL    HW230993   0.640   1.235   7.635 -0.4948 -2.5264  0.9047
 6453SOL     OW30994   4.662   2.212   6.822  0.2018 -0.4414 -0.2083
 6453SOL    HW130995   4.615   2.177   6.898  0.5160  0.7127  0.5109
 6453SOL    HW230996   0.016   2.197   6.848 -0.6728 -0.9612  2.4787
 6454SOL     OW30997   4.349   2.050   6.198 -0.1985 -0.6476 -0.0855
 6454SOL    HW130998   4.360   1.959   6.170 -0.0303 -0.2807 -1.1833
 6454SOL    HW230999   4.347   2.087   6.110 -3.7646  0.9455  0.6422
 6455SOL     OW31000   3.090   2.560   3.669 -0.1164 -0.2750  0.3242
 6455SOL    HW131001   3.012   2.569   3.724 -0.5957 -2.0365 -0.0666
 6455SOL    HW231002   3.098   2.468   3.645 -0.4974  0.2162 -1.6314
 6456SOL     OW31003   3.467   2.494   3.995 -0.2967  0.5440  0.0332
 6456SOL    HW131004   3.562   2.507   3.998  0.1939 -3.4096  1.5055
 6456SOL    HW231005   3.473   2.406   3.957 -2.2836  0.0264  0.9358
 6457SOL     OW31006   1.307   1.339   3.308 -0.0899  0.2721  0.2543
 6457SOL    HW131007   1.374   1.316   3.243  1.1799 -0.4202  1.8072
 6457SOL    HW231008   1.241   1.365   3.244  0.0154 -1.9705 -0.7870
 6458SOL     OW31009   2.409   4.436   7.760 -0.5509  0.6819  0.4971
 6458SOL    HW131010   2.354   4.358   7.762 -2.0479  1.7205 -0.6669
 6458SOL    HW231011   2.377   4.479   7.839  1.5940  1.2001  1.0785
 6459SOL     OW31012   4.329   3.321   9.165  0.1848 -0.5101 -0.6490
 6459SOL    HW131013   4.290   3.239   9.136 -1.1850 -0.1498  0.1452
 6459SOL    HW231014   4.253   3.378   9.148  1.9182  1.6672 -1.1157
 6460SOL     OW31015   1.173   4.451  16.925 -0.1340  0.4313 -0.0894
 6460SOL    HW131016   1.258   4.439  16.966 -0.0429 -0.8307 -0.6662
 6460SOL    HW231017   1.182   4.407  16.841  0.0034  0.4372 -0.0777
 6461SOL     OW31018   2.474   0.805   3.855  0.2269  0.6745 -0.2371
 6461SOL    HW131019   2.482   0.846   3.769  1.7606 -1.3057 -1.0166
 6461SOL    HW231020   2.491   0.884   3.907 -3.2007  1.6610 -0.5607
 6462SOL     OW31021   3.323   4.468  10.024 -0.0387  0.1969 -0.0891
 6462SOL    HW131022   3.316   4.375  10.002 -2.0796  0.6277 -1.2764
 6462SOL    HW231023   3.367   4.513   9.952 -1.8049  2.2427  0.1121
 6463SOL     OW31024   3.640   1.007  16.864 -0.1238 -0.1045  0.3548
 6463SOL    HW131025   3.629   1.027  16.957  0.9710 -3.1888  1.1492
 6463SOL    HW231026   3.629   1.087  16.813  1.5415 -0.4042 -0.4810
 6464SOL     OW31027   4.274   2.453  16.666 -0.3276  0.1992 -0.1750
 6464SOL    HW131028   4.181   2.431  16.664 -0.0828 -0.8621  0.2304
 6464SOL    HW231029   4.305   2.438  16.577  1.5184  1.6288  0.2134
 6465SOL     OW31030   3.779   2.578   8.371 -0.1107  0.5755  0.2402
 6465SOL    HW131031   3.715   2.649   8.372 -0.8784 -0.1229  0.3002
 6465SOL    HW231032   3.825   2.585   8.455 -0.6996 -0.3518  0.6378
 6466SOL     OW31033   0.318   4.064  10.876 -0.2356  0.5184  0.2970
 6466SOL    HW131034   0.384   4.112  10.927  1.9220 -0.8354 -1.1892
 6466SOL    HW231035   0.251   4.039  10.940  0.3590  2.4663  1.6725
 6467SOL     OW31036   4.398   4.595   6.092 -0.2293  0.3733 -0.1665
 6467SOL    HW131037   4.390   4.547   6.009  0.6802 -3.1706  1.7581
 6467SOL    HW231038   4.483   4.636   6.075 -0.7523  2.0161  1.2583
 6468SOL     OW31039   1.543   3.481   7.352 -0.1618 -0.0688 -0.3268
 6468SOL    HW131040   1.529   3.553   7.290  2.7087 -1.0965 -2.1795
 6468SOL    HW231041   1.475   3.422   7.320  0.2300 -0.8838  0.3359
 6469SOL     OW31042   2.799   2.995   7.713  0.1229 -0.5215  0.0030
 6469SOL    HW131043   2.708   2.970   7.722 -0.0677 -0.0784 -0.7292
 6469SOL    HW231044   2.821   3.015   7.804 -0.4823 -2.4799  0.5601
 6470SOL     OW31045   1.586   4.516   0.637  0.0666  0.2649  0.0344
 6470SOL    HW131046   1.585   4.586   0.702  3.0237 -0.1166  0.4885
 6470SOL    HW231047   1.622   4.450   0.696 -0.4249  0.3188  0.3861
 6471SOL     OW31048   2.101   1.525  12.856  0.3585 -0.2849  0.1391
 6471SOL    HW131049   2.031   1.498  12.795  1.7630 -0.2898 -1.4668
 6471SOL    HW231050   2.135   1.596  12.801 -1.9576 -0.2305 -1.2583
 6472SOL     OW31051   1.983   1.800  10.933  0.3717 -0.9277  0.0496
 6472SOL    HW131052   2.065   1.819  10.979 -0.5327 -0.7955  1.5747
 6472SOL    HW231053   2.015   1.728  10.878 -0.3558 -0.5753 -0.8399
 6473SOL     OW31054   4.310   2.345   6.222 -0.0894 -0.3261 -0.1693
 6473SOL    HW131055   4.373   2.308   6.160 -0.7359 -1.8798  0.0878
 6473SOL    HW231056   4.366   2.403   6.273  3.2440 -0.0874 -4.1028
 6474SOL     OW31057   2.859   1.714  12.550  0.2438  0.5730  0.4993
 6474SOL    HW131058   2.933   1.657  12.571 -0.8004 -0.7642  0.5616
 6474SOL    HW231059   2.826   1.667  12.473 -0.8470  2.6293 -0.2874
 6475SOL     OW31060   2.559   2.650  10.596  0.0947  0.7070  0.1359
 6475SOL    HW131061   2.542   2.584  10.529  1.4017  0.6791 -0.1659
 6475SOL    HW231062   2.513   2.620  10.674 -0.5599  3.0415  0.6407
 6476SOL     OW31063   1.716   4.101  14.738 -0.1975 -0.0949  0.3180
 6476SOL    HW131064   1.758   4.025  14.698 -1.3767 -0.4296 -0.2826
 6476SOL    HW231065   1.778   4.132  14.804  0.1232  0.4647 -0.2428
 6477SOL     OW31066   4.263   4.223   0.876 -0.5261 -0.0717 -0.1473
 6477SOL    HW131067   4.251   4.276   0.955  1.8157  0.8021 -0.3516
 6477SOL    HW231068   4.187   4.165   0.879 -1.7729  1.6061  0.6896
 6478SOL     OW31069   0.773   3.955   2.310  0.1053  0.2079  0.6992
 6478SOL    HW131070   0.719   3.911   2.245  0.7951  2.0808 -1.1498
 6478SOL    HW231071   0.859   3.931   2.277  0.7064  0.5180  2.0365
 6479SOL     OW31072   3.039   2.841   5.361 -0.4590 -0.4638 -0.6572
 6479SOL    HW131073   3.026   2.831   5.456  2.9313  0.3850 -0.1138
 6479SOL    HW231074   3.102   2.772   5.343 -0.8966 -0.6049 -1.6534
 6480SOL     OW31075   1.627   0.466   3.912  0.1552 -0.7625  0.0361
 6480SOL    HW131076   1.543   0.422   3.898  0.9939 -1.7634 -1.7772
 6480SOL    HW231077   1.642   0.506   3.827  1.3638  2.5654  1.7736
 6481SOL     OW31078   2.789   3.561   5.113 -0.9464 -0.0932 -0.2785
 6481SOL    HW131079   2.842   3.497   5.160 -1.7396 -1.3870 -1.1418
 6481SOL    HW231080   2.808   3.641   5.162 -0.2807  0.3457 -1.2291
 6482SOL     OW31081   1.757   3.825  16.401 -0.3062  0.4585 -0.1095
 6482SOL    HW131082   1.754   3.919  16.383 -0.3168 -0.0672 -2.8694
 6482SOL    HW231083   1.667   3.811  16.372 -0.2551  1.0874 -0.5870
 6483SOL     OW31084   1.688   0.279   8.381  0.4866  0.2677  0.1205
 6483SOL    HW131085   1.687   0.270   8.477  1.5120  1.3488  0.2381
 6483SOL    HW231086   1.782   0.275   8.368  0.0674 -2.8472 -1.9359
 6484SOL     OW31087   2.048   3.149   0.787 -0.2906  0.3533  0.0754
 6484SOL    HW131088   2.119   3.091   0.759 -0.1804 -0.4510  2.0145
 6484SOL    HW231089   2.014   3.109   0.868  1.1897 -2.1139 -0.5127
 6485SOL     OW31090   2.956   3.746   0.551 -1.1448 -0.1821  0.7119
 6485SOL    HW131091   3.039   3.790   0.533 -1.6601  0.2574 -0.6456
 6485SOL    HW231092   2.927   3.800   0.624  0.1423  0.1635  0.9693
 6486SOL     OW31093   0.991   2.003   2.467 -0.3703  0.2534 -0.1505
 6486SOL    HW131094   0.987   1.942   2.540  2.0140  0.2503 -0.0230
 6486SOL    HW231095   0.946   2.075   2.509 -1.5857 -0.0306 -0.9604
 6487SOL     OW31096   0.134   3.100  13.302 -0.3496 -0.1582 -0.1718
 6487SOL    HW131097   0.113   3.027  13.244  0.8231 -0.3435 -0.3600
 6487SOL    HW231098   0.165   3.058  13.382  0.5170 -1.1560 -1.0249
 6488SOL     OW31099   4.568   1.655   3.317 -0.0591 -0.7066  0.0619
 6488SOL    HW131100   4.663   1.648   3.314 -0.0196  0.2888 -1.1491
 6488SOL    HW231101   4.538   1.608   3.240  1.6379 -1.9196  0.1623
 6489SOL     OW31102   1.978   3.723  12.682  0.1567  0.3774 -0.4536
 6489SOL    HW131103   2.063   3.681  12.669 -0.7917 -0.9356 -2.3047
 6489SOL    HW231104   2.003   3.808  12.719  1.7530  0.4042 -1.6084
 6490SOL     OW31105   3.448   3.854   5.388 -0.3773 -0.1044 -0.2665
 6490SOL    HW131106   3.470   3.797   5.462 -0.2108 -2.8633 -2.4729
 6490SOL    HW231107   3.391   3.795   5.339 -2.5599  1.1880  0.6924
 6491SOL     OW31108   0.929   3.976  16.149 -0.5490  0.2495 -0.0518
 6491SOL    HW131109   0.844   3.939  16.172  0.2648 -1.7721 -0.2450
 6491SOL    HW231110   0.909   3.994  16.057  1.6891  2.3333 -0.1208
 6492SOL     OW31111   2.596   0.592   7.194  0.1877 -0.5823 -0.8458
 6492SOL    HW131112   2.576   0.501   7.171 -1.0168 -0.1913 -1.3264
 6492SOL    HW231113   2.572   0.650   7.122  0.3967 -1.8075 -1.8914
 6493SOL     OW31114   2.577   3.216   0.013 -0.2969  0.4395  0.3080
 6493SOL    HW131115   2.522   3.196  17.682  0.1806  1.5349 -0.3310
 6493SOL    HW231116   2.639   3.278  17.719  0.9412 -0.5757  0.6656
 6494SOL     OW31117   4.561   1.443   7.376  0.5949 -0.2930  0.0058
 6494SOL    HW131118   4.555   1.357   7.335 -0.7685 -0.5262  0.6972
 6494SOL    HW231119   4.472   1.477   7.370  0.5758 -0.3137  0.1790
 6495SOL     OW31120   2.814   1.276   1.327 -0.3028 -0.5516  0.0270
 6495SOL    HW131121   2.762   1.313   1.255  1.8989  0.6440 -0.9601
 6495SOL    HW231122   2.751   1.223   1.374 -0.4656 -0.9583 -0.6501
 6496SOL     OW31123   1.870   2.185   4.754  0.2255  0.7713  0.1441
 6496SOL    HW131124   1.909   2.110   4.800 -0.8156  0.0939 -0.0821
 6496SOL    HW231125   1.932   2.207   4.685  0.1411 -3.2366 -1.1848
 6497SOL     OW31126   3.897   3.289   0.537 -0.0199  0.4012  0.1819
 6497SOL    HW131127   3.881   3.317   0.447 -0.5112  0.9797  0.4477
 6497SOL    HW231128   3.808   3.284   0.572  1.0529 -0.1191  2.8221
 6498SOL     OW31129   1.753   3.879   1.858 -0.0383  0.7433 -0.2473
 6498SOL    HW131130   1.718   3.820   1.924  1.2988  0.6085  0.3493
 6498SOL    HW231131   1.678   3.935   1.840 -0.5301  0.1136 -0.1484
 6499SOL     OW31132   1.670   2.825  13.474  0.2067 -0.1750  0.3014
 6499SOL    HW131133   1.693   2.743  13.430  0.3382 -1.0480  1.9904
 6499SOL    HW231134   1.759   2.856  13.487 -0.0955  0.4107  0.9628
 6500SOL     OW31135   2.174   3.422   0.271 -0.1239 -0.8431  0.0414
 6500SOL    HW131136   2.130   3.341   0.296  3.0530 -2.7652 -0.4835
 6500SOL    HW231137   2.266   3.393   0.275  1.1355  2.6872 -3.4753
 6501SOL     OW31138   4.409   0.754   6.393 -0.4384 -0.2347 -0.4083
 6501SOL    HW131139   4.323   0.713   6.391  0.0967 -1.3331 -1.6437
 6501SOL    HW231140   4.467   0.688   6.354  0.4023  0.4435 -0.3170
 6502SOL     OW31141   1.165   3.791   1.755 -0.5916  0.0861  0.6720
 6502SOL    HW131142   1.179   3.875   1.798 -0.1884  1.8313 -2.8365
 6502SOL    HW231143   1.132   3.812   1.667  3.4437  0.3398 -0.7607
 6503SOL     OW31144   4.625   3.807   3.563  0.3082 -0.1249 -0.3356
 6503SOL    HW131145   4.710   3.809   3.607  0.7648  1.7205 -1.3282
 6503SOL    HW231146   4.573   3.733   3.596 -2.3119  1.4338 -0.9967
 6504SOL     OW31147   2.184   3.316   4.515 -0.0815  0.5954 -0.0480
 6504SOL    HW131148   2.208   3.352   4.601  1.8042 -0.9932  0.0994
 6504SOL    HW231149   2.165   3.397   4.467  2.7403  1.3208  0.0036
 6505SOL     OW31150   1.384   2.908   9.405  0.5149 -0.2915  0.5438
 6505SOL    HW131151   1.291   2.890   9.421  0.5196 -0.8070 -0.0303
 6505SOL    HW231152   1.387   2.991   9.453  1.5462  0.0032 -0.0309
 6506SOL     OW31153   4.160   3.134   4.177  0.2207  0.1101 -0.0351
 6506SOL    HW131154   4.155   3.039   4.180 -0.5164  0.0888 -2.1784
 6506SOL    HW231155   4.203   3.149   4.093  1.0433 -1.2316  0.1520
 6507SOL     OW31156   0.831   3.188   5.619  0.1386  0.3087  0.4475
 6507SOL    HW131157   0.756   3.247   5.627 -1.8089 -2.3922  1.8295
 6507SOL    HW231158   0.791   3.102   5.627 -0.7197  0.6467 -0.2643
 6508SOL     OW31159   1.094   0.561  15.640  0.3670  0.1707  0.5978
 6508SOL    HW131160   1.126   0.651  15.628 -0.5932  0.5300  0.7635
 6508SOL    HW231161   1.162   0.525  15.697 -1.5901 -3.3543  0.6817
 6509SOL     OW31162   3.199   0.262   1.853  0.3555  0.3952 -0.5070
 6509SOL    HW131163   3.132   0.308   1.903  0.1255 -2.4351  1.7663
 6509SOL    HW231164   3.274   0.273   1.910 -0.8829  2.7702  0.6815
 6510SOL     OW31165   4.452   1.764   5.437 -0.0406  0.2016  0.1200
 6510SOL    HW131166   4.472   1.713   5.358  0.6365 -0.0544  0.4595
 6510SOL    HW231167   4.463   1.851   5.400 -1.5125  0.5887  0.5969
 6511SOL     OW31168   4.314   4.159  13.254  0.4113  0.4012  0.2342
 6511SOL    HW131169   4.234   4.212  13.261  0.0658 -0.0171 -0.5627
 6511SOL    HW231170   4.371   4.215  13.306  1.4141 -0.4318  0.0246
 6512SOL     OW31171   2.851   4.453  17.327 -0.3868 -0.8216 -0.2075
 6512SOL    HW131172   2.889   4.378  17.282  2.8354 -1.0257  2.8777
 6512SOL    HW231173   2.916   4.523  17.314 -0.4814 -0.4411  1.3529
 6513SOL     OW31174   3.701   3.418   9.211 -0.2957  0.1908  0.1121
 6513SOL    HW131175   3.608   3.418   9.233 -0.8122  0.6963 -2.0489
 6513SOL    HW231176   3.727   3.330   9.238  1.1050  1.0652  1.5584
 6514SOL     OW31177   0.165   4.549   6.292 -0.3102 -0.1084 -0.0845
 6514SOL    HW131178   0.217   4.474   6.322 -2.0368 -0.6134  1.6883
 6514SOL    HW231179   0.082   4.529   6.336 -0.7700  1.6777 -0.1429
 6515SOL     OW31180   3.898   3.493   3.212 -0.0886 -0.5602 -0.5197
 6515SOL    HW131181   3.809   3.459   3.205 -1.0287  1.3101  2.3721
 6515SOL    HW231182   3.939   3.428   3.155  0.4120  0.8467 -1.7515
 6516SOL     OW31183   4.663   3.860   1.906 -0.1338 -0.6725 -0.5339
 6516SOL    HW131184   4.699   3.894   1.824  2.7835  1.2604  1.5642
 6516SOL    HW231185   4.610   3.937   1.930  0.6759  0.2305 -1.6096
 6517SOL     OW31186   0.960   1.561   7.389  0.1421 -0.4401 -0.3782
 6517SOL    HW131187   1.015   1.497   7.434  1.0900 -0.6650 -1.8455
 6517SOL    HW231188   0.986   1.566   7.297  1.1332 -0.2767 -0.0868
 6518SOL     OW31189   3.726   2.997   4.570  0.2100  0.4146 -0.3535
 6518SOL    HW131190   3.647   3.043   4.601 -0.0695  0.2247 -0.7939
 6518SOL    HW231191   3.685   2.959   4.493  0.3887 -1.7827  0.6607
 6519SOL     OW31192   3.443   2.952   7.711  0.4760  0.4181  0.4504
 6519SOL    HW131193   3.516   2.894   7.689 -0.7044 -1.7226  2.0639
 6519SOL    HW231194   3.488   3.035   7.723 -0.9011  1.5421 -2.2632
 6520SOL     OW31195   2.298   2.643   9.429 -0.4823  0.7529  0.0862
 6520SOL    HW131196   2.245   2.723   9.423  0.5914  1.6046  1.9381
 6520SOL    HW231197   2.353   2.644   9.350  0.3301 -1.0901  0.6280
 6521SOL     OW31198   2.666   2.757   4.630 -0.3603  0.4127 -0.3046
 6521SOL    HW131199   2.653   2.848   4.606 -1.7547  0.4825  0.7144
 6521SOL    HW231200   2.592   2.737   4.687 -0.5298 -1.6600 -1.2474
 6522SOL     OW31201   2.543   2.344   5.270  0.1330 -0.3930 -0.0953
 6522SOL    HW131202   2.631   2.324   5.303 -0.5421 -0.0951  1.8611
 6522SOL    HW231203   2.487   2.322   5.344  0.0333 -1.8079 -0.5897
 6523SOL     OW31204   3.711   3.490   0.599  0.1386  0.3494  0.2498
 6523SOL    HW131205   3.632   3.543   0.588 -0.3378 -0.5861 -0.8163
 6523SOL    HW231206   3.666   3.408   0.579 -0.4428  1.1376 -1.6360
 6524SOL     OW31207   2.110   1.839   3.227 -0.5952 -0.5559 -0.5328
 6524SOL    HW131208   2.135   1.874   3.313  0.1585 -0.6478 -0.7171
 6524SOL    HW231209   2.080   1.754   3.260  0.9741 -1.1660 -0.6877
 6525SOL     OW31210   1.977   1.795  17.534  0.8646 -0.2723  0.2328
 6525SOL    HW131211   1.945   1.885  17.542  1.4285 -0.0823  0.3941
 6525SOL    HW231212   1.952   1.781  17.443 -0.4237  0.4542  0.4834
 6526SOL     OW31213   4.363   4.609   7.097 -0.2371  0.5763  0.0745
 6526SOL    HW131214   4.288   4.565   7.135 -0.3639 -0.1789 -1.0532
 6526SOL    HW231215   4.352   4.697   7.134 -0.9712  0.1858  0.7581
 6527SOL     OW31216   1.923   3.472   6.207 -0.2632  0.1428  0.0550
 6527SOL    HW131217   1.970   3.485   6.289  1.8241 -0.4661 -1.0554
 6527SOL    HW231218   1.837   3.511   6.217 -0.4776 -1.0553  2.9660
 6528SOL     OW31219   4.116   4.668   6.772 -0.2187  0.6713 -0.0609
 6528SOL    HW131220   4.203   4.639   6.745 -0.0903  1.2298 -0.2561
 6528SOL    HW231221   4.132   4.724   6.849  2.8464  0.0224 -0.2182
 6529SOL     OW31222   3.757   3.609  13.905 -0.3022 -0.1792  0.0295
 6529SOL    HW131223   3.804   3.563  13.974  0.3846  2.0044  1.0169
 6529SOL    HW231224   3.677   3.556  13.903 -1.3051  1.2252  3.0876
 6530SOL     OW31225   0.894   2.529   6.288 -0.4297  0.3258  0.4151
 6530SOL    HW131226   0.873   2.620   6.267 -1.9495  0.1596  1.2051
 6530SOL    HW231227   0.967   2.536   6.349 -0.9611  0.7075  1.0062
 6531SOL     OW31228   2.223   1.173   3.834  0.1312  0.1611 -0.5491
 6531SOL    HW131229   2.156   1.119   3.792  0.3431  0.3641 -1.1493
 6531SOL    HW231230   2.296   1.174   3.773  2.6340  0.3204  2.4510
 6532SOL     OW31231   2.160   4.067   4.888 -0.1131 -0.2595 -0.5051
 6532SOL    HW131232   2.218   4.137   4.857  1.1524  0.1061  2.7026
 6532SOL    HW231233   2.097   4.057   4.817 -0.8619 -1.7929  0.3694
 6533SOL     OW31234   1.771   2.408   6.777  0.4110  0.4853 -0.2862
 6533SOL    HW131235   1.825   2.330   6.787 -1.5593 -1.1353 -2.0454
 6533SOL    HW231236   1.703   2.372   6.720  0.1138  0.4431  0.0927
 6534SOL     OW31237   4.168   0.067   7.682  0.3470  0.0219 -0.3817
 6534SOL    HW131238   4.248   0.046   7.730 -0.1209  1.0635  0.8304
 6534SOL    HW231239   4.097   0.017   7.722  0.5450  0.4935  0.5525
 6535SOL     OW31240   4.395   1.865  13.137  0.2398  0.1921  0.1335
 6535SOL    HW131241   4.443   1.892  13.059  0.6498  0.2669  0.4129
 6535SOL    HW231242   4.399   1.942  13.193 -1.5996 -1.0304  2.0006
 6536SOL     OW31243   1.950   2.615   4.554  0.4028  0.4294  0.0642
 6536SOL    HW131244   1.987   2.633   4.641  0.8125 -3.1034  0.6098
 6536SOL    HW231245   2.022   2.571   4.509  1.0872  1.9340 -0.3342
 6537SOL     OW31246   4.127   4.305   5.561 -0.2607 -0.2909 -0.2102
 6537SOL    HW131247   4.085   4.388   5.584 -0.5395 -0.9130  1.5543
 6537SOL    HW231248   4.222   4.317   5.571  0.1226 -2.0043 -1.8550
 6538SOL     OW31249   0.807   3.889  11.422  0.2375 -0.2734 -0.0755
 6538SOL    HW131250   0.792   3.845  11.506 -2.4435 -1.0665 -0.9631
 6538SOL    HW231251   0.868   3.956  11.454 -0.1594 -1.1690  2.5713
 6539SOL     OW31252   2.099   3.933   7.069  0.4870  0.7789  0.5156
 6539SOL    HW131253   2.144   4.016   7.078 -0.2500  1.3412 -1.0228
 6539SOL    HW231254   2.140   3.880   7.138  0.0320  0.7733  0.7823
 6540SOL     OW31255   3.505   3.002   5.588 -0.1306  0.4848  0.4879
 6540SOL    HW131256   3.552   2.991   5.671 -0.2717  2.3069  0.8009
 6540SOL    HW231257   3.414   2.998   5.616  0.3853 -3.5212  1.5898
 6541SOL     OW31258   0.485   3.039   3.508 -0.2673 -0.3321  0.4771
 6541SOL    HW131259   0.460   2.957   3.465 -1.5328 -0.0071  0.5810
 6541SOL    HW231260   0.403   3.089   3.516 -0.6892 -0.6908 -1.6798
 6542SOL     OW31261   4.147   3.488  12.403  0.0868 -0.0631 -0.2270
 6542SOL    HW131262   4.056   3.468  12.426 -0.2792  1.6805 -0.1802
 6542SOL    HW231263   4.178   3.536  12.480 -0.6075 -0.8691  0.5591
 6543SOL     OW31264   1.343   2.358  16.863 -0.1517 -0.8043 -0.4070
 6543SOL    HW131265   1.346   2.423  16.933 -0.8905 -0.5927 -0.5706
 6543SOL    HW231266   1.304   2.408  16.791  0.9251 -0.0052 -0.4278
 6544SOL     OW31267   4.013   0.153   6.573 -0.7452  0.5382 -0.3118
 6544SOL    HW131268   4.004   0.085   6.639  1.5727 -0.7793 -1.3288
 6544SOL    HW231269   3.927   0.131   6.537 -1.1135  1.0366  0.2707
 6545SOL     OW31270   2.161   0.548   3.018 -0.3715 -0.2192 -0.0733
 6545SOL    HW131271   2.204   0.478   3.068 -1.5056 -1.1511 -0.3901
 6545SOL    HW231272   2.130   0.591   3.098  0.4460 -0.2655  0.2654
 6546SOL     OW31273   2.883   3.061   2.724  0.2373 -0.0311 -0.1550
 6546SOL    HW131274   2.808   3.102   2.767  1.0117 -0.1637  1.3370
 6546SOL    HW231275   2.926   3.014   2.796  2.5909 -0.0726 -1.5961
 6547SOL     OW31276   2.907   0.189  11.682 -0.2041  0.0644  0.0009
 6547SOL    HW131277   2.836   0.140  11.723 -1.4483  0.1912 -1.9956
 6547SOL    HW231278   2.887   0.159  11.593 -0.6558 -0.9218  0.4434
 6548SOL     OW31279   1.665   0.874   1.619  0.2419  0.0829 -0.5112
 6548SOL    HW131280   1.668   0.809   1.689 -1.2318  1.0969  0.5057
 6548SOL    HW231281   1.657   0.836   1.532  1.9906 -2.6361  0.4926
 6549SOL     OW31282   4.545   2.358  15.179 -0.4327 -0.2758 -0.1849
 6549SOL    HW131283   4.454   2.350  15.149 -0.7007 -0.2987  0.6383
 6549SOL    HW231284   4.570   2.440  15.136  1.7220  0.1681  1.9200
 6550SOL     OW31285   3.582   4.682  13.572 -0.4574 -0.5252  0.4715
 6550SOL    HW131286   3.617   0.025  13.612 -1.5656 -1.0881  2.5589
 6550SOL    HW231287   3.659   4.659  13.520 -1.2461 -2.1954  0.0515
 6551SOL     OW31288   1.412   3.303   8.694  0.6168 -0.5256 -0.0198
 6551SOL    HW131289   1.362   3.298   8.775  0.1595  0.1427 -0.2533
 6551SOL    HW231290   1.407   3.210   8.674 -3.5090 -0.3897  0.3054
 6552SOL     OW31291   1.235   3.528   2.910  0.0809  0.7420  0.2628
 6552SOL    HW131292   1.141   3.542   2.917 -0.0095  0.4755 -0.3776
 6552SOL    HW231293   1.260   3.482   2.990 -1.7124 -0.2184  0.2734
 6553SOL     OW31294   0.449   0.075   8.613  0.5249  0.1261 -0.6940
 6553SOL    HW131295   0.355   0.093   8.608  0.4035 -0.0050  0.9428
 6553SOL    HW231296   0.450   0.004   8.550  1.6424 -1.0617  0.6568
 6554SOL     OW31297   3.128   4.123   1.089  0.0598  0.4156  0.1342
 6554SOL    HW131298   3.103   4.070   1.014 -1.5875  0.2593  0.7943
 6554SOL    HW231299   3.044   4.152   1.125  1.4813  1.2184  2.8078
 6555SOL     OW31300   1.151   2.353   8.412 -0.3554 -0.4978 -0.4244
 6555SOL    HW131301   1.089   2.395   8.473  0.0566 -0.4313 -0.0541
 6555SOL    HW231302   1.116   2.371   8.324 -2.7058  1.3888  0.8780
 6556SOL     OW31303   4.076   3.531  11.454 -0.1648 -0.1027  0.2015
 6556SOL    HW131304   4.095   3.545  11.547 -0.5548  0.7344  0.1522
 6556SOL    HW231305   4.078   3.620  11.419 -0.8132  0.2214  0.9811
 6557SOL     OW31306   3.262   1.019   5.251  0.0533 -0.1702 -0.4223
 6557SOL    HW131307   3.305   1.068   5.321 -2.3724  1.2639  0.0622
 6557SOL    HW231308   3.337   0.992   5.198 -0.6486 -1.6101 -0.7000
 6558SOL     OW31309   0.986   3.110  15.569 -0.1888  0.2492  0.0093
 6558SOL    HW131310   1.013   3.131  15.480  1.1646 -2.2203 -0.1573
 6558SOL    HW231311   0.999   3.197  15.605 -2.1194  0.6262 -0.2151
 6559SOL     OW31312   4.240   4.453   2.764  0.3723 -0.1639  0.2411
 6559SOL    HW131313   4.258   4.520   2.830 -1.9930  1.2921 -0.5858
 6559SOL    HW231314   4.320   4.400   2.758  0.6208  0.5621 -2.5940
 6560SOL     OW31315   2.970   2.186   7.247  0.2383  0.4531  0.0147
 6560SOL    HW131316   2.943   2.137   7.324 -0.9448 -1.1703 -1.4063
 6560SOL    HW231317   3.029   2.250   7.284  0.2875 -0.0515  0.7965
 6561SOL     OW31318   0.348   1.765   9.264  0.6665 -0.2262 -0.2913
 6561SOL    HW131319   0.344   1.672   9.240  1.5387  0.4715 -3.0369
 6561SOL    HW231320   0.329   1.751   9.357  0.8526 -0.2970 -0.2649
 6562SOL     OW31321   4.667   2.926  11.211 -0.5522  0.0256 -0.2829
 6562SOL    HW131322   4.581   2.937  11.171 -0.1760  0.2005 -1.0433
 6562SOL    HW231323   4.654   2.844  11.258  1.7709  0.6761  1.5335
 6563SOL     OW31324   1.014   4.649   0.022  0.4196  0.3045  0.3425
 6563SOL    HW131325   0.925   4.612   0.019  0.7341 -0.4959  1.0212
 6563SOL    HW231326   1.053   4.584  17.709  1.6541  2.8079 -1.6322
 6564SOL     OW31327   4.630   1.081   8.480  0.1492 -0.0772 -0.2033
 6564SOL    HW131328   4.618   0.995   8.440  1.8933 -0.2233 -0.4050
 6564SOL    HW231329   4.673   1.047   8.558  0.9589  1.1431 -0.1137
 6565SOL     OW31330   1.864   4.517   0.983  0.2574  0.4850  0.1401
 6565SOL    HW131331   1.772   4.522   0.957 -0.1230  1.3772  1.6688
 6565SOL    HW231332   1.905   4.534   0.898 -1.1122  0.9079 -0.4301
 6566SOL     OW31333   2.339   2.330   8.494 -0.2094 -0.5091 -0.1808
 6566SOL    HW131334   2.363   2.241   8.468 -1.1701 -1.3008  1.6320
 6566SOL    HW231335   2.295   2.352   8.413 -0.3657 -3.1546 -0.8035
 6567SOL     OW31336   1.452   0.751   6.008 -0.2162  0.0737 -0.3093
 6567SOL    HW131337   1.522   0.805   5.972 -0.2305 -0.8800 -1.7675
 6567SOL    HW231338   1.479   0.738   6.099 -0.6541 -0.4141 -0.2493
 6568SOL     OW31339   2.963   0.508   4.189 -0.0579 -0.0468  0.8400
 6568SOL    HW131340   2.909   0.515   4.110  1.2171 -0.4755 -0.0787
 6568SOL    HW231341   2.902   0.545   4.252  0.1508 -2.1961  2.2775
 6569SOL     OW31342   3.778   3.659  16.396 -0.0000 -0.0135  0.3713
 6569SOL    HW131343   3.724   3.725  16.440  1.0007 -0.2698  1.9710
 6569SOL    HW231344   3.864   3.692  16.423 -0.2531  2.1311 -1.4091
 6570SOL     OW31345   4.723   3.269  12.622 -0.3459 -0.6798 -0.2167
 6570SOL    HW131346   0.082   3.265  12.627 -0.3038 -0.5088 -0.9211
 6570SOL    HW231347   4.694   3.235  12.707  1.0492 -0.6155  0.3008
 6571SOL     OW31348   3.134   3.413   5.740 -0.1037  0.0967  0.5638
 6571SOL    HW131349   3.133   3.395   5.834 -1.8433  1.5075  0.8169
 6571SOL    HW231350   3.228   3.417   5.723 -0.0855  1.2353  0.9392
 6572SOL     OW31351   1.195   0.298   9.139 -0.6482 -0.4347  0.3049
 6572SOL    HW131352   1.118   0.252   9.107 -0.5463  0.3301 -1.0320
 6572SOL    HW231353   1.261   0.278   9.073 -1.0131 -1.6711  0.3205
 6573SOL     OW31354   0.501   1.352  10.928 -0.4449 -0.1100 -0.4146
 6573SOL    HW131355   0.475   1.275  10.979  0.6396  0.5051  1.0670
 6573SOL    HW231356   0.490   1.309  10.843 -0.2038 -0.3633 -0.3168
 6574SOL     OW31357   1.336   2.862   1.525  0.3747  0.1424 -0.5621
 6574SOL    HW131358   1.325   2.955   1.544  1.1270 -0.3623  2.4619
 6574SOL    HW231359   1.419   2.848   1.570  0.4331 -0.9641 -1.0158
 6575SOL     OW31360   2.263   2.527  11.718 -0.7375 -0.2707 -0.0090
 6575SOL    HW131361   2.202   2.497  11.785  1.4569  1.3893  2.7423
 6575SOL    HW231362   2.253   2.621  11.734 -2.2659 -0.2449 -1.1178
 6576SOL     OW31363   1.944   2.843  13.531 -0.6853 -0.3768 -0.3340
 6576SOL    HW131364   1.951   2.772  13.594  0.9175  0.3613  0.3095
 6576SOL    HW231365   1.990   2.914  13.576 -0.2641 -0.5513 -0.4860
 6577SOL     OW31366   1.411   2.741  14.108  0.1077  0.1113 -0.0273
 6577SOL    HW131367   1.473   2.809  14.082 -0.3584  0.5929  0.1224
 6577SOL    HW231368   1.385   2.694  14.029  1.6900  2.4770 -1.9681
 6578SOL     OW31369   1.377   0.296  12.428  0.4238  0.3998  0.1224
 6578SOL    HW131370   1.462   0.253  12.439  1.3335  2.1820 -0.0343
 6578SOL    HW231371   1.372   0.349  12.508 -0.6117 -0.3561  0.5582
 6579SOL     OW31372   2.103   4.379  13.765  0.4183  0.4725 -0.2340
 6579SOL    HW131373   2.094   4.284  13.779 -0.0845  0.4222 -0.9102
 6579SOL    HW231374   2.082   4.414  13.851  1.4199 -1.2941  0.7371
 6580SOL     OW31375   1.076   0.405   3.889 -0.7293  0.4221  0.2524
 6580SOL    HW131376   1.027   0.353   3.954  0.7767  0.0790  1.1022
 6580SOL    HW231377   1.043   0.369   3.806  0.9509 -0.7947  0.1103
 6581SOL     OW31378   0.328   2.795   3.638 -0.4783  0.0953 -0.4104
 6581SOL    HW131379   0.291   2.745   3.565  0.7347 -0.5499 -0.5817
 6581SOL    HW231380   0.248   2.838   3.669 -1.4180 -2.5944  0.8457
 6582SOL     OW31381   4.155   0.277   2.752  0.5698 -0.8702 -0.5030
 6582SOL    HW131382   4.136   0.273   2.658 -1.5537  2.3711 -0.1913
 6582SOL    HW231383   4.105   0.358   2.765  3.5644  1.1129 -1.0531
 6583SOL     OW31384   3.359   2.108  13.360  0.4561  0.0266  0.3450
 6583SOL    HW131385   3.427   2.103  13.293 -1.4291  0.0680 -1.5808
 6583SOL    HW231386   3.279   2.128  13.311 -1.1797 -0.0814  2.9597
 6584SOL     OW31387   2.572   2.139   5.030  0.1162  0.0400 -0.6139
 6584SOL    HW131388   2.478   2.144   5.013  0.4295 -0.7735 -2.5321
 6584SOL    HW231389   2.581   2.205   5.099 -2.3240 -0.8342  0.5286
 6585SOL     OW31390   0.972   1.322   9.105 -0.3237  0.1490  0.1222
 6585SOL    HW131391   0.993   1.364   9.188 -4.8326 -0.3101  1.4522
 6585SOL    HW231392   1.018   1.242   9.131  3.0952  1.4889 -1.6965
 6586SOL     OW31393   2.567   4.372   6.527 -0.3368 -0.5230  0.4979
 6586SOL    HW131394   2.514   4.319   6.467 -1.4578  1.9733 -0.7591
 6586SOL    HW231395   2.543   4.329   6.609  2.7572  0.1532  1.7518
 6587SOL     OW31396   3.622   0.488   9.438 -0.4852 -0.5570  0.0934
 6587SOL    HW131397   3.578   0.573   9.441 -0.4794 -0.5766  0.6121
 6587SOL    HW231398   3.579   0.445   9.511 -3.2679 -0.4577 -1.4756
 6588SOL     OW31399   0.565   0.904   6.939  0.3472 -0.3209 -0.1894
 6588SOL    HW131400   0.490   0.859   6.901 -0.1757 -0.1984  0.6901
 6588SOL    HW231401   0.618   0.831   6.972  1.3237  0.3881 -0.1925
 6589SOL     OW31402   4.526   3.430   5.611 -0.8550  0.0823 -0.1235
 6589SOL    HW131403   4.597   3.367   5.611  0.2157  1.2763  0.8566
 6589SOL    HW231404   4.549   3.470   5.695 -1.2310  0.1660 -0.0601
 6590SOL     OW31405   4.285   4.222   0.587 -0.2557 -0.2159 -0.8983
 6590SOL    HW131406   4.265   4.231   0.680  2.3969 -0.2260 -0.3194
 6590SOL    HW231407   4.197   4.215   0.550 -0.6000 -0.2171 -0.0680
 6591SOL     OW31408   2.222   4.275   2.374  0.1441 -0.2338  0.1388
 6591SOL    HW131409   2.127   4.282   2.360  0.1786 -0.0638 -0.0017
 6591SOL    HW231410   2.237   4.289   2.468 -0.6009  3.5738 -0.3071
 6592SOL     OW31411   0.374   1.415   8.919  0.6178 -0.3996  0.1667
 6592SOL    HW131412   0.428   1.476   8.868 -2.8209  2.2736 -0.2616
 6592SOL    HW231413   0.327   1.369   8.850 -0.4982  0.5884  0.2715
 6593SOL     OW31414   0.444   1.531   3.223 -0.3088 -0.3881 -0.0752
 6593SOL    HW131415   0.400   1.483   3.293 -3.4605  3.3875  0.4998
 6593SOL    HW231416   0.487   1.606   3.264 -1.0322 -1.7644  3.1414
 6594SOL     OW31417   3.976   4.604   9.464 -0.3420 -0.3262  0.6275
 6594SOL    HW131418   3.972   4.691   9.503 -1.3584 -0.3951  0.6643
 6594SOL    HW231419   4.067   4.586   9.488  0.2212 -0.7517 -1.7933
 6595SOL     OW31420   1.438   0.911  13.937 -0.0319  0.0821 -0.0218
 6595SOL    HW131421   1.493   0.940  14.010 -0.3906  1.1945 -0.2007
 6595SOL    HW231422   1.356   0.878  13.975  0.7825 -2.2942 -0.3302
 6596SOL     OW31423   0.192   3.085   6.556 -0.0969  0.7627 -0.4135
 6596SOL    HW131424   0.247   3.061   6.481  0.8594  0.4580  0.3922
 6596SOL    HW231425   0.255   3.067   6.625 -0.4366  1.3833  0.0520
 6597SOL     OW31426   4.266   1.287   3.209 -0.4936 -0.5261 -0.1034
 6597SOL    HW131427   4.204   1.220   3.238 -1.2808 -0.1736 -0.9939
 6597SOL    HW231428   4.330   1.287   3.281 -1.1764  3.2235  0.4956
 6598SOL     OW31429   0.572   2.119   8.212 -0.3278  0.0868 -0.1639
 6598SOL    HW131430   0.496   2.124   8.270 -0.4911 -0.6482 -0.3149
 6598SOL    HW231431   0.638   2.093   8.276 -0.7988  2.3340  1.2475
 6599SOL     OW31432   1.564   0.186   7.897 -0.0849 -0.6781  0.4984
 6599SOL    HW131433   1.580   0.185   7.991 -1.3809 -0.2474  0.7189
 6599SOL    HW231434   1.633   0.250   7.879 -0.0184 -0.1368  2.7215
 6600SOL     OW31435   2.359   2.987   7.357  0.2948 -0.3609  0.0368
 6600SOL    HW131436   2.295   2.923   7.387  0.7423  0.0293  1.7831
 6600SOL    HW231437   2.426   3.006   7.423  1.3094 -1.2089 -0.7482
 6601SOL     OW31438   1.153   0.661  10.087  0.3942 -0.0017 -0.2479
 6601SOL    HW131439   1.166   0.566  10.090 -0.3452 -0.0508  1.3633
 6601SOL    HW231440   1.216   0.685  10.019  1.3881  2.9413  1.7152
 6602SOL     OW31441   1.131   3.878  11.082  0.2822 -0.4002 -0.4024
 6602SOL    HW131442   1.114   3.866  11.175 -0.7199  2.5322 -0.2101
 6602SOL    HW231443   1.193   3.807  11.065  3.2627  1.6569  2.0338
 6603SOL     OW31444   0.704   2.635   4.583 -0.2998 -0.1869  0.5485
 6603SOL    HW131445   0.670   2.717   4.617  0.9710  0.3376  0.5383
 6603SOL    HW231446   0.721   2.655   4.491 -0.2893 -0.5953  0.4586
 6604SOL     OW31447   3.907   2.748  10.293  0.2795  0.3054  0.5052
 6604SOL    HW131448   3.870   2.751  10.205  0.1251  0.9551  0.5922
 6604SOL    HW231449   3.901   2.837  10.329  0.1195  0.5230 -0.0540
 6605SOL     OW31450   0.699   1.535   3.518 -0.0318 -0.4453 -0.5719
 6605SOL    HW131451   0.779   1.509   3.564  0.2319 -1.7312 -1.7261
 6605SOL    HW231452   0.709   1.629   3.503  0.2992 -0.2299  1.0070
 6606SOL     OW31453   1.237   2.740   6.146 -0.3232 -0.2955 -0.7672
 6606SOL    HW131454   1.190   2.658   6.135  0.5722 -1.0834  1.3845
 6606SOL    HW231455   1.325   2.722   6.111  0.5283  2.9953 -0.3389
 6607SOL     OW31456   3.207   0.900  13.188  0.0053  0.0742  0.0016
 6607SOL    HW131457   3.134   0.960  13.205  0.6381  0.7302  0.4368
 6607SOL    HW231458   3.172   0.816  13.218 -1.7841  1.6690  2.3855
 6608SOL     OW31459   0.210   2.744   4.940 -0.4542 -0.3849 -0.0154
 6608SOL    HW131460   0.158   2.809   4.987  1.3941  1.5898 -0.6845
 6608SOL    HW231461   0.286   2.756   4.996  0.1276  0.6719 -1.0188
 6609SOL     OW31462   0.063   0.406   2.033  0.1190 -0.3496  0.3816
 6609SOL    HW131463   4.719   0.374   1.992 -0.4660  1.4997  0.0802
 6609SOL    HW231464   0.057   0.377   2.125 -1.4746 -2.2650 -0.3220
 6610SOL     OW31465   0.721   3.338   8.560 -0.3577 -0.2553  0.1834
 6610SOL    HW131466   0.791   3.367   8.501 -0.4197 -0.4914 -0.0029
 6610SOL    HW231467   0.766   3.335   8.644 -0.6719 -0.9521  0.3228
 6611SOL     OW31468   1.481   2.820   8.214 -0.4117  0.2201  0.1972
 6611SOL    HW131469   1.434   2.752   8.261 -0.3225 -0.2842 -0.4452
 6611SOL    HW231470   1.563   2.830   8.263  0.2491 -0.3837 -0.7600
 6612SOL     OW31471   2.164   2.381   6.850 -0.5426 -0.0231 -0.5671
 6612SOL    HW131472   2.139   2.408   6.762  0.4852  1.7026 -0.3310
 6612SOL    HW231473   2.089   2.416   6.899 -0.4836 -0.1590 -0.3802
 6613SOL     OW31474   2.315   4.538   3.436  0.2856 -0.6911  0.1189
 6613SOL    HW131475   2.308   4.485   3.357 -1.2853  0.9938 -0.8478
 6613SOL    HW231476   2.279   4.617   3.396  0.8183 -1.3870 -1.7228
 6614SOL     OW31477   1.609   2.163   6.887 -0.5762  0.2206  0.1736
 6614SOL    HW131478   1.640   2.130   6.971  3.1008  1.5606 -0.6506
 6614SOL    HW231479   1.693   2.154   6.842 -0.3726 -5.3401  1.6815
 6615SOL     OW31480   3.567   4.431   7.981  0.1580  0.0760 -0.0730
 6615SOL    HW131481   3.607   4.345   7.969  1.2169  0.5195  0.2647
 6615SOL    HW231482   3.482   4.409   8.019  0.2746  1.5264  1.0485
 6616SOL     OW31483   1.699   3.529   5.573 -0.1883  0.2521 -0.2809
 6616SOL    HW131484   1.614   3.488   5.587  1.3455 -2.3747  1.3560
 6616SOL    HW231485   1.714   3.523   5.478 -2.1297 -0.3419 -0.5487
 6617SOL     OW31486   0.582   4.591  14.446 -0.4555  0.8522  0.0328
 6617SOL    HW131487   0.619   4.679  14.437 -0.1414  0.7519  0.3521
 6617SOL    HW231488   0.489   4.604  14.430 -0.3109  0.7070 -0.9591
 6618SOL     OW31489   4.554   3.400   9.040 -0.1095  0.5371  0.3806
 6618SOL    HW131490   4.468   3.381   9.077 -1.3310  1.8383 -1.7742
 6618SOL    HW231491   4.561   3.328   8.978  0.1392  0.5504  0.3903
 6619SOL     OW31492   2.611   1.413   2.525 -0.4051  0.1452 -0.4701
 6619SOL    HW131493   2.671   1.339   2.516 -0.8874 -0.1832 -0.9751
 6619SOL    HW231494   2.574   1.410   2.437  0.4077 -2.4269 -0.7356
 6620SOL     OW31495   3.250   1.000   3.577 -0.3514 -0.3688  0.3559
 6620SOL    HW131496   3.320   0.963   3.631  0.0291 -0.4236 -0.1716
 6620SOL    HW231497   3.190   1.040   3.641  0.7819  0.0974  1.1309
 6621SOL     OW31498   1.342   0.757   3.289  0.2543 -0.1659 -0.2834
 6621SOL    HW131499   1.374   0.776   3.377  3.3382  1.1829 -1.7115
 6621SOL    HW231500   1.289   0.834   3.269  0.5397  0.6011  2.0092
 6622SOL     OW31501   3.158   0.219   3.247  0.0338  0.1554  0.2365
 6622SOL    HW131502   3.213   0.298   3.239  1.0416 -0.5508  0.2153
 6622SOL    HW231503   3.228   0.158   3.226  0.4025  1.4118 -2.3029
 6623SOL     OW31504   3.321   3.431   4.059  0.3326 -0.1139 -0.1354
 6623SOL    HW131505   3.242   3.476   4.030  0.3501  0.3209  0.4970
 6623SOL    HW231506   3.349   3.484   4.134 -1.0260  1.1462 -0.5221
 6624SOL     OW31507   0.275   2.804   7.117 -0.0980  0.0610 -0.0125
 6624SOL    HW131508   0.370   2.814   7.114  0.1927 -2.8015 -0.2843
 6624SOL    HW231509   0.270   2.712   7.142 -1.8984  0.5118  1.2766
 6625SOL     OW31510   3.113   0.412   6.557 -0.9438  0.2094 -0.7373
 6625SOL    HW131511   3.026   0.447   6.538 -0.6402  0.8376 -0.9652
 6625SOL    HW231512   3.122   0.345   6.489  0.5593 -1.1724  0.8416
 6626SOL     OW31513   2.642   0.647   5.860 -0.4586  0.2635 -0.1709
 6626SOL    HW131514   2.562   0.681   5.820  0.0728  2.2658  0.5085
 6626SOL    HW231515   2.713   0.680   5.806  0.0881 -2.0847 -0.8978
 6627SOL     OW31516   4.543   2.693   9.219 -0.5054 -0.1094  0.6462
 6627SOL    HW131517   4.544   2.742   9.301  0.6052 -2.0404  1.7773
 6627SOL    HW231518   4.459   2.648   9.221 -0.7240  0.3290  1.1183
 6628SOL     OW31519   3.469   4.493   5.302 -0.0465  0.7138 -0.0663
 6628SOL    HW131520   3.504   4.571   5.259 -1.0003  0.6024 -1.0660
 6628SOL    HW231521   3.553   4.458   5.331 -0.0573  0.2696 -0.5782
 6629SOL     OW31522   4.653   0.973   0.584  0.4206  0.1767  0.2431
 6629SOL    HW131523   4.689   0.972   0.496 -1.1843  1.9047 -0.4369
 6629SOL    HW231524   4.592   0.900   0.577  0.9279 -0.1955 -0.2637
 6630SOL     OW31525   2.429   0.716  11.519 -0.3864 -0.5238 -0.2479
 6630SOL    HW131526   2.464   0.805  11.523 -0.9783 -0.3889  1.5509
 6630SOL    HW231527   2.337   0.725  11.546 -0.7513 -0.4760 -1.4706
 6631SOL     OW31528   2.160   0.106   7.802  0.0130  0.6517 -0.2524
 6631SOL    HW131529   2.093   0.171   7.781 -1.7153 -0.9895  0.1375
 6631SOL    HW231530   2.111   0.024   7.792 -1.4572  1.2295  2.0555
 6632SOL     OW31531   1.572   0.861   4.789 -0.4313 -0.4926  0.4220
 6632SOL    HW131532   1.607   0.848   4.701 -0.1287 -1.6460  0.7157
 6632SOL    HW231533   1.653   0.862   4.841 -0.8640 -0.5920  1.0960
 6633SOL     OW31534   0.239   4.071   6.647  0.1261 -0.3190 -0.4575
 6633SOL    HW131535   0.197   3.986   6.643  1.6058 -1.1268  0.8900
 6633SOL    HW231536   0.206   4.095   6.733 -0.0267 -0.1302 -0.5700
 6634SOL     OW31537   2.286   0.378   2.689 -0.0555  0.4080 -0.1765
 6634SOL    HW131538   2.347   0.306   2.673  0.0284  0.2801  0.6767
 6634SOL    HW231539   2.286   0.412   2.600 -0.6854  0.3632 -0.1878
 6635SOL     OW31540   1.933   4.083  12.557 -0.3602  0.0661 -0.7064
 6635SOL    HW131541   2.007   4.133  12.522  0.5069 -2.2031 -2.0925
 6635SOL    HW231542   1.976   4.013  12.607  0.9005  1.6139  0.3691
 6636SOL     OW31543   4.435   0.644   8.983  0.5844 -0.3454 -0.2427
 6636SOL    HW131544   4.415   0.729   8.945 -1.1902 -0.6566  0.0104
 6636SOL    HW231545   4.361   0.632   9.042 -0.4405 -1.9827 -1.8596
 6637SOL     OW31546   1.022   3.367  11.939  0.4692 -0.0304 -0.2594
 6637SOL    HW131547   0.958   3.350  11.870  0.5324  0.3957 -0.4213
 6637SOL    HW231548   1.097   3.316  11.908  0.3338 -1.0335  1.0925
 6638SOL     OW31549   0.818   0.527  12.043 -0.4286 -0.4935 -0.0968
 6638SOL    HW131550   0.795   0.480  11.963 -1.6291 -0.5328  0.2816
 6638SOL    HW231551   0.913   0.516  12.048 -0.2469  0.8169 -0.7721
 6639SOL     OW31552   2.376   2.058   3.745 -0.0472  0.6531 -0.3093
 6639SOL    HW131553   2.426   2.038   3.824 -0.3998 -0.7105 -0.4331
 6639SOL    HW231554   2.449   2.083   3.687  0.2423 -0.6670 -0.5118
 6640SOL     OW31555   3.601   2.209   0.797 -0.2278  0.0754  0.2118
 6640SOL    HW131556   3.550   2.227   0.717  2.1195  1.4064 -1.0033
 6640SOL    HW231557   3.568   2.274   0.859 -0.2559 -0.5681  0.8698
 6641SOL     OW31558   2.373   2.920  17.686  0.0119  0.7415  0.0620
 6641SOL    HW131559   2.344   2.879   0.023 -0.9088  2.8884  0.8310
 6641SOL    HW231560   2.349   2.859  17.616  0.9926 -1.8858  2.0210
 6642SOL     OW31561   0.464   3.758   5.473  0.3387 -0.4022 -0.3836
 6642SOL    HW131562   0.530   3.825   5.457 -1.2224  1.1446 -0.3848
 6642SOL    HW231563   0.415   3.796   5.546  0.4472  2.5248 -1.8502
 6643SOL     OW31564   2.684   3.717   2.495 -0.2765 -0.6658  0.5350
 6643SOL    HW131565   2.602   3.686   2.457  1.2739 -2.7388 -1.1102
 6643SOL    HW231566   2.652   3.778   2.562 -0.3908  1.6159 -1.6092
 6644SOL     OW31567   0.232   0.585  10.487  0.5417  0.2888  0.1082
 6644SOL    HW131568   0.239   0.506  10.434 -0.9697 -0.0764  0.4401
 6644SOL    HW231569   0.147   0.619  10.458  1.4763  1.5301 -1.1778
 6645SOL     OW31570   1.391   1.627   1.702  0.1813  0.3338  0.1062
 6645SOL    HW131571   1.359   1.716   1.709 -1.4199 -0.1209 -1.2815
 6645SOL    HW231572   1.321   1.593   1.646  0.3658  1.4284 -0.7894
 6646SOL     OW31573   4.375   0.842  15.876 -0.5355  0.4783 -0.1306
 6646SOL    HW131574   4.322   0.919  15.855 -2.6301 -0.9029  0.1184
 6646SOL    HW231575   4.419   0.844  15.790  3.9448  1.5117  2.1835
 6647SOL     OW31576   2.945   0.661   3.525 -0.3067  0.0794 -0.9250
 6647SOL    HW131577   2.884   0.600   3.565  2.0859 -1.8785 -0.2087
 6647SOL    HW231578   2.951   0.721   3.599  0.8054 -1.3878  0.1877
 6648SOL     OW31579   3.594   1.822   4.922 -0.3246  0.7091  0.9884
 6648SOL    HW131580   3.581   1.908   4.881  2.0304  0.1950 -0.8222
 6648SOL    HW231581   3.657   1.834   4.993 -0.8874 -1.1553  1.8115
 6649SOL     OW31582   0.414   1.181   3.940  0.4463  0.1175  0.0435
 6649SOL    HW131583   0.349   1.116   3.967  1.1084 -1.2841 -1.7640
 6649SOL    HW231584   0.358   1.230   3.881  0.3904 -2.1451 -1.7954
 6650SOL     OW31585   2.593   2.141  14.354  0.2993 -0.3518  0.1236
 6650SOL    HW131586   2.606   2.122  14.447  0.9935  1.4237  0.3848
 6650SOL    HW231587   2.510   2.094  14.342  0.2662 -0.5225  1.0865
 6651SOL     OW31588   2.096   0.624   8.623 -0.2243 -0.4469 -0.3786
 6651SOL    HW131589   2.007   0.634   8.659  0.3590 -0.9207  1.2197
 6651SOL    HW231590   2.108   0.531   8.643 -1.3210 -0.9539 -2.1073
 6652SOL     OW31591   1.839   2.591   4.102  0.1144 -0.3363  0.6150
 6652SOL    HW131592   1.903   2.611   4.171 -1.1233  2.3532  0.9986
 6652SOL    HW231593   1.826   2.673   4.054  1.2931 -0.6807 -0.2930
 6653SOL     OW31594   2.503   4.594   6.409 -0.3735  0.3420  0.1763
 6653SOL    HW131595   2.512   4.539   6.487 -2.0592 -1.3222 -0.7976
 6653SOL    HW231596   2.533   4.533   6.342 -2.4718 -1.8369  1.2051
 6654SOL     OW31597   0.310   4.013   5.990  0.7340  0.1362 -0.1777
 6654SOL    HW131598   0.338   4.091   5.942  1.7033  0.3739  0.7801
 6654SOL    HW231599   0.219   4.036   6.006  0.6430  0.2020 -0.8073
 6655SOL     OW31600   1.890   2.862   4.044  0.0651 -0.4707 -0.3662
 6655SOL    HW131601   1.890   2.958   4.044  2.0157 -0.4804 -1.1212
 6655SOL    HW231602   1.913   2.839   4.133 -0.8419  2.3594  0.5973
 6656SOL     OW31603   0.051   3.217   8.663 -0.6586 -0.4187  0.1128
 6656SOL    HW131604   0.050   3.312   8.649 -0.8092 -0.3406  0.6540
 6656SOL    HW231605   4.721   3.212   8.732 -0.7801 -0.9740 -0.0446
 6657SOL     OW31606   3.199   0.779   3.106  0.3813 -0.3974  0.0751
 6657SOL    HW131607   3.177   0.811   3.194  1.6437  0.3793  0.1115
 6657SOL    HW231608   3.295   0.784   3.109  0.3842 -0.4488  0.0603
 6658SOL     OW31609   1.662   3.563  16.831  0.3027  0.1067 -0.5577
 6658SOL    HW131610   1.632   3.473  16.813 -0.4870 -0.0608  1.4775
 6658SOL    HW231611   1.586   3.605  16.791  1.6036  0.5893 -2.4592
 6659SOL     OW31612   4.328   1.145   2.234  0.0914  0.0453  0.4018
 6659SOL    HW131613   4.294   1.131   2.322 -0.7974 -0.4325 -0.0194
 6659SOL    HW231614   4.259   1.098   2.187 -0.4524  0.3028  0.9472
 6660SOL     OW31615   1.563   3.552   7.024  0.2241 -0.0918 -0.7083
 6660SOL    HW131616   1.590   3.626   7.079  0.2985 -1.6166  1.2779
 6660SOL    HW231617   1.643   3.516   6.985  0.3563 -1.3286  0.7381
 6661SOL     OW31618   4.236   0.374   2.228 -0.4911 -0.0050 -0.1056
 6661SOL    HW131619   4.176   0.361   2.155  1.6343 -2.4593 -1.4104
 6661SOL    HW231620   4.241   0.289   2.272  1.7834  0.7098  1.0136
 6662SOL     OW31621   2.489   3.473   4.797 -0.4798  0.2859 -0.5874
 6662SOL    HW131622   2.503   3.387   4.757  4.8713  0.2549  1.3819
 6662SOL    HW231623   2.581   3.499   4.802 -1.1078  2.4586 -0.2421
 6663SOL     OW31624   2.231   4.103   9.387  0.1688  0.6474  0.1191
 6663SOL    HW131625   2.309   4.092   9.332 -0.3125  2.5589 -0.9433
 6663SOL    HW231626   2.201   4.013   9.378  0.3909  0.7118 -1.2099
 6664SOL     OW31627   4.144   3.833   8.553  0.2782  0.6915 -0.5415
 6664SOL    HW131628   4.054   3.867   8.553  0.1191  0.2776 -0.5933
 6664SOL    HW231629   4.127   3.746   8.589  0.3081 -0.1340 -2.5341
 6665SOL     OW31630   4.396   4.275   5.535  0.5289  0.0792 -0.2289
 6665SOL    HW131631   4.450   4.272   5.457 -1.6826  0.0693 -1.7522
 6665SOL    HW231632   4.369   4.183   5.544  1.1031 -0.2723 -2.1648
 6666SOL     OW31633   2.479   2.451  10.332 -0.2792 -0.8829 -0.4908
 6666SOL    HW131634   2.453   2.438  10.240 -0.1439 -1.0595 -0.5050
 6666SOL    HW231635   2.395   2.473  10.371  0.4434  1.9186 -0.4980
 6667SOL     OW31636   4.239   3.665   5.656  0.3199  0.6853 -0.1459
 6667SOL    HW131637   4.217   3.710   5.737  0.8897 -0.2186  0.5085
 6667SOL    HW231638   4.304   3.605   5.692  0.3636 -0.5921 -2.3502
 6668SOL     OW31639   4.677   0.986   3.407 -0.2993  0.3122  0.8086
 6668SOL    HW131640   4.703   0.921   3.471  0.3658 -1.4812 -1.2929
 6668SOL    HW231641   0.003   0.973   3.336 -0.6760 -2.0351  0.9051
 6669SOL     OW31642   0.414   4.529   7.045 -0.2697  0.2724 -1.2196
 6669SOL    HW131643   0.329   4.568   7.062 -0.8791 -1.3508 -0.5699
 6669SOL    HW231644   0.474   4.591   7.086  1.0574 -1.5011 -0.4667
 6670SOL     OW31645   0.544   3.363   5.081  0.1580 -0.3111 -0.1651
 6670SOL    HW131646   0.571   3.443   5.124 -2.9941  1.6085 -1.7213
 6670SOL    HW231647   0.473   3.340   5.141 -0.4671  2.6441  0.1886
 6671SOL     OW31648   1.301   2.782   9.747 -0.0334  0.1528 -0.4734
 6671SOL    HW131649   1.294   2.860   9.693 -0.8351  0.1330 -0.3909
 6671SOL    HW231650   1.221   2.734   9.725 -0.4802  0.3284  0.7956
 6672SOL     OW31651   0.822   0.144   6.697 -0.3038 -0.2235  0.3818
 6672SOL    HW131652   0.837   0.132   6.791 -0.1782  0.4595  0.4468
 6672SOL    HW231653   0.814   0.057   6.658 -3.3082 -0.4304  1.4410
 6673SOL     OW31654   1.419   1.564   7.761 -0.0168  0.3771 -0.3061
 6673SOL    HW131655   1.399   1.548   7.854 -2.2280  0.8399 -0.6891
 6673SOL    HW231656   1.377   1.484   7.727 -0.5692  0.8977 -0.8440
 6674SOL     OW31657   3.352   0.722  14.392 -0.1965 -0.5632 -0.0134
 6674SOL    HW131658   3.407   0.702  14.468 -0.1930  0.8955  0.3585
 6674SOL    HW231659   3.372   0.652  14.330  1.7496  1.7457 -1.9600
 6675SOL     OW31660   0.952   0.232   9.047  0.1990  0.3040  0.5102
 6675SOL    HW131661   0.931   0.204   9.136  1.4448 -3.0231 -0.2355
 6675SOL    HW231662   0.930   0.156   8.993 -0.3857 -1.0864  2.6761
 6676SOL     OW31663   3.962   0.768   8.235  0.3856 -0.0024 -0.2765
 6676SOL    HW131664   3.879   0.720   8.230 -0.9044  2.2543 -0.7757
 6676SOL    HW231665   3.992   0.742   8.322  0.2978  0.7941 -0.0062
 6677SOL     OW31666   1.258   1.346   2.127 -0.0315  0.1140 -0.0376
 6677SOL    HW131667   1.268   1.343   2.222  2.6537  2.5237 -0.2763
 6677SOL    HW231668   1.345   1.381   2.109 -0.5703  0.2527 -2.4283
 6678SOL     OW31669   4.580   4.236   4.460  0.0141  0.3768  0.8649
 6678SOL    HW131670   4.520   4.295   4.504 -0.0453  0.6801  0.3801
 6678SOL    HW231671   4.557   4.242   4.367  2.3560  2.0873  0.3842
 6679SOL     OW31672   0.295   2.787  11.332  0.2534  0.6254  0.0525
 6679SOL    HW131673   0.326   2.698  11.350 -0.8050  0.7481  2.4247
 6679SOL    HW231674   0.283   2.820  11.421 -0.2353  0.4888  0.0350
 6680SOL     OW31675   2.027   3.420   2.817  0.0608 -0.1342 -0.0291
 6680SOL    HW131676   2.121   3.400   2.818 -0.0120 -0.3598  1.5795
 6680SOL    HW231677   1.996   3.355   2.754  1.4172 -0.8485  0.0404
 6681SOL     OW31678   3.991   1.229   9.458 -0.1920  0.3007 -0.0400
 6681SOL    HW131679   3.972   1.264   9.371  1.5364  1.2594 -0.0362
 6681SOL    HW231680   4.082   1.248   9.480 -0.8833  1.0413  2.1653
 6682SOL     OW31681   0.760   2.734   2.021  0.1887 -0.5775 -0.3631
 6682SOL    HW131682   0.744   2.827   2.036 -0.8251 -0.9238  0.6482
 6682SOL    HW231683   0.747   2.723   1.926 -0.6960  0.7575 -0.3881
 6683SOL     OW31684   4.683   4.271  14.511 -0.1248  0.1313 -0.5420
 6683SOL    HW131685   4.724   4.247  14.428 -1.3748 -0.9837 -0.8480
 6683SOL    HW231686   4.657   4.186  14.546 -0.1946 -0.1505 -1.2745
 6684SOL     OW31687   2.953   2.034   1.373  0.3847  0.1297 -0.1172
 6684SOL    HW131688   3.047   2.034   1.391  0.6840 -1.5424 -1.6747
 6684SOL    HW231689   2.944   2.124   1.341  0.6383  0.1771 -0.0498
 6685SOL     OW31690   1.948   4.529   4.296 -0.2394 -0.3330 -0.0133
 6685SOL    HW131691   2.006   4.501   4.225  0.3499  1.8467 -0.4087
 6685SOL    HW231692   2.001   4.605   4.324  0.0732 -0.2377 -0.8685
 6686SOL     OW31693   2.032   3.714  12.401  0.1034  0.0812 -0.5414
 6686SOL    HW131694   2.093   3.641  12.418  0.8681  0.6922 -0.6596
 6686SOL    HW231695   2.000   3.715  12.491  2.5292 -0.2525  0.3187
 6687SOL     OW31696   2.047   2.246   6.037  0.3106 -0.3317 -0.2098
 6687SOL    HW131697   2.035   2.227   5.944 -2.0105  1.9018 -0.3684
 6687SOL    HW231698   2.093   2.170   6.071 -1.8309 -1.5790 -0.1060
 6688SOL     OW31699   2.544   0.075   5.609  0.1908  0.6630  0.3528
 6688SOL    HW131700   2.584   4.730   5.579 -1.5155 -0.2759  0.6044
 6688SOL    HW231701   2.570   0.135   5.539  3.0538  0.1229  0.9489
 6689SOL     OW31702   0.776   4.109  11.150 -0.0895  0.4192 -0.2958
 6689SOL    HW131703   0.864   4.105  11.113 -0.3336 -1.3454 -0.7159
 6689SOL    HW231704   0.784   4.155  11.233 -0.1448 -1.0138  0.5116
 6690SOL     OW31705   4.628   4.173   2.470  0.1041 -0.6602  0.0202
 6690SOL    HW131706   4.652   4.257   2.430  0.9964  0.0075  1.9800
 6690SOL    HW231707   4.533   4.176   2.461  0.4295 -0.9013 -3.2890
 6691SOL     OW31708   3.084   3.273  17.138  0.0122  0.2346 -0.2620
 6691SOL    HW131709   2.993   3.279  17.109  0.2597 -3.1762 -1.6872
 6691SOL    HW231710   3.124   3.315  17.062  1.3759  5.1941  3.1140
 6692SOL     OW31711   1.354   2.521   1.194 -0.0870 -0.0022  0.8128
 6692SOL    HW131712   1.335   2.522   1.288  0.1118  1.6136  0.8474
 6692SOL    HW231713   1.443   2.556   1.193  0.3191 -1.1012 -0.2254
 6693SOL     OW31714   3.871   3.072   6.363 -0.3893  0.3213  0.5437
 6693SOL    HW131715   3.787   3.115   6.379 -0.2611  0.3961  1.0425
 6693SOL    HW231716   3.856   3.047   6.272 -0.6303  0.6912  0.4821
 6694SOL     OW31717   4.308   1.129  14.459  0.3815 -0.4543 -0.6404
 6694SOL    HW131718   4.376   1.189  14.489  1.0030 -1.5858  0.2361
 6694SOL    HW231719   4.231   1.186  14.463 -0.4542 -1.7558  1.6448
 6695SOL     OW31720   3.246   0.517   6.136 -0.1595  0.4047 -0.3984
 6695SOL    HW131721   3.227   0.602   6.175 -2.5004  0.5628 -1.9398
 6695SOL    HW231722   3.173   0.461   6.160 -1.5750  2.5314  0.2037
 6696SOL     OW31723   3.090   0.270   9.051 -0.5155 -0.4888  0.1315
 6696SOL    HW131724   3.142   0.235   8.979  2.4996 -0.6251  2.3674
 6696SOL    HW231725   3.104   0.364   9.041  2.1746 -0.8871  0.1132
 6697SOL     OW31726   0.545   2.429  11.349  0.4965 -0.2552  0.5278
 6697SOL    HW131727   0.563   2.336  11.335 -3.2367 -0.7548 -1.0694
 6697SOL    HW231728   0.449   2.432  11.339  0.6752  0.1882 -1.0314
 6698SOL     OW31729   3.830   2.627  14.702  0.6057 -0.1216  0.1254
 6698SOL    HW131730   3.778   2.696  14.662  0.2479  1.6406  3.6082
 6698SOL    HW231731   3.883   2.689  14.752  0.9149 -0.1804 -0.1272
 6699SOL     OW31732   3.738   0.282   2.088 -0.4540 -0.5046 -0.2221
 6699SOL    HW131733   3.645   0.260   2.097 -0.3535 -1.1760 -0.8944
 6699SOL    HW231734   3.758   0.249   2.001 -0.5591  0.8281 -0.7424
 6700SOL     OW31735   2.738   1.691   7.209  0.3957 -0.8511 -0.6785
 6700SOL    HW131736   2.723   1.738   7.292  0.9330  0.6853 -1.4444
 6700SOL    HW231737   2.808   1.740   7.165  0.8197 -0.2452  0.6677
 6701SOL     OW31738   0.760   2.683  10.928 -0.6667  0.5791 -0.6358
 6701SOL    HW131739   0.686   2.629  10.901 -0.3477  0.1939 -0.7323
 6701SOL    HW231740   0.718   2.766  10.905  0.6077  1.2132 -0.7038
 6702SOL     OW31741   0.901   0.335   2.562  0.5042  0.0225 -0.1809
 6702SOL    HW131742   0.859   0.249   2.556 -2.6130  1.6668 -1.7205
 6702SOL    HW231743   0.883   0.372   2.476  0.1684  3.8073  1.4872
 6703SOL     OW31744   0.777   4.400   8.128 -0.1011  0.1829  0.2793
 6703SOL    HW131745   0.865   4.371   8.151 -0.8799 -1.4012  1.3096
 6703SOL    HW231746   0.795   4.487   8.094 -0.4977  0.1823  0.0685
 6704SOL     OW31747   0.070   2.334   5.821  0.0156 -0.5661 -0.3819
 6704SOL    HW131748   0.120   2.313   5.900  0.5404 -1.1451 -0.8672
 6704SOL    HW231749   0.147   2.355   5.768  0.1053 -1.1372 -0.4762
 6705SOL     OW31750   4.721   3.617   9.067  0.1956 -0.7059 -0.3520
 6705SOL    HW131751   4.666   3.540   9.065 -0.9444  0.1124 -0.4236
 6705SOL    HW231752   0.042   3.585   9.137 -0.1007  1.2257  0.7826
 6706SOL     OW31753   4.316   0.588   7.743  0.4091 -0.0481 -0.0085
 6706SOL    HW131754   4.223   0.565   7.741  0.2512  0.7189 -1.2451
 6706SOL    HW231755   4.367   0.522   7.697 -0.8144 -0.9129 -0.1103
 6707SOL     OW31756   2.301   1.616   6.988 -0.5971 -0.4840 -0.1051
 6707SOL    HW131757   2.393   1.598   7.007 -0.2849  0.7571 -0.4427
 6707SOL    HW231758   2.301   1.712   6.991 -0.8239 -0.4791 -0.3203
 6708SOL     OW31759   0.274   3.750   2.053 -0.0712  0.7033 -0.1751
 6708SOL    HW131760   0.232   3.802   1.985  0.6994  2.1841  0.4880
 6708SOL    HW231761   0.242   3.787   2.136 -2.7681  3.1692 -2.3050
 6709SOL     OW31762   3.009   1.630   8.327  0.2878  0.1807 -0.3085
 6709SOL    HW131763   3.057   1.590   8.399  0.7953  1.9357  0.3239
 6709SOL    HW231764   3.002   1.549   8.276 -0.9028  0.8486 -1.2163
 6710SOL     OW31765   4.387   2.593   5.946  0.0887 -0.2631 -0.0847
 6710SOL    HW131766   4.475   2.561   5.923  0.5526 -0.2309  1.6253
 6710SOL    HW231767   4.343   2.510   5.928 -0.5938  0.5338 -2.0563
 6711SOL     OW31768   0.047   4.433   6.638  0.0624 -0.3610  0.1405
 6711SOL    HW131769   4.723   4.374   6.683 -0.7214  0.4860  0.1880
 6711SOL    HW231770   4.727   4.469   6.570  0.6549 -1.3450 -0.8739
 6712SOL     OW31771   0.563   4.621   2.131  0.5475  0.4074  0.1209
 6712SOL    HW131772   0.474   4.599   2.102  0.1471  0.7361  1.1080
 6712SOL    HW231773   0.545   4.644   2.222  0.8342 -0.7845  0.4728
 6713SOL     OW31774   4.060   2.356   6.297 -0.5685  0.3707  0.2834
 6713SOL    HW131775   4.044   2.262   6.296  0.5525  0.1915 -1.5616
 6713SOL    HW231776   4.152   2.361   6.270  0.0103  0.2188  2.2484
 6714SOL     OW31777   4.430   0.783   5.039  0.0689  0.0331  0.4848
 6714SOL    HW131778   4.359   0.785   4.974  2.3199  0.4124 -1.9493
 6714SOL    HW231779   4.384   0.736   5.109  0.1043 -0.5404  0.1294
 6715SOL     OW31780   3.248   1.832   8.029  0.4629  0.3956 -0.0172
 6715SOL    HW131781   3.259   1.788   8.114  2.7846 -0.7454 -0.8945
 6715SOL    HW231782   3.252   1.923   8.057 -3.6606  0.4742  0.2106
 6716SOL     OW31783   4.388   1.792   2.837 -0.1789 -0.5240  0.5358
 6716SOL    HW131784   4.312   1.841   2.867 -0.4852 -1.7593  1.7614
 6716SOL    HW231785   4.345   1.742   2.768  0.1091 -0.7600  0.5269
 6717SOL     OW31786   1.842   2.305   6.212 -0.3243 -0.0938  0.6440
 6717SOL    HW131787   1.768   2.315   6.151 -0.8487 -0.4249  1.2279
 6717SOL    HW231788   1.918   2.288   6.157 -0.2425 -0.1220  0.7666
 6718SOL     OW31789   0.517   0.922   3.219 -0.2817  0.2808 -0.0633
 6718SOL    HW131790   0.512   1.016   3.201  1.4860  0.3924  0.0795
 6718SOL    HW231791   0.607   0.916   3.249  0.2460 -1.8382 -2.0345
 6719SOL     OW31792   3.040   1.898   2.655 -0.7313  0.3558 -0.0493
 6719SOL    HW131793   2.957   1.853   2.668 -1.0204  0.4862 -1.4183
 6719SOL    HW231794   3.102   1.826   2.665 -2.1219 -0.9090 -0.4424
 6720SOL     OW31795   2.086   0.553   7.434 -0.3155 -0.1042 -1.0707
 6720SOL    HW131796   2.006   0.584   7.392 -1.5392 -1.3407  0.4017
 6720SOL    HW231797   2.136   0.632   7.456 -1.0137 -0.1221  0.5763
 6721SOL     OW31798   1.125   0.558   2.905  0.2627  0.2641  0.4552
 6721SOL    HW131799   1.193   0.528   2.965  0.3473  0.6991  0.5703
 6721SOL    HW231800   1.052   0.501   2.927  0.7288 -0.5580 -0.1125
 6722SOL     OW31801   1.650   4.445  10.540 -0.2491  0.7093 -0.3045
 6722SOL    HW131802   1.718   4.402  10.592  0.0664  2.4746  0.7178
 6722SOL    HW231803   1.652   4.528  10.586  0.8373  0.7981 -0.5065
 6723SOL     OW31804   2.351   3.045   9.179  0.2436 -0.4822  0.5576
 6723SOL    HW131805   2.284   3.011   9.238  1.1531 -1.5956  0.9499
 6723SOL    HW231806   2.304   3.108   9.124 -0.0193  0.8283  2.2852
 6724SOL     OW31807   2.527   2.099   6.456 -0.4995 -0.0451 -0.3320
 6724SOL    HW131808   2.529   2.004   6.452  1.8564 -0.0329  0.8418
 6724SOL    HW231809   2.552   2.110   6.547  0.8864  1.4022 -0.8745
 6725SOL     OW31810   2.732   0.740   4.727 -0.7005  0.0541 -0.1095
 6725SOL    HW131811   2.796   0.669   4.725 -0.7336  0.0098  0.2628
 6725SOL    HW231812   2.733   0.765   4.635 -0.5987  2.2776  0.5031
 6726SOL     OW31813   1.584   2.082  16.759  0.4982 -0.4295  0.3872
 6726SOL    HW131814   1.660   2.117  16.805  0.6405 -0.3104  0.0607
 6726SOL    HW231815   1.634   2.039  16.690 -0.0835 -0.1366 -0.2176
 6727SOL     OW31816   0.064   2.769   6.351  0.3526 -0.1598  0.6175
 6727SOL    HW131817   0.060   2.808   6.264 -2.4628 -1.8944 -0.0291
 6727SOL    HW231818   0.029   2.841   6.402 -0.8490 -1.3342  1.4564
 6728SOL     OW31819   4.595   0.088  15.244 -0.3260 -0.2194 -0.0265
 6728SOL    HW131820   4.593   0.097  15.339  1.7872  3.7592 -0.3667
 6728SOL    HW231821   4.686   0.061  15.233  0.4512  2.1065  0.7305
 6729SOL     OW31822   3.430   0.876   3.206  0.0843  0.5129 -0.3382
 6729SOL    HW131823   3.369   0.922   3.264 -0.3417 -0.6418  0.1250
 6729SOL    HW231824   3.483   0.816   3.257  0.1081 -0.2108 -1.2128
 6730SOL     OW31825   1.432   1.975   3.028 -0.7501  0.6918 -0.1567
 6730SOL    HW131826   1.368   2.000   2.961  1.0527  1.1021 -1.7190
 6730SOL    HW231827   1.510   1.958   2.976 -1.7952  2.3747 -2.2554
 6731SOL     OW31828   4.331   4.402   6.288  0.5230  0.0456  0.2878
 6731SOL    HW131829   4.263   4.386   6.223 -0.8027 -0.3641  1.7679
 6731SOL    HW231830   4.389   4.453   6.231  1.3714  0.5098  1.5703
 6732SOL     OW31831   4.361   1.418   4.790  0.1096 -0.6193  0.2399
 6732SOL    HW131832   4.314   1.499   4.808 -0.5434 -0.7108 -1.0903
 6732SOL    HW231833   4.295   1.351   4.806  1.4506 -2.0091 -0.0287
 6733SOL     OW31834   0.149   2.259   1.282 -0.0481 -0.3974 -0.3381
 6733SOL    HW131835   0.118   2.282   1.369  2.2834 -2.4308  1.0171
 6733SOL    HW231836   0.116   2.336   1.234 -0.7407 -0.2453  0.3786
 6734SOL     OW31837   4.556   2.613  15.096 -0.4825 -0.2963 -0.5920
 6734SOL    HW131838   4.594   2.693  15.131 -0.9918 -0.1729 -0.3205
 6734SOL    HW231839   4.540   2.634  15.004 -1.9859  0.4484 -0.1513
 6735SOL     OW31840   1.069   1.475   2.346 -0.3431 -0.3275  0.0593
 6735SOL    HW131841   1.143   1.415   2.354 -0.6744 -0.9069 -1.2188
 6735SOL    HW231842   1.110   1.554   2.382 -0.7726 -0.0296 -0.0946
 6736SOL     OW31843   4.730   1.708   8.000 -0.2815 -0.0785 -0.1259
 6736SOL    HW131844   0.025   1.738   8.085 -2.4913 -0.1301  0.7037
 6736SOL    HW231845   0.075   1.676   7.963  0.7436  0.8536  1.3337
 6737SOL     OW31846   4.052   1.508   4.094  0.2098 -0.1039 -0.3898
 6737SOL    HW131847   4.071   1.499   4.000 -3.1202 -0.6969 -1.0049
 6737SOL    HW231848   4.142   1.508   4.125  0.3413 -0.4952 -0.7729
 6738SOL     OW31849   0.312   3.323  15.946 -0.1651  0.0857 -0.5717
 6738SOL    HW131850   0.280   3.274  15.871 -1.8459  2.1917 -1.2361
 6738SOL    HW231851   0.373   3.257  15.978  0.9276  1.2689 -0.1800
 6739SOL     OW31852   0.449   0.739  16.132  0.0798  0.5597 -0.1222
 6739SOL    HW131853   0.399   0.661  16.156  0.9601 -0.2152 -0.8579
 6739SOL    HW231854   0.504   0.737  16.211  0.6624 -3.1042 -0.6117
 6740SOL     OW31855   0.634   1.339  16.564  0.0618 -0.2497 -0.1688
 6740SOL    HW131856   0.723   1.355  16.596 -0.3197 -0.0887  0.8162
 6740SOL    HW231857   0.626   1.250  16.598  4.1586 -0.2682  0.7228
 6741SOL     OW31858   0.159   1.649  13.045 -0.0836 -0.4187  0.1730
 6741SOL    HW131859   0.082   1.597  13.023  1.1352 -1.6849 -1.1589
 6741SOL    HW231860   0.128   1.676  13.131 -4.6888  1.5972 -2.1202
 6742SOL     OW31861   0.444   1.845   1.263  0.5500  0.1230 -0.5173
 6742SOL    HW131862   0.524   1.800   1.237 -1.6045 -3.3371 -1.0603
 6742SOL    HW231863   0.460   1.930   1.221 -1.3866 -0.1257 -1.7465
 6743SOL     OW31864   2.025   3.701  14.671  0.1612  0.3161 -0.0097
 6743SOL    HW131865   1.947   3.757  14.667  0.2306  0.5478  1.8702
 6743SOL    HW231866   2.080   3.747  14.607  1.4352 -1.2906 -0.0467
 6744SOL     OW31867   0.534   2.525   4.844  0.4642  0.8873  1.0058
 6744SOL    HW131868   0.574   2.528   4.758  1.1025  1.8987  1.3468
 6744SOL    HW231869   0.596   2.580   4.891  1.2342  0.9094 -0.0377
 6745SOL     OW31870   3.261   3.894   8.267  0.0405 -0.4715  0.0042
 6745SOL    HW131871   3.288   3.815   8.220  0.6639 -1.7670  2.5595
 6745SOL    HW231872   3.317   3.958   8.223  1.2308 -2.1009 -0.8099
 6746SOL     OW31873   2.308   2.388  17.286  0.2169  0.0506  0.2463
 6746SOL    HW131874   2.228   2.406  17.336 -0.1927  0.3215 -0.5069
 6746SOL    HW231875   2.276   2.335  17.214  0.9288 -0.1909  0.1072
 6747SOL     OW31876   0.554   1.890   5.876 -0.5828 -0.3428  0.1824
 6747SOL    HW131877   0.564   1.916   5.967 -1.8386 -0.5704  0.3824
 6747SOL    HW231878   0.518   1.967   5.831 -3.0858 -1.7214 -0.1336
 6748SOL     OW31879   0.938   2.601  11.113  0.2767 -0.3803 -0.4533
 6748SOL    HW131880   0.897   2.628  11.031 -1.2433  1.8710  1.0821
 6748SOL    HW231881   1.022   2.573  11.075 -0.0664 -2.1604  0.1114
 6749SOL     OW31882   4.443   0.238   7.689 -0.2607  0.7949  0.0078
 6749SOL    HW131883   4.485   0.187   7.619 -0.0292  1.4916 -0.3569
 6749SOL    HW231884   4.502   0.312   7.699  0.9340  0.1101 -1.9941
 6750SOL     OW31885   4.721   0.945   0.305 -0.6211 -0.1713 -0.0404
 6750SOL    HW131886   0.070   0.987   0.315 -0.8232 -0.0970  1.4016
 6750SOL    HW231887   4.716   0.943   0.210 -0.4079  1.5144 -0.0794
 6751SOL     OW31888   1.777   0.190  12.239  0.1170  0.1854  0.4595
 6751SOL    HW131889   1.741   0.278  12.250 -1.0717 -0.1654 -0.6487
 6751SOL    HW231890   1.866   0.208  12.207 -1.5503 -0.0224 -4.2420
 6752SOL     OW31891   4.730   4.290   8.906  0.5194 -0.1483 -0.0115
 6752SOL    HW131892   4.645   4.273   8.947  1.1422 -0.8203  0.9976
 6752SOL    HW231893   4.718   4.226   8.835  1.8750 -1.3220  0.8143
 6753SOL     OW31894   1.760   1.224   7.487 -0.2408 -0.6329  0.2617
 6753SOL    HW131895   1.680   1.171   7.479 -0.1781 -0.7248  0.2343
 6753SOL    HW231896   1.736   1.311   7.457  0.7256 -0.7573 -0.8977
 6754SOL     OW31897   2.339   1.982   6.711 -0.0187  0.1727 -0.0851
 6754SOL    HW131898   2.309   1.953   6.625 -0.0052  1.5678 -0.5578
 6754SOL    HW231899   2.411   2.041   6.688 -0.7916  2.0095  2.1804
 6755SOL     OW31900   3.750   4.201   8.535  0.2145  0.2769 -0.6311
 6755SOL    HW131901   3.761   4.120   8.485  0.5212  0.5877 -1.0704
 6755SOL    HW231902   3.821   4.248   8.491 -0.2423  0.8997 -0.6912
 6756SOL     OW31903   0.356   3.362   9.240 -0.3331  0.3548  0.4562
 6756SOL    HW131904   0.390   3.451   9.245  0.1376  0.2297 -0.4857
 6756SOL    HW231905   0.285   3.377   9.177 -0.7102  0.7711  0.9854
 6757SOL     OW31906   1.475   3.928   6.151 -0.0965 -0.3901 -0.0443
 6757SOL    HW131907   1.539   3.857   6.159 -1.6455 -1.6843  0.6499
 6757SOL    HW231908   1.534   4.002   6.166 -0.7257  0.4501 -1.7777
 6758SOL     OW31909   4.077   3.961  16.394 -0.0594  0.8312 -0.2491
 6758SOL    HW131910   4.152   3.956  16.333 -1.0097 -3.8164 -1.0714
 6758SOL    HW231911   4.000   3.959  16.338 -0.6289 -0.8047  0.5880
 6759SOL     OW31912   0.833   0.234   5.219 -0.0037  0.1372  0.3081
 6759SOL    HW131913   0.762   0.174   5.195  0.6122 -0.9033  1.0643
 6759SOL    HW231914   0.807   0.318   5.182  1.0395 -0.9175 -2.8053
 6760SOL     OW31915   1.798   3.614   4.152  0.4917  0.5457 -0.0305
 6760SOL    HW131916   1.812   3.523   4.179 -1.9123  0.1025 -0.2783
 6760SOL    HW231917   1.714   3.614   4.198 -0.6507 -2.7980 -2.1483
 6761SOL     OW31918   3.699   0.085   2.456 -0.5810 -0.5358 -0.7939
 6761SOL    HW131919   3.671   0.142   2.528  1.3446 -0.0651 -0.4160
 6761SOL    HW231920   3.762   0.144   2.413  0.6651 -1.6703 -0.5308
 6762SOL     OW31921   0.350   3.673   5.210  0.0082  0.1524  0.4223
 6762SOL    HW131922   0.292   3.742   5.243  0.2518  1.3268 -1.5894
 6762SOL    HW231923   0.431   3.721   5.228 -0.0877  0.2223  0.6656
 6763SOL     OW31924   0.905   2.402   0.065  0.0558 -0.2805 -0.3828
 6763SOL    HW131925   0.920   2.409  17.716 -1.0812  0.6426 -0.4951
 6763SOL    HW231926   0.993   2.419   0.100 -0.4618  2.8072 -0.5278
 6764SOL     OW31927   4.351   4.417  14.508  1.0435 -0.4020  0.5252
 6764SOL    HW131928   4.370   4.353  14.576  1.0853 -0.0876  0.8081
 6764SOL    HW231929   4.360   4.359  14.432  3.5967  1.6756 -0.7816
 6765SOL     OW31930   3.499   1.561   7.426  0.2377 -0.0226  0.1774
 6765SOL    HW131931   3.459   1.535   7.343 -0.2939 -0.2684  0.5084
 6765SOL    HW231932   3.425   1.603   7.470  1.1002  0.5377  1.0881
 6766SOL     OW31933   3.475   3.847   3.859 -0.5886 -0.4310 -0.1881
 6766SOL    HW131934   3.521   3.883   3.935  1.0755  0.3600 -1.5584
 6766SOL    HW231935   3.528   3.772   3.834 -0.4299 -0.3940  0.0447
 6767SOL     OW31936   2.937   2.413  10.478 -0.2103  0.3972  0.0916
 6767SOL    HW131937   2.868   2.373  10.426 -0.2291 -0.0247  0.4395
 6767SOL    HW231938   2.883   2.437  10.553  0.3019  1.6824  0.0478
 6768SOL     OW31939   1.296   0.540   6.122  0.6178  0.6624  0.1112
 6768SOL    HW131940   1.340   0.616   6.083  1.4569  0.5943  0.9168
 6768SOL    HW231941   1.304   0.473   6.055 -0.7501  0.0935  0.5136
 6769SOL     OW31942   3.819   1.624   8.981  0.0924  0.1390 -0.0263
 6769SOL    HW131943   3.783   1.705   9.018 -0.7271 -0.0204 -0.4827
 6769SOL    HW231944   3.739   1.578   8.957 -0.5675  1.0644  0.3984
 6770SOL     OW31945   2.937   3.351   8.119 -0.3823  0.5333 -0.1633
 6770SOL    HW131946   2.992   3.284   8.161  1.9243  1.1118 -2.2541
 6770SOL    HW231947   2.949   3.416   8.189 -1.0490 -0.2953  0.7297
 6771SOL     OW31948   1.708   0.012  10.643 -0.2511 -0.0402 -0.0630
 6771SOL    HW131949   1.803   0.018  10.631 -0.5468  2.5008 -1.1685
 6771SOL    HW231950   1.697   0.090  10.697  0.0766 -1.2887  1.7795
 6772SOL     OW31951   2.768   3.419   8.963 -0.0792 -0.1271 -0.8036
 6772SOL    HW131952   2.689   3.447   8.918  0.9940 -0.3075 -2.7954
 6772SOL    HW231953   2.723   3.402   9.046  2.1394 -0.8020  0.2701
 6773SOL     OW31954   3.539   0.005  10.777  0.3437 -0.1124  0.5209
 6773SOL    HW131955   3.511   0.023  10.867  0.9683 -2.1775  1.1449
 6773SOL    HW231956   3.602   4.670  10.790 -0.0889 -0.6286 -0.2213
 6774SOL     OW31957   3.648   0.655   7.146  0.7501  0.1079 -0.0170
 6774SOL    HW131958   3.642   0.609   7.229  3.9495  2.4008  1.4893
 6774SOL    HW231959   3.672   0.739   7.183  1.9126  0.2874 -1.1598
 6775SOL     OW31960   1.491   4.735  16.404 -0.0743 -0.2771 -0.2790
 6775SOL    HW131961   1.502   4.692  16.489  0.6789  0.8654  0.2068
 6775SOL    HW231962   1.576   4.711  16.368  0.6292  0.4692  0.8806
 6776SOL     OW31963   3.367   2.920   8.553  0.2738  0.5640  0.2570
 6776SOL    HW131964   3.436   2.985   8.571  1.5048 -0.3347 -1.2263
 6776SOL    HW231965   3.324   2.898   8.636 -1.0385 -1.1861 -0.9066
 6777SOL     OW31966   1.328   1.844   5.991  0.4711  0.0595  0.1329
 6777SOL    HW131967   1.243   1.836   6.034  1.0608 -1.7837  0.9346
 6777SOL    HW231968   1.361   1.759   6.020  0.9197  0.5707  1.1581
 6778SOL     OW31969   2.112   0.615  12.149  0.4682  0.1123 -0.3017
 6778SOL    HW131970   2.168   0.551  12.193 -0.5417 -0.2673  0.4499
 6778SOL    HW231971   2.026   0.608  12.192  0.2372  3.3961 -0.2596
 6779SOL     OW31972   3.055   4.214  12.627 -0.0950 -0.1327  0.5738
 6779SOL    HW131973   3.013   4.216  12.713  0.8296  1.2846  0.9823
 6779SOL    HW231974   2.978   4.200  12.572  0.3288 -1.5494  0.3288
 6780SOL     OW31975   4.073   2.673   2.684 -0.2214 -0.5239  0.2567
 6780SOL    HW131976   4.019   2.750   2.671  2.3200  1.7423  3.3034
 6780SOL    HW231977   4.115   2.694   2.767  0.7819 -1.8126  0.0934
 6781SOL     OW31978   1.698   0.767   8.090 -0.5514  0.2337 -0.1408
 6781SOL    HW131979   1.758   0.839   8.071 -0.9038  0.6401  0.2648
 6781SOL    HW231980   1.644   0.773   8.012 -1.9884  3.2862  1.0858
 6782SOL     OW31981   1.510   3.968  16.638 -0.1285  0.0545 -0.0652
 6782SOL    HW131982   1.571   4.033  16.604  0.9451 -0.3433  1.0993
 6782SOL    HW231983   1.433   4.022  16.658  0.9702  1.9356 -0.9341
 6783SOL     OW31984   1.288   2.246  12.102  0.2106 -0.7697 -0.2898
 6783SOL    HW131985   1.303   2.228  12.194  2.5153  0.9706 -0.3197
 6783SOL    HW231986   1.215   2.192  12.071  0.0826 -1.5048  1.3362
 6784SOL     OW31987   3.666   1.036   5.900  0.1427  0.6536 -0.1925
 6784SOL    HW131988   3.666   0.941   5.911  1.2624  0.7720  0.7842
 6784SOL    HW231989   3.727   1.040   5.826  2.0153  0.6034  1.3686
 6785SOL     OW31990   0.798   1.589   0.277  0.1695  0.0811 -0.2722
 6785SOL    HW131991   0.867   1.526   0.255 -0.0273 -0.5626  0.9174
 6785SOL    HW231992   0.814   1.600   0.371 -2.0028  1.2984 -0.0534
 6786SOL     OW31993   0.778   0.512   6.318 -0.1633  0.2574  0.0484
 6786SOL    HW131994   0.709   0.532   6.382 -1.0124 -0.3723 -0.6710
 6786SOL    HW231995   0.843   0.570   6.358  1.2005 -0.8942 -0.4820
 6787SOL     OW31996   2.227   0.210   6.602 -0.0471  0.1064  0.1894
 6787SOL    HW131997   2.235   0.274   6.673 -1.1624  0.6527 -0.1676
 6787SOL    HW231998   2.241   0.271   6.530  0.8848  0.2609  0.4999
 6788SOL     OW31999   0.399   2.897  15.640  0.6707  0.1502  0.4745
 6788SOL    HW132000   0.447   2.948  15.575  2.2258  0.7303  2.0819
 6788SOL    HW232001   0.417   2.804  15.626  0.2456  0.2212 -0.4837
 6789SOL     OW32002   4.663   3.667  12.107 -0.4057  0.3622  0.0924
 6789SOL    HW132003   4.645   3.646  12.199  2.1145 -1.3821  0.2148
 6789SOL    HW232004   4.629   3.594  12.056  2.7902 -0.0728 -1.3911
 6790SOL     OW32005   3.832   2.607   2.054  0.0239 -0.8699 -0.0442
 6790SOL    HW132006   3.884   2.611   2.133 -0.1907 -0.4855  0.0783
 6790SOL    HW232007   3.901   2.625   1.990 -0.1687 -0.8526 -0.2487
 6791SOL     OW32008   1.760   3.713   1.533  0.0309  0.1830 -0.4018
 6791SOL    HW132009   1.845   3.731   1.574  1.5632  0.2067 -3.6379
 6791SOL    HW232010   1.791   3.688   1.446 -0.7818 -0.8436 -0.4013
 6792SOL     OW32011   1.921   3.027   9.067  0.0585 -0.2461 -0.2827
 6792SOL    HW132012   1.965   3.102   9.107  0.1754  1.1774 -3.1128
 6792SOL    HW232013   1.877   2.997   9.146  1.6428 -2.2900 -0.1521
 6793SOL     OW32014   0.145   4.323   3.741 -0.1984 -0.3758  0.2970
 6793SOL    HW132015   0.148   4.372   3.824  0.4395 -1.1016  0.6981
 6793SOL    HW232016   0.053   4.324   3.716 -0.6124  0.6363  1.8230
 6794SOL     OW32017   1.165   2.518   3.580 -0.2181 -0.1337  0.4139
 6794SOL    HW132018   1.104   2.575   3.627 -0.7450 -0.4756  0.1546
 6794SOL    HW232019   1.182   2.576   3.506  1.2353 -0.6035  0.3886
 6795SOL     OW32020   0.829   2.796   6.236 -0.1688  0.0211  0.4169
 6795SOL    HW132021   0.914   2.820   6.273  0.5883 -0.5928 -0.9024
 6795SOL    HW232022   0.765   2.823   6.301 -1.2227  0.0017 -0.6160
 6796SOL     OW32023   0.992   3.276   8.944  0.1131  0.0712  0.0569
 6796SOL    HW132024   0.910   3.318   8.971  2.7634  3.4463  2.8232
 6796SOL    HW232025   0.962   3.236   8.862  1.4446  1.7375 -1.2595
 6797SOL     OW32026   1.675   2.895   5.770  0.0977  0.0323  0.7535
 6797SOL    HW132027   1.602   2.880   5.830 -1.1154 -3.6145 -1.6260
 6797SOL    HW232028   1.642   2.854   5.690 -0.7920 -1.3723  1.8318
 6798SOL     OW32029   1.631   0.907   2.594  0.1855  0.2471 -0.4251
 6798SOL    HW132030   1.643   0.959   2.514  0.8628  1.7861  0.6720
 6798SOL    HW232031   1.556   0.853   2.570  0.9218 -1.1991  0.6115
 6799SOL     OW32032   3.059   0.315   0.484  0.5969  0.0887  0.1717
 6799SOL    HW132033   3.093   0.278   0.402  1.1357 -1.1004  0.9362
 6799SOL    HW232034   3.021   0.237   0.524 -2.5501  2.2951  1.4588
 6800SOL     OW32035   2.302   1.250   2.724 -0.7756 -0.3837  0.1262
 6800SOL    HW132036   2.375   1.277   2.781  0.1728  1.4402 -1.9374
 6800SOL    HW232037   2.333   1.176   2.672 -0.1426  1.0857 -1.6096
 6801SOL     OW32038   1.522   3.041   0.708 -0.5909  0.0233 -0.2610
 6801SOL    HW132039   1.513   2.946   0.696  1.3657 -0.0472 -1.2381
 6801SOL    HW232040   1.555   3.059   0.620 -1.1969 -0.8488 -0.6739
 6802SOL     OW32041   3.695   0.724   5.912 -0.3910  0.0105 -0.3086
 6802SOL    HW132042   3.788   0.746   5.906 -0.3158  0.2216  1.5098
 6802SOL    HW232043   3.688   0.716   6.007 -1.5282  0.2940 -0.3681
 6803SOL     OW32044   0.107   0.067   8.891 -0.6696 -0.1145  0.7009
 6803SOL    HW132045   0.049   0.025   8.954 -0.8318 -0.6845  0.1714
 6803SOL    HW232046   0.043   0.049   8.821  1.1425  1.8172 -1.4765
 6804SOL     OW32047   3.399   3.348   9.037  0.3653  0.2255  0.3180
 6804SOL    HW132048   3.324   3.292   9.018 -0.4623  2.5277 -3.3895
 6804SOL    HW232049   3.469   3.325   8.976 -0.0614  0.6694 -0.3481
 6805SOL     OW32050   2.338   2.526  14.084 -0.2868 -0.2905 -0.4948
 6805SOL    HW132051   2.419   2.578  14.088 -1.7598  1.8387  1.5036
 6805SOL    HW232052   2.372   2.437  14.077  1.6833  0.5779 -2.0037
 6806SOL     OW32053   4.244   3.352   5.528 -0.1857 -0.2250  0.2425
 6806SOL    HW132054   4.318   3.386   5.580  0.9315  3.6289 -3.8420
 6806SOL    HW232055   4.284   3.266   5.518 -0.7292 -0.4545  0.0891
 6807SOL     OW32056   4.639   0.793  14.222 -0.0380 -0.2296  0.2387
 6807SOL    HW132057   4.560   0.824  14.179  0.7059  1.2282 -0.0392
 6807SOL    HW232058   4.605   0.737  14.293 -3.1921 -0.0737 -1.1679
 6808SOL     OW32059   1.364   1.872   5.005 -0.0337 -0.1437 -0.1012
 6808SOL    HW132060   1.373   1.935   4.935  0.0660 -0.5179 -0.4264
 6808SOL    HW232061   1.282   1.827   4.987  0.0721 -0.4746  0.2267
 6809SOL     OW32062   0.530   3.975   7.289 -0.8380 -0.2795 -0.2223
 6809SOL    HW132063   0.515   3.998   7.197 -1.4817 -2.3732 -0.6264
 6809SOL    HW232064   0.495   3.888   7.305  0.4646 -0.6592  0.5488
 6810SOL     OW32065   0.638   4.286   5.662 -0.0160  0.2867 -0.0559
 6810SOL    HW132066   0.662   4.364   5.712 -0.5489  0.0071  0.6371
 6810SOL    HW232067   0.650   4.326   5.576 -1.7579 -1.1351 -0.9745
 6811SOL     OW32068   1.887   0.435   5.689  0.3964  0.5676  0.7022
 6811SOL    HW132069   1.838   0.376   5.633  0.5944 -0.2856  1.4273
 6811SOL    HW232070   1.973   0.399   5.667 -0.5819 -0.4970 -1.3584
 6812SOL     OW32071   3.204   1.339   9.060  0.4167 -1.0067 -0.1725
 6812SOL    HW132072   3.135   1.400   9.084 -0.7358 -1.8629 -1.2997
 6812SOL    HW232073   3.201   1.351   8.965  1.1406  0.3364 -0.0336
 6813SOL     OW32074   1.013   4.275   5.421  0.1348  0.2284  0.3732
 6813SOL    HW132075   1.050   4.283   5.334  2.4011 -1.7128  1.1536
 6813SOL    HW232076   1.061   4.200   5.456  0.9606  0.5909 -0.0016
 6814SOL     OW32077   1.933   0.471   9.200  0.6985  0.0077 -0.4019
 6814SOL    HW132078   1.999   0.433   9.257 -0.6383  0.5262  1.4898
 6814SOL    HW232079   1.994   0.490   9.129  0.3949  0.1590 -0.6242
 6815SOL     OW32080   4.711   1.856   1.618  0.6801  0.4948  0.2313
 6815SOL    HW132081   0.036   1.815   1.680 -0.5177 -0.8143  0.5599
 6815SOL    HW232082   0.029   1.901   1.553 -0.5504  3.9905  1.6194
 6816SOL     OW32083   2.986   4.489   8.269 -0.1498  0.6992  0.0102
 6816SOL    HW132084   2.932   4.527   8.199 -0.3560  0.5992  0.1181
 6816SOL    HW232085   3.049   4.559   8.287  1.2061 -0.8802  1.2670
 6817SOL     OW32086   2.033   1.555   7.983  0.0410 -0.5415 -0.3999
 6817SOL    HW132087   2.049   1.647   8.002 -1.3423  0.3172 -3.2980
 6817SOL    HW232088   1.961   1.536   8.042  0.3696  2.8579  1.0723
 6818SOL     OW32089   2.120   2.064  17.025  0.4002 -0.4017 -0.2112
 6818SOL    HW132090   2.113   2.158  17.005 -1.6680 -0.8318 -1.4974
 6818SOL    HW232091   2.215   2.066  17.034  0.4189 -2.4658  0.0228
 6819SOL     OW32092   2.648   3.965   5.448 -0.1592 -0.4892  0.5380
 6819SOL    HW132093   2.645   3.935   5.539 -0.4100 -2.3290 -0.0752
 6819SOL    HW232094   2.699   3.893   5.412  2.8515  0.9004  2.0936
 6820SOL     OW32095   2.386   3.964   6.882 -0.7548 -0.1039 -0.2695
 6820SOL    HW132096   2.453   3.999   6.823  0.0755 -0.9783  0.1611
 6820SOL    HW232097   2.404   4.000   6.969  0.3535 -2.5439  0.5018
 6821SOL     OW32098   2.486   0.154  17.724 -0.2315  0.5679  0.0607
 6821SOL    HW132099   2.535   0.072  17.733  0.3623  0.8354 -0.6642
 6821SOL    HW232100   2.463   0.174   0.070 -0.8966 -0.9989  0.2315
 6822SOL     OW32101   1.830   4.432   4.828 -0.2917 -0.2415 -0.3418
 6822SOL    HW132102   1.922   4.460   4.836 -0.2556 -1.2698  2.8598
 6822SOL    HW232103   1.781   4.510   4.854  0.1326 -0.1217  0.1116
 6823SOL     OW32104   4.089   3.070   3.857 -0.6752  0.1528 -0.0602
 6823SOL    HW132105   4.182   3.058   3.877 -0.4292  0.2331 -1.1135
 6823SOL    HW232106   4.099   3.137   3.788  1.1647  0.4789  0.5383
 6824SOL     OW32107   3.397   0.915  12.548 -0.1261 -0.2455 -0.0646
 6824SOL    HW132108   3.406   0.908  12.643 -2.0816 -0.9872  0.0534
 6824SOL    HW232109   3.487   0.903  12.516  0.5701 -1.5287  2.3863
 6825SOL     OW32110   0.666   4.648   7.504 -0.3215  0.9726 -0.2316
 6825SOL    HW132111   0.712   4.591   7.442  0.7614  0.2977  1.1811
 6825SOL    HW232112   0.579   4.611   7.516 -0.8740  2.2383 -0.3795
 6826SOL     OW32113   4.523   4.733   5.577  0.6533 -0.1439 -0.4544
 6826SOL    HW132114   4.615   0.011   5.553  1.5672 -0.8618  2.5890
 6826SOL    HW232115   4.545   4.697   5.663 -1.4899 -1.1696 -0.3463
 6827SOL     OW32116   2.999   2.779   7.242 -0.2001 -0.7288  0.0542
 6827SOL    HW132117   3.026   2.864   7.277 -2.9152 -0.2719  1.0806
 6827SOL    HW232118   2.952   2.739   7.316 -0.0339  1.6831  1.4805
 6828SOL     OW32119   1.231   3.919   3.104  0.5653  0.0595  0.0667
 6828SOL    HW132120   1.191   3.874   3.179 -0.1416  1.3906  0.4953
 6828SOL    HW232121   1.185   3.872   3.035 -1.7888 -0.2876  1.8613
 6829SOL     OW32122   0.193   0.759  17.387  0.0883  0.0716  0.3597
 6829SOL    HW132123   0.178   0.665  17.382 -2.7684  0.5686 -0.4416
 6829SOL    HW232124   0.238   0.767  17.471 -1.7687 -1.8139  1.5395
 6830SOL     OW32125   0.154   2.137   4.453  0.2386 -0.9458  0.3166
 6830SOL    HW132126   0.184   2.228   4.441 -1.7827 -0.3634 -0.3228
 6830SOL    HW232127   0.077   2.158   4.506  0.8517  0.6825  0.5903
 6831SOL     OW32128   3.362   1.366  12.564  0.1305  0.0440 -0.1416
 6831SOL    HW132129   3.458   1.367  12.560  0.1221 -0.6371 -0.6153
 6831SOL    HW232130   3.363   1.441  12.622 -1.3226 -0.0243 -0.0373
 6832SOL     OW32131   3.100   2.099  12.913 -0.1609  0.5290  0.0775
 6832SOL    HW132132   3.165   2.168  12.903 -0.7245  0.9402 -0.7092
 6832SOL    HW232133   3.076   2.113  13.005  2.0945 -1.2515  0.9544
 6833SOL     OW32134   0.998   4.420   1.434  0.2897 -0.2411  0.1644
 6833SOL    HW132135   1.021   4.512   1.427  0.6874 -0.4010 -0.6038
 6833SOL    HW232136   1.077   4.378   1.400 -1.6292 -3.3871 -0.3877
 6834SOL     OW32137   1.060   2.801   6.366  0.4474 -0.4798 -0.1819
 6834SOL    HW132138   1.075   2.724   6.419  3.0129 -0.3433 -0.6842
 6834SOL    HW232139   1.147   2.821   6.330 -0.2204 -1.2795 -2.2515
 6835SOL     OW32140   3.517   3.155   8.258 -0.4648 -0.2943  0.5744
 6835SOL    HW132141   3.566   3.136   8.338  0.3197 -1.4198 -0.1612
 6835SOL    HW232142   3.473   3.071   8.243 -1.5639  0.1161  1.4804
 6836SOL     OW32143   1.465   1.694  10.083  0.1598 -0.5640 -0.3617
 6836SOL    HW132144   1.404   1.731  10.147  1.1131  1.7783 -0.8234
 6836SOL    HW232145   1.475   1.758  10.013  2.7677 -0.1700  0.3773
 6837SOL     OW32146   3.150   0.866   3.372 -0.0788  0.2819  0.5084
 6837SOL    HW132147   3.077   0.827   3.420 -1.2758  0.0354 -1.5355
 6837SOL    HW232148   3.183   0.924   3.441  1.8579 -0.8802  0.5799
 6838SOL     OW32149   4.719   1.668  15.498 -0.1908 -0.2512 -0.4918
 6838SOL    HW132150   4.720   1.717  15.416  1.8251 -2.1713 -1.5799
 6838SOL    HW232151   0.077   1.665  15.510 -0.0389 -1.6693 -2.0510
 6839SOL     OW32152   1.767   2.929   9.266 -0.0173  0.0506  0.3381
 6839SOL    HW132153   1.733   2.936   9.355  0.3838 -0.8648  0.5636
 6839SOL    HW232154   1.810   2.844   9.265  0.0078  0.0608  0.5447
 6840SOL     OW32155   0.063   0.527  16.798  0.3264  0.7044  0.0937
 6840SOL    HW132156   0.020   0.513  16.713  0.9850 -0.3680 -0.0699
 6840SOL    HW232157   4.728   0.570  16.843  0.5446 -0.3354  1.4137
 6841SOL     OW32158   4.678   1.107   6.835 -0.3236 -0.2770 -0.1472
 6841SOL    HW132159   4.733   1.122   6.758  1.9457 -0.5788  1.4175
 6841SOL    HW232160   4.660   1.014   6.841 -1.0230 -0.1800 -0.8848
 6842SOL     OW32161   4.565   4.309   4.888 -0.2110 -0.1046  0.2384
 6842SOL    HW132162   4.594   4.250   4.958  2.5710 -0.2867 -1.0717
 6842SOL    HW232163   4.578   4.257   4.809 -1.2569 -2.7574  1.8106
 6843SOL     OW32164   1.163   0.066   7.337  0.1115  0.1804  0.2848
 6843SOL    HW132165   1.225   0.009   7.290 -0.3334 -0.3359  0.3316
 6843SOL    HW232166   1.090   0.075   7.276 -1.3562  1.8321  2.2958
 6844SOL     OW32167   2.402   1.505   2.674  0.9085 -0.1757  0.3418
 6844SOL    HW132168   2.357   1.424   2.696  1.3832 -0.2703  0.9490
 6844SOL    HW232169   2.458   1.469   2.604  3.0097 -1.8163  2.8597
 6845SOL     OW32170   2.309   3.319  13.201 -0.0940  0.7786 -0.3192
 6845SOL    HW132171   2.246   3.387  13.222  0.3135  1.4204 -1.1889
 6845SOL    HW232172   2.375   3.336  13.269 -0.8785 -1.2974  0.9741
 6846SOL     OW32173   0.370   2.640   8.726 -0.2709  0.4163  0.2552
 6846SOL    HW132174   0.334   2.644   8.815  0.3780  2.2214  0.4329
 6846SOL    HW232175   0.328   2.562   8.688 -1.5499  1.6941 -0.9634
 6847SOL     OW32176   3.495   3.652   7.297 -0.0641 -0.5541 -0.2130
 6847SOL    HW132177   3.440   3.728   7.315 -0.6892 -1.6237  2.3358
 6847SOL    HW232178   3.502   3.660   7.202  2.8454  0.5019  0.0973
 6848SOL     OW32179   4.462   2.621   6.633 -0.3462 -0.2128 -0.1705
 6848SOL    HW132180   4.443   2.547   6.690 -2.3838  1.5386  1.4145
 6848SOL    HW232181   4.394   2.677   6.669 -0.4581 -1.2696  1.2329
 6849SOL     OW32182   1.761   1.464  13.928  0.3140  0.2625  0.4580
 6849SOL    HW132183   1.748   1.556  13.952  1.2446  0.1934  1.2172
 6849SOL    HW232184   1.823   1.437  13.995 -0.8394 -0.2810  1.3032
 6850SOL     OW32185   0.047   1.628   5.798  0.4360  0.0056 -0.0299
 6850SOL    HW132186   0.123   1.585   5.759 -0.3906 -1.2154 -0.3029
 6850SOL    HW232187   0.052   1.586   5.885  0.2047  0.8719  0.4022
 6851SOL     OW32188   1.745   3.956  11.831 -0.0478  1.2959 -0.6008
 6851SOL    HW132189   1.811   3.896  11.865 -0.3612  0.3302 -1.6985
 6851SOL    HW232190   1.794   4.038  11.828  1.1676  0.4850 -2.8370
 6852SOL     OW32191   3.328   1.729   2.993 -0.1912  0.0700 -0.3686
 6852SOL    HW132192   3.323   1.722   3.089 -0.7350  1.4325 -0.3060
 6852SOL    HW232193   3.406   1.673   2.989 -0.0602  0.0483  2.0268
 6853SOL     OW32194   0.772   1.451   8.717 -1.3087 -0.0500  0.2511
 6853SOL    HW132195   0.796   1.540   8.742  0.4459 -0.8138  1.2283
 6853SOL    HW232196   0.761   1.415   8.805 -0.9524 -0.6523  0.0498
 6854SOL     OW32197   0.443   0.618   7.964 -0.3689  0.7029 -0.1042
 6854SOL    HW132198   0.361   0.664   7.982 -1.5643 -1.1593 -0.7844
 6854SOL    HW232199   0.425   0.526   7.984  0.3824  1.3996  3.6707
 6855SOL     OW32200   3.045   3.980   5.338 -0.4111 -0.1739 -0.0549
 6855SOL    HW132201   3.130   3.938   5.349  0.1701  1.1063  0.3032
 6855SOL    HW232202   3.072   4.070   5.324 -1.6066  0.1380 -0.4032
 6856SOL     OW32203   1.413   4.385  15.135  0.0941 -0.0165  0.0254
 6856SOL    HW132204   1.425   4.296  15.169  1.5985  1.1783  2.6165
 6856SOL    HW232205   1.345   4.360  15.073 -0.1859 -0.0016  0.3230
 6857SOL     OW32206   0.621   3.672   8.980 -0.1468 -0.1442 -0.0437
 6857SOL    HW132207   0.587   3.667   9.069 -0.7044 -1.4010 -0.3229
 6857SOL    HW232208   0.688   3.737   9.001 -0.3773  0.1327 -0.1663
 6858SOL     OW32209   0.160   1.842  14.529 -0.4462  0.0214  0.2213
 6858SOL    HW132210   0.110   1.771  14.489 -0.5026 -0.0707  0.4535
 6858SOL    HW232211   0.088   1.905  14.519 -1.0440 -0.7250 -0.2101
 6859SOL     OW32212   2.441   0.835  14.199 -0.4868 -0.3784  1.0665
 6859SOL    HW132213   2.443   0.865  14.109  1.7503 -1.5334  0.7261
 6859SOL    HW232214   2.491   0.753  14.199  2.4054  1.3975 -2.5246
 6860SOL     OW32215   3.507   2.533  14.755 -0.0992  0.0784  0.3421
 6860SOL    HW132216   3.582   2.589  14.734 -1.8171  2.6137  0.9801
 6860SOL    HW232217   3.470   2.590  14.821 -0.2585  0.7541 -0.3303
 6861SOL     OW32218   2.567   4.573   2.447  0.0868  0.1930  0.9283
 6861SOL    HW132219   2.548   4.486   2.411 -0.9821  0.0464  1.8748
 6861SOL    HW232220   2.517   4.616   2.377 -0.2855  0.9634  1.6775
 6862SOL     OW32221   3.724   2.420  10.108  0.3729  1.0191  0.0715
 6862SOL    HW132222   3.698   2.460  10.191  0.3373  0.3768  0.3707
 6862SOL    HW232223   3.764   2.343  10.148 -1.7599  0.7666  1.7041
 6863SOL     OW32224   2.419   3.544   3.980  0.1494  0.0748 -0.6225
 6863SOL    HW132225   2.341   3.595   4.002 -0.0924 -0.6887  0.3050
 6863SOL    HW232226   2.483   3.612   3.958  0.1321  0.5662  0.8523
 6864SOL     OW32227   2.684   0.851   6.208  0.0484  0.3040 -0.0953
 6864SOL    HW132228   2.641   0.837   6.292 -1.0828 -0.2923 -0.7841
 6864SOL    HW232229   2.745   0.778   6.197  1.6944  1.6308  0.0835
 6865SOL     OW32230   3.048   2.658   8.540  0.0252  0.0596  0.1516
 6865SOL    HW132231   3.016   2.719   8.474 -1.3757  0.2773  1.0478
 6865SOL    HW232232   3.015   2.699   8.620 -2.0307 -1.7078  0.2056
 6866SOL     OW32233   2.664   2.664  15.333  0.2836  0.1242  0.1033
 6866SOL    HW132234   2.660   2.738  15.271 -0.2575  0.7194  0.8429
 6866SOL    HW232235   2.571   2.649  15.349  0.3208  0.5741  0.7551
 6867SOL     OW32236   1.374   1.906   5.363  0.3241  0.4867  0.0867
 6867SOL    HW132237   1.464   1.931   5.379  0.2972  0.5762  0.0987
 6867SOL    HW232238   1.330   1.958   5.430  0.3601 -1.3396  1.5205
 6868SOL     OW32239   0.869   0.917   4.599  0.2811 -0.3539 -0.1300
 6868SOL    HW132240   0.907   0.993   4.556 -0.2874  1.1966  2.1166
 6868SOL    HW232241   0.826   0.873   4.525 -1.9774 -1.5457  1.8875
 6869SOL     OW32242   1.488   3.416   8.435  0.2025  0.1787  0.8061
 6869SOL    HW132243   1.456   3.355   8.502 -3.3278 -0.8013 -1.7508
 6869SOL    HW232244   1.470   3.495   8.486 -2.7650  0.0258  0.0250
 6870SOL     OW32245   2.358   3.435   6.562  0.4091 -0.2172  0.3689
 6870SOL    HW132246   2.409   3.488   6.501  1.0846 -2.1440 -0.7110
 6870SOL    HW232247   2.279   3.411   6.512  2.1512  1.0908 -3.0344
 6871SOL     OW32248   1.443   1.131   3.145  0.0712  0.6442  0.1436
 6871SOL    HW132249   1.369   1.071   3.154 -2.0631  3.0199 -1.2218
 6871SOL    HW232250   1.432   1.153   3.052  2.6409  0.5024 -0.1939
 6872SOL     OW32251   4.286   4.731  15.364  0.1907 -0.1665  0.4907
 6872SOL    HW132252   4.222   4.663  15.382 -0.6740  0.8281  1.2022
 6872SOL    HW232253   4.349   4.681  15.312  0.7553  0.3650  0.6526
 6873SOL     OW32254   0.652   2.347   3.355  0.6873  0.2892 -0.2089
 6873SOL    HW132255   0.715   2.378   3.420  1.5041  0.0508 -0.8885
 6873SOL    HW232256   0.569   2.370   3.397  0.6066 -0.9270  0.2944
 6874SOL     OW32257   1.897   4.603   2.558  0.2321  0.2394 -0.3550
 6874SOL    HW132258   1.813   4.640   2.586  1.1512  0.4788  2.0782
 6874SOL    HW232259   1.895   4.525   2.614  1.4712 -2.0129 -3.3957
 6875SOL     OW32260   2.619   1.318   6.326  0.0593  0.2811 -0.3940
 6875SOL    HW132261   2.714   1.311   6.337 -0.2313 -2.2653  0.6151
 6875SOL    HW232262   2.615   1.358   6.239  0.2679 -0.6457 -0.8339
 6876SOL     OW32263   2.026   2.996  16.392 -0.2537  0.4688  0.4207
 6876SOL    HW132264   2.064   3.083  16.406 -0.5566  0.8365 -1.1019
 6876SOL    HW232265   2.054   2.984  16.302  1.1042  0.5185  0.8281
 6877SOL     OW32266   1.273   0.491   3.295  0.0337  0.1404  0.4182
 6877SOL    HW132267   1.295   0.582   3.279  2.3797 -0.3018  1.0364
 6877SOL    HW232268   1.291   0.453   3.210  2.3854  2.1599  0.0260
 6878SOL     OW32269   1.383   2.511   9.185  0.1581  0.0693  0.7640
 6878SOL    HW132270   1.423   2.591   9.220  2.9946  0.7736 -4.0218
 6878SOL    HW232271   1.443   2.486   9.115 -0.8303  2.0290 -0.7920
 6879SOL     OW32272   4.444   1.299   3.438  0.0554 -0.3993 -0.4183
 6879SOL    HW132273   4.540   1.300   3.435  0.1159  0.2700  1.8213
 6879SOL    HW232274   4.425   1.390   3.459 -0.5923 -0.8960  1.1049
 6880SOL     OW32275   0.927   0.723   5.143 -0.4231  0.2546 -0.0671
 6880SOL    HW132276   0.981   0.798   5.165 -2.0287  0.5058  3.0779
 6880SOL    HW232277   0.892   0.749   5.058  2.7259  1.1293 -1.0856
 6881SOL     OW32278   3.107   2.112   4.121  0.4810  0.1984 -1.0728
 6881SOL    HW132279   3.063   2.028   4.109 -0.5410  0.3789  1.4967
 6881SOL    HW232280   3.101   2.110   4.216  2.6291  0.8341 -0.9403
 6882SOL     OW32281   1.501   2.925   5.424  0.2433 -0.4923 -0.0540
 6882SOL    HW132282   1.438   2.959   5.488 -0.5961 -1.4728 -0.3717
 6882SOL    HW232283   1.545   2.855   5.472  3.6083  0.3420 -1.9074
 6883SOL     OW32284   1.407   0.084  17.169  0.5244 -0.1770  0.6967
 6883SOL    HW132285   1.457   0.005  17.149  0.0133 -0.3711  0.1976
 6883SOL    HW232286   1.455   0.118  17.244  1.4938 -0.4019  0.1852
 6884SOL     OW32287   1.419   2.038  10.620 -0.7834 -0.0430  0.0957
 6884SOL    HW132288   1.399   2.125  10.586  2.0284  2.0999  3.9391
 6884SOL    HW232289   1.339   2.017  10.668  0.2924 -0.4192  1.7049
 6885SOL     OW32290   0.937   4.123   3.422 -0.1277  0.1093  0.1950
 6885SOL    HW132291   1.014   4.077   3.455 -0.5341 -0.0803  0.8705
 6885SOL    HW232292   0.902   4.049   3.371  0.9032  0.3306 -0.8341
 6886SOL     OW32293   2.731   0.034  10.252 -0.0355  0.4867 -0.0805
 6886SOL    HW132294   2.654   0.003  10.204  0.7744  0.2017 -1.1953
 6886SOL    HW232295   2.699   0.038  10.342 -0.2690  1.7075 -0.2133
 6887SOL     OW32296   4.689   1.591   4.059 -0.0684  0.2903  0.0109
 6887SOL    HW132297   4.732   1.607   4.142 -0.5371  2.9725 -0.2586
 6887SOL    HW232298   4.657   1.677   4.032  0.8123  0.9716  1.1531
 6888SOL     OW32299   2.556   1.028  17.430  0.4415 -0.3121  0.7253
 6888SOL    HW132300   2.589   1.115  17.408  0.8342 -0.2372  1.6115
 6888SOL    HW232301   2.637   0.979  17.441 -0.5954 -2.7046 -2.2488
 6889SOL     OW32302   2.452   4.149  11.230  0.7975 -0.3300 -0.2945
 6889SOL    HW132303   2.388   4.080  11.211 -0.2047  0.5485 -0.0967
 6889SOL    HW232304   2.484   4.128  11.317 -0.2161 -2.8262 -0.5281
 6890SOL     OW32305   1.346   4.642   4.468  0.1023 -0.1077  0.0447
 6890SOL    HW132306   1.437   4.645   4.496  0.8513 -2.0263 -2.1232
 6890SOL    HW232307   1.343   4.557   4.425  4.2659 -0.1558 -0.1312
 6891SOL     OW32308   1.313   3.170   4.241 -0.1034  0.2508  0.1313
 6891SOL    HW132309   1.403   3.139   4.248  0.0858  0.7449 -0.1143
 6891SOL    HW232310   1.264   3.088   4.233  0.0544  0.1971 -0.2904
 6892SOL     OW32311   3.640   2.856  15.974  0.5616 -0.0708 -0.6278
 6892SOL    HW132312   3.582   2.923  15.938  0.1227  0.2895  0.7421
 6892SOL    HW232313   3.701   2.905  16.028 -1.9678  2.0982  0.2318
 6893SOL     OW32314   2.939   2.091   3.743 -0.5216  0.0683 -0.0087
 6893SOL    HW132315   2.869   2.052   3.796  0.6815 -0.3784  1.2577
 6893SOL    HW232316   3.020   2.041   3.758 -0.7763 -0.7857 -1.4409
 6894SOL     OW32317   4.696   4.082   1.308 -0.1824 -0.7642 -0.1179
 6894SOL    HW132318   4.734   4.164   1.340 -0.1968 -1.0379  0.5955
 6894SOL    HW232319   0.003   4.072   1.223  0.1958 -3.5270  0.4107
 6895SOL     OW32320   2.959   1.356   6.958 -0.2710  0.1747  0.6000
 6895SOL    HW132321   3.021   1.301   7.006 -0.3038  0.8329  1.4021
 6895SOL    HW232322   3.006   1.375   6.877 -1.3613  1.7781  0.3607
 6896SOL     OW32323   0.211   3.916   8.236 -0.4301  0.3722 -0.2924
 6896SOL    HW132324   0.219   3.935   8.142  0.8597  3.2800  0.3988
 6896SOL    HW232325   0.118   3.933   8.250 -0.2419  1.8389 -0.8413
 6897SOL     OW32326   4.093   4.534  13.505  0.0330 -0.1857 -0.2145
 6897SOL    HW132327   4.044   4.496  13.577 -0.0303  1.0744  0.4032
 6897SOL    HW232328   4.093   4.626  13.532  1.2968 -0.5037  0.8560
 6898SOL     OW32329   3.340   1.792   1.722  0.3749 -0.1139 -0.1163
 6898SOL    HW132330   3.300   1.879   1.727  1.7490  0.5109  0.0064
 6898SOL    HW232331   3.418   1.803   1.776  2.1658  1.8092 -3.1190
 6899SOL     OW32332   1.008   0.570   6.653  0.1296  0.1990  0.0193
 6899SOL    HW132333   1.085   0.626   6.641 -0.6048  1.1070 -0.3824
 6899SOL    HW232334   1.027   0.515   6.729 -0.1318  2.4502  1.7141
 6900SOL     OW32335   1.750   2.394   3.393 -0.2869  0.1223 -0.3026
 6900SOL    HW132336   1.785   2.362   3.309  1.7377  1.2976  0.1099
 6900SOL    HW232337   1.832   2.404   3.440 -0.3654 -0.2323 -0.0896
 6901SOL     OW32338   4.079   0.365  12.788  0.6906  0.1292  0.1899
 6901SOL    HW132339   4.025   0.289  12.768 -0.1107  0.9296 -0.7343
 6901SOL    HW232340   4.095   0.353  12.881  1.3394  0.7749  0.1618
 6902SOL     OW32341   3.307   0.460   0.708  0.4871  0.1691  0.3676
 6902SOL    HW132342   3.260   0.508   0.777  0.0438 -0.1682  0.3005
 6902SOL    HW232343   3.389   0.445   0.755  0.2325  1.7565  1.3119
 6903SOL     OW32344   1.642   2.099   5.038 -0.5291  0.1453  0.0349
 6903SOL    HW132345   1.600   2.156   4.973 -0.8688  0.2698  0.3624
 6903SOL    HW232346   1.595   2.126   5.117  2.6862 -1.2516  2.4178
 6904SOL     OW32347   2.356   2.750   4.449 -0.1268 -0.1133 -0.9533
 6904SOL    HW132348   2.392   2.721   4.533 -0.2930  0.2102 -0.7686
 6904SOL    HW232349   2.276   2.796   4.475 -0.4812 -1.2272 -0.0820
 6905SOL     OW32350   1.857   3.629   0.387 -0.0666 -0.5161  0.1913
 6905SOL    HW132351   1.875   3.628   0.481  0.1750 -1.7813  0.1332
 6905SOL    HW232352   1.947   3.631   0.354  0.5999  0.7143  2.0759
 6906SOL     OW32353   0.501   1.370   8.571  0.1419  0.5021 -0.6934
 6906SOL    HW132354   0.440   1.435   8.605  0.3907  0.7127 -0.6459
 6906SOL    HW232355   0.538   1.328   8.649 -0.6003  0.3104 -0.4508
 6907SOL     OW32356   0.861   1.125  11.923 -0.3584 -0.3911  0.5591
 6907SOL    HW132357   0.835   1.102  12.012 -1.9835  1.7847  0.6439
 6907SOL    HW232358   0.912   1.045  11.915 -1.5730 -1.3385  2.4170
 6908SOL     OW32359   2.734   1.964   0.459 -0.6320 -0.1261  0.3056
 6908SOL    HW132360   2.805   1.905   0.434 -1.1000  0.0768 -1.4940
 6908SOL    HW232361   2.684   1.961   0.378  1.6281  1.1628 -1.1475
 6909SOL     OW32362   0.133   1.950   9.389 -0.0524  0.0117 -0.1692
 6909SOL    HW132363   0.076   1.923   9.317 -1.2135  0.4674  0.5699
 6909SOL    HW232364   0.159   2.040   9.373  1.5447 -0.7456 -1.7890
 6910SOL     OW32365   4.186   2.270   6.875 -0.3113 -0.0008 -0.3637
 6910SOL    HW132366   4.126   2.265   6.949 -2.2223 -2.0098 -2.0291
 6910SOL    HW232367   4.236   2.193   6.903  0.0080  0.9911  1.8028
 6911SOL     OW32368   1.658   3.464  17.680  1.5565  0.2119  0.0035
 6911SOL    HW132369   1.673   3.556  17.658  0.4086  0.5131  0.5253
 6911SOL    HW232370   1.701   3.430  17.602  1.4033 -1.1268  0.5069
 6912SOL     OW32371   1.182   1.531   1.579  0.1258  0.4656  0.3423
 6912SOL    HW132372   1.166   1.461   1.515 -0.2630 -1.6009  2.7044
 6912SOL    HW232373   1.120   1.515   1.650  1.9818 -1.1122  1.6080
 6913SOL     OW32374   4.306   0.035   0.458  0.6434  0.2815 -0.3118
 6913SOL    HW132375   4.222   0.060   0.497  0.3488 -1.8533  0.4378
 6913SOL    HW232376   4.331   4.705   0.522 -2.4019 -0.0530  0.5457
 6914SOL     OW32377   0.880   3.730  10.987  0.1763  0.1078  0.2647
 6914SOL    HW132378   0.937   3.799  11.020 -0.3148 -0.2292  1.8469
 6914SOL    HW232379   0.820   3.780  10.932  1.2277 -0.8502 -1.7303
 6915SOL     OW32380   3.407   0.097  13.318 -0.3789 -0.4362  0.6274
 6915SOL    HW132381   3.412   0.146  13.400 -0.1338  1.1473 -0.3133
 6915SOL    HW232382   3.314   0.078  13.318  0.3025 -3.6964  0.8431
 6916SOL     OW32383   2.831   0.976  13.683  0.2818 -0.2917  0.3800
 6916SOL    HW132384   2.765   0.943  13.622  1.0501 -0.9117 -0.1133
 6916SOL    HW232385   2.783   1.057  13.702 -1.2735 -0.9912 -0.5204
 6917SOL     OW32386   2.892   2.388   2.288  0.5585  0.0569  0.3181
 6917SOL    HW132387   2.980   2.388   2.249  1.0835  1.7092  1.4932
 6917SOL    HW232388   2.921   2.357   2.373  2.2388  0.6866 -0.0318
 6918SOL     OW32389   3.881   2.451   2.625  0.0248 -0.2272 -0.0420
 6918SOL    HW132390   3.863   2.471   2.533  2.1333  0.1021 -0.3744
 6918SOL    HW232391   3.952   2.514   2.638  0.1962 -0.5092  0.4048
 6919SOL     OW32392   4.402   2.765   5.662  0.7334 -0.3553 -0.3534
 6919SOL    HW132393   4.363   2.794   5.744  0.0792 -0.3078 -0.6862
 6919SOL    HW232394   4.369   2.675   5.660 -1.5905  0.4341  3.0082
 6920SOL     OW32395   4.441   4.448  12.735  0.0192  0.1246  0.3507
 6920SOL    HW132396   4.521   4.446  12.787 -0.0963  0.0133  0.5262
 6920SOL    HW232397   4.485   4.472  12.654 -1.9308  0.9174 -0.4692
 6921SOL     OW32398   2.556   4.131   5.706  0.4920 -0.2920 -0.3901
 6921SOL    HW132399   2.461   4.128   5.693  0.3405 -1.1853  0.8934
 6921SOL    HW232400   2.570   4.046   5.747 -2.7359 -0.6646  0.0038
 6922SOL     OW32401   2.948   0.320   7.921  0.2455 -0.1400 -0.1309
 6922SOL    HW132402   2.938   0.225   7.912 -0.0758 -0.1991  0.9395
 6922SOL    HW232403   2.866   0.354   7.956  0.2637 -1.9510  1.6562
 6923SOL     OW32404   0.926   2.648   9.350  0.1615  0.1001  0.2441
 6923SOL    HW132405   0.840   2.616   9.325  0.3920 -0.5710  0.3099
 6923SOL    HW232406   0.984   2.582   9.311  0.2378 -0.5239  1.4105
 6924SOL     OW32407   4.289   3.540   6.475 -0.0129 -0.2558 -0.6078
 6924SOL    HW132408   4.310   3.446   6.483  0.3697  0.0419  1.9136
 6924SOL    HW232409   4.204   3.529   6.519 -0.0700  2.8840  0.0375
 6925SOL     OW32410   1.320   2.592   5.843 -0.7214  0.2984 -0.2199
 6925SOL    HW132411   1.240   2.604   5.895 -0.9385  1.1358 -0.7443
 6925SOL    HW232412   1.382   2.653   5.884 -1.0173 -0.5163  1.4258
 6926SOL     OW32413   3.289   0.872   7.013 -0.1263 -0.0849 -0.5645
 6926SOL    HW132414   3.325   0.834   6.932  2.2969 -2.6084  1.7139
 6926SOL    HW232415   3.218   0.808   7.021 -1.2901  0.9892 -2.2436
 6927SOL     OW32416   3.744   3.733   2.909  0.0964 -0.4473  0.1407
 6927SOL    HW132417   3.727   3.809   2.964 -1.0908 -0.6190  0.0205
 6927SOL    HW232418   3.820   3.696   2.954  0.6248  1.5381  0.8503
 6928SOL     OW32419   1.216   2.606   3.327 -0.2510  0.0924 -0.2932
 6928SOL    HW132420   1.243   2.514   3.321  1.4336  0.4150  2.1293
 6928SOL    HW232421   1.244   2.643   3.243  1.1372  1.4269  0.7553
 6929SOL     OW32422   0.076   0.195   5.970 -0.8918  0.1635  0.2222
 6929SOL    HW132423   0.090   0.103   5.946  0.3439 -0.1251  2.0405
 6929SOL    HW232424   0.095   0.191   6.063  2.3945  3.3377 -0.3187
 6930SOL     OW32425   3.893   3.111   8.303  0.3709  0.3101 -0.1847
 6930SOL    HW132426   3.884   3.144   8.392 -2.4755  2.9281 -1.4519
 6930SOL    HW232427   3.826   3.043   8.310  2.8443 -2.1270 -0.2566
 6931SOL     OW32428   2.224   4.645  11.193 -0.3954  0.0148  0.3779
 6931SOL    HW132429   2.221   4.552  11.169 -1.8690 -0.6694  3.1691
 6931SOL    HW232430   2.296   4.642  11.256 -0.8265 -0.6160  0.8405
 6932SOL     OW32431   2.240   2.926  13.358  0.3010  0.1446  0.2767
 6932SOL    HW132432   2.219   2.964  13.443 -2.2117 -0.0269 -0.2466
 6932SOL    HW232433   2.261   2.837  13.384  2.7163  1.0757  1.4627
 6933SOL     OW32434   0.540   2.462   4.205  0.6812 -0.3446  0.3488
 6933SOL    HW132435   0.636   2.458   4.204  0.7800  2.2478  1.3149
 6933SOL    HW232436   0.511   2.463   4.296  0.2158  1.9695  0.1629
 6934SOL     OW32437   3.148   0.168   0.250  0.3077 -0.7019 -0.3504
 6934SOL    HW132438   3.095   0.105   0.299  0.9355  0.8619  2.3395
 6934SOL    HW232439   3.153   0.117   0.170 -1.7473 -1.0159 -0.2741
 6935SOL     OW32440   0.884   3.072   4.194 -0.2989 -0.1502 -0.2002
 6935SOL    HW132441   0.793   3.060   4.220  0.1281  0.3993  1.5498
 6935SOL    HW232442   0.871   3.037   4.106 -1.5682  2.2545 -0.9773
 6936SOL     OW32443   2.568   3.938  17.095 -0.2136 -0.0322  0.4032
 6936SOL    HW132444   2.547   3.878  17.023  2.3037 -2.2756  1.5375
 6936SOL    HW232445   2.593   3.878  17.165  0.1543  0.5232  0.7413
 6937SOL     OW32446   1.348   0.162   8.206  0.2995  0.1107  0.7530
 6937SOL    HW132447   1.300   0.134   8.128 -1.5785  0.4711  1.7780
 6937SOL    HW232448   1.433   0.117   8.207  0.7728  0.9914  0.6184
 6938SOL     OW32449   3.342   0.597  11.605 -0.5218  0.3084  0.1041
 6938SOL    HW132450   3.310   0.578  11.516 -2.1934 -1.0020  0.9766
 6938SOL    HW232451   3.436   0.609  11.590 -0.0151 -3.2787  0.4372
 6939SOL     OW32452   1.813   0.052   4.628 -0.3996  0.1092  0.5312
 6939SOL    HW132453   1.782   4.698   4.622  0.4467 -0.0567 -1.6698
 6939SOL    HW232454   1.767   0.083   4.550  0.2621  0.9423  0.4724
 6940SOL     OW32455   1.509   3.520  12.572  0.0251 -0.5106  0.0777
 6940SOL    HW132456   1.536   3.537  12.663 -0.7704 -1.0827  0.4199
 6940SOL    HW232457   1.417   3.546  12.569 -0.6901 -2.7329  3.0066
 6941SOL     OW32458   4.134   4.584  10.869 -0.2184 -0.0312 -0.0013
 6941SOL    HW132459   4.162   4.665  10.912 -2.4414  0.5954  0.2785
 6941SOL    HW232460   4.176   4.601  10.785 -0.8758  1.7608  0.0510
 6942SOL     OW32461   4.053   0.580   2.412  0.5413  0.2804  0.1711
 6942SOL    HW132462   4.008   0.650   2.459  0.6984 -0.4111  1.3533
 6942SOL    HW232463   4.025   0.582   2.320 -1.9958  1.1944  0.9732
 6943SOL     OW32464   2.238   0.395   5.867  0.2820  0.5535 -0.4315
 6943SOL    HW132465   2.257   0.307   5.833 -1.8519  0.9392 -2.5489
 6943SOL    HW232466   2.322   0.406   5.911  0.0325  0.9149 -0.0418
 6944SOL     OW32467   3.813   4.139   1.720  0.0782 -0.2568 -0.1718
 6944SOL    HW132468   3.813   4.081   1.796  1.0288 -0.8238 -0.6142
 6944SOL    HW232469   3.851   4.217   1.760 -0.2502  0.6547 -1.6011
 6945SOL     OW32470   3.231   2.023   1.893  0.0205 -0.2684  0.2831
 6945SOL    HW132471   3.246   2.117   1.882 -1.1089 -0.0105  0.9393
 6945SOL    HW232472   3.140   2.022   1.862 -0.4142  0.5936  1.5466
 6946SOL     OW32473   1.033   1.843  16.976  0.0782  0.1136  0.1460
 6946SOL    HW132474   1.045   1.836  16.881 -1.6670 -0.9676  0.0082
 6946SOL    HW232475   0.944   1.879  16.979 -0.4840 -1.3946  2.0420
 6947SOL     OW32476   3.199   2.443   2.316 -0.6124  0.4440  0.1161
 6947SOL    HW132477   3.142   2.512   2.351 -0.9463  0.3490 -0.2439
 6947SOL    HW232478   3.241   2.493   2.247 -1.7279 -1.2106 -1.7472
 6948SOL     OW32479   2.058   3.653   0.196  0.2739  0.1777 -0.1074
 6948SOL    HW132480   2.098   3.566   0.208 -0.1188 -0.0925 -0.7666
 6948SOL    HW232481   2.056   3.647   0.101  0.2858  0.9110 -0.1510
 6949SOL     OW32482   4.233   0.991   8.493  0.5305  0.3192  0.0885
 6949SOL    HW132483   4.302   0.925   8.489 -1.0371 -1.3523  0.8475
 6949SOL    HW232484   4.235   1.030   8.406 -1.7382  0.2282 -0.0093
 6950SOL     OW32485   3.072   0.730  10.982 -0.2633  0.2560 -0.4630
 6950SOL    HW132486   3.130   0.721  10.907 -0.3680  0.8318 -0.6171
 6950SOL    HW232487   3.132   0.776  11.041 -1.6512 -0.3754  1.4319
 6951SOL     OW32488   0.257   3.369   2.520  0.4718 -0.1358  0.0840
 6951SOL    HW132489   0.223   3.281   2.504 -0.4979  0.1049  0.7592
 6951SOL    HW232490   0.351   3.357   2.529  0.3576 -0.5227  0.7718
 6952SOL     OW32491   2.736   4.103  17.258 -0.1242  0.2090  0.1260
 6952SOL    HW132492   2.811   4.047  17.238 -1.5068 -0.9562 -1.8690
 6952SOL    HW232493   2.666   4.063  17.205 -0.4857 -0.7586  1.3387
 6953SOL     OW32494   1.897   2.008   5.122 -0.5363  0.6116 -0.2859
 6953SOL    HW132495   1.932   1.964   5.045 -1.3853  0.7469 -0.7516
 6953SOL    HW232496   1.813   2.039   5.086 -0.5601 -0.3524 -1.0826
 6954SOL     OW32497   3.854   1.580   7.987  0.6455  0.6209 -0.1541
 6954SOL    HW132498   3.927   1.639   8.005  0.2691  1.2314 -0.6313
 6954SOL    HW232499   3.788   1.649   7.982 -1.0477 -0.8118  2.7680
 6955SOL     OW32500   2.549   3.801  11.101  0.7595  0.1354 -0.1657
 6955SOL    HW132501   2.465   3.831  11.136  0.8140 -1.4357  1.2707
 6955SOL    HW232502   2.543   3.706  11.097 -1.0413  0.2155  0.5504
 6956SOL     OW32503   3.025   4.440   9.178 -0.1039 -0.2831 -0.7157
 6956SOL    HW132504   3.011   4.365   9.120  0.3063 -1.4783  0.7251
 6956SOL    HW232505   3.005   4.397   9.261 -0.8553  1.3303 -0.0572
 6957SOL     OW32506   2.963   1.995   8.939  0.4184  1.0546 -0.2882
 6957SOL    HW132507   2.974   2.053   8.863 -0.3394  1.6201  0.0293
 6957SOL    HW232508   3.032   1.931   8.926  0.0857  0.4296  1.0315
 6958SOL     OW32509   3.966   0.139  16.702 -0.8693 -0.3814 -0.1689
 6958SOL    HW132510   3.973   0.059  16.651  3.3890 -0.0824 -0.0925
 6958SOL    HW232511   3.952   0.123  16.796 -0.9811  0.6946  0.0045
 6959SOL     OW32512   0.417   3.223  10.195  0.3475 -0.1212 -0.2750
 6959SOL    HW132513   0.505   3.186  10.207  0.3597  0.2245  0.7093
 6959SOL    HW232514   0.409   3.260  10.282  0.3448 -0.8874  0.0562
 6960SOL     OW32515   1.068   3.199   1.802  0.2879  0.4516 -0.7065
 6960SOL    HW132516   1.126   3.240   1.866  0.4974 -1.3185  0.2448
 6960SOL    HW232517   0.982   3.229   1.831 -0.2365 -1.1927 -0.5647
 6961SOL     OW32518   2.834   3.723   8.172  0.0938 -0.1797  0.1275
 6961SOL    HW132519   2.881   3.805   8.187 -0.7089  0.1078  1.0517
 6961SOL    HW232520   2.759   3.765   8.130 -1.7108 -1.9390  1.5728
 6962SOL     OW32521   3.702   1.134   0.633  0.2570 -0.2193  0.1416
 6962SOL    HW132522   3.636   1.198   0.607  1.4224  0.8844 -0.0709
 6962SOL    HW232523   3.689   1.125   0.727  1.0091  0.3326  0.2894
 6963SOL     OW32524   1.086   3.116  12.583 -0.4372  0.2931  0.3940
 6963SOL    HW132525   1.102   3.208  12.561 -1.2203  0.1228 -0.9091
 6963SOL    HW232526   1.166   3.071  12.555 -1.0567  0.2599 -1.3596
 6964SOL     OW32527   4.549   0.393   5.000 -0.0517  0.7728 -0.7574
 6964SOL    HW132528   4.631   0.432   4.969  0.2718 -0.3716 -1.3475
 6964SOL    HW232529   4.510   0.368   4.916 -1.1166  0.3456 -0.1311
 6965SOL     OW32530   0.904   3.795   6.597  0.7548  0.0037 -0.7048
 6965SOL    HW132531   0.934   3.857   6.664 -3.2593  0.5095  0.6410
 6965SOL    HW232532   0.832   3.844   6.558 -1.3826 -3.7718 -1.4608
 6966SOL     OW32533   3.045   2.826   3.618  0.2550  0.0605 -0.2448
 6966SOL    HW132534   2.951   2.832   3.637 -0.1115  0.2374 -2.1562
 6966SOL    HW232535   3.058   2.732   3.628 -1.3790 -0.0520  0.7809
 6967SOL     OW32536   3.028   2.366   9.374 -0.1467  0.2632  0.2379
 6967SOL    HW132537   2.934   2.359   9.393 -0.5656  0.2521 -1.7273
 6967SOL    HW232538   3.050   2.277   9.400  0.2156  0.4586  0.5907
 6968SOL     OW32539   0.014   1.003   1.708 -0.0005 -0.2064  0.5032
 6968SOL    HW132540   0.003   1.076   1.768 -0.7095  2.2289 -2.5484
 6968SOL    HW232541   0.085   0.948   1.739  0.6185  0.8650  0.9576
 6969SOL     OW32542   2.239   3.938   3.053  0.5059  0.4991  0.5222
 6969SOL    HW132543   2.325   3.980   3.062 -0.2378  2.1258 -0.0085
 6969SOL    HW232544   2.240   3.907   3.144 -1.8508 -1.9648 -0.3001
 6970SOL     OW32545   0.533   3.018   0.965 -0.3292  0.2213 -0.1980
 6970SOL    HW132546   0.610   2.999   0.912 -0.4648 -1.7667  0.3495
 6970SOL    HW232547   0.468   2.949   0.961  2.2098 -2.1855  0.3050
 6971SOL     OW32548   0.835   3.162   4.712  0.3515  0.0740 -0.2683
 6971SOL    HW132549   0.889   3.144   4.636 -0.4734  0.5659 -0.9691
 6971SOL    HW232550   0.851   3.255   4.728 -0.8215  0.1610  0.4035
 6972SOL     OW32551   1.500   3.235   1.024 -0.3944 -0.4647  0.7271
 6972SOL    HW132552   1.428   3.280   1.068 -0.9717 -0.2944 -0.3962
 6972SOL    HW232553   1.511   3.278   0.939  1.8486  0.3842  1.4588
 6973SOL     OW32554   1.055   3.378  10.112 -0.0682 -0.1930 -0.3589
 6973SOL    HW132555   1.117   3.438  10.153 -0.6138  0.2193 -0.1262
 6973SOL    HW232556   1.074   3.293  10.152  0.4652  0.4593  0.7777
 6974SOL     OW32557   4.500   3.731   4.939 -0.4019 -0.1485 -0.0850
 6974SOL    HW132558   4.492   3.673   4.864 -1.4240  0.0948 -0.1627
 6974SOL    HW232559   4.574   3.690   4.984  0.0655 -0.5424 -1.2124
 6975SOL     OW32560   1.133   0.995  12.255  0.2243 -0.0711  0.4009
 6975SOL    HW132561   1.130   1.087  12.226  0.2506 -0.6090 -1.2787
 6975SOL    HW232562   1.224   0.987  12.283  0.1470  0.3894  0.8064
 6976SOL     OW32563   3.831   2.901   9.827  0.4677 -0.2345  0.0504
 6976SOL    HW132564   3.914   2.949   9.834  0.6996 -0.5575 -0.4292
 6976SOL    HW232565   3.868   2.815   9.805  1.2282  0.1854 -0.3289
 6977SOL     OW32566   1.334   0.412   7.900 -0.2959  0.6717 -0.6690
 6977SOL    HW132567   1.362   0.373   7.817 -0.1298  0.8009 -0.6725
 6977SOL    HW232568   1.257   0.356   7.915 -0.6081  0.9188 -1.3374
 6978SOL     OW32569   3.656   0.226   2.737 -0.1008 -0.2213 -0.4682
 6978SOL    HW132570   3.706   0.302   2.708  0.8568 -2.0423 -3.5693
 6978SOL    HW232571   3.717   0.213   2.810 -0.6619 -1.9688 -0.3018
 6979SOL     OW32572   4.069   1.144   3.313  0.4600  0.5670  0.1245
 6979SOL    HW132573   3.989   1.117   3.268 -0.2533 -0.5853  2.1022
 6979SOL    HW232574   4.043   1.174   3.400 -1.2070 -1.9650  0.5033
 6980SOL     OW32575   2.399   1.078   1.545 -0.3721 -0.3114 -0.0847
 6980SOL    HW132576   2.445   1.055   1.626  3.0692 -0.8048 -2.1983
 6980SOL    HW232577   2.345   1.150   1.579  1.8120  0.3312  2.0681
 6981SOL     OW32578   0.039   1.963  15.583 -1.0662  0.4701 -0.1164
 6981SOL    HW132579   0.002   1.931  15.665  4.0444 -4.2670  0.2932
 6981SOL    HW232580   0.128   1.931  15.576 -0.9367  1.0605 -1.2107
 6982SOL     OW32581   2.944   4.680  15.175 -0.5073  0.5572  0.4139
 6982SOL    HW132582   2.960   4.666  15.268 -2.0113  1.3284  0.7888
 6982SOL    HW232583   2.848   4.674  15.176 -0.4378  0.0861  2.6255
 6983SOL     OW32584   0.046   2.264  11.915 -0.1339  0.0203 -0.6929
 6983SOL    HW132585   0.032   2.342  11.862 -1.6760  0.2094 -0.0247
 6983SOL    HW232586   0.092   2.297  11.992  0.1846 -0.0627 -0.8505
 6984SOL     OW32587   2.175   0.161   8.973  0.3231  0.3449  0.2037
 6984SOL    HW132588   2.235   0.101   9.017 -1.1305 -1.1309  0.1496
 6984SOL    HW232589   2.119   0.175   9.050 -1.5710  1.1111 -1.3189
 6985SOL     OW32590   1.799   2.601  15.580  0.1446  0.1192 -0.0391
 6985SOL    HW132591   1.828   2.689  15.607  0.3708  0.0922 -0.1900
 6985SOL    HW232592   1.882   2.552  15.578 -0.3447 -0.5937 -2.3587
 6986SOL     OW32593   3.321   1.258   5.033 -0.4991 -0.4472  0.8276
 6986SOL    HW132594   3.393   1.218   5.082 -0.1091 -2.4179 -1.3404
 6986SOL    HW232595   3.273   1.180   5.008  0.5300 -0.8029 -0.0223
 6987SOL     OW32596   3.866   1.073  10.489 -0.0804  0.2583  0.4625
 6987SOL    HW132597   3.905   1.004  10.435 -3.3688 -1.1904 -0.0438
 6987SOL    HW232598   3.776   1.088  10.462  0.3205 -0.0457 -1.0690
 6988SOL     OW32599   1.026   2.039   1.357 -0.0020  0.2632  0.4206
 6988SOL    HW132600   1.120   2.057   1.349  0.0643 -0.2173  0.0950
 6988SOL    HW232601   1.015   1.975   1.286  3.3636  1.5264 -1.2596
 6989SOL     OW32602   3.367   1.375   0.941  0.1466  0.3584  0.5039
 6989SOL    HW132603   3.315   1.312   0.991 -1.0525  0.8029 -0.1584
 6989SOL    HW232604   3.450   1.365   0.987 -0.0959  1.4301  1.1807
 6990SOL     OW32605   2.274   2.135   2.781 -0.3834 -1.2445 -0.8170
 6990SOL    HW132606   2.297   2.075   2.852 -0.5927  0.1730  0.4434
 6990SOL    HW232607   2.189   2.107   2.748 -0.8970 -0.5307 -0.1010
 6991SOL     OW32608   1.113   2.013   7.190 -0.4067 -0.0118  0.3849
 6991SOL    HW132609   1.041   2.025   7.252 -1.3357  1.1856 -0.9189
 6991SOL    HW232610   1.174   2.077   7.226 -2.5866  2.3093  0.0197
 6992SOL     OW32611   3.263   2.220   4.361 -0.4106  0.3606  0.4178
 6992SOL    HW132612   3.176   2.252   4.385 -0.2783 -0.8052  2.4540
 6992SOL    HW232613   3.313   2.294   4.396  2.1753 -0.4875 -1.4835
 6993SOL     OW32614   0.479   4.360  12.977  0.2502 -0.4524  0.4049
 6993SOL    HW132615   0.570   4.371  12.951 -0.5074  1.0117 -1.6503
 6993SOL    HW232616   0.436   4.375  12.893  1.9365  2.6371  0.1335
 6994SOL     OW32617   2.324   2.391   4.628 -0.4206 -0.3694 -0.2957
 6994SOL    HW132618   2.333   2.476   4.671 -0.4266 -1.5971  2.1303
 6994SOL    HW232619   2.264   2.412   4.556 -2.5150 -0.7738  1.3248
 6995SOL     OW32620   2.122   2.993   5.670 -0.2729 -0.1734 -0.0628
 6995SOL    HW132621   2.051   3.052   5.695 -1.1274 -1.8485  1.4344
 6995SOL    HW232622   2.078   2.909   5.674  1.1171 -0.9067  0.0258
 6996SOL     OW32623   3.483   4.286   7.546  0.2232 -0.3293  0.0006
 6996SOL    HW132624   3.408   4.315   7.598 -0.6607 -0.1414 -1.4064
 6996SOL    HW232625   3.496   4.192   7.560  0.2600  0.0876  2.7620
 6997SOL     OW32626   3.720   1.797   7.405  0.0372  0.1399 -0.4337
 6997SOL    HW132627   3.664   1.731   7.362  2.1057 -1.8425 -0.0939
 6997SOL    HW232628   3.779   1.741   7.455 -0.5372 -0.8692 -0.8696
 6998SOL     OW32629   4.443   2.329   1.721  0.0326 -0.5358 -0.3232
 6998SOL    HW132630   4.364   2.356   1.767 -0.0006  0.2694 -0.8552
 6998SOL    HW232631   4.457   2.401   1.660  1.7242 -0.1693  0.5230
 6999SOL     OW32632   2.789   4.275  11.544 -0.0335  0.2980  0.2158
 6999SOL    HW132633   2.725   4.342  11.523  2.4014  1.8005 -2.4479
 6999SOL    HW232634   2.732   4.206  11.511  1.4161 -0.8195  0.0186
 7000SOL     OW32635   2.721   0.054  11.870 -0.2832  0.2223 -0.0158
 7000SOL    HW132636   2.638   0.012  11.889  1.6459 -2.8394  1.5084
 7000SOL    HW232637   2.717   0.131  11.927  1.6088  0.8764 -0.7527
 7001SOL     OW32638   2.751   2.961   8.163 -0.2228  0.7144  0.0771
 7001SOL    HW132639   2.704   2.887   8.125  2.0098 -0.0738 -1.1416
 7001SOL    HW232640   2.825   2.914   8.202  0.6966  2.1922  0.1250
 7002SOL     OW32641   1.652   3.407   3.944  0.7836 -0.2772 -0.6640
 7002SOL    HW132642   1.606   3.454   4.014  0.8859 -1.1707  0.0067
 7002SOL    HW232643   1.588   3.341   3.921 -0.1779  0.0615  0.9981
 7003SOL     OW32644   1.509   0.106   7.421  0.3351 -0.1954 -0.2723
 7003SOL    HW132645   1.522   0.148   7.507 -1.9479 -1.2153  0.5722
 7003SOL    HW232646   1.488   0.179   7.363  0.7516 -0.3979 -0.6678
 7004SOL     OW32647   2.441   4.054   7.141  0.0116  0.0632  0.3926
 7004SOL    HW132648   2.471   4.136   7.179 -0.3705  0.9700 -1.2776
 7004SOL    HW232649   2.436   3.986   7.209  0.4842 -1.5820 -1.2097
 7005SOL     OW32650   2.780   0.025  11.078  0.0678 -0.2495  0.6907
 7005SOL    HW132651   2.778   0.026  10.983  0.7509 -3.1751  0.6523
 7005SOL    HW232652   2.831   0.102  11.105 -1.4521  0.8077  0.5602
 7006SOL     OW32653   1.023   1.600   6.798 -0.3968 -0.2251 -0.1383
 7006SOL    HW132654   0.992   1.536   6.735 -1.4623  0.7947 -0.6506
 7006SOL    HW232655   1.020   1.684   6.752  0.7339  0.3553  0.8320
 7007SOL     OW32656   0.519   2.582   7.480 -0.3565  0.6612  0.5159
 7007SOL    HW132657   0.551   2.657   7.530  0.8957 -0.2512  1.0821
 7007SOL    HW232658   0.429   2.571   7.511 -0.5102 -1.9954 -0.8757
 7008SOL     OW32659   3.763   2.847   1.816  0.6768  0.2793  0.1716
 7008SOL    HW132660   3.796   2.913   1.877  0.7874 -0.8461  1.3483
 7008SOL    HW232661   3.835   2.784   1.813  2.4911  2.3720 -0.4663
 7009SOL     OW32662   2.596   3.576   0.208 -0.8841 -0.0807  0.1954
 7009SOL    HW132663   2.664   3.613   0.265  0.1863 -1.9141  0.1364
 7009SOL    HW232664   2.523   3.621   0.249 -1.9468 -0.1978 -1.6175
 7010SOL     OW32665   4.293   0.696  10.357 -0.1002  0.2273  0.3269
 7010SOL    HW132666   4.265   0.750  10.283  1.0560 -1.0997 -1.0742
 7010SOL    HW232667   4.223   0.633  10.376 -1.2527  1.8335  1.4041
 7011SOL     OW32668   4.050   1.441   3.156  0.4705 -0.2319 -0.0530
 7011SOL    HW132669   4.130   1.400   3.186  0.4793 -1.0795 -1.2721
 7011SOL    HW232670   3.982   1.374   3.149  0.8165 -0.5654 -0.2158
 7012SOL     OW32671   0.741   2.887   7.858  0.5085  0.1566 -0.4904
 7012SOL    HW132672   0.804   2.847   7.799  1.4642  2.7184 -1.1863
 7012SOL    HW232673   0.699   2.805   7.884 -1.1752  1.1123 -0.1978
 7013SOL     OW32674   1.943   1.692   1.602 -0.0550 -0.0517 -0.3091
 7013SOL    HW132675   2.009   1.676   1.534 -1.4422 -0.0344 -1.6499
 7013SOL    HW232676   1.862   1.719   1.558  0.5214  0.2439 -1.1783
 7014SOL     OW32677   2.375   0.967   4.215 -0.1629 -0.0379 -0.5752
 7014SOL    HW132678   2.322   1.042   4.187 -2.5337 -2.0462 -1.4727
 7014SOL    HW232679   2.310   0.920   4.266 -1.0989  0.2618 -1.4960
 7015SOL     OW32680   0.876   0.941  16.870 -0.8890  0.4879 -0.7652
 7015SOL    HW132681   0.863   0.976  16.959  1.2408  0.0089 -0.2502
 7015SOL    HW232682   0.963   0.905  16.888 -1.9748 -2.0706 -0.6974
 7016SOL     OW32683   0.837   3.164   3.167 -0.4513 -1.1180  0.3359
 7016SOL    HW132684   0.814   3.182   3.258  2.6547 -2.7498  1.4292
 7016SOL    HW232685   0.834   3.069   3.168  0.9589 -1.1629 -0.3241
 7017SOL     OW32686   1.791   2.188   1.913  0.3525  0.3128 -0.1529
 7017SOL    HW132687   1.828   2.214   1.829 -1.5167 -0.5066 -1.2196
 7017SOL    HW232688   1.820   2.263   1.966 -0.6694 -0.8596  2.0627
 7018SOL     OW32689   0.008   1.452  13.296  0.1306 -0.0847 -0.2309
 7018SOL    HW132690   0.079   1.495  13.343  0.5661  0.0743 -1.0487
 7018SOL    HW232691   4.733   1.373  13.350  1.7437 -0.9264 -1.1297
 7019SOL     OW32692   1.078   0.231  15.118  0.3691 -0.2706 -0.2227
 7019SOL    HW132693   1.114   0.298  15.061  0.9933 -2.3339 -2.2755
 7019SOL    HW232694   1.020   0.176  15.064  0.7609 -0.1593 -0.7600
 7020SOL     OW32695   2.245   1.689   3.479  0.1641  0.0001  0.5530
 7020SOL    HW132696   2.191   1.645   3.545  1.2639 -3.2991 -0.7680
 7020SOL    HW232697   2.330   1.665   3.514  0.6116 -1.5255 -1.5755
 7021SOL     OW32698   2.554   1.308   6.007 -0.5635  0.5978  0.2338
 7021SOL    HW132699   2.604   1.228   6.021  2.8350  2.6870  0.0463
 7021SOL    HW232700   2.471   1.278   5.969  0.0264  0.3743 -0.8634
 7022SOL     OW32701   3.426   2.961  14.685 -0.4275  0.0438 -0.2524
 7022SOL    HW132702   3.342   2.931  14.652 -1.2843  0.2738  1.6914
 7022SOL    HW232703   3.398   3.000  14.768 -1.2460  0.6416 -0.8116
 7023SOL     OW32704   3.002   0.789   5.243  0.0872 -0.6445  0.2812
 7023SOL    HW132705   3.093   0.758   5.239  0.5604  0.9305 -1.1730
 7023SOL    HW232706   3.018   0.881   5.264 -1.6722 -0.2033 -0.3629
 7024SOL     OW32707   2.235   2.117  17.416  0.7141 -0.9386  0.3303
 7024SOL    HW132708   2.317   2.139  17.372  1.5985  1.0395  2.9729
 7024SOL    HW232709   2.262   2.147  17.503 -0.5951 -1.5270  0.9429
 7025SOL     OW32710   3.351   4.483   4.855 -0.2196 -0.1889 -0.5742
 7025SOL    HW132711   3.395   4.438   4.926 -1.5130 -0.1220  0.2675
 7025SOL    HW232712   3.410   4.555   4.832  0.0163 -0.5859 -1.2007
 7026SOL     OW32713   2.033   0.984  11.410  0.0248 -0.2053  0.2335
 7026SOL    HW132714   1.998   0.934  11.336  1.1865  1.0667 -1.1896
 7026SOL    HW232715   2.110   1.021  11.367 -0.7478 -0.1928 -1.1312
 7027SOL     OW32716   0.679   2.483   1.592 -0.2404  0.0476 -0.4644
 7027SOL    HW132717   0.668   2.430   1.513 -2.8758 -1.5960  1.0082
 7027SOL    HW232718   0.604   2.456   1.644 -0.7015  0.3453 -0.9813
 7028SOL     OW32719   3.026   0.401  12.179 -0.7477 -0.2169 -0.4894
 7028SOL    HW132720   3.080   0.462  12.229 -1.5364 -0.7623  1.0412
 7028SOL    HW232721   3.046   0.315  12.217 -1.0409 -0.4762 -0.9252
 7029SOL     OW32722   3.039   1.763   2.378  0.0703 -0.1104 -0.2048
 7029SOL    HW132723   2.975   1.822   2.419  1.3877  1.5865 -0.5929
 7029SOL    HW232724   3.119   1.810   2.402 -1.0716  1.4935  0.5305
 7030SOL     OW32725   2.005   4.689   4.007 -0.3061  0.3618  0.2481
 7030SOL    HW132726   1.931   4.680   4.067 -0.8258  1.2515 -0.2626
 7030SOL    HW232727   1.963   4.706   3.923 -0.1214  0.7395  0.2338
 7031SOL     OW32728   4.713   4.343   5.433 -1.0973  0.4458  0.2139
 7031SOL    HW132729   4.691   4.337   5.526  0.9192  1.8513  0.8016
 7031SOL    HW232730   0.011   4.256   5.414  1.3878  0.5868  3.9190
 7032SOL     OW32731   1.091   2.400  12.667  0.2185  0.1325  0.6721
 7032SOL    HW132732   1.175   2.434  12.697  1.2374 -2.1869  0.4486
 7032SOL    HW232733   1.037   2.438  12.736  0.9110 -0.3787  1.4919
 7033SOL     OW32734   3.159   2.930   6.104  0.1679  0.3965  0.0218
 7033SOL    HW132735   3.239   2.881   6.084  0.4081  0.6935  0.2619
 7033SOL    HW232736   3.115   2.854   6.141  2.5729  0.2211  2.4714
 7034SOL     OW32737   1.234   1.509   2.678  0.0611 -0.4245 -0.4169
 7034SOL    HW132738   1.286   1.458   2.615  1.7826 -0.1165  0.7720
 7034SOL    HW232739   1.288   1.587   2.689  2.3636 -1.8452 -1.5450
 7035SOL     OW32740   0.579   0.333   2.796  0.3941  0.0334 -0.4035
 7035SOL    HW132741   0.552   0.356   2.885  0.8570 -1.5774  0.1556
 7035SOL    HW232742   0.496   0.308   2.755  0.6763 -1.3469 -0.1513
 7036SOL     OW32743   3.663   2.719   3.821 -0.1006 -0.6378 -0.1924
 7036SOL    HW132744   3.640   2.630   3.794  2.9121 -0.2378 -4.1001
 7036SOL    HW232745   3.580   2.766   3.831  0.1640 -0.4173  0.9705
 7037SOL     OW32746   1.011   0.585   3.307 -0.2563  0.0502 -0.1362
 7037SOL    HW132747   0.985   0.502   3.267 -0.8435 -0.4804  1.3357
 7037SOL    HW232748   1.106   0.582   3.300 -0.2083  2.9481 -0.5649
 7038SOL     OW32749   3.425   1.389   3.349 -0.0262  0.5139 -0.1055
 7038SOL    HW132750   3.434   1.302   3.388 -1.6011  0.6323  0.5345
 7038SOL    HW232751   3.462   1.425   3.429  0.5697 -0.6076  0.1284
 7039SOL     OW32752   0.540   3.125  14.559 -0.1510  0.1231  0.0332
 7039SOL    HW132753   0.469   3.067  14.588 -0.7284  1.8338  2.0249
 7039SOL    HW232754   0.587   3.063  14.503 -2.2644  0.3528 -1.9902
 7040SOL     OW32755   4.242   0.276   7.454 -0.1156 -0.1986 -0.3742
 7040SOL    HW132756   4.156   0.256   7.418  0.2625  0.1073 -1.4396
 7040SOL    HW232757   4.231   0.219   7.531 -0.7816  1.5235  0.7969
 7041SOL     OW32758   2.642   2.305  15.488  0.7996 -0.7255  0.1417
 7041SOL    HW132759   2.681   2.349  15.412 -1.2620  0.1755 -0.4067
 7041SOL    HW232760   2.699   2.228  15.492  1.1983 -0.3218  2.0786
 7042SOL     OW32761   2.808   0.891   7.662 -0.0903  0.7126 -1.0177
 7042SOL    HW132762   2.731   0.869   7.714  1.6141  0.5296  1.4792
 7042SOL    HW232763   2.759   0.929   7.589 -0.7475  2.3203  0.2601
 7043SOL     OW32764   3.286   2.577   2.967  0.3837 -0.3998  0.1090
 7043SOL    HW132765   3.316   2.640   2.901  0.8234 -0.8839 -0.1512
 7043SOL    HW232766   3.267   2.503   2.909  0.7549  0.0835 -0.6266
 7044SOL     OW32767   4.247   0.345   9.396 -0.5113  0.1652  0.1340
 7044SOL    HW132768   4.324   0.327   9.450 -0.9596  1.0777  1.0865
 7044SOL    HW232769   4.261   0.305   9.310  1.0875 -2.5011  1.6317
 7045SOL     OW32770   4.178   4.714  11.643  0.6367 -0.0223 -0.3563
 7045SOL    HW132771   4.244   4.667  11.592  1.3146 -0.4416  0.9079
 7045SOL    HW232772   4.208   4.690  11.731  1.7403 -2.1973 -1.3260
 7046SOL     OW32773   1.815   4.079   5.262 -0.4968  0.4369  0.2034
 7046SOL    HW132774   1.899   4.124   5.266 -0.4206  0.1785  1.5102
 7046SOL    HW232775   1.809   4.065   5.168  0.5225 -0.8851  0.3280
 7047SOL     OW32776   0.882   3.340   4.193  0.4042  0.1764  0.4332
 7047SOL    HW132777   0.835   3.256   4.195 -1.8903  1.3474 -4.3604
 7047SOL    HW232778   0.883   3.360   4.100 -0.4675 -1.6041  0.0421
 7048SOL     OW32779   4.609   0.430  17.473 -0.1127  0.0096  0.0419
 7048SOL    HW132780   4.519   0.438  17.504 -0.4936  0.7157 -1.2610
 7048SOL    HW232781   4.657   0.497  17.523 -0.2090  0.3130 -0.2743
 7049SOL     OW32782   0.522   1.513   1.298 -0.2380 -0.3763 -0.5253
 7049SOL    HW132783   0.494   1.586   1.354  1.7280  0.2782 -0.4090
 7049SOL    HW232784   0.573   1.465   1.362  0.2301  0.9866  0.1328
 7050SOL     OW32785   0.698   3.864   1.182 -0.0569  0.8998  0.4110
 7050SOL    HW132786   0.756   3.930   1.144  0.5070 -0.1513 -0.5565
 7050SOL    HW232787   0.693   3.796   1.115  1.3003  0.9687  0.2334
 7051SOL     OW32788   2.848   3.399   3.613  0.2812  0.3021  0.2242
 7051SOL    HW132789   2.819   3.440   3.694  1.7404 -1.7719  1.8254
 7051SOL    HW232790   2.903   3.334   3.656  0.5585  0.3476 -0.0602
 7052SOL     OW32791   2.003   1.209  13.721  0.3352 -0.0988  0.5237
 7052SOL    HW132792   1.910   1.220  13.742  0.1695 -0.6587  0.0851
 7052SOL    HW232793   2.002   1.114  13.713 -0.8991  0.1392 -2.1396
 7053SOL     OW32794   0.205   2.254   6.927  0.0421 -0.1212  0.2079
 7053SOL    HW132795   0.280   2.222   6.877 -0.0163 -1.5457  1.0151
 7053SOL    HW232796   0.230   2.221   7.013  0.6872  0.1121  0.1073
 7054SOL     OW32797   0.463   0.822   2.976  0.2477  0.1824  0.3549
 7054SOL    HW132798   0.467   0.850   3.067 -2.8846 -0.2205  0.6163
 7054SOL    HW232799   0.555   0.807   2.953  0.5844  2.2084  0.3800
 7055SOL     OW32800   0.296   4.580  14.202 -0.0591 -0.3021 -0.5948
 7055SOL    HW132801   0.382   4.540  14.197  0.3063 -0.0251  2.9318
 7055SOL    HW232802   0.299   4.597  14.297  3.1521 -2.4083 -0.3563
 7056SOL     OW32803   4.694   3.299   3.589 -0.1904 -0.0345  0.2209
 7056SOL    HW132804   0.013   3.377   3.591  1.0138 -0.8417 -1.9726
 7056SOL    HW232805   4.701   3.260   3.677  3.1965 -2.1001 -0.9499
 7057SOL     OW32806   1.350   0.289   7.293 -0.6665 -0.1382 -0.4818
 7057SOL    HW132807   1.280   0.283   7.357  0.6482 -2.1480  0.7535
 7057SOL    HW232808   1.320   0.228   7.225  0.6430 -0.0512 -1.1375
 7058SOL     OW32809   1.613   2.438   8.039  0.1431  0.2992 -0.7801
 7058SOL    HW132810   1.582   2.429   8.129 -0.9898  1.8385 -1.0111
 7058SOL    HW232811   1.557   2.509   8.007 -0.6649  0.9106  2.0110
 7059SOL     OW32812   1.412   3.425   5.197 -0.4383  0.4744  0.2198
 7059SOL    HW132813   1.400   3.417   5.102 -1.1062 -2.6095  0.5733
 7059SOL    HW232814   1.344   3.491   5.214 -1.1347  0.1456 -1.2085
 7060SOL     OW32815   1.705   3.357   4.280 -0.0993  0.1483 -0.2469
 7060SOL    HW132816   1.666   3.401   4.205  0.0547  0.6763 -0.0128
 7060SOL    HW232817   1.633   3.317   4.328 -0.0536 -1.6457 -1.6551
 7061SOL     OW32818   2.718   3.374  12.479  0.1959 -0.6510  0.0600
 7061SOL    HW132819   2.769   3.448  12.444 -0.3170  0.2662  1.2729
 7061SOL    HW232820   2.778   3.319  12.529 -1.0786 -0.5381  1.7156
 7062SOL     OW32821   0.367   3.158   3.885  0.1788  0.2505  0.4534
 7062SOL    HW132822   0.416   3.226   3.838 -1.4089 -0.0316 -1.5861
 7062SOL    HW232823   0.276   3.188   3.880 -0.6398 -2.1617  1.1792
 7063SOL     OW32824   0.009   2.418  17.452 -0.3346 -0.3302  0.0511
 7063SOL    HW132825   4.709   2.340  17.492  0.4631  1.1006  3.5601
 7063SOL    HW232826   4.721   2.399  17.361 -1.5853 -0.4450  0.4085
 7064SOL     OW32827   0.735   3.943   4.652 -0.1451  1.1683  0.4921
 7064SOL    HW132828   0.668   4.010   4.642  2.8621  4.5569  3.1590
 7064SOL    HW232829   0.716   3.923   4.743  1.8863  0.8479  0.8617
 7065SOL     OW32830   2.656   1.962   6.915 -0.3829 -0.4097 -0.3234
 7065SOL    HW132831   2.720   2.027   6.946 -1.1198  1.3339 -2.4525
 7065SOL    HW232832   2.607   1.951   6.997  0.1152 -0.5553 -0.0499
 7066SOL     OW32833   0.200   3.480   2.252 -0.2918 -0.5820 -0.3767
 7066SOL    HW132834   0.227   3.435   2.332  0.6203 -2.3431 -1.6619
 7066SOL    HW232835   0.271   3.458   2.191  0.8659  0.8422  0.4722
 7067SOL     OW32836   3.426   2.106   3.562  0.1386  0.7271 -0.0850
 7067SOL    HW132837   3.473   2.106   3.645  0.2367  0.6542 -0.1408
 7067SOL    HW232838   3.374   2.026   3.557 -0.0101  0.7253  1.5357
 7068SOL     OW32839   1.037   0.632   5.416 -0.2521  0.5931 -0.4141
 7068SOL    HW132840   1.015   0.629   5.323 -0.5477  2.0283 -0.4030
 7068SOL    HW232841   1.005   0.546   5.441  0.1420  0.5725  0.0160
 7069SOL     OW32842   3.758   1.317   2.511  0.0406 -0.1355 -0.0158
 7069SOL    HW132843   3.708   1.372   2.571  0.8329  1.8698 -1.2267
 7069SOL    HW232844   3.847   1.351   2.508 -0.1929  0.5876  1.3579
 7070SOL     OW32845   1.557   2.528   4.868 -0.1097  0.8551 -0.2786
 7070SOL    HW132846   1.587   2.617   4.852 -1.4352  1.2099 -0.7622
 7070SOL    HW232847   1.511   2.541   4.951  0.1916 -5.5140  0.8969
 7071SOL     OW32848   3.398   2.298  14.992  0.3177 -0.4444 -0.5612
 7071SOL    HW132849   3.309   2.283  14.961  0.1961 -2.2588  0.6480
 7071SOL    HW232850   3.451   2.291  14.913 -0.5256  0.7555 -1.2217
 7072SOL     OW32851   2.320   3.787  17.720  0.0228  0.1067 -0.5836
 7072SOL    HW132852   2.343   3.694  17.718 -0.2921  0.0330 -0.7510
 7072SOL    HW232853   2.273   3.793  17.637 -1.0500 -1.0416 -0.0520
 7073SOL     OW32854   1.668   0.012  13.082 -0.2551 -0.0586  0.1723
 7073SOL    HW132855   1.760   4.732  13.061  0.6354  1.6532  2.6550
 7073SOL    HW232856   1.663   0.107  13.077  1.6348  0.1143  1.5469
 7074SOL     OW32857   2.989   2.557   6.064  0.1170 -0.3766 -0.1458
 7074SOL    HW132858   2.946   2.642   6.073  0.1541 -0.4276  0.5054
 7074SOL    HW232859   2.915   2.508   6.027 -1.2949 -1.1031  3.6202
 7075SOL     OW32860   1.030   3.289   2.194 -0.1116 -0.0249  0.0521
 7075SOL    HW132861   0.943   3.292   2.153 -0.8080  1.1119  1.5990
 7075SOL    HW232862   1.013   3.309   2.286  1.2066  4.5695 -0.7036
 7076SOL     OW32863   2.701   2.169   7.582  0.0919  0.2021 -0.0072
 7076SOL    HW132864   2.708   2.257   7.618 -0.2197 -0.2296  1.1046
 7076SOL    HW232865   2.782   2.164   7.530 -0.1540  0.0691 -0.3755
 7077SOL     OW32866   0.044   1.677   8.875 -0.1442  0.2106  0.3473
 7077SOL    HW132867   0.066   1.602   8.820 -1.3104  1.3831 -1.6888
 7077SOL    HW232868   0.100   1.746   8.841  0.4567 -1.7345 -2.5599
 7078SOL     OW32869   0.695   0.754  13.471  0.3996  0.4158 -0.0074
 7078SOL    HW132870   0.626   0.751  13.538  0.1997  0.4633 -0.2102
 7078SOL    HW232871   0.676   0.831  13.417 -1.7169  1.0116  1.5531
 7079SOL     OW32872   0.601   3.194   1.500  0.4297  0.3555  0.2701
 7079SOL    HW132873   0.648   3.147   1.431 -1.3958  0.1033 -0.8061
 7079SOL    HW232874   0.577   3.119   1.554 -3.4992 -0.0747 -2.1209
 7080SOL     OW32875   2.612   0.292   5.468  0.2073 -0.3068  0.6914
 7080SOL    HW132876   2.688   0.292   5.411 -0.9819 -2.1854 -0.9013
 7080SOL    HW232877   2.596   0.385   5.483  2.2630 -0.1927  2.1581
 7081SOL     OW32878   1.331   3.386   6.937 -0.2373 -0.7270 -0.1070
 7081SOL    HW132879   1.407   3.443   6.926 -1.4356  0.8795 -0.1175
 7081SOL    HW232880   1.283   3.429   7.008  0.5682 -0.9527  0.5651
 7082SOL     OW32881   0.707   2.468  15.435 -0.3472 -0.1536 -0.0349
 7082SOL    HW132882   0.669   2.422  15.360 -0.3289 -0.9577  0.4566
 7082SOL    HW232883   0.789   2.502  15.398 -0.1968 -0.2261  0.2359
 7083SOL     OW32884   2.101   3.556  17.676 -0.7340  0.2083 -0.6920
 7083SOL    HW132885   2.085   3.599  17.592  0.9082 -0.0282 -1.1192
 7083SOL    HW232886   2.190   3.528  17.655 -1.0435 -1.5730  0.3400
 7084SOL     OW32887   3.921   0.859   4.111 -0.6135 -0.5322 -0.5758
 7084SOL    HW132888   3.826   0.854   4.116 -0.8228  2.0805 -1.9877
 7084SOL    HW232889   3.938   0.835   4.019  1.6181 -2.6027  0.3656
 7085SOL     OW32890   0.651   1.622   2.994  0.4901  0.1187 -0.5990
 7085SOL    HW132891   0.690   1.582   3.072 -1.4632 -1.1268 -0.2240
 7085SOL    HW232892   0.643   1.709   3.033  0.4458 -0.2236  0.1750
 7086SOL     OW32893   1.368   1.055   2.377 -0.6621 -0.2295 -0.4066
 7086SOL    HW132894   1.460   1.071   2.398 -0.5955 -1.4679  0.2619
 7086SOL    HW232895   1.375   1.015   2.290  1.9737 -0.4976 -0.0588
 7087SOL     OW32896   3.517   4.573  13.894 -0.1643 -0.6660  0.6469
 7087SOL    HW132897   3.546   4.524  13.970 -0.3904  0.6671  1.5983
 7087SOL    HW232898   3.534   4.662  13.925 -1.3650 -0.2790  0.2412
 7088SOL     OW32899   4.362   2.905   8.056  0.0614 -0.0457  0.0028
 7088SOL    HW132900   4.429   2.966   8.025  2.2379 -2.5333 -0.2763
 7088SOL    HW232901   4.296   2.899   7.987  0.7998  0.8578 -0.7993
 7089SOL     OW32902   2.305   3.518  17.303 -0.4609 -0.7474  0.5886
 7089SOL    HW132903   2.237   3.577  17.335  1.6756  1.8528  0.4293
 7089SOL    HW232904   2.312   3.530  17.208  2.6425 -3.2239  0.4921
 7090SOL     OW32905   3.533   4.242   2.874  0.1896  0.2865  0.0153
 7090SOL    HW132906   3.472   4.311   2.849  0.0138  0.2909  0.4551
 7090SOL    HW232907   3.606   4.304   2.879 -0.0217  0.5805 -0.6330
 7091SOL     OW32908   2.858   0.981   7.254  0.6855 -0.0218  0.5032
 7091SOL    HW132909   2.763   0.997   7.252  0.6581 -0.3000 -0.6445
 7091SOL    HW232910   2.854   0.887   7.276 -0.5001  0.1848  1.1819
 7092SOL     OW32911   3.968   3.621  13.069  0.3144 -0.0625 -0.2503
 7092SOL    HW132912   4.060   3.598  13.070 -0.2029 -2.0697 -0.3423
 7092SOL    HW232913   3.967   3.701  13.122 -0.0127  0.8310 -1.5912
 7093SOL     OW32914   0.048   4.633  15.812 -0.8200 -0.3622 -0.4038
 7093SOL    HW132915   0.119   4.569  15.823 -0.7795 -0.4683 -1.2834
 7093SOL    HW232916   0.011   4.641  15.900 -0.5811 -0.4510 -0.2941
 7094SOL     OW32917   3.928   2.262  16.169 -0.3744  0.0791  0.2005
 7094SOL    HW132918   4.006   2.316  16.159  0.3395 -0.8144  0.9272
 7094SOL    HW232919   3.923   2.228  16.258 -0.5612 -0.0870  0.1263
 7095SOL     OW32920   3.884   0.040  13.247 -0.4696  0.4872 -0.4008
 7095SOL    HW132921   3.936   0.121  13.249  0.5592 -0.2402  1.8011
 7095SOL    HW232922   3.939   4.720  13.193  1.9182  4.0153 -1.6916
 7096SOL     OW32923   0.048   2.223   4.789  0.2469  0.5282  0.2977
 7096SOL    HW132924   0.092   2.139   4.773 -0.3232  0.4559 -0.9208
 7096SOL    HW232925   0.124   2.281   4.789 -0.0823  0.9713 -0.9500
 7097SOL     OW32926   0.142   2.297  12.419  0.2624  0.3450 -0.7640
 7097SOL    HW132927   0.070   2.255  12.371  0.1554  1.6026 -1.7065
 7097SOL    HW232928   0.217   2.242  12.397 -0.3414 -1.7757  2.4403
 7098SOL     OW32929   0.728   2.575   5.626 -0.4039 -0.3652  0.2349
 7098SOL    HW132930   0.765   2.581   5.538 -2.1276  0.3935 -0.4344
 7098SOL    HW232931   0.727   2.664   5.662  2.0188 -0.2117 -0.0516
 7099SOL     OW32932   0.329   3.710   1.657 -0.1071 -0.2724  0.0918
 7099SOL    HW132933   0.336   3.649   1.731  0.7355 -0.6136 -0.2715
 7099SOL    HW232934   0.412   3.757   1.668  0.4825 -1.5459  1.0966
 7100SOL     OW32935   3.804   2.409   7.208  0.5020  0.0376  0.1934
 7100SOL    HW132936   3.785   2.317   7.187 -1.4348  0.2861  0.8089
 7100SOL    HW232937   3.755   2.411   7.290 -2.6509  1.3915 -1.7206
 7101SOL     OW32938   4.650   2.180   8.598 -0.5792 -0.3654  0.5550
 7101SOL    HW132939   4.584   2.250   8.596 -0.3925 -0.2210 -1.1710
 7101SOL    HW232940   4.636   2.139   8.683 -1.4259  3.0469  2.0787
 7102SOL     OW32941   0.227   0.799   8.077 -0.2491  0.3537 -0.2842
 7102SOL    HW132942   0.239   0.856   8.001 -0.2936  0.4884 -0.1903
 7102SOL    HW232943   0.167   0.848   8.133  1.7432  1.4118  0.9402
 7103SOL     OW32944   3.780   1.300   8.482 -0.5280 -0.3869  0.1257
 7103SOL    HW132945   3.809   1.216   8.447  0.1303 -0.4459  0.8159
 7103SOL    HW232946   3.801   1.356   8.407  0.5116 -1.0802 -0.0996
 7104SOL     OW32947   2.284   2.020   2.126 -0.2914 -0.0660 -0.1508
 7104SOL    HW132948   2.241   1.934   2.130  0.3306 -0.3881 -0.3242
 7104SOL    HW232949   2.281   2.033   2.221 -2.3223  1.3371 -0.4078
 7105SOL     OW32950   1.940   4.705   1.146 -0.0851 -0.1518  0.2781
 7105SOL    HW132951   2.029   4.694   1.179  0.3176 -0.3673 -0.8573
 7105SOL    HW232952   1.920   4.621   1.105 -0.1330 -0.1420  0.2813
 7106SOL     OW32953   0.929   3.082   6.348  0.3585 -0.2732 -0.3857
 7106SOL    HW132954   0.880   3.020   6.403  0.7688  1.4829  2.0129
 7106SOL    HW232955   1.016   3.052   6.372  0.3515  0.3398  0.4582
 7107SOL     OW32956   2.085   2.133  13.207 -0.0477 -0.4101  0.2124
 7107SOL    HW132957   2.007   2.084  13.234 -0.0931 -0.8226 -0.6775
 7107SOL    HW232958   2.041   2.201  13.156  2.6812 -0.0930 -1.7141
 7108SOL     OW32959   2.436   2.665  15.974  0.2189 -0.0997  0.0398
 7108SOL    HW132960   2.478   2.708  15.899 -0.6655 -0.7268 -0.8187
 7108SOL    HW232961   2.396   2.594  15.923 -1.9248  0.6834  0.6740
 7109SOL     OW32962   0.655   0.263   6.285 -0.4261 -0.2597 -0.1895
 7109SOL    HW132963   0.692   0.350   6.273  0.2100 -0.5893 -0.6296
 7109SOL    HW232964   0.566   0.283   6.314 -0.9817 -3.2522  0.1680
 7110SOL     OW32965   2.278   3.410   8.561  0.6085 -0.3656 -0.5055
 7110SOL    HW132966   2.362   3.448   8.536  1.3906 -2.3202 -0.8546
 7110SOL    HW232967   2.282   3.341   8.495 -1.6387 -1.7292  0.7585
 7111SOL     OW32968   1.116   0.405   0.023  0.3088 -0.0630  0.6742
 7111SOL    HW132969   1.192   0.350   0.044 -0.3180 -0.7227  1.1937
 7111SOL    HW232970   1.047   0.340   0.016 -0.9514  1.2605  0.7516
 7112SOL     OW32971   2.652   1.808   9.230 -0.4475  0.0790 -0.1782
 7112SOL    HW132972   2.727   1.748   9.224 -1.4463 -1.4879  2.6752
 7112SOL    HW232973   2.664   1.876   9.164  1.4030 -1.0283 -0.9657
 7113SOL     OW32974   3.785   4.523   8.692 -0.2704  0.1246  0.4071
 7113SOL    HW132975   3.772   4.527   8.598 -0.3486 -2.6908  0.2975
 7113SOL    HW232976   3.712   4.475   8.732  1.1195  0.6838  3.6523
 7114SOL     OW32977   0.147   0.153   2.611 -0.0358 -0.0836 -0.0197
 7114SOL    HW132978   0.155   0.198   2.527 -3.0895 -0.5085 -0.5341
 7114SOL    HW232979   0.102   0.071   2.590 -1.0798  0.3419  0.5437
 7115SOL     OW32980   2.729   0.262   6.198  0.1989  0.1222 -0.4940
 7115SOL    HW132981   2.668   0.226   6.133 -0.8887 -0.2238  0.7170
 7115SOL    HW232982   2.815   0.226   6.176 -1.7998 -4.3768 -1.1406
 7116SOL     OW32983   3.730   4.439  10.706  0.3122 -0.2786  0.3833
 7116SOL    HW132984   3.802   4.377  10.717  0.2966 -0.6501 -1.6760
 7116SOL    HW232985   3.767   4.501  10.643 -0.5497 -0.8689 -0.6957
 7117SOL     OW32986   0.621   3.052   2.265  0.3290 -0.4050 -0.0898
 7117SOL    HW132987   0.587   2.992   2.331  1.7531 -3.8435 -2.4799
 7117SOL    HW232988   0.546   3.101   2.231  0.9111  0.0830 -0.6541
 7118SOL     OW32989   3.047   0.341   2.437  0.8723  0.5139  0.3103
 7118SOL    HW132990   3.069   0.434   2.445 -2.0501  1.3272 -1.1347
 7118SOL    HW232991   3.087   0.309   2.518  2.1236  1.3151  0.0081
 7119SOL     OW32992   0.905   4.707   9.686  0.4650 -0.4067  0.2148
 7119SOL    HW132993   0.971   0.025   9.729 -0.7926 -0.4336  2.2196
 7119SOL    HW232994   0.853   4.663   9.754  1.4788 -1.4433  0.3353
 7120SOL     OW32995   4.630   4.674   9.032  0.2095  0.1083 -0.1541
 7120SOL    HW132996   4.686   4.624   9.092 -3.3320 -2.5509  0.9309
 7120SOL    HW232997   4.651   4.640   8.945  0.3639  3.4270 -1.4076
 7121SOL     OW32998   0.013   4.311   1.672 -0.3622 -0.5249 -0.0854
 7121SOL    HW132999   0.066   4.267   1.605 -1.3413 -1.0458 -0.5130
 7121SOL    HW233000   0.037   4.404   1.665  1.8593 -1.1491 -0.9825
 7122SOL     OW33001   0.289   2.070   3.806  1.0485 -0.1141  0.3830
 7122SOL    HW133002   0.205   2.072   3.761  1.2334 -2.0752 -0.0555
 7122SOL    HW233003   0.283   2.143   3.867  2.2154  2.3882 -2.5123
 7123SOL     OW33004   2.024   3.560   1.927 -0.2722  0.8633 -0.1013
 7123SOL    HW133005   2.097   3.589   1.982  0.1902  2.3735 -1.4910
 7123SOL    HW233006   1.950   3.581   1.984 -0.1583  0.1849  0.2936
 7124SOL     OW33007   0.547   0.981   2.689  0.5420 -0.4495 -0.0863
 7124SOL    HW133008   0.565   1.049   2.754 -3.8846  0.0783  0.5741
 7124SOL    HW233009   0.452   0.995   2.688  0.7783  1.1670  0.3367
 7125SOL     OW33010   1.598   2.033   7.153 -0.0771 -0.2366  0.5629
 7125SOL    HW133011   1.601   1.937   7.155  1.9695 -0.1544  1.6037
 7125SOL    HW233012   1.513   2.047   7.114  0.1617  0.3569  0.2611
 7126SOL     OW33013   2.357   3.496  17.655  0.1717  0.4072  0.1201
 7126SOL    HW133014   2.417   3.489  17.581  1.5716 -0.8576  1.3724
 7126SOL    HW233015   2.408   3.452  17.723  0.1214  0.2248  0.0388
 7127SOL     OW33016   2.881   4.243   1.095  0.0165 -0.4063 -0.3571
 7127SOL    HW133017   2.907   4.335   1.099  0.8273 -0.7307  2.0783
 7127SOL    HW233018   2.800   4.252   1.045 -0.3461 -0.9336  0.1240
 7128SOL     OW33019   2.309   3.801   6.204  0.4474  0.3526  0.0325
 7128SOL    HW133020   2.216   3.793   6.186  0.5791 -2.3990  0.5614
 7128SOL    HW233021   2.334   3.875   6.148 -2.2235  0.1167 -1.4627
 7129SOL     OW33022   4.592   3.482   4.188 -0.3339  0.0608  0.0811
 7129SOL    HW133023   4.670   3.525   4.224  0.7019  1.6049 -3.9119
 7129SOL    HW233024   4.548   3.556   4.146 -2.5980 -0.0477  2.3118
 7130SOL     OW33025   3.597   0.322   7.885 -0.0900 -0.2027  0.1158
 7130SOL    HW133026   3.547   0.269   7.823  0.7072 -0.0596 -0.6549
 7130SOL    HW233027   3.532   0.360   7.943 -0.3244  0.4889 -0.5900
 7131SOL     OW33028   0.095   2.925   3.712  0.0978  0.0253  0.3869
 7131SOL    HW133029   0.074   2.987   3.782  1.3257  0.8580  0.0094
 7131SOL    HW233030   0.023   2.926   3.649  0.2071  0.1720  0.2658
 7132SOL     OW33031   2.844   1.884   6.587  0.0386  0.3214 -0.0286
 7132SOL    HW133032   2.880   1.972   6.578  0.0318  0.3114 -0.1605
 7132SOL    HW233033   2.763   1.903   6.635 -1.3290 -0.6802 -1.9393
 7133SOL     OW33034   1.349   2.797   5.239 -0.2847 -0.3356  0.7260
 7133SOL    HW133035   1.349   2.880   5.192 -1.3401 -0.1230  1.1130
 7133SOL    HW233036   1.396   2.821   5.319 -1.9482 -0.2074  1.6620
 7134SOL     OW33037   0.368   4.670  13.488  0.1651 -0.0384 -0.5616
 7134SOL    HW133038   0.357   0.018  13.444 -2.5060 -0.6252 -1.0685
 7134SOL    HW233039   0.418   4.696  13.565 -0.0572  2.4328 -1.2488
 7135SOL     OW33040   3.547   1.008   6.647 -0.1782 -0.1789  0.3103
 7135SOL    HW133041   3.572   1.035   6.558  0.2895  0.5838  0.6700
 7135SOL    HW233042   3.599   0.930   6.664  0.6812  0.3121 -0.0655
 7136SOL     OW33043   2.074   1.635   7.703 -0.7785 -0.2616  0.0242
 7136SOL    HW133044   2.129   1.603   7.776 -0.8114 -1.6002 -0.5414
 7136SOL    HW233045   2.140   1.673   7.645 -2.0928  0.8345 -0.7369
 7137SOL     OW33046   2.463   2.938   6.260 -0.2482 -0.3959  0.2650
 7137SOL    HW133047   2.369   2.930   6.244 -1.1595  0.4622  5.3675
 7137SOL    HW233048   2.480   2.980   6.344 -0.3925 -1.0941  0.6434
 7138SOL     OW33049   0.122   0.974   2.344 -0.2926  0.2621  0.0865
 7138SOL    HW133050   0.149   0.978   2.252  1.2369 -2.6015  0.4387
 7138SOL    HW233051   0.035   1.015   2.337 -0.5555 -0.3898 -0.5126
 7139SOL     OW33052   0.976   1.030   1.901  0.7455 -0.2191  0.7441
 7139SOL    HW133053   1.058   0.987   1.877 -0.4626 -1.0026 -1.9276
 7139SOL    HW233054   0.996   1.052   1.992 -0.5090  1.4116  0.6160
 7140SOL     OW33055   2.327   0.714   5.519  0.1534  0.3400 -0.0046
 7140SOL    HW133056   2.277   0.661   5.581 -3.2006  1.7155 -1.5458
 7140SOL    HW233057   2.256   0.726   5.457  0.1785  1.9250  0.2718
 7141SOL     OW33058   1.650   2.796   0.923 -0.1644  0.1968  0.2150
 7141SOL    HW133059   1.723   2.812   0.863 -1.4819  0.7930 -1.2247
 7141SOL    HW233060   1.579   2.798   0.860 -0.2002 -1.8453  0.1983
 7142SOL     OW33061   2.228   0.802   5.252  0.0264 -0.0742 -0.3932
 7142SOL    HW133062   2.179   0.753   5.186 -0.6570  0.2657 -0.1387
 7142SOL    HW233063   2.167   0.871   5.278 -0.8906 -0.6852 -0.9079
 7143SOL     OW33064   4.261   3.594  11.907  0.3235 -0.3893 -0.5991
 7143SOL    HW133065   4.319   3.519  11.920 -1.0334 -1.4623 -0.7001
 7143SOL    HW233066   4.257   3.644  11.989 -3.1184 -2.1824  0.3511
 7144SOL     OW33067   0.460   2.137   5.291 -0.5520  0.2600  0.1644
 7144SOL    HW133068   0.421   2.217   5.325  0.6260  1.8421 -2.1461
 7144SOL    HW233069   0.466   2.099   5.379  0.8996  2.1573  0.8928
 7145SOL     OW33070   3.047   3.296   3.751 -0.3434  0.4277 -0.0027
 7145SOL    HW133071   3.059   3.246   3.832  1.8151 -1.0944 -1.2539
 7145SOL    HW233072   3.061   3.234   3.679 -0.6377 -2.7082  2.6530
 7146SOL     OW33073   2.640   1.090   5.762  0.2730  0.2756 -0.2784
 7146SOL    HW133074   2.678   1.176   5.777 -0.8856  1.0190 -1.6174
 7146SOL    HW233075   2.651   1.043   5.844  0.1279  0.7905  0.0300
 7147SOL     OW33076   0.987   1.096   2.395  0.3146  0.2209  0.1872
 7147SOL    HW133077   0.911   1.135   2.354  0.9103  1.6958  0.4669
 7147SOL    HW233078   0.938   1.040   2.455  1.2870  0.7031  1.4546
 7148SOL     OW33079   3.060   2.231  10.245 -0.1326 -0.8536  0.6322
 7148SOL    HW133080   2.982   2.247  10.298 -1.4260 -0.0656 -1.5082
 7148SOL    HW233081   3.027   2.209  10.158 -1.3103  0.5345  0.7226
 7149SOL     OW33082   0.454   0.498  12.765  0.0336  0.3929  0.3032
 7149SOL    HW133083   0.464   0.566  12.832  1.2322  0.1053  0.4258
 7149SOL    HW233084   0.481   0.539  12.683 -3.1665  0.7413 -0.5470
 7150SOL     OW33085   3.282   1.296   8.787 -0.4839 -0.0189 -0.1509
 7150SOL    HW133086   3.367   1.287   8.744  0.2165  0.9990  1.0177
 7150SOL    HW233087   3.238   1.331   8.710  1.0958 -0.9869 -1.5024
 7151SOL     OW33088   1.843   4.026   6.991 -0.0234  0.2702  0.0754
 7151SOL    HW133089   1.936   4.017   7.014  0.0614 -0.6024 -0.5976
 7151SOL    HW233090   1.790   4.073   7.055 -0.1499 -3.1870  2.4841
 7152SOL     OW33091   3.630   1.974   6.528 -0.5423 -0.0441 -0.0783
 7152SOL    HW133092   3.676   2.058   6.535  0.6621 -1.0098  3.3797
 7152SOL    HW233093   3.546   2.012   6.502 -0.2887  0.7576  0.2810
 7153SOL     OW33094   0.995   2.861   2.349 -0.0014 -0.2840 -0.3398
 7153SOL    HW133095   0.929   2.851   2.417  0.3913 -3.0539 -0.3276
 7153SOL    HW233096   1.048   2.783   2.369 -0.9539 -0.6134  0.9331
 7154SOL     OW33097   2.729   2.363   2.751  0.4598 -0.7933  0.7169
 7154SOL    HW133098   2.665   2.385   2.819 -2.3856  1.3683 -2.6573
 7154SOL    HW233099   2.718   2.434   2.689  2.7316 -0.5343  0.6086
 7155SOL     OW33100   2.366   1.333   2.204  0.8329 -0.3383 -0.0473
 7155SOL    HW133101   2.400   1.248   2.174  1.3969  0.5081 -1.7823
 7155SOL    HW233102   2.444   1.387   2.212  1.6790 -1.5428 -0.0619
 7156SOL     OW33103   3.534   2.486  11.169  0.0625 -0.0873 -0.0557
 7156SOL    HW133104   3.536   2.564  11.225 -0.6771 -0.8129  0.9890
 7156SOL    HW233105   3.589   2.430  11.223  0.0285 -0.4587 -0.4076
 7157SOL     OW33106   3.854   3.672   1.517  0.2140  0.6356  0.3012
 7157SOL    HW133107   3.827   3.743   1.575  0.7379  1.5495 -0.5647
 7157SOL    HW233108   3.947   3.679   1.495 -0.1940 -2.1608 -2.3912
 7158SOL     OW33109   1.222   2.310   4.824  0.1503 -0.2657 -0.2457
 7158SOL    HW133110   1.140   2.359   4.820 -0.0289 -0.5130  0.5141
 7158SOL    HW233111   1.226   2.283   4.916 -1.6676 -0.8975 -0.3570
 7159SOL     OW33112   1.918   3.256  17.714  0.4853 -0.7226  0.0204
 7159SOL    HW133113   1.875   3.341  17.698  1.2806 -0.1598  0.8784
 7159SOL    HW233114   1.841   3.201  17.698  1.0347 -1.3279 -0.5175
 7160SOL     OW33115   4.007   1.335  10.198  0.4920  0.3446  0.4002
 7160SOL    HW133116   4.056   1.253  10.187  0.4092  0.2330  0.8242
 7160SOL    HW233117   4.076   1.401  10.210 -0.7264  1.6011  0.4959
 7161SOL     OW33118   0.858   1.507  10.930 -0.0200  0.2095  0.7578
 7161SOL    HW133119   0.912   1.559  10.870 -0.5792  0.6030  0.5949
 7161SOL    HW233120   0.802   1.460  10.868  0.5290  2.0692 -1.1467
 7162SOL     OW33121   1.940   0.707   5.774 -0.3067 -0.0758  0.0316
 7162SOL    HW133122   1.893   0.629   5.746  0.4468  0.1521 -1.8754
 7162SOL    HW233123   1.867   0.768   5.777 -0.8261 -0.5805 -2.9163
 7163SOL     OW33124   2.602   3.007   4.566  0.2687 -0.5041 -0.0308
 7163SOL    HW133125   2.672   3.070   4.551 -0.8662  0.0615 -2.8641
 7163SOL    HW233126   2.548   3.075   4.606  0.7008 -0.6886  0.8759
 7164SOL     OW33127   3.838   2.051   5.349 -0.0289  0.0950  0.8279
 7164SOL    HW133128   3.755   2.095   5.369 -1.1900 -1.4662 -0.6129
 7164SOL    HW233129   3.872   2.026   5.435  2.5003  1.0092  0.1159
 7165SOL     OW33130   4.157   0.643   7.045  0.1100 -0.2215 -0.4711
 7165SOL    HW133131   4.138   0.724   6.997 -0.4926  0.3840  0.8167
 7165SOL    HW233132   4.228   0.656   7.107 -1.2982  1.9581  0.6387
 7166SOL     OW33133   0.173   0.824   5.725  0.4710 -0.1518  0.2206
 7166SOL    HW133134   0.257   0.801   5.766 -0.9706  0.4320  3.4598
 7166SOL    HW233135   0.118   0.752   5.755 -0.3320 -0.6508 -2.3928
 7167SOL     OW33136   1.101   1.772   7.873  0.0061 -0.6510  0.0146
 7167SOL    HW133137   1.041   1.820   7.930 -0.6473  0.6501 -1.7460
 7167SOL    HW233138   1.084   1.686   7.911 -0.2633  0.2741  1.9963
 7168SOL     OW33139   3.673   2.187   1.616 -0.2770 -0.0256  0.6532
 7168SOL    HW133140   3.690   2.280   1.603 -1.0787 -0.0844 -0.8078
 7168SOL    HW233141   3.704   2.180   1.706  0.4447 -0.8791  0.3440
 7169SOL     OW33142   4.181   1.589   3.864 -0.0038  0.1030  0.1515
 7169SOL    HW133143   4.219   1.672   3.891  0.2108  0.9598 -2.7534
 7169SOL    HW233144   4.258   1.544   3.830  0.9671  0.9873  1.1766
 7170SOL     OW33145   1.262   1.143  12.842  0.6197  0.1784 -0.0055
 7170SOL    HW133146   1.220   1.138  12.756  1.9067  0.2062 -0.6301
 7170SOL    HW233147   1.313   1.062  12.842 -0.8839 -0.7629 -0.3797
 7171SOL     OW33148   1.466   0.205   1.569 -0.2819 -0.0428 -0.3604
 7171SOL    HW133149   1.530   0.233   1.634 -0.9913 -1.9438  1.1492
 7171SOL    HW233150   1.490   0.246   1.486 -0.4752  1.1763  0.1957
 7172SOL     OW33151   2.107   4.207   3.795 -0.1358 -0.0986 -0.0358
 7172SOL    HW133152   2.099   4.185   3.888  0.7554 -0.4967 -0.0497
 7172SOL    HW233153   2.041   4.276   3.796  0.9781  0.9952 -1.2961
 7173SOL     OW33154   3.475   3.331  12.568  0.2343  0.1583  0.3376
 7173SOL    HW133155   3.458   3.362  12.657  0.9757 -1.6910  1.1226
 7173SOL    HW233156   3.442   3.403  12.515  2.3553  1.3615  0.6751
 7174SOL     OW33157   4.299   3.295   1.799 -0.1497 -0.3511  0.0299
 7174SOL    HW133158   4.255   3.282   1.716  0.4738 -1.2597 -0.1585
 7174SOL    HW233159   4.351   3.375   1.789  0.1632 -0.7494 -1.4345
 7175SOL     OW33160   0.809   4.448   9.822 -0.1608  0.7074 -0.1332
 7175SOL    HW133161   0.811   4.475   9.914 -0.7906  0.0764  0.0670
 7175SOL    HW233162   0.835   4.356   9.828  2.3111  1.4516  0.5847
 7176SOL     OW33163   4.446   0.122  11.525 -0.5242 -0.0038  0.5598
 7176SOL    HW133164   4.464   0.157  11.612 -1.2484  1.5555  0.0698
 7176SOL    HW233165   4.358   0.090  11.548 -0.0751 -0.1188  2.1649
 7177SOL     OW33166   0.603   1.197   6.304  0.3286  0.4334 -0.1813
 7177SOL    HW133167   0.514   1.162   6.305  1.0457 -1.3854  0.3823
 7177SOL    HW233168   0.611   1.211   6.210 -1.7198 -4.4758 -1.0619
 7178SOL     OW33169   4.073   0.526  10.340 -0.6858  0.4354  0.6264
 7178SOL    HW133170   4.005   0.535  10.273  0.8356  0.7735 -0.8409
 7178SOL    HW233171   4.109   0.441  10.315 -0.6178  1.0804 -1.4359
 7179SOL     OW33172   4.692   3.159   1.483  0.5117  0.2197  0.1577
 7179SOL    HW133173   0.027   3.099   1.461 -2.1544 -3.4175  1.4334
 7179SOL    HW233174   4.666   3.120   1.567 -0.7592 -1.7359 -1.1335
 7180SOL     OW33175   1.837   3.359   9.582  0.0669  0.2871 -0.0052
 7180SOL    HW133176   1.887   3.370   9.663  0.8052  1.2590 -0.5889
 7180SOL    HW233177   1.746   3.343   9.607 -0.2518  0.9903 -0.6950
 7181SOL     OW33178   4.593   0.937   4.696 -0.9249 -0.3489  0.3355
 7181SOL    HW133179   4.499   0.952   4.703 -0.7897  0.9194 -0.5410
 7181SOL    HW233180   4.608   0.928   4.602 -1.2517 -0.5437  0.3032
 7182SOL     OW33181   2.926   0.120   7.588 -0.3684 -0.2989 -0.2228
 7182SOL    HW133182   2.966   0.059   7.526 -2.0401  0.4790 -2.0332
 7182SOL    HW233183   2.927   0.070   7.670  0.4512  0.5379  0.2888
 7183SOL     OW33184   2.635   2.205   4.085 -0.0936  0.0534 -0.3699
 7183SOL    HW133185   2.693   2.277   4.111  1.8976 -1.2347 -1.2324
 7183SOL    HW233186   2.619   2.223   3.992  2.2538 -1.5023 -1.0741
 7184SOL     OW33187   0.386   1.881   3.519  0.0073 -0.1067  0.7154
 7184SOL    HW133188   0.462   1.928   3.552 -2.2974  3.8692  0.3500
 7184SOL    HW233189   0.355   1.844   3.602 -0.1948  1.0044  1.1333
 7185SOL     OW33190   0.142   4.487   3.954  0.4374  0.3351 -0.4116
 7185SOL    HW133191   0.076   4.498   4.022  1.6545  0.4246  0.7732
 7185SOL    HW233192   0.220   4.494   4.010  0.4392 -1.2022 -0.2226
 7186SOL     OW33193   1.090   2.115   4.111  0.3922  0.4812 -0.7437
 7186SOL    HW133194   1.120   2.116   4.202  0.5137 -0.3970 -0.7730
 7186SOL    HW233195   1.107   2.204   4.079  1.6135  1.0075  1.4374
 7187SOL     OW33196   0.939   0.507   5.946  0.3872  0.6438 -0.3994
 7187SOL    HW133197   0.995   0.484   5.872 -1.4594 -0.6829 -1.3850
 7187SOL    HW233198   0.947   0.428   5.999  3.5967  1.5572  0.4673
 7188SOL     OW33199   1.470   1.377  10.732 -0.6755  0.0035 -0.5275
 7188SOL    HW133200   1.393   1.364  10.786  0.0649 -2.1777  0.0042
 7188SOL    HW233201   1.431   1.357  10.647 -1.3182  0.3956 -0.3236
 7189SOL     OW33202   4.203   3.244  17.732  0.4592  0.2330  0.3619
 7189SOL    HW133203   4.283   3.297  17.737  1.5647 -1.4808  0.8408
 7189SOL    HW233204   4.178   3.255  17.640  0.1985  0.4898  0.4633
 7190SOL     OW33205   0.670   3.249   9.871  0.4333  0.3665 -0.0616
 7190SOL    HW133206   0.723   3.304   9.928  1.0212  0.5767 -0.8066
 7190SOL    HW233207   0.616   3.318   9.832  1.2153  1.5650  0.9979
 7191SOL     OW33208   2.752   2.951  11.766 -0.5192  0.1137 -0.8462
 7191SOL    HW133209   2.758   2.856  11.772 -0.2354  0.4232  3.3448
 7191SOL    HW233210   2.658   2.973  11.765 -1.0376 -2.1308  0.2909
 7192SOL     OW33211   4.416   3.513   4.629 -0.2833  0.1183 -0.0630
 7192SOL    HW133212   4.486   3.576   4.612 -0.0586  0.1070  0.8098
 7192SOL    HW233213   4.408   3.488   4.537  0.8537  0.2749 -0.2073
 7193SOL     OW33214   1.620   0.365   2.729  0.1813  0.6142  0.3595
 7193SOL    HW133215   1.693   0.412   2.688 -0.4819  1.5710  0.2695
 7193SOL    HW233216   1.607   0.426   2.801 -2.4090 -0.6988  0.9906
 7194SOL     OW33217   3.729   2.228   4.584 -0.1025  0.0175 -0.1772
 7194SOL    HW133218   3.762   2.316   4.603  0.5158  0.6693 -4.1370
 7194SOL    HW233219   3.795   2.201   4.520 -0.1059 -1.5548  0.4795
 7195SOL     OW33220   4.037   0.459   8.041 -0.0003 -0.1786 -0.8774
 7195SOL    HW133221   4.087   0.540   8.050 -0.2224 -0.0874 -0.4965
 7195SOL    HW233222   4.086   0.417   7.970  1.1040 -0.4141  0.0231
 7196SOL     OW33223   1.490   1.897  10.342 -0.2545 -0.1234  0.1291
 7196SOL    HW133224   1.559   1.852  10.391 -0.1812  0.7921  0.8654
 7196SOL    HW233225   1.412   1.857  10.379 -0.3649  0.0760  0.1104
 7197SOL     OW33226   0.098   2.984   5.074 -0.2510 -0.1447 -0.6960
 7197SOL    HW133227   0.055   3.041   5.138 -0.3507 -1.9215  0.8220
 7197SOL    HW233228   0.167   3.035   5.031  0.7797 -1.0594 -0.1192
 7198SOL     OW33229   0.082   0.124   5.026  0.5924 -0.6145  0.1556
 7198SOL    HW133230   0.007   0.136   5.085 -0.9269 -1.9947 -1.4949
 7198SOL    HW233231   0.115   0.213   5.015 -1.1202  0.0650  0.5561
 7199SOL     OW33232   1.487   3.927   7.379 -0.1544 -0.4675  0.0881
 7199SOL    HW133233   1.426   3.993   7.345 -0.1897 -0.7536 -0.3952
 7199SOL    HW233234   1.512   3.880   7.300 -0.6351 -0.0905 -0.2916
 7200SOL     OW33235   2.754   3.782   3.170  0.0776  0.3152  0.3093
 7200SOL    HW133236   2.684   3.789   3.235 -0.0169 -0.1785  0.2637
 7200SOL    HW233237   2.740   3.705   3.115 -1.7111  0.0920  1.0793
 7201SOL     OW33238   2.290   3.531   3.646  0.2504 -0.1612 -0.4306
 7201SOL    HW133239   2.378   3.525   3.683 -0.5747  0.3282  1.6195
 7201SOL    HW233240   2.237   3.551   3.723 -1.5915  3.0728 -2.5302
 7202SOL     OW33241   0.094   2.705  11.012 -0.3933 -0.6085  0.3332
 7202SOL    HW133242   0.020   2.763  10.992  1.1375  0.7202 -1.5747
 7202SOL    HW233243   0.082   2.698  11.106  0.3179  1.5358  0.5984
 7203SOL     OW33244   4.183   1.914   1.335 -1.0995  0.1334 -0.1968
 7203SOL    HW133245   4.269   1.914   1.376 -0.0667  0.4337 -2.3490
 7203SOL    HW233246   4.200   1.944   1.246  1.9380 -2.2365 -0.3771
 7204SOL     OW33247   2.391   4.154  17.465  0.0012  0.2872 -0.6347
 7204SOL    HW133248   2.334   4.138  17.540 -0.1883  2.1991 -0.3652
 7204SOL    HW233249   2.438   4.070  17.468 -3.2485 -1.4693  1.1261
 7205SOL     OW33250   0.478   2.099   2.295 -0.4639 -0.6059 -0.2021
 7205SOL    HW133251   0.562   2.060   2.318 -0.8136  0.0456  2.1875
 7205SOL    HW233252   0.421   2.028   2.323  1.7143 -1.8071  1.1833
 7206SOL     OW33253   3.485   3.086   3.335 -0.1364 -0.1955 -0.2498
 7206SOL    HW133254   3.463   3.029   3.408 -2.0675  2.2961  1.1135
 7206SOL    HW233255   3.547   3.039   3.279 -0.3181 -1.9684  1.0416
 7207SOL     OW33256   4.335   0.276  14.110 -0.2701  0.0334  0.4874
 7207SOL    HW133257   4.387   0.196  14.107  0.3803  0.5296 -1.2758
 7207SOL    HW233258   4.318   0.291  14.203  2.2315  0.4348  0.8811
 7208SOL     OW33259   2.966   0.233   2.808 -0.1794  0.3238  0.0383
 7208SOL    HW133260   2.956   0.272   2.895  2.6478 -0.3691  0.6994
 7208SOL    HW233261   2.998   0.304   2.752 -0.5230 -0.1594 -0.7732
 7209SOL     OW33262   1.402   3.643  16.711 -0.3152  0.4404  0.1701
 7209SOL    HW133263   1.385   3.709  16.778 -2.2833 -2.1037  2.1745
 7209SOL    HW233264   1.405   3.698  16.633  3.7262  0.9091  0.6600
 7210SOL     OW33265   3.698   2.068   4.046  0.0081 -0.7706 -0.4882
 7210SOL    HW133266   3.778   2.108   4.080 -1.2375  0.5198  0.9169
 7210SOL    HW233267   3.648   2.150   4.049 -0.5620 -1.1345  0.0628
 7211SOL     OW33268   2.942   0.085  13.718 -0.4147 -0.2724  0.3381
 7211SOL    HW133269   2.879   0.086  13.646  0.7529  1.9875 -0.6495
 7211SOL    HW233270   2.885   0.111  13.790 -1.2013 -0.9165 -0.0494
 7212SOL     OW33271   4.003   2.109   9.765  0.5314  0.4336  0.2983
 7212SOL    HW133272   4.061   2.076   9.834  0.2926  0.0924  0.3365
 7212SOL    HW233273   3.968   2.025   9.735  3.5592 -0.9943  0.7346
 7213SOL     OW33274   4.075   2.178   3.068 -0.3657 -0.0699 -0.3436
 7213SOL    HW133275   4.026   2.104   3.106 -1.1327 -0.2117 -1.5870
 7213SOL    HW233276   4.004   2.240   3.048 -1.1067 -0.5697  0.7303
 7214SOL     OW33277   3.919   0.440   5.723 -0.0469 -0.0643  0.5547
 7214SOL    HW133278   3.847   0.481   5.674 -0.4335  0.6216  1.6836
 7214SOL    HW233279   3.996   0.487   5.691  1.2227 -1.5964  1.4349
 7215SOL     OW33280   2.464   2.554   3.589 -0.0832  0.2690  0.5128
 7215SOL    HW133281   2.519   2.552   3.667 -0.1024 -0.7132  0.5075
 7215SOL    HW233282   2.390   2.504   3.624  0.8119 -0.1404  1.8373
 7216SOL     OW33283   0.229   1.869  10.973  0.2316  0.6247 -0.1788
 7216SOL    HW133284   0.155   1.923  10.945 -0.7726 -0.8124 -0.2873
 7216SOL    HW233285   0.280   1.919  11.037 -0.0173  1.6611 -0.7722
 7217SOL     OW33286   2.807   0.900   8.517 -0.3786 -0.2350 -0.3005
 7217SOL    HW133287   2.864   0.937   8.584 -1.4207  0.0326  0.4337
 7217SOL    HW233288   2.734   0.950   8.553  0.8617  0.2375  1.5903
 7218SOL     OW33289   4.071   1.134   8.676  0.1370 -0.0344 -0.3015
 7218SOL    HW133290   3.994   1.099   8.631 -0.1681 -0.5136  0.5882
 7218SOL    HW233291   4.144   1.084   8.639  0.2939 -0.8078  1.0596
 7219SOL     OW33292   4.144   3.704  12.773  0.0130  0.2914 -0.1269
 7219SOL    HW133293   4.191   3.673  12.695 -0.1177  0.6561 -0.3528
 7219SOL    HW233294   4.201   3.775  12.802  0.1585 -0.1170  0.5650
 7220SOL     OW33295   2.222   3.505   4.727  0.5363 -0.3667  0.0026
 7220SOL    HW133296   2.318   3.508   4.729  0.5549 -1.5388  1.1693
 7220SOL    HW233297   2.194   3.592   4.700  0.6807  0.1971  1.6588
 7221SOL     OW33298   3.063   0.513  14.449  0.8543 -0.1801  0.2332
 7221SOL    HW133299   3.111   0.489  14.370 -2.8111  1.4286 -2.4694
 7221SOL    HW233300   3.129   0.543  14.511 -2.1835  0.1928  3.3001
 7222SOL     OW33301   4.120   2.152   5.686  0.3547  0.3687  0.4507
 7222SOL    HW133302   4.103   2.158   5.780  0.6731  0.8496  0.4795
 7222SOL    HW233303   4.108   2.059   5.669 -0.2147  0.6131 -0.4769
 7223SOL     OW33304   3.863   3.666   6.669 -0.0777 -0.8960  0.1126
 7223SOL    HW133305   3.850   3.667   6.574  1.1404 -2.5415 -0.0561
 7223SOL    HW233306   3.948   3.624   6.682  1.1359  0.8720 -2.2553
 7224SOL     OW33307   1.800   3.778   0.890  0.8729 -0.3058 -0.4381
 7224SOL    HW133308   1.833   3.784   0.980 -0.7629 -4.1439  0.3916
 7224SOL    HW233309   1.724   3.721   0.900  1.2865 -0.7885 -0.0685
 7225SOL     OW33310   1.807   0.158   7.533 -0.0057  0.3625  0.0085
 7225SOL    HW133311   1.768   0.212   7.464 -1.6195 -1.7552 -0.7702
 7225SOL    HW233312   1.873   0.106   7.488 -0.4285 -1.4856  1.5308
 7226SOL     OW33313   1.562   2.984   9.721  0.1763 -0.4295  0.3591
 7226SOL    HW133314   1.625   3.029   9.777  0.6870 -0.6074 -0.0793
 7226SOL    HW233315   1.530   2.914   9.779  2.2329 -0.7245  1.1198
 7227SOL     OW33316   2.697   3.538   4.072  0.3212  0.6250  0.0984
 7227SOL    HW133317   2.645   3.565   4.148 -2.2237 -0.4059 -1.2520
 7227SOL    HW233318   2.713   3.450   4.107 -1.1779  0.2336 -0.1687
 7228SOL     OW33319   1.643   3.431  17.235  0.2187 -0.5498  0.6331
 7228SOL    HW133320   1.619   3.518  17.201  0.7011  0.0176  1.7204
 7228SOL    HW233321   1.684   3.393  17.157 -0.1607 -1.1457  0.7317
 7229SOL     OW33322   2.884   2.691  10.824 -0.1034  0.0906 -0.3330
 7229SOL    HW133323   2.849   2.621  10.768  0.6597  0.7877 -1.6832
 7229SOL    HW233324   2.906   2.762  10.763  0.2232 -1.1348 -1.6514
 7230SOL     OW33325   2.963   3.854   7.942  0.0883 -0.8311 -0.6850
 7230SOL    HW133326   2.990   3.852   8.034  1.7206 -1.3659 -1.1671
 7230SOL    HW233327   2.939   3.763   7.925  0.9586 -1.1986  0.0744
 7231SOL     OW33328   0.148   1.723   0.174 -0.2045 -0.0394  0.1242
 7231SOL    HW133329   0.163   1.718   0.080 -1.4199  0.9210 -0.1217
 7231SOL    HW233330   0.140   1.818   0.188 -0.3571  0.0068 -0.2890
 7232SOL     OW33331   1.860   0.781   6.979 -0.0151 -0.1902 -0.8265
 7232SOL    HW133332   1.898   0.812   7.062 -0.2158  0.1287 -0.8545
 7232SOL    HW233333   1.766   0.789   6.993  0.1419  1.8073 -0.9349
 7233SOL     OW33334   1.790   1.849   2.211  0.1973  1.0749  0.0907
 7233SOL    HW133335   1.716   1.791   2.195  2.6954 -2.3567  1.0745
 7233SOL    HW233336   1.857   1.795   2.170  0.1814  0.0762  1.3792
 7234SOL     OW33337   3.066   1.348   1.644 -0.2562  0.0803 -0.2348
 7234SOL    HW133338   3.003   1.415   1.618  0.9315  1.8695  1.5098
 7234SOL    HW233339   3.131   1.405   1.685 -1.8410  1.1407  0.7671
 7235SOL     OW33340   3.760   0.428  12.394  0.1268 -0.1941 -0.1866
 7235SOL    HW133341   3.735   0.472  12.475  0.3432  0.6152 -0.5647
 7235SOL    HW233342   3.686   0.368  12.384 -1.3290  1.7929 -1.3259
 7236SOL     OW33343   1.858   4.686  13.429 -0.0855 -0.0430 -0.3762
 7236SOL    HW133344   1.887   4.621  13.365  1.0743  0.4923 -0.3839
 7236SOL    HW233345   1.919   4.675  13.502  1.1271 -1.8386 -1.6546
 7237SOL     OW33346   1.977   0.877   7.210  0.2357 -0.0586 -0.1670
 7237SOL    HW133347   2.072   0.885   7.203  0.0899  2.2914  0.4757
 7237SOL    HW233348   1.963   0.946   7.275  1.0797 -0.4714  0.4410
 7238SOL     OW33349   0.880   2.609   2.756 -0.1266  1.0116  0.5003
 7238SOL    HW133350   0.963   2.615   2.708 -1.0393  2.4370 -0.8873
 7238SOL    HW233351   0.824   2.600   2.680  2.3889  0.5286 -1.2911
 7239SOL     OW33352   1.891   1.692   3.894  0.2794 -0.0083  0.5192
 7239SOL    HW133353   1.807   1.648   3.875 -0.1212  2.5736 -3.6865
 7239SOL    HW233354   1.869   1.723   3.982  1.5432  0.7230  0.5714
 7240SOL     OW33355   0.527   3.470   4.814  0.2755  0.2900 -0.8472
 7240SOL    HW133356   0.443   3.511   4.839 -0.1686 -0.0320 -1.8438
 7240SOL    HW233357   0.534   3.423   4.898  0.2051  1.7039 -0.0410
 7241SOL     OW33358   0.571   4.059  16.937  0.3519  0.5206 -0.2358
 7241SOL    HW133359   0.657   4.095  16.955  0.1248  0.4034  1.0588
 7241SOL    HW233360   0.593   4.026  16.850 -0.3828  0.4245 -0.3844
 7242SOL     OW33361   3.359   0.727   7.903  0.3665  0.2383 -0.1738
 7242SOL    HW133362   3.337   0.652   7.849 -1.9015  0.7457  0.0641
 7242SOL    HW233363   3.286   0.744   7.962 -1.1698 -2.9833 -1.1391
 7243SOL     OW33364   3.181   2.100   8.072  0.2595  0.3319 -0.2814
 7243SOL    HW133365   3.162   2.179   8.123  0.6365 -0.1188  0.5643
 7243SOL    HW233366   3.094   2.064   8.057 -0.0351  0.2193  1.7140
 7244SOL     OW33367   2.393   1.521  15.503 -0.2490 -0.2619  0.2781
 7244SOL    HW133368   2.488   1.518  15.506 -0.0812  1.2786 -2.9058
 7244SOL    HW233369   2.384   1.590  15.437  1.0682 -1.9735 -1.6769
 7245SOL     OW33370   3.594   1.372   6.354  0.3710  0.3060  0.0079
 7245SOL    HW133371   3.611   1.376   6.260  2.1679  1.8587  0.4012
 7245SOL    HW233372   3.535   1.447   6.361 -1.7192 -1.4169  1.0546
 7246SOL     OW33373   2.867   0.077   7.844  0.1608  0.0672 -0.0312
 7246SOL    HW133374   2.854   4.726   7.880  0.8670 -0.3559 -0.8122
 7246SOL    HW233375   2.777   0.106   7.834  0.0511 -0.2990 -0.0990
 7247SOL     OW33376   2.335   1.269   3.363 -0.1394 -0.3111  0.0639
 7247SOL    HW133377   2.253   1.318   3.375 -0.0798 -0.8214  2.4891
 7247SOL    HW233378   2.390   1.319   3.303  1.0804 -1.3563  0.3109
 7248SOL     OW33379   1.285   4.459   3.413 -0.1989  0.1761  0.0657
 7248SOL    HW133380   1.239   4.520   3.471 -1.0793 -1.5847  1.2048
 7248SOL    HW233381   1.217   4.392   3.404 -0.2845 -0.1505  3.2549
 7249SOL     OW33382   4.085   2.596   1.547 -0.2110  0.2525 -0.5437
 7249SOL    HW133383   3.996   2.599   1.512 -0.3775  4.5501  0.1670
 7249SOL    HW233384   4.139   2.647   1.486 -0.7508 -0.2536 -1.4418
 7250SOL     OW33385   2.152   2.474   9.591 -0.3131  0.0547  0.0480
 7250SOL    HW133386   2.216   2.527   9.543  0.2282  0.5743  1.3531
 7250SOL    HW233387   2.102   2.447   9.514 -0.1548  0.5582 -0.2302
 7251SOL     OW33388   2.302   3.797   0.510  0.1447  0.7529  0.2238
 7251SOL    HW133389   2.332   3.755   0.430  0.1553  0.3362  0.4471
 7251SOL    HW233390   2.382   3.846   0.529  0.2565  0.2783  0.9776
 7252SOL     OW33391   3.631   2.880   4.979 -0.4525 -0.3707 -1.0264
 7252SOL    HW133392   3.568   2.808   4.981 -0.2286 -0.5694 -1.0487
 7252SOL    HW233393   3.694   2.839   4.919  0.1245  1.9229 -2.0103
 7253SOL     OW33394   3.856   3.065  12.925  0.2100 -0.1030  0.2931
 7253SOL    HW133395   3.783   3.126  12.938 -0.6341 -0.6257 -1.9134
 7253SOL    HW233396   3.932   3.121  12.933 -0.1774  0.5423 -0.4677
 7254SOL     OW33397   3.601   2.980  14.969  0.2386  0.3103  0.2083
 7254SOL    HW133398   3.665   2.944  15.031  0.7590 -0.0538 -0.5398
 7254SOL    HW233399   3.625   3.072  14.975 -1.1381  0.6709  0.1212
 7255SOL     OW33400   3.455   0.658  14.628 -0.0539 -0.0152 -0.1308
 7255SOL    HW133401   3.480   0.568  14.606  0.2181 -0.4304  1.7960
 7255SOL    HW233402   3.526   0.687  14.686 -1.1701  1.9199  0.2509
 7256SOL     OW33403   3.580   1.309   1.099 -0.4446 -0.3341  0.6079
 7256SOL    HW133404   3.600   1.384   1.154  3.3465 -0.1759 -0.9991
 7256SOL    HW233405   3.561   1.236   1.158 -1.4511 -1.1910 -0.7614
 7257SOL     OW33406   4.674   2.691   4.495 -0.1256  0.4575 -0.2159
 7257SOL    HW133407   4.731   2.670   4.569 -2.2489  0.7961  1.5116
 7257SOL    HW233408   4.651   2.784   4.506  1.3933  1.1659 -3.1524
 7258SOL     OW33409   0.038   2.629  10.658  0.0036  0.0824 -0.0381
 7258SOL    HW133410   4.701   2.569  10.664 -0.4168  0.6667  0.6213
 7258SOL    HW233411   0.003   2.685  10.588 -0.1897 -1.9450 -1.5517
 7259SOL     OW33412   1.851   2.866   0.748  0.7480 -0.0367 -0.2084
 7259SOL    HW133413   1.892   2.802   0.690 -0.1589  0.9955 -1.9863
 7259SOL    HW233414   1.924   2.893   0.805  0.2137 -0.9445  0.8986
 7260SOL     OW33415   3.574   3.767  13.056  0.1823  0.2627  0.3323
 7260SOL    HW133416   3.637   3.803  13.119 -1.8303 -0.9962  3.0497
 7260SOL    HW233417   3.514   3.723  13.116  1.4350  0.0591  1.4412
 7261SOL     OW33418   0.997   4.396   8.357 -0.0348  0.3820 -0.7477
 7261SOL    HW133419   1.057   4.448   8.409  1.3422 -0.4630 -1.4972
 7261SOL    HW233420   1.050   4.383   8.278  2.9938  2.0725  1.0241
 7262SOL     OW33421   4.513   4.370   1.843 -0.5681  0.1397 -0.2857
 7262SOL    HW133422   4.582   4.388   1.779 -0.0294 -0.1953  0.2065
 7262SOL    HW233423   4.534   4.413   1.926  1.3376  0.9368 -1.1874
 7263SOL     OW33424   2.450   3.251   4.602 -0.3065 -0.0386 -0.1851
 7263SOL    HW133425   2.364   3.222   4.570 -0.6720  0.4755  0.3490
 7263SOL    HW233426   2.474   3.287   4.517 -1.1892 -1.5678 -1.0928
 7264SOL     OW33427   2.391   1.040   5.220 -0.1570  0.6037  0.1870
 7264SOL    HW133428   2.295   1.041   5.215 -0.1932 -1.0814  0.8416
 7264SOL    HW233429   2.412   1.131   5.241  0.8360  0.7120 -1.2201
 7265SOL     OW33430   4.383   3.848   8.412  0.0492 -0.5756 -0.2748
 7265SOL    HW133431   4.289   3.834   8.423 -0.1438  2.0606  1.5733
 7265SOL    HW233432   4.408   3.864   8.503  1.0544 -1.2214 -0.4355
 7266SOL     OW33433   3.622   1.805   1.856 -0.1249  0.3228 -0.1566
 7266SOL    HW133434   3.615   1.739   1.924  2.1788  0.9163  0.6378
 7266SOL    HW233435   3.621   1.881   1.915 -0.5797  0.2401 -0.0520
 7267SOL     OW33436   4.340   3.155   0.444 -0.3426  0.3871  0.0085
 7267SOL    HW133437   4.272   3.142   0.510  0.9027 -1.6409  0.8651
 7267SOL    HW233438   4.351   3.064   0.419  2.2114  0.2681  1.6561
 7268SOL     OW33439   0.502   4.623  16.849  0.3088 -0.1057  0.1392
 7268SOL    HW133440   0.510   4.686  16.921  0.9936 -0.2915  0.2306
 7268SOL    HW233441   0.596   4.635  16.834  0.4920  0.5427  1.7359
 7269SOL     OW33442   1.843   3.885   6.200 -0.4122 -0.2689  0.2621
 7269SOL    HW133443   1.828   3.843   6.285  1.3966 -3.0693 -0.8177
 7269SOL    HW233444   1.782   3.957   6.215  0.2184  0.3694 -0.2309
 7270SOL     OW33445   2.727   1.738   1.958  0.1203 -0.8702 -0.0155
 7270SOL    HW133446   2.664   1.805   1.986  0.2484  0.1604 -2.2685
 7270SOL    HW233447   2.741   1.689   2.039 -0.1703  0.7658  1.0384
 7271SOL     OW33448   4.621   4.042   3.426  0.2143  0.2222 -0.0104
 7271SOL    HW133449   4.621   3.966   3.484  0.7828 -0.7266 -1.2496
 7271SOL    HW233450   4.708   4.041   3.386 -0.2672 -1.4111 -1.0041
 7272SOL     OW33451   2.977   0.012  17.235  0.1691  0.0802 -0.1781
 7272SOL    HW133452   3.031   4.716  17.307  1.1588  1.8333 -0.1363
 7272SOL    HW233453   2.896   0.034  17.282  0.1767  0.2566 -0.2467
 7273SOL     OW33454   3.668   1.508   2.007 -0.4245 -0.8162  0.4178
 7273SOL    HW133455   3.574   1.525   2.005 -0.6341 -1.9983  0.3082
 7273SOL    HW233456   3.672   1.413   2.012 -1.9163 -0.7669  2.5719
 7274SOL     OW33457   2.172   1.958   4.413  0.0430  0.8112  0.0486
 7274SOL    HW133458   2.259   1.984   4.384  0.9759 -1.4138  0.8683
 7274SOL    HW233459   2.200   1.940   4.503 -0.8705 -2.8630 -0.4089
 7275SOL     OW33460   1.205   2.382   4.179 -0.3101  0.0178 -0.1255
 7275SOL    HW133461   1.292   2.349   4.156 -1.2447 -0.7586 -2.5797
 7275SOL    HW233462   1.221   2.463   4.227  0.8330  0.2481 -0.8844
 7276SOL     OW33463   3.780   3.014   5.150 -0.9960 -0.2671 -0.0899
 7276SOL    HW133464   3.712   2.960   5.110 -2.4135 -0.6703  2.8341
 7276SOL    HW233465   3.787   3.081   5.082 -2.2494 -0.2035 -0.1604
 7277SOL     OW33466   2.414   4.043   5.348 -0.4499  0.1582 -0.6065
 7277SOL    HW133467   2.498   4.028   5.391 -0.8898  0.4071  0.3527
 7277SOL    HW233468   2.354   4.017   5.418 -0.4706  0.2343 -0.5960
 7278SOL     OW33469   3.901   1.520   5.839 -0.1583 -0.1196  0.7551
 7278SOL    HW133470   3.926   1.448   5.897  1.4196 -0.0864  0.1102
 7278SOL    HW233471   3.973   1.514   5.777 -0.7646  0.0872  0.0223
 7279SOL     OW33472   2.177   2.460   7.395  0.5196 -0.6345  0.0915
 7279SOL    HW133473   2.159   2.383   7.448 -0.1659 -1.4722 -1.3671
 7279SOL    HW233474   2.249   2.419   7.346  1.1843 -1.4282  1.7409
 7280SOL     OW33475   0.859   0.606   4.193 -0.1078 -0.0045  0.1859
 7280SOL    HW133476   0.834   0.649   4.275  1.8024  1.9993 -0.2823
 7280SOL    HW233477   0.781   0.551   4.182 -0.1064  0.0411 -0.0522
 7281SOL     OW33478   0.176   1.999   3.366 -0.9109 -0.2070  0.0052
 7281SOL    HW133479   0.169   1.998   3.270  0.3232 -0.8660 -0.0841
 7281SOL    HW233480   0.251   1.946   3.393  0.2600  1.4858  0.0818
 7282SOL     OW33481   3.240   1.149   1.752  0.3092  0.7341  0.0716
 7282SOL    HW133482   3.218   1.185   1.838 -2.6312 -1.3173  0.1907
 7282SOL    HW233483   3.208   1.218   1.693 -0.3742  0.0806 -0.3234
 7283SOL     OW33484   3.715   0.582   2.222  0.3368 -0.1224 -0.3012
 7283SOL    HW133485   3.775   0.541   2.159  1.3413 -0.3652  0.8079
 7283SOL    HW233486   3.756   0.668   2.225  1.1951 -0.5279 -0.3334
 7284SOL     OW33487   2.717   3.072   4.157 -0.0486  0.0355 -0.2343
 7284SOL    HW133488   2.672   3.019   4.223 -0.1180 -0.3712 -0.6127
 7284SOL    HW233489   2.662   3.068   4.079  1.4651  1.7805 -1.3985
 7285SOL     OW33490   4.689   0.712  17.121  0.4669 -0.1548  0.5075
 7285SOL    HW133491   4.613   0.666  17.157  2.3309 -2.2662  1.7223
 7285SOL    HW233492   4.680   0.789  17.178  0.6519  1.8109 -2.1093
 7286SOL     OW33493   4.016   0.155   9.521  0.1986  0.3005  0.3189
 7286SOL    HW133494   4.100   0.191   9.492  0.1950  0.9313  1.1104
 7286SOL    HW233495   3.962   0.215   9.469 -0.6173  1.4434  2.5239
 7287SOL     OW33496   0.160   0.098   9.318 -0.5849  0.0791  0.1366
 7287SOL    HW133497   0.065   0.094   9.309 -0.5185 -2.3159  0.4791
 7287SOL    HW233498   0.155   0.102   9.414 -3.2112 -1.0313  0.0622
 7288SOL     OW33499   1.919   1.901   5.378  0.4511 -0.3726 -0.1439
 7288SOL    HW133500   1.907   1.934   5.288 -0.6524  1.7426  0.7636
 7288SOL    HW233501   1.915   1.806   5.368 -0.2455 -0.4316  0.6737
 7289SOL     OW33502   4.570   3.215  12.276 -0.2932 -0.4229  0.4932
 7289SOL    HW133503   4.553   3.302  12.311 -0.5605 -0.8755  1.4811
 7289SOL    HW233504   4.657   3.236  12.242 -0.8727  0.9474 -0.1360
 7290SOL     OW33505   2.883   0.275  11.220 -0.5075 -0.3095  0.0345
 7290SOL    HW133506   2.945   0.348  11.217  0.5339 -1.1893  0.0046
 7290SOL    HW233507   2.815   0.321  11.271 -0.7897 -1.8089  1.0176
 7291SOL     OW33508   4.322   4.568   5.191 -0.0066 -0.6919  0.1400
 7291SOL    HW133509   4.250   4.627   5.169  1.5594  0.7641 -0.9508
 7291SOL    HW233510   4.348   4.608   5.273  0.2343 -0.4924 -0.0370
 7292SOL     OW33511   4.184   0.164  10.013  0.3752 -0.0522  0.0332
 7292SOL    HW133512   4.142   0.202   9.935 -0.7302 -0.0430  0.6351
 7292SOL    HW233513   4.159   0.075   9.991  0.6777  0.1989 -1.3162
 7293SOL     OW33514   3.903   2.936   3.430  0.2153  0.6002  0.3645
 7293SOL    HW133515   3.883   2.941   3.337  0.9315  1.8991  0.2887
 7293SOL    HW233516   3.831   2.883   3.466 -0.1772 -0.2667 -1.7033
 7294SOL     OW33517   3.547   1.523  15.663  0.0841 -0.3796  0.2175
 7294SOL    HW133518   3.619   1.487  15.611  0.1817  1.1458 -0.6969
 7294SOL    HW233519   3.476   1.519  15.599 -0.4331  0.5156  0.7413
 7295SOL     OW33520   2.673   2.803   7.196  0.7284 -0.2006  0.0906
 7295SOL    HW133521   2.734   2.872   7.171  0.8881 -0.5110 -0.3735
 7295SOL    HW233522   2.601   2.847   7.240  0.9196  2.5806 -2.3873
 7296SOL     OW33523   2.884   2.471   1.849 -0.8760  0.8821 -0.0658
 7296SOL    HW133524   2.856   2.496   1.937  0.1780 -1.5949  0.9862
 7296SOL    HW233525   2.948   2.541   1.833  1.1419 -1.2435 -1.3012
 7297SOL     OW33526   2.641   4.367  15.208  0.0138  0.0903  0.0695
 7297SOL    HW133527   2.558   4.408  15.183  0.2583 -0.1003 -1.0694
 7297SOL    HW233528   2.702   4.441  15.202 -2.4304  1.8759 -2.3660
 7298SOL     OW33529   1.578   2.980   6.177 -0.1373  0.1929  0.3515
 7298SOL    HW133530   1.604   2.911   6.238 -1.5231 -1.7873 -1.2405
 7298SOL    HW233531   1.581   3.064   6.222  3.3968 -0.4938  1.3589
 7299SOL     OW33532   3.632   3.320   7.137  0.0024  0.1986 -0.0142
 7299SOL    HW133533   3.604   3.229   7.132 -0.3055  0.4956 -3.8347
 7299SOL    HW233534   3.587   3.348   7.217  2.9388  1.1588  1.2888
 7300SOL     OW33535   4.000   0.800  13.763 -0.1047 -0.4231 -0.2235
 7300SOL    HW133536   3.977   0.882  13.721 -0.0728 -0.8206 -1.0224
 7300SOL    HW233537   3.918   0.755  13.781  0.0314 -0.6051 -0.0425
 7301SOL     OW33538   4.599   4.355  11.942 -0.5689 -0.2195  0.2120
 7301SOL    HW133539   4.635   4.372  12.029  0.4456  0.0821 -0.2699
 7301SOL    HW233540   4.636   4.275  11.905 -0.7336 -1.0152  1.7626
 7302SOL     OW33541   2.915   3.875  17.385  0.4896  0.1850 -0.5494
 7302SOL    HW133542   2.957   3.922  17.457 -1.5619 -1.3032  1.6581
 7302SOL    HW233543   2.988   3.851  17.328  0.5332  1.8406 -1.1674
 7303SOL     OW33544   4.552   3.012   5.735 -0.5978  0.1008 -0.1567
 7303SOL    HW133545   4.620   2.986   5.797 -0.4014  0.1217 -0.3613
 7303SOL    HW233546   4.523   2.925   5.708  0.9661  0.2271 -2.2815
 7304SOL     OW33547   0.853   1.047   7.789  0.0898  0.3864 -0.3003
 7304SOL    HW133548   0.814   0.969   7.749  0.2477  0.2128 -0.1095
 7304SOL    HW233549   0.857   1.108   7.715  1.4501  1.8571  1.0035
 7305SOL     OW33550   4.334   0.932   1.455 -0.3701  0.0042 -0.0481
 7305SOL    HW133551   4.389   1.008   1.477 -0.6932  0.5508 -1.1489
 7305SOL    HW233552   4.297   0.911   1.541 -2.0740  3.6586  0.1164
 7306SOL     OW33553   1.722   2.575   6.981 -0.2600 -0.1583  0.4964
 7306SOL    HW133554   1.810   2.544   7.002 -0.2565 -1.2363 -1.0689
 7306SOL    HW233555   1.703   2.503   6.921 -0.4881 -0.5274  1.0110
 7307SOL     OW33556   3.502   1.545   3.551  0.2179  0.1242  0.1450
 7307SOL    HW133557   3.503   1.640   3.545 -0.4567  0.0170 -1.9067
 7307SOL    HW233558   3.547   1.529   3.634 -1.5559  0.4289  1.1649
 7308SOL     OW33559   2.781   1.520   4.058 -0.4982 -0.9722 -0.2233
 7308SOL    HW133560   2.807   1.609   4.035  0.9146 -1.2047  0.5038
 7308SOL    HW233561   2.687   1.531   4.073  0.2154  0.7007  3.0907
 7309SOL     OW33562   2.860   1.467   8.532  0.3967  0.2903  0.4054
 7309SOL    HW133563   2.874   1.558   8.559  3.1759 -0.5382  1.7710
 7309SOL    HW233564   2.790   1.484   8.470 -0.8088  0.2873  1.7631
 7310SOL     OW33565   1.662   1.530   5.571 -0.6134 -0.3747  0.3961
 7310SOL    HW133566   1.640   1.439   5.553 -1.9293  0.0199  0.0036
 7310SOL    HW233567   1.579   1.558   5.609 -1.1335  1.1342 -1.8193
 7311SOL     OW33568   1.054   0.521   1.200 -0.0776 -0.4840  0.1333
 7311SOL    HW133569   1.034   0.561   1.285 -3.0629  0.1876 -0.8824
 7311SOL    HW233570   1.095   0.593   1.153 -0.9810 -1.2450 -1.7983
 7312SOL     OW33571   0.496   3.352  14.431  0.3580  0.2007 -0.2341
 7312SOL    HW133572   0.403   3.331  14.436  0.0083  2.1929  1.7490
 7312SOL    HW233573   0.529   3.274  14.475  1.5168  0.8622  0.1039
 7313SOL     OW33574   4.590   0.916   9.513 -0.2793  0.1598  0.6361
 7313SOL    HW133575   4.548   1.000   9.530  1.0913  1.1907 -1.0949
 7313SOL    HW233576   4.522   0.885   9.453  0.6400 -1.0457  0.1906
 7314SOL     OW33577   1.738   1.216  13.780 -0.2367  0.4771  0.2998
 7314SOL    HW133578   1.678   1.194  13.851  1.0113  1.0765  1.5448
 7314SOL    HW233579   1.744   1.310  13.794 -2.8820  0.6746  0.0996
 7315SOL     OW33580   4.284   2.191  15.815 -0.4336  0.1010  0.2540
 7315SOL    HW133581   4.346   2.256  15.780  1.1351 -1.7724 -0.4915
 7315SOL    HW233582   4.320   2.166  15.900 -0.8075 -1.8262 -0.1595
 7316SOL     OW33583   3.939   3.929   7.720  0.3927 -0.2777  0.1989
 7316SOL    HW133584   3.873   3.908   7.786 -0.7027  0.0299 -0.7933
 7316SOL    HW233585   3.959   3.843   7.683 -1.1157 -0.6152  0.1887
 7317SOL     OW33586   1.663   2.640   3.341 -0.1882  0.3866  0.4982
 7317SOL    HW133587   1.626   2.552   3.341 -2.8761  1.4868 -1.9302
 7317SOL    HW233588   1.753   2.610   3.331  0.3624  0.9977  3.7713
 7318SOL     OW33589   0.671   2.543   6.079 -0.1488 -0.4656 -0.0286
 7318SOL    HW133590   0.723   2.614   6.040 -0.3232 -0.4208 -0.1785
 7318SOL    HW233591   0.727   2.468   6.061  1.7456  0.9908 -0.2595
 7319SOL     OW33592   2.381   4.219   3.723  0.0835 -0.0784 -0.4499
 7319SOL    HW133593   2.313   4.171   3.676 -0.1802  0.7877 -0.9366
 7319SOL    HW233594   2.326   4.242   3.797  1.9419  1.3434  0.4762
 7320SOL     OW33595   1.300   3.839   5.802 -0.0416 -0.3989 -0.5896
 7320SOL    HW133596   1.279   3.751   5.834 -0.4346 -0.7326 -1.7885
 7320SOL    HW233597   1.222   3.889   5.827 -0.2355 -0.3221 -1.3578
 7321SOL     OW33598   4.562   3.251   5.869  0.1051  0.2341 -0.3697
 7321SOL    HW133599   4.554   3.173   5.813 -1.6856  1.8654 -2.4131
 7321SOL    HW233600   4.656   3.260   5.880 -0.2494  2.1035  1.0289
 7322SOL     OW33601   4.359   0.142   4.211  0.1898  0.1312 -0.9790
 7322SOL    HW133602   4.441   0.141   4.163  0.5393  1.4279 -0.4268
 7322SOL    HW233603   4.389   0.184   4.292  1.3064 -1.3442 -0.6354
 7323SOL     OW33604   3.864   0.311   9.370  0.0654 -0.4294  0.4259
 7323SOL    HW133605   3.778   0.297   9.331 -0.3915  2.1359  0.4788
 7323SOL    HW233606   3.911   0.350   9.296 -0.0422  0.0099  0.5854
 7324SOL     OW33607   1.961   0.399  13.029  0.4259 -0.1370  0.3105
 7324SOL    HW133608   1.970   0.304  13.033 -0.0627 -0.1622  0.8054
 7324SOL    HW233609   1.946   0.408  12.935 -1.5181 -0.6036  0.5856
 7325SOL     OW33610   2.532   1.956   7.159 -0.1100 -0.3273 -0.3183
 7325SOL    HW133611   2.549   2.005   7.240 -1.4648  1.4941 -1.1167
 7325SOL    HW233612   2.508   1.874   7.201  2.0518 -0.8850 -0.1982
 7326SOL     OW33613   2.037   2.209   9.873 -0.0672 -0.2191  0.4813
 7326SOL    HW133614   2.003   2.129   9.913  0.6860 -1.5792 -1.6259
 7326SOL    HW233615   1.950   2.232   9.842  0.3077  0.3360 -0.1632
 7327SOL     OW33616   3.061   0.093   4.708  0.2854 -0.2681  0.1586
 7327SOL    HW133617   2.980   0.086   4.760  0.4723 -0.3677  0.4353
 7327SOL    HW233618   3.130   0.063   4.767  0.6686 -0.8778 -0.6048
 7328SOL     OW33619   1.972   4.155  13.839  0.0761  0.1559 -0.3063
 7328SOL    HW133620   1.962   4.157  13.934 -0.8282 -1.6073 -0.3758
 7328SOL    HW233621   1.913   4.085  13.811 -1.1284  0.6370  1.0497
 7329SOL     OW33622   0.302   2.872   0.693  0.4897 -0.3819  0.7595
 7329SOL    HW133623   0.248   2.947   0.668  0.3082 -0.5891  0.5308
 7329SOL    HW233624   0.391   2.900   0.673  0.6047 -0.4770  1.1237
 7330SOL     OW33625   0.051   1.540  11.422  0.2822 -0.4644  0.1940
 7330SOL    HW133626   0.105   1.617  11.403  0.9617 -0.9225  0.2779
 7330SOL    HW233627   0.114   1.480  11.382  1.5082 -0.3433  1.8963
 7331SOL     OW33628   4.668   4.536   7.144  0.2208  0.4855 -0.0215
 7331SOL    HW133629   0.006   4.539   7.084  1.5699 -0.6037  1.5993
 7331SOL    HW233630   4.628   4.619   7.119  1.0448  0.3271 -1.9406
 7332SOL     OW33631   0.934   0.070  17.342 -0.4016 -0.7687 -0.0805
 7332SOL    HW133632   1.015   0.117  17.324  0.1659 -2.1707 -1.1692
 7332SOL    HW233633   0.964   4.730  17.293  1.0711  0.9959 -1.9710
 7333SOL     OW33634   1.089   1.478   7.161  0.0675  0.3856 -0.2185
 7333SOL    HW133635   1.123   1.407   7.215 -0.7228  1.3142  1.4799
 7333SOL    HW233636   1.163   1.491   7.102 -1.1093  1.0747 -1.5416
 7334SOL     OW33637   4.447   4.050   6.615  0.0160  0.0858 -0.1513
 7334SOL    HW133638   4.356   4.025   6.628  0.0297  0.5294  0.7732
 7334SOL    HW233639   4.481   4.006   6.693  0.3127  0.3396 -0.1334
 7335SOL     OW33640   0.868   3.360   5.937  0.0183 -0.5602  0.0582
 7335SOL    HW133641   0.870   3.290   6.002  0.9645  0.8890  1.5809
 7335SOL    HW233642   0.959   3.383   5.921 -1.1122  3.6335 -0.3814
 7336SOL     OW33643   2.866   3.098   5.428 -0.2301  0.1191  0.3302
 7336SOL    HW133644   2.940   3.045   5.399  1.2905  2.1755  0.5377
 7336SOL    HW233645   2.862   3.078   5.521  1.0400  0.9783  0.5575
 7337SOL     OW33646   0.391   1.623   1.516 -0.0661  0.1149  0.0617
 7337SOL    HW133647   0.327   1.685   1.552 -0.6749 -0.0316 -0.7854
 7337SOL    HW233648   0.448   1.600   1.590 -1.0369 -0.3607  0.6719
 7338SOL     OW33649   0.617   1.408   5.857 -0.0402 -0.3240 -0.1882
 7338SOL    HW133650   0.671   1.433   5.782  0.8092 -2.2010 -0.1961
 7338SOL    HW233651   0.617   1.480   5.920 -2.3676  1.2757 -2.0227
 7339SOL     OW33652   1.843   1.544   1.806 -0.2942 -0.0866  0.2545
 7339SOL    HW133653   1.867   1.612   1.743 -0.3465 -0.8766 -0.6113
 7339SOL    HW233654   1.753   1.532   1.777 -0.6998  0.7393  1.1716
 7340SOL     OW33655   1.333   3.405   1.201  0.2416 -0.0981 -0.3347
 7340SOL    HW133656   1.290   3.349   1.265  1.2017 -0.5347 -0.0656
 7340SOL    HW233657   1.289   3.490   1.207 -0.5402 -0.5296 -0.0003
 7341SOL     OW33658   1.465   2.439  14.779  0.0261 -0.0284  0.2277
 7341SOL    HW133659   1.510   2.446  14.864  1.8065 -0.1202 -0.6941
 7341SOL    HW233660   1.534   2.400  14.725 -0.9780 -0.0236 -1.0322
 7342SOL     OW33661   1.353   1.608   6.583  0.4709  0.3562  0.2003
 7342SOL    HW133662   1.331   1.678   6.645 -0.6974 -1.2451  1.5559
 7342SOL    HW233663   1.313   1.638   6.501  1.4340  2.1395  0.3724
 7343SOL     OW33664   2.083   0.301   6.072  0.1426  0.6727 -0.0223
 7343SOL    HW133665   2.148   0.330   6.009 -0.8488 -1.1266 -1.8853
 7343SOL    HW233666   2.092   0.371   6.137 -1.6472  0.7871  0.1046
 7344SOL     OW33667   0.658   2.590   8.688 -0.3186 -0.5279 -0.0510
 7344SOL    HW133668   0.722   2.587   8.759  0.4191  0.3838 -0.6748
 7344SOL    HW233669   0.640   2.684   8.683 -1.5943 -0.8441 -1.3674
 7345SOL     OW33670   1.524   4.573  14.950 -0.0086 -0.8752 -0.5212
 7345SOL    HW133671   1.500   4.515  15.023 -3.9775  1.7434  0.2925
 7345SOL    HW233672   1.618   4.556  14.950  0.3363  0.9827  0.1510
 7346SOL     OW33673   1.177   3.323   8.298  0.6999  0.7033 -0.6073
 7346SOL    HW133674   1.229   3.353   8.224  0.5621 -0.2428 -1.0747
 7346SOL    HW233675   1.206   3.232   8.305 -0.9514  0.4674  3.5793
 7347SOL     OW33676   0.182   1.758  16.812 -0.3461 -0.0625 -0.3108
 7347SOL    HW133677   0.167   1.851  16.797 -0.5040  0.0494  0.5556
 7347SOL    HW233678   0.133   1.744  16.893  2.1596 -0.0658  1.2174
 7348SOL     OW33679   0.084   3.860   6.757  0.3030  0.3761  0.4419
 7348SOL    HW133680   0.144   3.811   6.700  1.4049  0.1588  1.7791
 7348SOL    HW233681   0.033   3.783   6.780 -1.2575  0.9635 -1.0037
 7349SOL     OW33682   4.685   2.275   7.338 -0.1164 -0.5702 -0.0985
 7349SOL    HW133683   4.698   2.369   7.326  1.6674 -0.3333  3.8415
 7349SOL    HW233684   4.606   2.294   7.389 -0.9240 -1.1954 -1.1049
 7350SOL     OW33685   0.177   4.706   7.209 -0.4754 -0.0901  0.2446
 7350SOL    HW133686   0.149   0.001   7.123 -1.1453  0.4974  0.6773
 7350SOL    HW233687   0.229   0.044   7.239  4.2995 -3.3307 -0.0945
 7351SOL     OW33688   3.191   1.062   4.533 -0.0407  0.3028  0.1744
 7351SOL    HW133689   3.220   0.972   4.550  1.5103  0.4934 -1.3957
 7351SOL    HW233690   3.098   1.045   4.550  0.3241 -1.3070  0.5985
 7352SOL     OW33691   1.249   3.933   6.328  0.4653 -0.0058 -0.1228
 7352SOL    HW133692   1.217   3.855   6.283 -0.1531 -0.9514  1.9612
 7352SOL    HW233693   1.343   3.937   6.309  0.3175 -1.9387 -1.2591
 7353SOL     OW33694   0.502   3.888   5.160  0.1772  0.1844 -0.2646
 7353SOL    HW133695   0.597   3.898   5.171  0.4329  0.0370 -2.2421
 7353SOL    HW233696   0.468   3.940   5.233  1.6188  0.1275  0.4628
 7354SOL     OW33697   2.593   1.693   0.449  0.5626  0.1446 -0.4525
 7354SOL    HW133698   2.527   1.715   0.515  1.5953  1.6997  0.0606
 7354SOL    HW233699   2.667   1.682   0.508 -0.6318 -2.4619  0.5579
 7355SOL     OW33700   0.433   1.598   2.423 -0.4391 -0.1907 -0.0528
 7355SOL    HW133701   0.374   1.566   2.492  0.8674 -0.2280  1.0563
 7355SOL    HW233702   0.473   1.517   2.390 -0.3724  0.1485 -0.7894
 7356SOL     OW33703   1.129   3.517   7.364  0.6913 -0.9715 -0.3106
 7356SOL    HW133704   1.199   3.580   7.374  0.0412 -0.2660 -0.2144
 7356SOL    HW233705   1.120   3.525   7.269  0.4984 -2.6083 -0.4295
 7357SOL     OW33706   3.794   0.414   8.975  0.3860  0.1742 -0.2697
 7357SOL    HW133707   3.786   0.338   8.918  1.1791 -0.0487 -0.0888
 7357SOL    HW233708   3.722   0.398   9.037  1.1872 -0.6154  0.4743
 7358SOL     OW33709   3.513   4.029   7.598  0.4081 -0.7165 -0.4856
 7358SOL    HW133710   3.516   3.982   7.681  0.2329 -1.6862 -1.0315
 7358SOL    HW233711   3.594   4.007   7.551  0.2705  1.1008 -1.5900
 7359SOL     OW33712   2.344   3.940   8.096 -0.6343 -0.4571 -0.5282
 7359SOL    HW133713   2.396   4.008   8.053 -0.1315 -0.6180 -0.1718
 7359SOL    HW233714   2.269   3.995   8.117 -0.3211 -0.6871  1.2000
 7360SOL     OW33715   1.199   4.299   3.964  0.1575  0.6560  0.1913
 7360SOL    HW133716   1.116   4.257   3.983 -0.1446  0.5384 -1.3601
 7360SOL    HW233717   1.255   4.234   4.007  1.0833  0.6596 -1.0118
 7361SOL     OW33718   2.305   2.235   9.724  0.6505  0.1561  0.5872
 7361SOL    HW133719   2.222   2.191   9.738  0.2313  0.5403 -0.6637
 7361SOL    HW233720   2.268   2.305   9.670 -2.1077 -3.4146 -2.1236
 7362SOL     OW33721   0.642   0.316   5.803  1.0200 -0.0243 -0.0303
 7362SOL    HW133722   0.705   0.382   5.831  3.0969 -2.1011  0.1971
 7362SOL    HW233723   0.555   0.342   5.831  2.0373  1.0585  2.0714
 7363SOL     OW33724   4.527   2.983  12.744 -0.1413  0.2251  0.2874
 7363SOL    HW133725   4.512   3.029  12.662 -0.5638 -0.5040 -0.0423
 7363SOL    HW233726   4.436   2.989  12.771  0.2012  0.4679  1.3974
 7364SOL     OW33727   4.362   1.046   5.382 -0.2633  0.1253  0.5269
 7364SOL    HW133728   4.402   0.959   5.380  0.1114  0.3185 -0.5963
 7364SOL    HW233729   4.350   1.053   5.477 -1.1860 -1.5897  0.5475
 7365SOL     OW33730   3.334   0.123   4.290  0.4166  0.4390 -0.8980
 7365SOL    HW133731   3.270   0.071   4.339 -0.3001  2.4064  0.2487
 7365SOL    HW233732   3.405   0.127   4.354 -1.2218 -0.0500  0.9735
 7366SOL     OW33733   0.273   0.355   0.285  0.2458  0.5742 -0.4337
 7366SOL    HW133734   0.223   0.274   0.283  2.4545 -0.7477 -1.7796
 7366SOL    HW233735   0.292   0.336   0.377  1.1672  2.0564 -0.2981
 7367SOL     OW33736   1.209   3.738  11.632  0.2906 -0.2651 -0.3222
 7367SOL    HW133737   1.175   3.827  11.623  1.5358  0.3438  1.0009
 7367SOL    HW233738   1.224   3.739  11.727 -1.1494 -1.0594 -0.0767
 7368SOL     OW33739   4.641   2.183  11.039  0.0055 -0.1200 -0.5092
 7368SOL    HW133740   4.707   2.147  10.980 -0.1773 -0.6238 -0.4016
 7368SOL    HW233741   4.691   2.201  11.119 -2.4831  0.6755  0.8700
 7369SOL     OW33742   3.052   4.613  13.874  0.2692 -0.4410 -0.6922
 7369SOL    HW133743   3.028   4.538  13.820  0.0903 -0.7151 -0.2284
 7369SOL    HW233744   3.025   4.680  13.812 -1.1344  0.9249  1.3927
 7370SOL     OW33745   3.385   2.793   3.861  0.2574 -0.2800 -0.0863
 7370SOL    HW133746   3.352   2.738   3.790 -0.0210  0.8574 -0.8359
 7370SOL    HW233747   3.325   2.866   3.851 -1.4502 -1.7127 -0.2690
 7371SOL     OW33748   0.606   3.149   7.116  0.2218 -1.2801 -0.0991
 7371SOL    HW133749   0.628   3.218   7.178  0.7137  1.1926 -3.0382
 7371SOL    HW233750   0.680   3.090   7.131 -0.7111 -1.9016  1.9874
 7372SOL     OW33751   3.796   0.352   1.288 -0.2981  0.3933 -0.3474
 7372SOL    HW133752   3.773   0.259   1.284  3.2820 -0.6121  3.2331
 7372SOL    HW233753   3.890   0.345   1.302 -0.6110 -0.9018  1.0295
 7373SOL     OW33754   3.668   1.032   3.647  0.1324 -0.1060 -0.1602
 7373SOL    HW133755   3.633   0.952   3.687  1.2040 -1.2731 -1.5707
 7373SOL    HW233756   3.760   1.026   3.673 -0.0503  1.9201  0.9387
 7374SOL     OW33757   3.654   3.916   2.595 -0.1623  0.1182 -0.3474
 7374SOL    HW133758   3.726   3.885   2.541 -0.5336  1.4241 -1.6003
 7374SOL    HW233759   3.656   3.846   2.660  2.5834  1.3092  0.8534
 7375SOL     OW33760   0.386   2.491  13.282  0.1185 -0.3379  0.4723
 7375SOL    HW133761   0.320   2.426  13.259  0.0555  0.1417 -0.7174
 7375SOL    HW233762   0.461   2.431  13.282  1.3032  1.1359  1.6268
 7376SOL     OW33763   4.488   0.551  10.474  0.8123  0.4419  0.2135
 7376SOL    HW133764   4.424   0.614  10.441 -0.4207 -0.7897  0.2423
 7376SOL    HW233765   4.435   0.510  10.543  2.4595 -1.7560  0.1863
 7377SOL     OW33766   2.797   3.557   7.495  0.2243 -0.0894 -0.5554
 7377SOL    HW133767   2.848   3.511   7.562 -2.5551 -0.3656  1.3884
 7377SOL    HW233768   2.856   3.628   7.471  0.6154  0.4576  2.0579
 7378SOL     OW33769   3.764   4.450   3.391 -0.3824  0.3547  0.0654
 7378SOL    HW133770   3.670   4.469   3.399 -0.6008 -0.2147 -1.1552
 7378SOL    HW233771   3.777   4.429   3.483  0.9593 -1.1876 -0.4736
 7379SOL     OW33772   0.422   0.499   9.290 -0.2331 -0.4579  0.1333
 7379SOL    HW133773   0.341   0.450   9.282  0.5728 -1.9402  0.9121
 7379SOL    HW233774   0.473   0.418   9.294  1.2465  0.4451 -0.4244
 7380SOL     OW33775   0.682   3.534   8.246  0.5129 -0.0516 -0.1997
 7380SOL    HW133776   0.756   3.566   8.195  1.6271 -0.2808  1.2910
 7380SOL    HW233777   0.691   3.440   8.228  0.2032 -0.1393  0.0930
 7381SOL     OW33778   3.223   0.043   8.576  0.2331  0.0836 -0.0509
 7381SOL    HW133779   3.249   0.122   8.623 -1.8270  0.4396  0.5013
 7381SOL    HW233780   3.276   4.710   8.615  0.0628 -0.7874 -1.3684
 7382SOL     OW33781   0.778   1.478   8.451 -0.0683 -0.5973 -0.6318
 7382SOL    HW133782   0.783   1.468   8.546  1.3490 -2.4413 -0.9077
 7382SOL    HW233783   0.733   1.394   8.439 -1.1264  0.0186 -0.9720
 7383SOL     OW33784   2.393   1.167   1.078 -0.2744 -0.0340  0.0669
 7383SOL    HW133785   2.382   1.094   1.017  0.0248 -0.2924  0.3224
 7383SOL    HW233786   2.432   1.120   1.151 -0.7338 -2.7619 -1.4398
 7384SOL     OW33787   1.052   3.926  10.238 -0.3015 -0.6684  0.0090
 7384SOL    HW133788   1.022   3.930  10.329  0.2784  2.9372  0.0341
 7384SOL    HW233789   1.068   4.019  10.225  0.0491 -1.0398 -2.1605
 7385SOL     OW33790   3.824   0.536  13.384 -0.1877  0.4857  0.0332
 7385SOL    HW133791   3.873   0.598  13.438  1.8795 -0.4875 -0.7613
 7385SOL    HW233792   3.751   0.500  13.435 -0.6429 -0.1123 -1.0418
 7386SOL     OW33793   0.776   4.588   2.597  0.0244  0.2667  0.2703
 7386SOL    HW133794   0.867   4.597   2.624  0.5618 -0.4230 -1.3372
 7386SOL    HW233795   0.753   4.509   2.646  0.5586  0.7808  1.3512
 7387SOL     OW33796   2.768   4.512   7.833  0.0734 -0.0649 -0.2816
 7387SOL    HW133797   2.692   4.478   7.785  0.1913  1.9526 -1.8834
 7387SOL    HW233798   2.822   4.433   7.843 -1.4485 -0.8225  1.9718
 7388SOL     OW33799   3.100   3.410   9.673 -0.0679  0.3152  0.7985
 7388SOL    HW133800   3.015   3.409   9.629  0.9372 -1.4498 -1.0769
 7388SOL    HW233801   3.166   3.413   9.604  0.7833 -1.0618  1.5580
 7389SOL     OW33802   1.706   1.729  10.902 -0.1133  0.1197 -0.1184
 7389SOL    HW133803   1.701   1.811  10.853  0.2415 -0.5234 -1.2293
 7389SOL    HW233804   1.799   1.706  10.897 -0.2038 -0.5527  1.3554
 7390SOL     OW33805   0.593   1.051   1.685  0.5941  0.4658  0.5282
 7390SOL    HW133806   0.523   1.010   1.634  1.7452  0.7237 -1.2605
 7390SOL    HW233807   0.661   0.984   1.685  0.4553  0.3235  0.5232
 7391SOL     OW33808   1.684   1.251   5.846 -0.5700 -0.4868 -0.5176
 7391SOL    HW133809   1.683   1.198   5.766 -2.0165  0.7776 -1.3601
 7391SOL    HW233810   1.778   1.251   5.863 -0.4770  1.0386 -1.0563
 7392SOL     OW33811   3.007   2.701   6.964  0.2011 -0.1458 -0.8385
 7392SOL    HW133812   3.045   2.783   6.934  2.7209 -0.9498  0.1328
 7392SOL    HW233813   3.008   2.715   7.059  1.3730  0.3569 -0.9285
 7393SOL     OW33814   2.256   3.791  17.458  0.1592  0.7376 -0.0928
 7393SOL    HW133815   2.232   3.853  17.390 -1.2693  0.7537  0.4337
 7393SOL    HW233816   2.177   3.736  17.458  0.6297  0.0472 -2.3254
 7394SOL     OW33817   1.387   2.623   8.598  0.3221 -0.4612 -0.0562
 7394SOL    HW133818   1.295   2.639   8.574  0.8419  2.7866  0.0819
 7394SOL    HW233819   1.398   2.536   8.560  0.4183  0.4796 -2.1752
 7395SOL     OW33820   3.213   4.422   5.238 -0.8236 -0.4979 -0.3422
 7395SOL    HW133821   3.193   4.478   5.163  0.1801 -1.3168 -1.2241
 7395SOL    HW233822   3.302   4.450   5.262 -0.6373 -1.8147  0.5462
 7396SOL     OW33823   3.268   3.556   5.163 -0.2424 -0.5064 -0.0461
 7396SOL    HW133824   3.228   3.575   5.248 -0.9381 -2.6552  0.1103
 7396SOL    HW233825   3.345   3.612   5.168  0.1009 -1.0200  0.2909
 7397SOL     OW33826   2.581   3.493   1.540  0.1697 -0.0651  0.3510
 7397SOL    HW133827   2.526   3.451   1.606 -1.4213 -1.2480 -1.7053
 7397SOL    HW233828   2.635   3.555   1.589 -0.8125  1.0774 -0.0038
 7398SOL     OW33829   1.880   0.762   2.096 -1.0281  0.4524 -0.2333
 7398SOL    HW133830   1.932   0.690   2.061 -2.4269 -0.3089 -0.7631
 7398SOL    HW233831   1.796   0.751   2.051 -2.2375  0.6303  1.9518
 7399SOL     OW33832   1.148   2.280   7.009 -0.2009  0.6215 -0.2550
 7399SOL    HW133833   1.059   2.245   7.016 -1.2003  2.8819 -1.3962
 7399SOL    HW233834   1.202   2.210   7.045  0.3890  0.5067 -1.3593
 7400SOL     OW33835   4.148   1.899   9.382 -0.2989 -0.0475  0.3404
 7400SOL    HW133836   4.122   1.864   9.297 -0.6020  1.8936 -0.3780
 7400SOL    HW233837   4.108   1.842   9.448 -0.5486 -1.7031 -1.2702
 7401SOL     OW33838   1.927   4.022   5.720 -0.0920 -0.1415 -0.5771
 7401SOL    HW133839   1.922   3.978   5.805 -0.1275 -1.9752 -1.5463
 7401SOL    HW233840   1.896   3.948   5.668 -0.2826  0.4732 -1.3386
 7402SOL     OW33841   0.064   2.811   3.164 -0.0080 -0.1275  0.4776
 7402SOL    HW133842   0.075   2.759   3.084 -0.3578 -0.6608  0.7823
 7402SOL    HW233843   0.018   2.749   3.219 -0.7265 -1.8720 -2.0946
 7403SOL     OW33844   4.541   3.492   1.386 -0.3193  0.3693 -0.3101
 7403SOL    HW133845   4.459   3.506   1.434 -0.4370  0.1961 -0.4596
 7403SOL    HW233846   4.604   3.513   1.455 -1.3831  0.4683  0.6271
 7404SOL     OW33847   3.907   3.017   9.219  0.6770  0.1088  0.1542
 7404SOL    HW133848   3.827   3.038   9.266  0.4504  0.0234 -0.1919
 7404SOL    HW233849   3.955   3.099   9.232  2.3025 -0.5224 -1.9564
 7405SOL     OW33850   4.476   2.912   1.806 -0.3032 -0.1821  0.3271
 7405SOL    HW133851   4.544   2.977   1.787 -3.3702  3.0399  0.5333
 7405SOL    HW233852   4.522   2.868   1.878  1.2706  0.6135 -0.1867
 7406SOL     OW33853   2.081   1.070   2.363  0.0713 -0.3124 -0.2569
 7406SOL    HW133854   2.004   1.061   2.308 -2.1767  1.7214  2.5171
 7406SOL    HW233855   2.119   1.155   2.339  0.9128  0.0371  2.2256
 7407SOL     OW33856   2.260   1.779   0.305 -0.2871 -0.1502 -0.2189
 7407SOL    HW133857   2.254   1.694   0.348  0.3687  0.5494  1.2425
 7407SOL    HW233858   2.225   1.839   0.371  2.1052  0.1148  0.8026
 7408SOL     OW33859   4.667   3.199   3.830  0.2303  0.0995 -0.0904
 7408SOL    HW133860   4.726   3.237   3.895  1.1300  0.1731 -0.9489
 7408SOL    HW233861   4.586   3.205   3.881  0.4547  1.3317  0.1238
 7409SOL     OW33862   3.958   3.829  13.522  0.2459 -0.8761 -0.6961
 7409SOL    HW133863   3.940   3.919  13.548  1.0915 -0.8305 -0.2925
 7409SOL    HW233864   3.881   3.791  13.565  0.8106 -2.5486 -1.1691
 7410SOL     OW33865   3.237   1.244   5.948  0.2191 -0.3502 -0.0852
 7410SOL    HW133866   3.230   1.324   5.896  2.1704 -0.0481  0.1222
 7410SOL    HW233867   3.163   1.203   5.903 -0.6435  0.5880  0.4723
 7411SOL     OW33868   0.949   0.840   9.225 -0.1417  0.6039 -0.0237
 7411SOL    HW133869   0.985   0.841   9.314 -0.4831  3.2844  0.1015
 7411SOL    HW233870   0.855   0.845   9.239 -0.3106  0.8993 -1.3404
 7412SOL     OW33871   0.867   4.687   5.631 -0.3850 -0.0024  0.1855
 7412SOL    HW133872   0.803   0.022   5.626 -0.3045 -0.0030 -0.8398
 7412SOL    HW233873   0.923   4.712   5.704  0.4656 -2.6732  0.4425
 7413SOL     OW33874   0.334   2.531   1.850  0.1015  0.4472  0.5120
 7413SOL    HW133875   0.382   2.554   1.929 -0.5274  2.7741  0.2109
 7413SOL    HW233876   0.380   2.451   1.825 -0.6678  1.2454 -3.4535
 7414SOL     OW33877   1.949   3.336  10.980 -0.6791  0.4169 -0.0302
 7414SOL    HW133878   1.920   3.426  10.960 -3.4231 -0.6091 -0.7516
 7414SOL    HW233879   1.868   3.286  10.973 -0.4057  0.1189 -0.9712
 7415SOL     OW33880   3.469   0.706   9.417  0.1778 -0.1368 -0.7295
 7415SOL    HW133881   3.380   0.681   9.445  0.4312  0.3879  0.5545
 7415SOL    HW233882   3.472   0.801   9.420 -1.1505 -0.0926 -0.6628
 7416SOL     OW33883   1.989   0.278   1.784  0.4267 -0.1082  0.5449
 7416SOL    HW133884   1.913   0.314   1.739 -1.3390 -2.6374  1.5606
 7416SOL    HW233885   1.967   0.313   1.871 -1.9254  0.6187 -0.3508
 7417SOL     OW33886   2.412   1.531   6.582 -0.0085  0.2191 -0.1353
 7417SOL    HW133887   2.437   1.593   6.650 -1.3290 -0.5123  0.9986
 7417SOL    HW233888   2.454   1.460   6.630 -2.6145 -0.0100  1.7949
 7418SOL     OW33889   0.035   0.349   2.300  0.2095 -0.0316 -0.1580
 7418SOL    HW133890   0.006   0.372   2.388 -1.4089 -1.5695 -0.2970
 7418SOL    HW233891   0.096   0.421   2.286  0.0024  0.2440  0.3638
 7419SOL     OW33892   0.651   1.231   0.822  0.3095  0.0091  0.5681
 7419SOL    HW133893   0.597   1.281   0.762  0.9717 -2.7924 -2.3469
 7419SOL    HW233894   0.643   1.280   0.904  0.7646  0.0708  0.5803
 7420SOL     OW33895   0.535   1.158   6.863  0.5492  0.2257 -0.7251
 7420SOL    HW133896   0.550   1.163   6.769 -0.4915  0.6389 -0.8754
 7420SOL    HW233897   0.586   1.081   6.887 -1.9469 -0.4697  2.4939
 7421SOL     OW33898   1.951   1.214   5.984  0.0569 -0.0785  0.2897
 7421SOL    HW133899   2.009   1.178   6.051  1.5125 -0.5226 -1.1948
 7421SOL    HW233900   1.982   1.305   5.982  1.0440 -0.4375 -1.2867
 7422SOL     OW33901   0.663   1.163   3.628 -0.2781 -0.0185 -0.2322
 7422SOL    HW133902   0.616   1.080   3.626  0.6697 -0.5004 -2.7085
 7422SOL    HW233903   0.588   1.214   3.598  0.1635  1.5308  1.3290
 7423SOL     OW33904   4.171   3.890   9.320 -0.9932  0.0662  0.2513
 7423SOL    HW133905   4.103   3.932   9.267  0.5075  0.5385 -1.2932
 7423SOL    HW233906   4.125   3.843   9.389 -1.1091  1.6859  1.2683
 7424SOL     OW33907   2.053   4.415  14.027  0.0693 -0.0104  0.2209
 7424SOL    HW133908   1.994   4.341  14.041  2.4543 -1.8439  0.5556
 7424SOL    HW233909   2.122   4.401  14.092 -0.8907 -2.5373  0.7043
 7425SOL     OW33910   3.416   1.649   6.610  0.0484 -1.0807 -0.4286
 7425SOL    HW133911   3.369   1.727   6.639  1.1959 -0.3350 -0.5696
 7425SOL    HW233912   3.504   1.649   6.647  0.5217  0.7102 -1.5820
 7426SOL     OW33913   1.219   0.921   4.188 -0.0009  0.4609 -0.0767
 7426SOL    HW133914   1.275   0.918   4.265 -0.5101 -0.6328  0.2621
 7426SOL    HW233915   1.176   0.836   4.201 -0.8823  1.3828  2.9540
 7427SOL     OW33916   1.911   3.614   0.662  0.1549  0.2282  0.5959
 7427SOL    HW133917   1.902   3.667   0.742 -1.3466  1.7905 -0.6075
 7427SOL    HW233918   1.876   3.530   0.691  0.0419 -0.4696 -1.5651
 7428SOL     OW33919   0.354   4.401   7.951  0.1239  0.3161 -0.6089
 7428SOL    HW133920   0.389   4.488   7.968 -2.9366  1.4034  0.0385
 7428SOL    HW233921   0.429   4.341   7.953 -0.0065  0.1948  1.0236
 7429SOL     OW33922   3.210   3.280   8.548  0.6187 -0.3415 -0.2616
 7429SOL    HW133923   3.196   3.358   8.600 -1.1721 -2.0160  1.7728
 7429SOL    HW233924   3.240   3.221   8.618 -1.5604 -1.5384 -0.3458
 7430SOL     OW33925   1.556   4.015   4.702 -0.2335 -0.1571 -0.0580
 7430SOL    HW133926   1.484   3.952   4.699 -1.6856  1.4807  0.9721
 7430SOL    HW233927   1.615   3.970   4.763  1.8437 -0.4835 -2.2802
 7431SOL     OW33928   1.281   3.428   4.197 -0.8175 -0.1102  0.3492
 7431SOL    HW133929   1.190   3.441   4.223 -0.5299 -0.5876  1.5506
 7431SOL    HW233930   1.296   3.337   4.220 -2.2182 -0.2287  0.7767
 7432SOL     OW33931   2.386   1.842   8.907 -0.2182 -0.0032  0.2838
 7432SOL    HW133932   2.373   1.754   8.944 -0.9935  1.5638  3.7578
 7432SOL    HW233933   2.293   1.864   8.898 -0.3746  0.1411  2.2772
 7433SOL     OW33934   3.212   4.643   3.048 -0.5802  0.3783  0.0116
 7433SOL    HW133935   3.190   4.661   2.957  0.5331  0.8209 -0.1731
 7433SOL    HW233936   3.206   4.548   3.049 -0.0129  0.3623  1.4800
 7434SOL     OW33937   2.637   1.425   0.366 -0.1797 -0.3102 -0.3787
 7434SOL    HW133938   2.623   1.502   0.420 -1.6376 -1.6606  1.2054
 7434SOL    HW233939   2.728   1.404   0.388 -0.3226 -0.8434 -0.2798
 7435SOL     OW33940   2.544   2.573   7.443 -0.2963  0.3203  0.5392
 7435SOL    HW133941   2.494   2.503   7.401 -0.3782  1.5288 -1.3646
 7435SOL    HW233942   2.475   2.630   7.476  1.7491  3.1383 -0.1162
 7436SOL     OW33943   3.778   1.246   7.359  0.0176 -0.0404 -0.0862
 7436SOL    HW133944   3.749   1.172   7.306 -1.4266  1.2065 -1.0523
 7436SOL    HW233945   3.862   1.227   7.401  0.6860  2.5967 -0.2061
 7437SOL     OW33946   2.172   3.288   1.200  0.2585 -0.1450 -0.0657
 7437SOL    HW133947   2.086   3.267   1.164  0.1898  0.1148 -0.0509
 7437SOL    HW233948   2.235   3.242   1.144 -0.2799  0.9761 -1.5797
 7438SOL     OW33949   2.176   4.554   9.873 -0.5526 -0.0313  0.2932
 7438SOL    HW133950   2.184   4.539   9.968  0.4336 -0.7104  0.1053
 7438SOL    HW233951   2.177   4.467   9.832 -1.2039 -0.2890  0.8047
 7439SOL     OW33952   2.600   2.638   1.752  0.0394  0.1811 -0.6946
 7439SOL    HW133953   2.670   2.670   1.695  0.1744  0.9868 -0.0738
 7439SOL    HW233954   2.524   2.674   1.706 -0.3146 -0.2794 -0.4687
 7440SOL     OW33955   1.558   3.563   8.698  0.5328 -0.3445  0.1093
 7440SOL    HW133956   1.605   3.557   8.781  1.1806 -3.0933 -0.4621
 7440SOL    HW233957   1.531   3.472   8.688  1.1434 -0.1966 -2.8209
 7441SOL     OW33958   4.219   0.765   5.676  0.1694 -0.3563 -0.1382
 7441SOL    HW133959   4.268   0.799   5.602 -0.5382  2.2773  0.6010
 7441SOL    HW233960   4.221   0.670   5.663  0.7393 -0.3467 -0.1385
 7442SOL     OW33961   4.344   0.606   8.277 -0.6325  0.2774  0.1492
 7442SOL    HW133962   4.292   0.619   8.198 -2.3942 -1.5451  1.0030
 7442SOL    HW233963   4.423   0.637   8.233  0.4298 -0.9969  1.1400
 7443SOL     OW33964   4.460   2.957   0.829 -0.5061  0.2072  0.1371
 7443SOL    HW133965   4.392   2.968   0.763 -1.4037 -1.3453  0.8150
 7443SOL    HW233966   4.451   3.041   0.875  1.5688 -0.5537  1.9733
 7444SOL     OW33967   4.189   4.535  12.839  0.4603 -0.0559  0.0499
 7444SOL    HW133968   4.206   4.583  12.919  0.1628 -0.7837  0.5526
 7444SOL    HW233969   4.273   4.495  12.814  0.7111 -1.4665  3.1163
 7445SOL     OW33970   0.676   0.024  11.037  0.0516 -0.6309 -0.4358
 7445SOL    HW133971   0.598   0.079  11.045  0.0319 -0.8663  0.9951
 7445SOL    HW233972   0.724   0.061  11.110 -0.0732 -1.1928 -0.0707
 7446SOL     OW33973   3.133   4.228  13.773  0.0710 -0.7212  0.0757
 7446SOL    HW133974   3.154   4.137  13.793 -0.0421 -0.5576  0.9254
 7446SOL    HW233975   3.212   4.267  13.809  0.0618 -0.3272 -0.3302
 7447SOL     OW33976   3.512   4.070   8.297 -0.3548 -0.2070  0.3849
 7447SOL    HW133977   3.585   4.008   8.298 -1.1855 -1.2033 -1.7016
 7447SOL    HW233978   3.481   4.066   8.207  2.2832  2.9053 -0.6476
 7448SOL     OW33979   3.897   0.745   2.842  1.0945 -0.2192  0.0849
 7448SOL    HW133980   3.895   0.832   2.881 -0.2629  0.6284 -1.9268
 7448SOL    HW233981   3.808   0.717   2.865  1.6580  0.0259  2.6264
 7449SOL     OW33982   4.168   2.989   3.489 -0.1854 -0.1960 -0.3256
 7449SOL    HW133983   4.144   3.049   3.559 -1.0482  1.5585 -2.1218
 7449SOL    HW233984   4.083   2.957   3.458 -1.0246  1.5615  0.1915
 7450SOL     OW33985   4.369   3.715  12.191  0.1135  0.4976 -0.2556
 7450SOL    HW133986   4.329   3.766  12.261  1.3141  1.4731 -0.2600
 7450SOL    HW233987   4.442   3.775  12.173  0.4947  0.0389 -0.2512
 7451SOL     OW33988   0.618   4.116   1.710 -0.3211 -0.6688 -0.3109
 7451SOL    HW133989   0.692   4.139   1.766  1.3110 -1.4262 -2.1425
 7451SOL    HW233990   0.619   4.020   1.710  1.3482 -0.6759 -2.8209
 7452SOL     OW33991   0.171   3.855   5.310  0.4452 -0.8682 -0.0513
 7452SOL    HW133992   0.251   3.893   5.345  0.8089 -1.4990 -0.2056
 7452SOL    HW233993   0.119   3.922   5.354  1.0450 -0.3738 -0.0995
 7453SOL     OW33994   2.877   0.579  12.425 -0.0596  0.1571 -0.0992
 7453SOL    HW133995   2.833   0.497  12.402 -1.0809  0.9488 -0.9572
 7453SOL    HW233996   2.964   0.543  12.446 -0.1453  0.5870  0.9862
 7454SOL     OW33997   3.978   0.814   7.628 -0.1795  0.1437  0.1332
 7454SOL    HW133998   4.054   0.812   7.571 -1.4163  0.6195 -1.5481
 7454SOL    HW233999   3.945   0.901   7.605 -2.9591 -0.9466 -0.1144
 7455SOL     OW34000   0.135   2.350  14.310 -0.3507  0.3502 -1.1853
 7455SOL    HW134001   0.209   2.377  14.254  1.6349 -1.5047  0.5536
 7455SOL    HW234002   0.145   2.424  14.370  1.7720  0.0572 -1.1825
 7456SOL     OW34003   2.419   0.767   8.944 -0.2668 -0.5026 -0.0469
 7456SOL    HW134004   2.398   0.684   8.987 -2.2292  1.0687  2.0633
 7456SOL    HW234005   2.397   0.827   9.015  1.0575  1.9464 -1.7292
 7457SOL     OW34006   4.372   2.817   3.562  0.3336 -0.4288 -0.4735
 7457SOL    HW134007   4.320   2.883   3.516 -1.8005 -1.4745  0.4105
 7457SOL    HW234008   4.319   2.738   3.573 -1.8068  1.1939  0.9363
 7458SOL     OW34009   0.657   0.397   4.162  0.2679  0.0055  0.2612
 7458SOL    HW134010   0.674   0.377   4.254  1.0274  2.3135  0.6230
 7458SOL    HW234011   0.567   0.366   4.154  0.4712 -0.9279  1.5786
 7459SOL     OW34012   3.708   2.674   9.034 -0.4872  0.3829 -0.2353
 7459SOL    HW134013   3.730   2.607   8.969 -0.6895  1.5766 -1.5436
 7459SOL    HW234014   3.620   2.646   9.058 -0.2661  0.8672  1.1196
 7460SOL     OW34015   3.816   3.083   3.883 -0.1916  0.0894 -0.2622
 7460SOL    HW134016   3.778   3.063   3.968 -1.0103  0.0054 -0.6513
 7460SOL    HW234017   3.910   3.074   3.901 -0.0152  0.6615 -0.8841
 7461SOL     OW34018   2.959   3.675   3.313 -0.3967  0.1874  0.6264
 7461SOL    HW134019   2.916   3.731   3.249 -0.1144  0.4036  0.6251
 7461SOL    HW234020   3.008   3.734   3.371  1.9292 -1.3927  0.2597
 7462SOL     OW34021   4.344   4.586   5.458 -0.0083  0.2585  0.3911
 7462SOL    HW134022   4.379   4.505   5.495  0.0469 -0.3686 -1.0519
 7462SOL    HW234023   4.413   4.647   5.485  1.5752 -1.5071  0.3308
 7463SOL     OW34024   4.527   3.598  16.701 -0.7436 -0.0647 -0.1554
 7463SOL    HW134025   4.572   3.682  16.703  0.7697 -0.8614 -0.5362
 7463SOL    HW234026   4.482   3.599  16.786  2.9800  0.2915  1.7971
 7464SOL     OW34027   0.474   2.596   1.123 -0.1782  0.0974 -0.1959
 7464SOL    HW134028   0.529   2.536   1.074  0.9183  0.5846  0.4413
 7464SOL    HW234029   0.421   2.529   1.166  1.8890 -0.8698  0.8241
 7465SOL     OW34030   3.226   0.801   7.406  0.1473  0.4491  0.6152
 7465SOL    HW134031   3.293   0.760   7.461 -1.7450 -0.0032  2.5582
 7465SOL    HW234032   3.161   0.796   7.477 -1.0137 -3.0229 -0.7070
 7466SOL     OW34033   4.213   2.923   1.635  0.6065  0.1731 -0.2277
 7466SOL    HW134034   4.276   2.978   1.589  1.4765 -0.5512  0.0882
 7466SOL    HW234035   4.260   2.878   1.705  0.0426  1.4553  0.9732
 7467SOL     OW34036   4.074   0.287   2.510  0.1144  0.0376  0.4307
 7467SOL    HW134037   3.998   0.283   2.452  0.2086 -2.0284  0.4317
 7467SOL    HW234038   4.092   0.381   2.508 -1.4747  0.3527  0.8832
 7468SOL     OW34039   0.157   1.733   6.665 -0.2553  0.2874  0.2955
 7468SOL    HW134040   0.196   1.726   6.577 -1.0299  0.5245 -0.0645
 7468SOL    HW234041   0.158   1.828   6.678 -0.6315  0.2337  0.7068
 7469SOL     OW34042   3.727   2.037   2.896  0.3435  0.3024 -0.3799
 7469SOL    HW134043   3.661   1.982   2.853 -0.5872  1.2517 -0.1859
 7469SOL    HW234044   3.775   2.073   2.822 -1.0677  0.3460 -1.2851
 7470SOL     OW34045   1.618   3.177   6.776  0.7221 -0.1870 -0.0295
 7470SOL    HW134046   1.638   3.092   6.737  1.8567 -1.2349  2.8207
 7470SOL    HW234047   1.582   3.141   6.857  0.9286  0.3459  0.2952
 7471SOL     OW34048   1.646   0.265  12.599 -0.1195  0.4601 -0.2491
 7471SOL    HW134049   1.640   0.235  12.690  0.8031 -0.5455 -0.5023
 7471SOL    HW234050   1.647   0.358  12.621 -1.8296 -0.1409  2.3501
 7472SOL     OW34051   1.427   2.929   6.863 -0.1272  0.1901 -0.2253
 7472SOL    HW134052   1.447   2.975   6.945 -2.1279 -0.7294  0.8079
 7472SOL    HW234053   1.453   2.840   6.887  1.3680  0.2600 -1.6310
 7473SOL     OW34054   0.285   4.611   5.011  0.2987 -0.6331 -0.2257
 7473SOL    HW134055   0.249   4.699   5.019  0.6042 -0.5702  0.4477
 7473SOL    HW234056   0.239   4.575   4.935  0.8964 -1.2214 -0.3122
 7474SOL     OW34057   0.811   0.547  10.424 -0.2181 -0.2473  0.3120
 7474SOL    HW134058   0.841   0.461  10.394 -1.2950 -0.5564  0.1265
 7474SOL    HW234059   0.859   0.599  10.360 -2.4878  1.1665 -0.2260
 7475SOL     OW34060   0.617   2.841   5.284  0.4133 -0.7533  0.0021
 7475SOL    HW134061   0.693   2.850   5.226  0.9902  1.1757  1.0689
 7475SOL    HW234062   0.620   2.927   5.326 -0.0324 -0.9201  0.3732
 7476SOL     OW34063   1.042   2.371   3.966  0.2568 -0.1242 -0.4642
 7476SOL    HW134064   1.003   2.457   3.949  1.1525  0.5388  0.8971
 7476SOL    HW234065   1.095   2.395   4.041 -1.4714  2.7033 -0.1452
 7477SOL     OW34066   1.864   0.660   7.323  0.3248  0.2495 -0.4049
 7477SOL    HW134067   1.878   0.744   7.280  1.2719  1.9288  3.1533
 7477SOL    HW234068   1.792   0.687   7.380 -0.6323 -3.4956  0.1679
 7478SOL     OW34069   0.332   0.525  16.215 -0.1201 -0.3368 -0.7262
 7478SOL    HW134070   0.361   0.440  16.245  0.7230  0.5341  0.9047
 7478SOL    HW234071   0.253   0.516  16.269  0.8578 -0.0973  0.7432
 7479SOL     OW34072   1.103   1.642   0.979  0.0740  0.1395 -0.5379
 7479SOL    HW134073   1.031   1.677   1.031  0.1765  2.3686 -1.8674
 7479SOL    HW234074   1.093   1.547   0.972 -0.9243  0.1234  1.2336
 7480SOL     OW34075   4.504   0.158   5.912  0.0168  0.0819 -0.1277
 7480SOL    HW134076   4.425   0.190   5.868 -0.3083 -0.5591 -0.0147
 7480SOL    HW234077   4.568   0.226   5.891 -0.2242 -0.0348 -1.2447
 7481SOL     OW34078   2.071   3.088   2.908 -0.3613  0.0887  1.0041
 7481SOL    HW134079   2.063   3.023   2.978  0.9423 -0.7781  0.3510
 7481SOL    HW234080   1.986   3.131   2.897  0.2811  1.1453  0.0948
 7482SOL     OW34081   3.294   4.581   4.527 -0.1191  0.1612  0.1160
 7482SOL    HW134082   3.335   4.494   4.526 -0.7933 -0.1491 -2.4803
 7482SOL    HW234083   3.341   4.624   4.598 -1.9415  1.6384  0.4057
 7483SOL     OW34084   2.445   3.621   1.800 -0.0225  0.2090 -0.1291
 7483SOL    HW134085   2.458   3.530   1.776 -0.9323  0.0373  0.0311
 7483SOL    HW234086   2.479   3.624   1.889  0.8399 -1.7820 -0.4022
 7484SOL     OW34087   3.784   0.143  13.563  0.0816 -0.3210  0.0524
 7484SOL    HW134088   3.868   0.103  13.582 -0.2625 -0.9822  0.1665
 7484SOL    HW234089   3.752   0.166  13.651  1.1967 -0.8072  0.5841
 7485SOL     OW34090   0.726   0.983  15.338  0.8746 -0.3412  0.4366
 7485SOL    HW134091   0.652   0.935  15.373  0.7613 -1.4868 -1.3953
 7485SOL    HW234092   0.713   1.071  15.373  1.1914 -0.8012  1.7370
 7486SOL     OW34093   4.120   1.854   5.619 -0.1520 -0.5667  0.1687
 7486SOL    HW134094   4.089   1.836   5.708 -0.7860  0.3238  0.1294
 7486SOL    HW234095   4.212   1.834   5.631 -0.1848  0.1404  1.5896
 7487SOL     OW34096   0.007   0.688   3.073  0.5864 -0.4327  0.3150
 7487SOL    HW134097   0.069   0.734   3.016  1.2394 -0.5722  0.9197
 7487SOL    HW234098   0.045   0.703   3.159 -0.5809 -1.3650  0.9948
 7488SOL     OW34099   3.468   2.404   8.469 -0.2796 -0.0057 -0.2064
 7488SOL    HW134100   3.373   2.399   8.459 -0.1811  1.1016 -1.6669
 7488SOL    HW234101   3.477   2.424   8.562 -1.0671 -0.0031 -0.1282
 7489SOL     OW34102   0.634   0.310   2.084 -0.2827  0.0446 -0.2014
 7489SOL    HW134103   0.695   0.273   2.149  1.4336  1.0055 -1.2546
 7489SOL    HW234104   0.579   0.365   2.140 -0.5273 -0.8462  0.4334
 7490SOL     OW34105   3.003   0.432  11.509  0.3278  0.2488  0.1005
 7490SOL    HW134106   2.988   0.350  11.556 -1.7083 -1.3504 -3.3014
 7490SOL    HW234107   2.941   0.485  11.559 -0.0521 -0.8855  0.8186
 7491SOL     OW34108   0.675   3.770   7.931 -0.0231 -0.5787  0.2755
 7491SOL    HW134109   0.616   3.839   7.960  1.9498  1.1744  0.1376
 7491SOL    HW234110   0.686   3.732   8.018  1.2962 -1.4198 -0.2597
 7492SOL     OW34111   2.202   2.802  17.004 -0.2326 -0.6099 -0.5777
 7492SOL    HW134112   2.150   2.766  16.932  0.3068  0.8065 -1.6863
 7492SOL    HW234113   2.233   2.883  16.962 -0.4215 -0.0385  0.3812
 7493SOL     OW34114   0.350   3.241  15.550  0.0078 -0.1737 -0.0238
 7493SOL    HW134115   0.288   3.176  15.516 -0.7319  2.1060 -2.9932
 7493SOL    HW234116   0.287   3.287  15.607 -0.6012 -0.9323 -0.0864
 7494SOL     OW34117   4.278   0.352   5.104  0.0520  0.9370  0.4695
 7494SOL    HW134118   4.239   0.344   5.017 -0.4060  0.6706  0.7034
 7494SOL    HW234119   4.371   0.345   5.084 -0.4319  1.6474 -2.0009
 7495SOL     OW34120   3.298   3.777   6.843 -0.1059 -0.4390  0.3289
 7495SOL    HW134121   3.368   3.765   6.907 -0.8057  1.8316  1.5004
 7495SOL    HW234122   3.306   3.871   6.829  0.7695 -0.2150  2.4283
 7496SOL     OW34123   3.242   1.923   3.466  0.2220 -0.1978  0.4892
 7496SOL    HW134124   3.269   1.930   3.375 -1.2155  1.1709  0.1770
 7496SOL    HW234125   3.199   1.839   3.479 -1.0982  0.3760 -0.1601
 7497SOL     OW34126   1.811   2.409   2.112  0.4423 -0.0094  0.4048
 7497SOL    HW134127   1.866   2.368   2.179  0.8940 -0.6900 -0.3812
 7497SOL    HW234128   1.850   2.497   2.116 -0.9679  0.4946  2.7000
 7498SOL     OW34129   4.725   2.738  16.493  0.3028 -0.0501 -0.3028
 7498SOL    HW134130   0.029   2.784  16.566  0.8009 -0.2445 -0.4602
 7498SOL    HW234131   4.635   2.742  16.525  0.8962  0.6022  1.2937
 7499SOL     OW34132   2.778   3.046   7.121  0.4679  0.3742 -0.1992
 7499SOL    HW134133   2.808   3.074   7.207 -0.4989  0.0116  0.2592
 7499SOL    HW234134   2.786   3.135   7.086 -0.3420  0.9314  1.0458
 7500SOL     OW34135   3.634   3.674   6.828 -0.1266  0.0477 -0.1315
 7500SOL    HW134136   3.599   3.749   6.778  0.4523 -1.6153 -3.0286
 7500SOL    HW234137   3.720   3.653   6.792  0.2806  0.3628  0.6542
 7501SOL     OW34138   1.147   3.119   9.103 -0.8562  0.0898 -0.4472
 7501SOL    HW134139   1.091   3.048   9.135  0.0232 -0.8744 -1.0723
 7501SOL    HW234140   1.095   3.158   9.033  1.5201  4.1891  0.0670
 7502SOL     OW34141   2.880   2.798  10.188  0.6234  0.1605 -0.3422
 7502SOL    HW134142   2.846   2.797  10.278 -1.9539 -1.7360 -1.3443
 7502SOL    HW234143   2.939   2.723  10.186  0.6936  0.2221 -0.5914
 7503SOL     OW34144   0.859   1.225   0.641 -0.1744 -0.2165 -0.7481
 7503SOL    HW134145   0.861   1.320   0.634  0.9604 -0.1084  0.9159
 7503SOL    HW234146   0.785   1.213   0.700  0.0139  0.2803 -0.4086
 7504SOL     OW34147   2.418   0.683  10.567  0.0682  0.0147 -0.1248
 7504SOL    HW134148   2.374   0.727  10.494 -0.0136 -2.3714 -1.5089
 7504SOL    HW234149   2.465   0.742  10.625 -0.5485 -0.3551  0.7615
 7505SOL     OW34150   2.476   0.809   5.749  0.9743 -0.6271  0.0058
 7505SOL    HW134151   2.510   0.891   5.714 -1.6096  1.3004  2.0089
 7505SOL    HW234152   2.451   0.766   5.667 -2.2255  2.2141 -0.4867
 7506SOL     OW34153   0.112   1.215   6.308 -0.4407  0.5614 -0.1181
 7506SOL    HW134154   0.068   1.177   6.232 -1.5128  1.3045  0.1320
 7506SOL    HW234155   0.040   1.272   6.336 -1.2905 -0.0999 -0.9641
 7507SOL     OW34156   1.443   3.569   9.699  0.4398 -0.3702 -0.1963
 7507SOL    HW134157   1.497   3.607   9.630 -1.5646  1.9974 -0.4418
 7507SOL    HW234158   1.429   3.640   9.762 -0.1253 -1.5696  1.0423
 7508SOL     OW34159   3.471   3.809   5.975 -0.0196 -0.2192  0.6212
 7508SOL    HW134160   3.412   3.804   5.900  1.2881 -2.7116 -0.2511
 7508SOL    HW234161   3.411   3.785   6.046 -2.1013  2.9680 -0.0912
 7509SOL     OW34162   1.222   4.722   9.521 -0.3464 -0.1408 -0.5179
 7509SOL    HW134163   1.206   4.727   9.426 -2.8631 -0.3635 -0.1119
 7509SOL    HW234164   1.168   0.059   9.548  0.1789  0.1779 -0.3396
 7510SOL     OW34165   4.338   1.814   3.768 -0.0444  0.1486 -0.4238
 7510SOL    HW134166   4.305   1.903   3.783 -0.5724 -0.6393  3.0824
 7510SOL    HW234167   4.348   1.810   3.673  0.8062  2.1101 -0.4197
 7511SOL     OW34168   2.279   4.075   1.866  0.4018  0.2823  0.0687
 7511SOL    HW134169   2.191   4.042   1.885 -0.3398  0.8560 -2.4101
 7511SOL    HW234170   2.269   4.170   1.866 -1.6184  0.0729  0.9421
 7512SOL     OW34171   2.456   0.715   4.481  0.0607 -0.6009  0.4271
 7512SOL    HW134172   2.434   0.730   4.573  0.4213 -1.7638  0.6984
 7512SOL    HW234173   2.433   0.798   4.439  0.7324 -0.0908  1.0505
 7513SOL     OW34174   0.269   4.073   3.761  1.1771 -0.0418 -0.1350
 7513SOL    HW134175   0.288   4.129   3.686 -0.2390 -0.1737 -0.6112
 7513SOL    HW234176   0.315   4.126   3.825 -0.8544 -0.3238  1.5816
 7514SOL     OW34177   1.929   2.283   2.305  0.3979 -0.1859 -0.2933
 7514SOL    HW134178   1.944   2.306   2.397 -1.6625  0.0598 -0.0200
 7514SOL    HW234179   2.012   2.301   2.260 -1.4713  0.2503 -3.5536
 7515SOL     OW34180   2.970   2.765   9.716  0.1927  0.5368  0.3310
 7515SOL    HW134181   3.014   2.700   9.660 -1.4166  0.5964 -0.9936
 7515SOL    HW234182   2.950   2.713   9.793  0.0969 -1.0650 -0.7737
 7516SOL     OW34183   2.116   0.544   3.787 -0.1171  0.2984  0.0145
 7516SOL    HW134184   2.076   0.509   3.867  0.3749 -1.1209 -0.3595
 7516SOL    HW234185   2.121   0.635   3.815 -0.0134  0.4619 -0.5436
 7517SOL     OW34186   4.531   0.346   3.750 -0.1828  0.1402  0.1239
 7517SOL    HW134187   4.592   0.320   3.680 -0.3069  0.6716 -0.1809
 7517SOL    HW234188   4.475   0.270   3.765  0.6877 -1.3227 -3.9694
 7518SOL     OW34189   4.550   2.534  17.051 -0.2340 -0.5536  0.4218
 7518SOL    HW134190   4.618   2.599  17.069 -0.1516 -0.0231 -1.7775
 7518SOL    HW234191   4.513   2.566  16.969 -0.1838 -1.9455 -0.1435
 7519SOL     OW34192   0.869   4.151   1.833  0.2418 -0.4081 -0.1482
 7519SOL    HW134193   0.896   4.145   1.925  0.1690  2.7253  0.0709
 7519SOL    HW234194   0.912   4.235   1.817 -1.0188  0.4008  0.7154
 7520SOL     OW34195   0.281   2.731   0.408  0.4711  0.1113 -0.2404
 7520SOL    HW134196   0.376   2.738   0.408  0.4796 -0.0290 -1.3556
 7520SOL    HW234197   0.254   2.767   0.493 -0.0580  0.5060 -0.5734
 7521SOL     OW34198   0.013   4.729  16.054 -0.1891 -0.4456  0.3327
 7521SOL    HW134199   4.726   0.081  16.029  0.1082 -0.3701  0.3191
 7521SOL    HW234200   0.109   4.724  16.044 -0.2540 -1.3845  0.1549
 7522SOL     OW34201   3.751   2.557  12.937 -0.0809 -0.0234  0.3811
 7522SOL    HW134202   3.837   2.548  12.896 -0.5327  1.1731 -0.8159
 7522SOL    HW234203   3.733   2.476  12.985 -1.7379  0.5466  0.7127
 7523SOL     OW34204   2.222   0.098   8.070  0.0003 -0.3912 -0.3401
 7523SOL    HW134205   2.139   0.132   8.102 -1.0579 -1.1092 -2.3447
 7523SOL    HW234206   2.200   0.087   7.978 -1.6894  0.1710  0.0002
 7524SOL     OW34207   4.526   3.800   1.584 -0.2913  0.2888 -0.5861
 7524SOL    HW134208   4.580   3.764   1.514  0.4815  0.8368 -0.2727
 7524SOL    HW234209   4.491   3.878   1.541 -2.2686  0.6340  1.6056
 7525SOL     OW34210   1.313   2.598   7.780 -0.1155  0.0070 -0.3187
 7525SOL    HW134211   1.324   2.604   7.875 -0.1421  0.7968 -0.3688
 7525SOL    HW234212   1.227   2.559   7.769  0.0072 -0.2320 -0.4361
 7526SOL     OW34213   1.169   2.767   8.008  0.6236 -0.5305  0.1105
 7526SOL    HW134214   1.074   2.772   8.018  0.5591 -0.1932 -0.7530
 7526SOL    HW234215   1.205   2.834   8.067  2.3286  0.3815 -1.9924
 7527SOL     OW34216   4.035   3.821  13.232 -0.1078 -0.4374  0.5041
 7527SOL    HW134217   4.038   3.806  13.327 -0.8777 -0.4061  0.5344
 7527SOL    HW234218   3.998   3.909  13.239 -0.0120 -0.1616 -2.5706
 7528SOL     OW34219   2.159   1.605   7.298 -0.2846 -0.1841 -0.4631
 7528SOL    HW134220   2.073   1.566   7.308  0.2475 -0.6318  2.4519
 7528SOL    HW234221   2.136   1.684   7.249  0.8718  1.1281  1.0966
 7529SOL     OW34222   1.430   0.013   6.748 -0.8344  0.3174  0.5097
 7529SOL    HW134223   1.419   0.050   6.660  1.0201 -0.1943  0.0702
 7529SOL    HW234224   1.450   0.097   6.790 -0.4336  0.4683  0.0186
 7530SOL     OW34225   1.633   1.698   7.213 -0.2120 -0.2923  0.0679
 7530SOL    HW134226   1.573   1.688   7.288  0.7183 -2.1632  0.5614
 7530SOL    HW234227   1.581   1.661   7.142  0.7604  1.1387 -1.3876
 7531SOL     OW34228   0.962   4.532  14.412 -0.1788 -0.5352  0.1550
 7531SOL    HW134229   1.043   4.584  14.413 -1.5151  1.5690  0.1396
 7531SOL    HW234230   0.906   4.593  14.459 -0.3663 -0.6190  0.0404
 7532SOL     OW34231   1.210   3.942   6.633  0.3514 -0.3774 -0.6633
 7532SOL    HW134232   1.147   3.966   6.702  2.2877 -0.6682  1.2215
 7532SOL    HW234233   1.284   3.974   6.684  0.0983 -0.3545 -0.3055
 7533SOL     OW34234   3.684   3.042   2.046 -0.0322  0.1057 -0.0824
 7533SOL    HW134235   3.640   3.082   1.971 -0.6561 -1.4272 -0.5320
 7533SOL    HW234236   3.612   3.043   2.108 -0.4714  2.7236 -0.6382
 7534SOL     OW34237   2.399   3.138   7.131  0.1162 -0.1152  0.2032
 7534SOL    HW134238   2.420   3.217   7.181 -1.4346  0.7047 -0.4334
 7534SOL    HW234239   2.373   3.081   7.203 -0.6852  1.4104  1.1160
 7535SOL     OW34240   3.452   2.223  10.484  0.2522 -0.2465 -0.0589
 7535SOL    HW134241   3.394   2.258  10.417  1.0692 -2.9074 -2.1734
 7535SOL    HW234242   3.465   2.131  10.459  0.0607  0.2817 -2.0765
 7536SOL     OW34243   2.453   4.621   1.133  0.5094 -0.5655  0.2969
 7536SOL    HW134244   2.492   4.558   1.072  0.0664 -0.8834  0.3417
 7536SOL    HW234245   2.505   4.597   1.210 -0.4860 -0.5234  0.9858
 7537SOL     OW34246   0.106   2.120   8.879  0.1833  0.1672 -0.6237
 7537SOL    HW134247   0.020   2.080   8.866  0.1022 -0.5450  2.0329
 7537SOL    HW234248   0.101   2.170   8.960 -1.4855  0.2859 -0.7974
 7538SOL     OW34249   1.609   3.732  11.640 -0.1572  0.5225  0.2485
 7538SOL    HW134250   1.666   3.682  11.698  0.4418  1.7118  0.6971
 7538SOL    HW234251   1.680   3.794  11.622  0.4592  0.0578  1.0898
 7539SOL     OW34252   3.514   2.657   5.244  0.3239 -0.0729 -0.0829
 7539SOL    HW134253   3.590   2.619   5.200 -0.5255 -1.1630 -0.6392
 7539SOL    HW234254   3.545   2.662   5.334 -1.7363 -1.1363  0.6925
 7540SOL     OW34255   3.846   1.332   4.181 -0.1005 -0.1570 -0.4054
 7540SOL    HW134256   3.907   1.394   4.144 -1.3411  1.0892 -0.3625
 7540SOL    HW234257   3.804   1.310   4.098 -1.0232  0.8349 -0.1984
 7541SOL     OW34258   4.471   2.233   0.240  0.0645  0.2748 -0.4914
 7541SOL    HW134259   4.525   2.180   0.181  0.6169  0.3307 -0.0407
 7541SOL    HW234260   4.534   2.258   0.308 -0.0187 -1.1046  0.0833
 7542SOL     OW34261   1.634   4.617  17.198 -0.5189 -0.0375  0.3326
 7542SOL    HW134262   1.681   4.536  17.177 -1.4248 -0.2937 -0.7556
 7542SOL    HW234263   1.647   4.618  17.292  0.8422  1.3485  0.1074
 7543SOL     OW34264   4.173   3.887   9.749  0.4945  0.5530  0.2697
 7543SOL    HW134265   4.258   3.880   9.792  0.8840  0.9510 -0.4445
 7543SOL    HW234266   4.159   3.982   9.748 -0.9797  0.3449  0.5202
 7544SOL     OW34267   0.862   2.047   5.391 -0.0923  0.1438  0.7872
 7544SOL    HW134268   0.956   2.043   5.372  0.0541  2.8827  0.9939
 7544SOL    HW234269   0.818   2.011   5.314 -0.5445  1.2711  0.5218
 7545SOL     OW34270   0.550   0.425   5.314 -0.5275  0.2981 -0.5543
 7545SOL    HW134271   0.611   0.485   5.273  0.5289  1.0434  2.0752
 7545SOL    HW234272   0.582   0.438   5.404  1.5231 -1.0485 -1.1037
 7546SOL     OW34273   4.080   2.167  10.822  0.3952 -0.1314 -0.3046
 7546SOL    HW134274   4.039   2.188  10.738  1.7022 -0.0558 -0.9210
 7546SOL    HW234275   4.126   2.250  10.833  0.6512 -0.1061 -1.6166
 7547SOL     OW34276   0.187   1.192  11.206 -0.6054 -0.6515 -0.1322
 7547SOL    HW134277   0.184   1.128  11.135 -0.3077 -0.1596 -0.5810
 7547SOL    HW234278   0.184   1.138  11.286  1.0508 -2.6300 -1.4392
 7548SOL     OW34279   4.730   1.919   9.104 -0.1037 -0.5691 -0.1434
 7548SOL    HW134280   4.679   1.997   9.128  2.3771  1.6085 -2.0766
 7548SOL    HW234281   4.669   1.873   9.047  0.1014  1.7138 -2.1975
 7549SOL     OW34282   1.967   0.671  12.380  0.4072  0.8563 -0.3191
 7549SOL    HW134283   1.901   0.733  12.411 -0.0508  1.5345 -2.6279
 7549SOL    HW234284   2.050   0.712  12.401 -0.8615  2.8091  0.9387
 7550SOL     OW34285   1.583   4.466  16.863  0.5928  0.1470  0.5791
 7550SOL    HW134286   1.575   4.371  16.852 -0.9566  0.1845  1.4309
 7550SOL    HW234287   1.525   4.472  16.939 -1.0704 -1.4923 -0.5761
 7551SOL     OW34288   0.481   1.765   2.144  0.2650  0.2120 -0.7988
 7551SOL    HW134289   0.432   1.757   2.226  1.7407 -0.1514  0.0350
 7551SOL    HW234290   0.456   1.852   2.113  0.1522  0.9143  1.2644
 7552SOL     OW34291   2.383   2.115   0.954  0.0963  0.3246 -0.2784
 7552SOL    HW134292   2.326   2.150   0.886  0.6192 -0.5485 -1.1722
 7552SOL    HW234293   2.375   2.189   1.014  0.2418  0.0694  0.0583
 7553SOL     OW34294   0.671   2.705   0.819  0.1482  0.0955  0.2229
 7553SOL    HW134295   0.695   2.795   0.842  0.3165  0.4700 -1.4202
 7553SOL    HW234296   0.628   2.710   0.734  0.2021 -0.4232  0.1701
 7554SOL     OW34297   1.265   2.009   0.689  0.1433 -0.3510 -0.0444
 7554SOL    HW134298   1.189   1.952   0.695 -2.2209  2.7841 -0.4660
 7554SOL    HW234299   1.277   2.017   0.594 -1.2819 -0.7570 -0.2489
 7555SOL     OW34300   0.657   0.575   3.945 -0.4049  0.2001  0.5752
 7555SOL    HW134301   0.692   0.499   3.899  1.1988  2.5766 -2.1515
 7555SOL    HW234302   0.640   0.533   4.029 -2.8062  0.6320  0.3056
 7556SOL     OW34303   1.814   4.091  16.872 -0.0931  0.3256 -0.1405
 7556SOL    HW134304   1.744   4.151  16.850 -0.7914 -1.7531 -3.6313
 7556SOL    HW234305   1.860   4.141  16.940 -0.6702  0.5328  0.0901
 7557SOL     OW34306   0.119   3.741  13.761  0.1851 -0.2993  0.1678
 7557SOL    HW134307   0.123   3.793  13.680 -0.7953 -0.8256 -0.2036
 7557SOL    HW234308   0.035   3.697  13.765 -1.2111  2.3624  0.1026
 7558SOL     OW34309   3.576   0.886   7.790  0.5214  0.1488  0.0726
 7558SOL    HW134310   3.507   0.849   7.845  1.6565 -0.2682  1.2124
 7558SOL    HW234311   3.614   0.802   7.763 -1.1824 -0.1049 -1.6024
 7559SOL     OW34312   2.894   0.962   2.702 -0.3474 -0.2408  0.0050
 7559SOL    HW134313   2.974   0.999   2.739  0.2996 -0.6454 -0.9736
 7559SOL    HW234314   2.883   0.895   2.769  2.0105 -0.6517 -0.0067
 7560SOL     OW34315   3.975   2.175   8.357 -0.3230  0.3095  0.5769
 7560SOL    HW134316   3.908   2.145   8.418  0.2201 -1.6398  0.2198
 7560SOL    HW234317   3.915   2.203   8.289 -0.2898 -0.1801  0.3471
 7561SOL     OW34318   3.576   1.426   6.772 -0.3215 -0.6193 -0.1769
 7561SOL    HW134319   3.490   1.388   6.791 -0.7676  0.2521 -0.4514
 7561SOL    HW234320   3.589   1.500   6.830 -1.1693 -0.5095 -0.1279
 7562SOL     OW34321   0.054   0.968   2.061 -0.2592 -0.5145 -0.7597
 7562SOL    HW134322   4.698   0.960   2.083 -0.0910 -0.2551  0.0494
 7562SOL    HW234323   0.057   1.052   2.015  0.9042  1.0673  2.2163
 7563SOL     OW34324   1.180   4.649   8.948 -0.3235 -0.2762 -0.4753
 7563SOL    HW134325   1.262   4.699   8.946 -0.5825  0.1344 -0.8864
 7563SOL    HW234326   1.190   4.562   8.909  0.9092 -0.2604 -0.1865
 7564SOL     OW34327   4.278   0.971   7.895  0.0261  0.6999 -0.2036
 7564SOL    HW134328   4.207   0.906   7.899  3.7828 -3.3804  0.3135
 7564SOL    HW234329   4.259   1.021   7.815  1.0148  3.2290  1.1556
 7565SOL     OW34330   3.857   1.328   7.789 -0.0843 -0.1477 -0.3670
 7565SOL    HW134331   3.775   1.361   7.751 -0.3604 -0.1511  0.2285
 7565SOL    HW234332   3.903   1.408   7.813  0.2836 -0.8167  1.1649
 7566SOL     OW34333   4.296   1.179  14.771 -0.0751 -0.0891  0.2342
 7566SOL    HW134334   4.247   1.216  14.845  2.2416  1.8314  0.8349
 7566SOL    HW234335   4.284   1.244  14.702  0.3631 -2.5310 -2.1063
 7567SOL     OW34336   2.681   2.590   7.893  0.0362 -0.2026 -0.2561
 7567SOL    HW134337   2.767   2.627   7.870  0.4312 -1.9400 -1.6777
 7567SOL    HW234338   2.670   2.617   7.984 -0.0739  0.6727 -0.5339
 7568SOL     OW34339   0.833   4.538   7.204 -0.1310 -0.2458 -0.2004
 7568SOL    HW134340   0.823   4.451   7.165 -0.5505  0.0422 -0.7282
 7568SOL    HW234341   0.919   4.528   7.245 -1.1234 -0.0167  1.9796
 7569SOL     OW34342   2.793   3.755   3.941  0.1122  0.3654  0.3711
 7569SOL    HW134343   2.774   3.672   3.984 -4.0767  1.1320 -0.0609
 7569SOL    HW234344   2.871   3.732   3.890 -1.5721  0.6605 -2.3491
 7570SOL     OW34345   4.680   1.606   2.175  0.2003  0.5597 -0.2914
 7570SOL    HW134346   4.596   1.649   2.162  1.3009  1.8455 -2.9779
 7570SOL    HW234347   4.702   1.595   2.083 -2.3511  0.2528 -0.8618
 7571SOL     OW34348   4.624   3.529   7.544 -0.3752  0.2635 -0.3737
 7571SOL    HW134349   4.716   3.519   7.519  0.5590  1.3893  2.6320
 7571SOL    HW234350   4.599   3.601   7.486 -2.1468 -0.2627 -0.2523
 7572SOL     OW34351   0.275   2.279   3.374 -0.2467  0.2739  0.0454
 7572SOL    HW134352   0.231   2.279   3.459 -1.3536 -0.0601 -0.5276
 7572SOL    HW234353   0.249   2.190   3.351  1.1450  0.6212 -2.7703
 7573SOL     OW34354   0.169   2.920   7.966  0.0284  0.4909 -0.1131
 7573SOL    HW134355   0.120   2.968   8.033 -1.8011  0.2391 -1.2434
 7573SOL    HW234356   0.256   2.907   8.002 -0.5913 -0.2878  1.1046
 7574SOL     OW34357   4.189   3.817  12.373  0.7959  0.4137  0.0060
 7574SOL    HW134358   4.156   3.873  12.444 -0.3637 -1.4070  0.9049
 7574SOL    HW234359   4.112   3.766  12.347 -0.9666  3.3158 -0.4382
 7575SOL     OW34360   3.644   3.600   4.603  0.0186  0.8872 -0.0405
 7575SOL    HW134361   3.636   3.534   4.535  2.3358  1.6238 -1.0575
 7575SOL    HW234362   3.738   3.619   4.596 -0.3098  3.0810  1.4531
 7576SOL     OW34363   0.611   3.070   4.264 -0.2004 -0.5379  0.1151
 7576SOL    HW134364   0.547   3.129   4.225  1.1381 -0.4834 -1.9827
 7576SOL    HW234365   0.615   3.107   4.352  1.1398 -0.1747 -0.0912
 7577SOL     OW34366   3.568   0.041   8.709  0.2472 -0.0217 -0.3130
 7577SOL    HW134367   3.537   4.688   8.698 -1.4615  0.5163  0.0943
 7577SOL    HW234368   3.558   0.071   8.619 -0.9950  1.4664  0.2974
 7578SOL     OW34369   0.648   3.452   2.138 -0.0388  0.5922  0.4413
 7578SOL    HW134370   0.578   3.450   2.073  0.3837 -2.1995  0.0563
 7578SOL    HW234371   0.599   3.458   2.220 -0.0643  1.7752  0.3412
 7579SOL     OW34372   4.300   1.202   9.476  0.0890  0.2951 -0.1545
 7579SOL    HW134373   4.381   1.205   9.528 -0.1631 -2.4164  0.4026
 7579SOL    HW234374   4.330   1.202   9.385 -1.5617 -0.1385 -0.6962
 7580SOL     OW34375   4.547   2.802   1.562 -0.1269  0.2793  0.1799
 7580SOL    HW134376   4.558   2.709   1.579 -0.0383  0.4645  1.1462
 7580SOL    HW234377   4.547   2.839   1.650  0.3447 -1.3551  0.8641
 7581SOL     OW34378   1.654   1.539   8.627  0.1255  0.5422  0.5358
 7581SOL    HW134379   1.651   1.493   8.543  2.7352 -1.7220  1.6821
 7581SOL    HW234380   1.586   1.494   8.678 -0.2926  0.4464 -0.1050
 7582SOL     OW34381   3.041   1.158  12.462 -0.1540  0.2448  0.3399
 7582SOL    HW134382   2.994   1.100  12.402 -0.5699  0.4822  0.4324
 7582SOL    HW234383   3.017   1.245  12.431 -1.3578 -0.3258 -0.3086
 7583SOL     OW34384   0.105   4.333  13.039  0.2540  0.6637  0.5350
 7583SOL    HW134385   0.142   4.419  13.055  1.2939  0.8271 -2.7976
 7583SOL    HW234386   0.183   4.278  13.039 -0.3651 -0.2252  1.4574
 7584SOL     OW34387   0.404   0.714   8.975  0.1060  0.2283  0.1113
 7584SOL    HW134388   0.322   0.674   9.004  0.2040 -1.0080 -1.3323
 7584SOL    HW234389   0.449   0.629   8.975 -1.5438 -0.6294  0.2179
 7585SOL     OW34390   4.043   4.289   5.287  0.4237  0.1299  0.1688
 7585SOL    HW134391   4.022   4.382   5.285 -0.0053 -0.0123 -3.5124
 7585SOL    HW234392   4.071   4.276   5.377  0.4720 -1.2411 -0.0369
 7586SOL     OW34393   1.286   4.727   3.274  0.6230  0.4811 -0.6886
 7586SOL    HW134394   1.350   0.002   3.204  2.4094  2.6315  1.2940
 7586SOL    HW234395   1.308   4.639   3.305 -0.5709  0.6760  0.6802
 7587SOL     OW34396   2.543   1.731   2.270  0.3041  0.3257  0.3314
 7587SOL    HW134397   2.620   1.770   2.312  1.2363 -0.6556 -0.4930
 7587SOL    HW234398   2.474   1.768   2.326 -0.2356  2.5075 -1.7561
 7588SOL     OW34399   1.532   4.056   7.629 -0.7103  0.3841  0.0368
 7588SOL    HW134400   1.522   4.023   7.539 -1.3055  0.2987  0.1323
 7588SOL    HW234401   1.539   4.149   7.609  0.9938  0.2697  0.0822
 7589SOL     OW34402   0.342   1.560   9.820  0.4501  0.0569  0.3515
 7589SOL    HW134403   0.361   1.521   9.905  1.0028  0.1315  0.2624
 7589SOL    HW234404   0.425   1.535   9.779 -0.5469 -2.1482 -0.3509
 7590SOL     OW34405   3.948   0.070   8.234  0.1376  0.5082  0.6119
 7590SOL    HW134406   4.007   0.142   8.211  0.2725  1.3014  3.4445
 7590SOL    HW234407   4.008   0.009   8.276 -0.6108 -1.6671 -1.5141
 7591SOL     OW34408   3.634   0.849  13.437  0.1306 -0.1049  0.4028
 7591SOL    HW134409   3.605   0.769  13.392 -0.2200  0.2114  0.0687
 7591SOL    HW234410   3.729   0.841  13.433 -0.1054 -2.5156 -0.3280
 7592SOL     OW34411   2.847   4.647   8.075 -0.4130  0.2386  0.0145
 7592SOL    HW134412   2.797   4.599   8.009  1.9037 -1.0354 -0.8084
 7592SOL    HW234413   2.766   4.691   8.102  0.4698  1.9618 -0.1268
 7593SOL     OW34414   1.874   0.193   1.395  0.6231 -0.5552  0.3721
 7593SOL    HW134415   1.964   0.164   1.409  0.9810  1.1036  1.5554
 7593SOL    HW234416   1.858   0.177   1.302  2.4099 -1.3516  0.1862
 7594SOL     OW34417   2.634   0.880   3.061 -0.3171 -0.1385  0.0275
 7594SOL    HW134418   2.623   0.849   2.971  1.7679  1.7594 -0.8577
 7594SOL    HW234419   2.546   0.863   3.093 -0.6695  0.4230 -0.6393
 7595SOL     OW34420   3.825   0.488   7.846 -0.4030 -0.6748 -0.2373
 7595SOL    HW134421   3.748   0.438   7.873  0.8676 -2.4847 -0.0169
 7595SOL    HW234422   3.851   0.513   7.935  1.7476 -1.3028 -0.6963
 7596SOL     OW34423   3.815   1.468  11.884  0.1282  0.2296 -0.3649
 7596SOL    HW134424   3.879   1.433  11.945  0.4333 -0.7370 -1.2397
 7596SOL    HW234425   3.861   1.469  11.800 -0.9159 -1.0971 -0.9627
 7597SOL     OW34426   3.936   1.106  10.749 -0.5150 -0.1346  0.0809
 7597SOL    HW134427   4.006   1.040  10.753 -0.7654 -0.4538 -0.6674
 7597SOL    HW234428   3.926   1.118  10.654  3.3381 -0.6010 -0.3659
 7598SOL     OW34429   3.632   0.233   6.272 -0.2680  0.3950  0.3814
 7598SOL    HW134430   3.579   0.311   6.286 -1.1353 -0.0011 -0.6981
 7598SOL    HW234431   3.717   0.265   6.241  0.0043 -1.6308 -1.0010
 7599SOL     OW34432   3.981   4.625   6.162 -0.0296  0.4934  0.2624
 7599SOL    HW134433   3.970   4.547   6.109  3.3409  0.4529 -0.3903
 7599SOL    HW234434   3.899   4.627   6.210 -0.4531 -0.7118 -0.4232
 7600SOL     OW34435   1.869   1.284   1.674 -0.1070 -0.1927  0.6210
 7600SOL    HW134436   1.871   1.377   1.695 -1.4079  0.3958 -1.8679
 7600SOL    HW234437   1.844   1.274   1.582 -1.0280 -2.0755  1.0749
 7601SOL     OW34438   4.210   1.665   7.598  0.0947  0.1467  0.0918
 7601SOL    HW134439   4.228   1.759   7.595 -1.3901  0.3986 -0.4190
 7601SOL    HW234440   4.219   1.651   7.693  1.8435  0.0529 -0.0875
 7602SOL     OW34441   2.831   3.552   4.839 -0.4197  0.5608  0.3507
 7602SOL    HW134442   2.898   3.484   4.850 -0.7030  0.4109  1.2088
 7602SOL    HW234443   2.818   3.575   4.931 -1.6844 -2.0560  0.8180
 7603SOL     OW34444   4.156   0.812   4.520  0.0787  0.3618  0.2606
 7603SOL    HW134445   4.173   0.903   4.545  0.6342 -0.1442  1.7300
 7603SOL    HW234446   4.113   0.815   4.435  0.2030  0.6942  0.2065
 7604SOL     OW34447   3.693   4.495   4.034 -0.1487 -0.2716  0.7105
 7604SOL    HW134448   3.662   4.586   4.032 -2.8785 -1.2292 -0.8945
 7604SOL    HW234449   3.781   4.510   4.069 -0.1200  0.4388  0.3419
 7605SOL     OW34450   3.655   2.925   8.397  0.7863 -0.0268  0.1909
 7605SOL    HW134451   3.605   2.844   8.396  0.9394 -0.1195 -0.2095
 7605SOL    HW234452   3.702   2.911   8.480 -0.4551 -2.1584  0.5162
 7606SOL     OW34453   2.905   1.227   6.214  0.4957 -0.5454 -0.2588
 7606SOL    HW134454   2.902   1.323   6.210 -2.4631 -0.5834  1.5573
 7606SOL    HW234455   2.997   1.223   6.243  0.2311 -2.7413  0.2440
 7607SOL     OW34456   1.857   3.990   8.188 -0.9480 -0.0779 -0.5162
 7607SOL    HW134457   1.909   3.916   8.217 -0.8197  0.0915 -0.3152
 7607SOL    HW234458   1.766   3.967   8.207 -0.6609  0.0902  1.0434
 7608SOL     OW34459   1.321   2.941   5.649  0.1554  0.0158  0.7733
 7608SOL    HW134460   1.324   2.960   5.742 -0.2121 -0.7879  0.9486
 7608SOL    HW234461   1.279   2.855   5.647  0.3805 -0.0309 -2.6770
 7609SOL     OW34462   0.169   0.015   3.836 -0.3999 -0.6953  0.3665
 7609SOL    HW134463   0.154   4.675   3.891  1.6386 -1.8960 -0.7614
 7609SOL    HW234464   0.210   0.071   3.902  2.0374 -3.5185  1.2422
 7610SOL     OW34465   3.662   2.409  15.561  0.1657 -1.0669  0.2410
 7610SOL    HW134466   3.572   2.408  15.593 -0.3675  0.7028 -1.2209
 7610SOL    HW234467   3.653   2.332  15.504 -0.8100  0.3159 -1.4591
 7611SOL     OW34468   1.575   1.352   5.204  0.4319 -0.3098 -0.0470
 7611SOL    HW134469   1.633   1.358   5.128  0.0414  0.6697 -0.2698
 7611SOL    HW234470   1.590   1.434   5.252 -1.0809 -0.7287  1.1527
 7612SOL     OW34471   0.896   0.952  12.136 -0.7307  0.0773  0.7976
 7612SOL    HW134472   0.949   1.016  12.183  2.3501 -1.5505 -0.4146
 7612SOL    HW234473   0.952   0.875  12.148 -0.0803  0.6014  1.1409
 7613SOL     OW34474   1.625   2.799  10.194 -0.2627 -0.3406  0.5003
 7613SOL    HW134475   1.635   2.894  10.195 -1.5448 -0.1973 -0.5126
 7613SOL    HW234476   1.568   2.785  10.119  3.0425  1.7116 -2.3564
 7614SOL     OW34477   2.518   1.267   4.509 -0.8116  0.0613 -0.4297
 7614SOL    HW134478   2.457   1.203   4.545 -0.5202 -0.3511 -0.6651
 7614SOL    HW234479   2.494   1.344   4.561  2.4638 -0.6177  2.0377
 7615SOL     OW34480   2.319   3.693   6.665 -0.4294 -0.1176  0.7105
 7615SOL    HW134481   2.326   3.599   6.649  0.6305 -0.4879  3.4540
 7615SOL    HW234482   2.413   3.705   6.652 -0.6930  0.6212 -0.5596
 7616SOL     OW34483   0.774   0.174  17.535 -0.1492 -0.0647  0.0220
 7616SOL    HW134484   0.746   0.235  17.467 -2.3479 -1.1782 -0.0888
 7616SOL    HW234485   0.826   0.111  17.486  0.4588  0.5720 -0.1522
 7617SOL     OW34486   3.930   4.097   2.464 -0.2440 -0.3155  0.4722
 7617SOL    HW134487   3.876   4.117   2.540  1.8433 -0.6179  2.0178
 7617SOL    HW234488   4.018   4.117   2.496 -0.9330  0.6159  1.7778
 7618SOL     OW34489   3.906   0.799  13.381  0.2091  0.9021  0.3438
 7618SOL    HW134490   3.964   0.775  13.309 -0.7167 -0.0300 -0.0909
 7618SOL    HW234491   3.962   0.854  13.436  0.2049 -1.6744  2.8994
 7619SOL     OW34492   2.560   1.270   8.306 -0.0335 -0.1836 -0.4997
 7619SOL    HW134493   2.562   1.365   8.308 -1.5271 -0.1828  0.5918
 7619SOL    HW234494   2.513   1.245   8.385  1.8744  0.6718  0.9086
 7620SOL     OW34495   4.078   4.294   8.435 -0.5226  0.1596 -0.3256
 7620SOL    HW134496   4.069   4.230   8.365  0.4791 -0.1026 -0.2160
 7620SOL    HW234497   4.172   4.301   8.448 -0.1677 -1.8990 -1.9442
 7621SOL     OW34498   3.953   3.658   5.708 -0.5140  0.8899  0.2219
 7621SOL    HW134499   3.936   3.653   5.614  1.2648 -1.4463  0.0267
 7621SOL    HW234500   3.999   3.576   5.726 -1.5773  0.1617 -0.3525
 7622SOL     OW34501   3.794   0.755   4.520  0.4087 -0.3284  0.3958
 7622SOL    HW134502   3.783   0.844   4.486  0.8166 -1.1230 -1.8056
 7622SOL    HW234503   3.737   0.706   4.461  3.5718 -1.0822 -2.0396
 7623SOL     OW34504   2.014   2.713  14.165 -0.3149  0.2391  0.4252
 7623SOL    HW134505   2.036   2.621  14.180  2.4193  0.6270 -1.0235
 7623SOL    HW234506   1.920   2.713  14.182 -0.2259 -3.2675  0.8646
 7624SOL     OW34507   1.933   0.242   2.734 -0.1419  0.3929  0.6241
 7624SOL    HW134508   1.917   0.296   2.656  0.8926  2.1649  1.6247
 7624SOL    HW234509   2.028   0.244   2.750  0.4564 -1.0720 -2.5871
 7625SOL     OW34510   3.670   2.840   3.538 -0.1389 -0.6409 -0.1501
 7625SOL    HW134511   3.644   2.787   3.463 -2.9115 -0.6343  0.8033
 7625SOL    HW234512   3.619   2.795   3.605  1.3288 -1.7859  0.1950
 7626SOL     OW34513   3.239   0.242   8.820  0.2318  0.3238 -0.2660
 7626SOL    HW134514   3.230   0.303   8.747 -0.1369  0.7106  0.1003
 7626SOL    HW234515   3.315   0.284   8.862  0.8702  1.4030 -2.4778
 7627SOL     OW34516   1.422   1.443   8.761 -0.4019 -0.3712  0.0024
 7627SOL    HW134517   1.373   1.362   8.750 -0.6313  0.0624 -2.0269
 7627SOL    HW234518   1.393   1.475   8.847  2.7744 -0.7849  1.2203
 7628SOL     OW34519   3.637   1.278  10.990  0.1530 -0.1864  0.5981
 7628SOL    HW134520   3.562   1.286  11.048  0.9423  0.3339  1.5424
 7628SOL    HW234521   3.674   1.367  10.986 -0.6133  0.0825 -0.6114
 7629SOL     OW34522   3.745   1.210   2.061  0.1535  0.2870 -0.4755
 7629SOL    HW134523   3.678   1.228   2.126  1.2405 -0.1333  0.7639
 7629SOL    HW234524   3.820   1.236   2.115  0.0834 -2.7939  1.0854
 7630SOL     OW34525   1.919   3.499  16.064  0.0512 -0.5830  0.3365
 7630SOL    HW134526   1.921   3.576  16.121 -0.3263 -1.1324  1.0673
 7630SOL    HW234527   2.014   3.484  16.057 -0.3731 -2.1018 -2.2919
 7631SOL     OW34528   0.259   1.528  13.812  0.0164 -0.3016  0.5514
 7631SOL    HW134529   0.328   1.587  13.842 -0.6367 -0.8356  3.0524
 7631SOL    HW234530   0.248   1.474  13.890  1.1359 -1.3893 -0.0426
 7632SOL     OW34531   1.264   0.437   0.857 -0.5650  0.0443  0.2357
 7632SOL    HW134532   1.264   0.513   0.799  0.1237  1.4950  2.1152
 7632SOL    HW234533   1.261   0.478   0.944  0.8734 -1.9928  1.2488
 7633SOL     OW34534   2.030   1.293   4.837 -0.4107 -0.3110 -0.3377
 7633SOL    HW134535   2.000   1.202   4.843 -1.8748  0.1929  0.1523
 7633SOL    HW234536   2.072   1.301   4.923 -2.2487  1.5143  0.4037
 7634SOL     OW34537   3.612   4.607  16.387  0.5758  0.4538 -0.0001
 7634SOL    HW134538   3.529   4.575  16.421 -0.6566  3.5563 -0.0307
 7634SOL    HW234539   3.671   4.596  16.461  0.8867 -0.2292 -0.3581
 7635SOL     OW34540   2.291   3.055  13.119  0.0251  0.4887  0.0856
 7635SOL    HW134541   2.297   3.145  13.151  0.0165  0.6267 -0.2979
 7635SOL    HW234542   2.277   3.007  13.201  0.0525  0.7624  0.2505
 7636SOL     OW34543   3.782   0.655  13.851 -0.0892  0.1997  0.5154
 7636SOL    HW134544   3.706   0.602  13.828  0.5287  0.4638 -2.0650
 7636SOL    HW234545   3.839   0.586  13.886  1.5681  1.5186  0.4273
 7637SOL     OW34546   4.713   0.821   3.748  0.1207 -0.1417 -0.0723
 7637SOL    HW134547   4.692   0.905   3.707  1.5875 -0.0769 -0.6756
 7637SOL    HW234548   0.055   0.844   3.796 -1.0325  0.0595  1.7239
 7638SOL     OW34549   0.013   3.519   5.435 -0.1784 -0.0542 -0.0743
 7638SOL    HW134550   0.032   3.612   5.447  1.0807 -0.4604  1.0901
 7638SOL    HW234551   4.654   3.522   5.443 -0.4137 -0.8909 -2.5652
 7639SOL     OW34552   2.104   0.416   4.715 -0.1844 -0.1753 -0.0588
 7639SOL    HW134553   2.078   0.339   4.663 -3.5381 -0.3978  1.9267
 7639SOL    HW234554   2.181   0.439   4.663  0.4357 -2.2641 -0.0931
 7640SOL     OW34555   3.685   2.061   4.782 -0.2561  0.2859  0.5895
 7640SOL    HW134556   3.678   2.121   4.708 -0.8437  1.7999  1.8756
 7640SOL    HW234557   3.617   2.093   4.841 -0.3379  0.4263  0.4147
 7641SOL     OW34558   3.402   4.143   3.894 -0.0413  0.1114 -0.0272
 7641SOL    HW134559   3.409   4.048   3.907  2.0021  0.2995  0.2485
 7641SOL    HW234560   3.309   4.150   3.912 -0.0955  2.0585 -1.1379
 7642SOL     OW34561   3.628   1.056  11.617  0.1802  0.4133 -0.0591
 7642SOL    HW134562   3.660   1.123  11.557 -1.5203  0.7536 -0.5987
 7642SOL    HW234563   3.637   1.107  11.697 -2.4536 -0.0366  0.5094
 7643SOL     OW34564   1.201   3.645   1.172 -0.2261 -0.2946  0.3744
 7643SOL    HW134565   1.196   3.721   1.114  0.5576 -0.9061 -0.4971
 7643SOL    HW234566   1.109   3.623   1.161 -0.5645 -0.2959  3.3201
 7644SOL     OW34567   3.134   0.642   5.665 -0.4351  0.0883 -0.3389
 7644SOL    HW134568   3.159   0.705   5.598 -2.4685  1.2390  0.0116
 7644SOL    HW234569   3.186   0.568   5.631  0.0127  1.9182 -3.6347
 7645SOL     OW34570   1.223   0.455  16.670  0.2061 -0.4144 -0.0157
 7645SOL    HW134571   1.203   0.487  16.582  1.9491  1.8346  0.3889
 7645SOL    HW234572   1.138   0.467  16.711 -0.1271 -1.5133 -0.3936
 7646SOL     OW34573   1.851   2.912   6.054  0.4050  0.5925  0.2886
 7646SOL    HW134574   1.852   2.954   5.968  1.8212 -0.0218  0.0051
 7646SOL    HW234575   1.794   2.969   6.106  1.4188  1.6256  0.2763
 7647SOL     OW34576   3.818   2.341   5.785 -0.7196  0.0407  0.4520
 7647SOL    HW134577   3.887   2.280   5.811 -2.3702 -1.5500  1.0537
 7647SOL    HW234578   3.829   2.394   5.865  1.2744  0.8488 -0.3680
 7648SOL     OW34579   1.678   2.371   5.987  0.1413  0.2041 -0.4127
 7648SOL    HW134580   1.649   2.316   5.914 -1.2444 -0.0568  0.3121
 7648SOL    HW234581   1.716   2.450   5.950 -0.4423  0.9296  0.5220
 7649SOL     OW34582   4.345   2.081   6.968 -0.2489 -0.5855  0.2976
 7649SOL    HW134583   4.367   1.988   6.980  1.0997 -0.3592 -0.3914
 7649SOL    HW234584   4.421   2.123   7.010 -0.6136 -0.2017  0.5678
 7650SOL     OW34585   4.670   4.693   2.688 -0.2679 -0.0467 -0.1364
 7650SOL    HW134586   4.597   0.007   2.651 -0.3274 -0.9317 -1.1960
 7650SOL    HW234587   4.670   4.613   2.636  0.6419 -0.5361  0.6210
 7651SOL     OW34588   2.177   0.106   2.169 -0.1516 -0.4036  1.0818
 7651SOL    HW134589   2.109   0.159   2.210 -1.7021 -0.5084 -1.3244
 7651SOL    HW234590   2.130   0.028   2.142 -1.5233  0.2601  1.5723
 7652SOL     OW34591   1.180   4.560   8.466 -0.3693  0.1343 -0.5170
 7652SOL    HW134592   1.169   4.653   8.488  1.5616  0.4992 -1.0465
 7652SOL    HW234593   1.267   4.564   8.426 -0.7035  1.4063 -1.1264
 7653SOL     OW34594   0.217   0.257   9.765 -0.4220  0.4071 -0.4173
 7653SOL    HW134595   0.236   0.335   9.713  1.2751  0.3543  0.1087
 7653SOL    HW234596   0.304   0.240   9.801 -0.2963 -0.5032 -1.1151
 7654SOL     OW34597   1.710   1.070   6.919  0.3367  0.1931 -0.3707
 7654SOL    HW134598   1.723   1.055   6.825 -0.4986 -0.8890 -0.3116
 7654SOL    HW234599   1.730   1.164   6.921  1.1430  0.0861 -3.4239
 7655SOL     OW34600   3.727   4.437   5.365  0.3234 -0.2527 -0.0396
 7655SOL    HW134601   3.789   4.496   5.321  1.1541 -1.3327 -0.3233
 7655SOL    HW234602   3.735   4.360   5.308  2.6974 -1.2196  1.6001
 7656SOL     OW34603   0.677   4.093   7.835  0.0268 -0.0142  0.3196
 7656SOL    HW134604   0.749   4.049   7.882 -0.1246  1.4320  1.8953
 7656SOL    HW234605   0.722   4.150   7.773  0.8721 -1.6299 -0.5819
 7657SOL     OW34606   3.538   2.541   0.384  0.2089 -0.2456  0.8640
 7657SOL    HW134607   3.482   2.565   0.458  0.1920 -0.2889  0.8650
 7657SOL    HW234608   3.472   2.568   0.320  0.8385 -0.0611  0.2956
 7658SOL     OW34609   1.567   4.290   8.413 -0.1947 -0.6511  0.1109
 7658SOL    HW134610   1.618   4.223   8.367 -0.8212  0.1545 -1.8030
 7658SOL    HW234611   1.560   4.241   8.495 -2.2274 -0.5382  0.0076
 7659SOL     OW34612   0.083   2.592   9.672  0.0479 -0.3137  0.2192
 7659SOL    HW134613   0.173   2.592   9.639 -0.4640  0.8525 -1.1340
 7659SOL    HW234614   0.080   2.687   9.666  1.4196 -0.4223 -2.1402
 7660SOL     OW34615   3.453   3.426  13.161 -0.2820  0.2941  0.0658
 7660SOL    HW134616   3.395   3.371  13.213  0.2788 -0.0135  0.3653
 7660SOL    HW234617   3.414   3.513  13.157 -1.3499 -0.2662 -1.9419
 7661SOL     OW34618   2.447   2.966   5.311 -0.2201  0.4386  0.3675
 7661SOL    HW134619   2.403   3.051   5.322 -2.2347 -0.4831 -0.5943
 7661SOL    HW234620   2.436   2.918   5.393 -0.0409  1.5286  1.0327
 7662SOL     OW34621   3.032   3.934  12.398  0.2783 -0.4405 -0.4422
 7662SOL    HW134622   3.008   3.888  12.478 -0.8262 -0.8996 -1.0427
 7662SOL    HW234623   3.035   4.025  12.429  1.9931 -1.0496  1.2245
 7663SOL     OW34624   1.368   3.521   7.739 -0.1091  0.8140 -0.8078
 7663SOL    HW134625   1.349   3.577   7.664 -1.1920 -0.1109 -1.2226
 7663SOL    HW234626   1.444   3.565   7.777 -0.1103  1.1021 -1.1340
 7664SOL     OW34627   3.645   1.825  10.998 -0.5366 -0.0632  0.1503
 7664SOL    HW134628   3.629   1.747  11.051  2.2637  0.4006  1.6916
 7664SOL    HW234629   3.715   1.792  10.941  0.4663 -0.1262  1.4137
 7665SOL     OW34630   1.078   2.619   7.534 -0.3470  0.0680  0.1442
 7665SOL    HW134631   1.014   2.572   7.588 -1.7835  1.2244 -0.5643
 7665SOL    HW234632   1.150   2.558   7.550 -1.0577 -1.2623 -1.8294
 7666SOL     OW34633   1.540   3.950   2.798  0.3956 -0.4035  0.0384
 7666SOL    HW134634   1.485   3.937   2.721 -0.5583  0.4516  0.5704
 7666SOL    HW234635   1.529   3.861   2.832  1.0583 -0.2380  0.6999
 7667SOL     OW34636   2.679   0.817   3.519  0.0094 -0.2828 -0.0563
 7667SOL    HW134637   2.728   0.822   3.438 -0.5678 -0.7335 -0.4326
 7667SOL    HW234638   2.733   0.758   3.572 -0.0423 -1.1873 -1.0185
 7668SOL     OW34639   1.152   0.289   1.349  0.0391 -0.1837  0.2860
 7668SOL    HW134640   1.130   0.373   1.307 -0.0551  0.2656  1.2338
 7668SOL    HW234641   1.104   0.303   1.431 -0.6568 -0.8545 -0.0063
 7669SOL     OW34642   1.233   0.600   1.979  0.2179  0.2573 -0.4902
 7669SOL    HW134643   1.201   0.667   2.038  0.1766  0.1544 -0.3953
 7669SOL    HW234644   1.307   0.573   2.034  0.3002 -0.7180 -1.0784
 7670SOL     OW34645   0.329   3.489  11.175  0.1056 -0.3397  0.0325
 7670SOL    HW134646   0.393   3.538  11.228  0.4360 -0.4030 -0.3106
 7670SOL    HW234647   0.253   3.547  11.169 -0.0786 -0.6406 -0.4380
 7671SOL     OW34648   2.200   1.950  11.605 -0.3385  0.1196 -0.2525
 7671SOL    HW134649   2.254   1.990  11.537  0.9194 -2.0601 -0.5262
 7671SOL    HW234650   2.243   1.982  11.685 -1.6793  1.7386 -0.1735
 7672SOL     OW34651   0.579   2.091   1.188 -0.4064  0.0846  0.7186
 7672SOL    HW134652   0.566   2.174   1.234 -0.3147  0.9708 -0.8717
 7672SOL    HW234653   0.642   2.115   1.121 -0.1048 -0.0717  0.9420
 7673SOL     OW34654   3.563   0.243   0.089 -0.0300 -0.1307  1.0164
 7673SOL    HW134655   3.532   0.156   0.115 -2.2300  0.9574  2.0408
 7673SOL    HW234656   3.497   0.305   0.121  0.7399  0.7837  0.8477
 7674SOL     OW34657   1.835   1.666   4.400 -0.5969 -0.3853  0.3241
 7674SOL    HW134658   1.872   1.583   4.368 -0.8051 -0.4300  0.2036
 7674SOL    HW234659   1.913   1.721   4.389 -0.0438 -1.3550 -0.6162
 7675SOL     OW34660   3.827   2.701   1.508  0.3905  0.4663 -0.2703
 7675SOL    HW134661   3.797   2.776   1.560 -1.6710  0.8475 -2.0264
 7675SOL    HW234662   3.837   2.744   1.423 -1.3028 -0.1261 -0.7623
 7676SOL     OW34663   2.580   0.686   1.870 -0.2324  0.2625 -0.0001
 7676SOL    HW134664   2.566   0.767   1.821 -0.0115  0.1909 -0.1788
 7676SOL    HW234665   2.659   0.648   1.831 -0.4482  0.3848 -0.5479
 7677SOL     OW34666   3.379   1.741   7.088  0.2834  0.7354  0.8708
 7677SOL    HW134667   3.348   1.731   7.178 -1.6204  0.5552  0.1894
 7677SOL    HW234668   3.309   1.699   7.037  0.2942  2.8717 -0.8994
 7678SOL     OW34669   2.730   2.003   9.072  0.7426 -0.1115 -0.3972
 7678SOL    HW134670   2.713   2.097   9.063  1.3777  0.0263 -0.1606
 7678SOL    HW234671   2.796   1.990   9.004 -0.2006  0.8709 -1.5159
 7679SOL     OW34672   2.049   2.674  16.820 -0.7713  0.4091  0.6949
 7679SOL    HW134673   2.059   2.579  16.807 -0.8408  0.5653 -0.5314
 7679SOL    HW234674   1.960   2.692  16.791 -1.0960 -0.7834  0.9580
 7680SOL     OW34675   2.470   4.548  16.499 -0.3007 -0.1052  0.0554
 7680SOL    HW134676   2.431   4.625  16.457  2.0272  1.0336 -0.0261
 7680SOL    HW234677   2.519   4.507  16.427  0.9750  1.8418 -0.1893
 7681SOL     OW34678   2.357   4.295  17.198  0.4345 -0.0879  0.7185
 7681SOL    HW134679   2.396   4.381  17.214  2.6692 -0.6499 -1.7360
 7681SOL    HW234680   2.339   4.257  17.284  3.0271 -0.9245  0.8987
 7682SOL     OW34681   0.260   2.131   7.151 -0.2285  0.4296 -0.3962
 7682SOL    HW134682   0.233   2.150   7.240  2.3886 -1.8344  0.8875
 7682SOL    HW234683   0.333   2.072   7.169 -2.2287 -2.4082 -1.6737
 7683SOL     OW34684   2.266   1.231   5.927  0.2675 -0.5319  0.4087
 7683SOL    HW134685   2.228   1.187   6.003  0.3316 -3.0408 -1.0218
 7683SOL    HW234686   2.227   1.318   5.929  1.0930 -0.1714  0.6403
 7684SOL     OW34687   2.042   2.550  12.651 -0.3338 -0.7405 -0.4733
 7684SOL    HW134688   2.082   2.467  12.676 -2.1672 -1.8233 -1.1657
 7684SOL    HW234689   2.035   2.600  12.733  1.6629  1.2615 -1.5034
 7685SOL     OW34690   4.616   2.422  16.188 -0.1849  0.2956 -0.4724
 7685SOL    HW134691   4.605   2.512  16.219 -0.0428  0.0655  0.2608
 7685SOL    HW234692   4.707   2.408  16.215 -0.1116  1.8047  0.0699
 7686SOL     OW34693   3.585   0.811   4.051 -0.0262 -0.0675  0.5035
 7686SOL    HW134694   3.496   0.786   4.026 -0.0784  0.5167  0.1046
 7686SOL    HW234695   3.633   0.791   3.971  1.0461  0.6096  0.9818
 7687SOL     OW34696   1.899   2.809   3.675  0.0042 -0.4241  0.6014
 7687SOL    HW134697   1.843   2.731   3.679 -1.8694  0.9522  1.2834
 7687SOL    HW234698   1.959   2.787   3.747 -0.7789 -0.9667  1.0864
 7688SOL     OW34699   3.187   3.593   7.552  0.3220 -0.6049 -0.4417
 7688SOL    HW134700   3.150   3.657   7.612  2.0068 -0.3309  0.3146
 7688SOL    HW234701   3.197   3.511   7.601  2.1239  0.2619  0.6383
 7689SOL     OW34702   2.682   2.381  14.489  0.0032  0.8665  0.1252
 7689SOL    HW134703   2.681   2.325  14.412 -2.0904  0.9894  0.0445
 7689SOL    HW234704   2.665   2.320  14.560  2.2134  1.0200  0.7900
 7690SOL     OW34705   3.718   1.674   2.801 -0.5228  0.5632 -0.2770
 7690SOL    HW134706   3.709   1.765   2.830 -1.4381 -0.0695  1.4195
 7690SOL    HW234707   3.697   1.622   2.879 -0.2658  1.1545  0.1938
 7691SOL     OW34708   3.079   1.060  13.586  0.1878 -0.0571  0.2552
 7691SOL    HW134709   2.996   1.014  13.602 -0.7942  1.0285 -1.8165
 7691SOL    HW234710   3.096   1.088  13.676  1.6599 -0.9975  0.2746
 7692SOL     OW34711   1.737   3.081  13.638  0.6307 -0.0675  0.0663
 7692SOL    HW134712   1.782   3.133  13.704 -1.4744  0.5260  1.0474
 7692SOL    HW234713   1.725   2.994  13.676 -4.2117 -0.6746 -2.8609
 7693SOL     OW34714   3.219   0.072  11.968  0.2136 -0.0847 -0.3535
 7693SOL    HW134715   3.160   0.048  12.039 -1.7050 -1.6293 -2.5094
 7693SOL    HW234716   3.299   0.023  11.988  0.2068 -0.0336 -0.1998
 7694SOL     OW34717   1.025   2.026   1.790  0.5889 -0.0765  0.4187
 7694SOL    HW134718   1.017   2.077   1.709 -3.0115  0.1460  0.8975
 7694SOL    HW234719   1.083   2.083   1.839 -0.5253  0.5595  1.0018
 7695SOL     OW34720   2.370   2.274   6.314  0.2763 -0.1279  0.2731
 7695SOL    HW134721   2.427   2.222   6.371 -0.9824 -0.8896  0.8319
 7695SOL    HW234722   2.312   2.309   6.382  0.7047 -1.0137  1.1013
 7696SOL     OW34723   1.927   0.130  14.627  0.0501 -0.3153 -0.1479
 7696SOL    HW134724   1.939   0.048  14.674  0.3730 -0.3723 -0.3313
 7696SOL    HW234725   1.843   0.118  14.583 -0.2314  2.0371 -0.2858
 7697SOL     OW34726   1.667   2.804   2.602 -0.1825  0.4490 -0.1386
 7697SOL    HW134727   1.680   2.898   2.594  0.4828  0.4503  1.0199
 7697SOL    HW234728   1.598   2.789   2.536  0.7614 -1.1896 -0.7465
 7698SOL     OW34729   3.185   0.528  12.370  0.0933  0.1847  0.0125
 7698SOL    HW134730   3.239   0.605  12.389  0.5020 -0.2247  0.5012
 7698SOL    HW234731   3.258   0.469  12.353  0.1378  0.0921  0.5082
 7699SOL     OW34732   3.706   4.202   6.891 -0.5024  0.4309  0.1594
 7699SOL    HW134733   3.750   4.277   6.853 -0.3530  0.3884  0.2483
 7699SOL    HW234734   3.726   4.222   6.983  1.0628 -2.3710  0.4245
 7700SOL     OW34735   4.649   0.316   4.371  0.5730 -0.5360  0.6837
 7700SOL    HW134736   4.664   0.339   4.463 -1.5384  0.5772  0.7494
 7700SOL    HW234737   4.555   0.300   4.373  0.4729 -0.0202 -0.0104
 7701SOL     OW34738   1.300   3.415   3.137 -0.4910 -0.0809 -0.1406
 7701SOL    HW134739   1.353   3.337   3.156  0.8845  1.2683  1.5623
 7701SOL    HW234740   1.367   3.483   3.132 -1.3580  0.8907  1.2037
 7702SOL     OW34741   1.504   2.948   1.852  0.2459  0.3956  0.6064
 7702SOL    HW134742   1.410   2.938   1.839  0.8755 -5.9459  0.9823
 7702SOL    HW234743   1.515   3.016   1.918 -1.0185  1.0299  0.1456
 7703SOL     OW34744   1.782   2.398   4.921  0.3998  0.2728 -0.6543
 7703SOL    HW134745   1.701   2.420   4.876 -0.6595 -0.3313  0.9978
 7703SOL    HW234746   1.816   2.324   4.869  0.2180 -2.2340  2.8095
 7704SOL     OW34747   0.009   0.218   7.940  0.1338  0.5665  0.1639
 7704SOL    HW134748   4.699   0.141   7.971 -1.7572  2.1944  1.3204
 7704SOL    HW234749   0.058   0.189   7.863 -0.3500  1.3829 -0.4451
 7705SOL     OW34750   2.772   0.482   7.391 -0.2755 -0.2958  0.1721
 7705SOL    HW134751   2.730   0.513   7.471  1.0263  1.2660  0.2558
 7705SOL    HW234752   2.705   0.525   7.338  1.4015  2.1312  0.0004
 7706SOL     OW34753   4.046   0.533   2.753 -0.6021 -0.7323 -0.4210
 7706SOL    HW134754   3.961   0.502   2.722 -2.2155  0.3681  2.8720
 7706SOL    HW234755   4.008   0.606   2.802 -2.4549 -2.7938  1.1708
 7707SOL     OW34756   3.251   2.938   5.698 -0.0934  0.1805 -0.1158
 7707SOL    HW134757   3.253   2.999   5.771 -2.1945 -0.1922  0.2596
 7707SOL    HW234758   3.177   2.882   5.721  1.3247 -2.1550 -1.2554
 7708SOL     OW34759   0.399   3.912  15.449  0.0314 -0.1978 -0.4819
 7708SOL    HW134760   0.376   4.000  15.478  0.3972 -0.2318 -0.0910
 7708SOL    HW234761   0.445   3.931  15.367  1.2416  0.6955  0.4176
 7709SOL     OW34762   3.491   4.683   8.939 -0.2562 -0.0428  0.1303
 7709SOL    HW134763   3.575   4.660   8.977 -0.5974 -0.6180  0.5275
 7709SOL    HW234764   3.519   4.733   8.862 -2.1407  0.4939 -0.2144
 7710SOL     OW34765   3.296   3.388   2.459  0.2330 -0.4777  0.1861
 7710SOL    HW134766   3.239   3.312   2.470 -0.0702 -0.2211  0.4042
 7710SOL    HW234767   3.226   3.452   2.448  1.5975  1.0588  0.3912
 7711SOL     OW34768   4.612   2.927   6.475  0.8191 -0.0850 -0.4272
 7711SOL    HW134769   4.612   2.949   6.568  0.5359  1.6535 -0.8458
 7711SOL    HW234770   4.524   2.890   6.468 -0.2777  2.2714  1.1190
 7712SOL     OW34771   1.527   1.033   8.345 -0.9674 -0.1752 -0.4850
 7712SOL    HW134772   1.545   0.946   8.383  2.3667  0.1579 -1.2423
 7712SOL    HW234773   1.432   1.043   8.351 -0.8026  1.2915 -0.4183
 7713SOL     OW34774   3.009   3.858   6.560 -0.1802  0.7711 -0.0323
 7713SOL    HW134775   3.059   3.782   6.591 -1.8338  0.0406  0.8549
 7713SOL    HW234776   3.070   3.928   6.540  0.4317 -0.2441 -1.6908
 7714SOL     OW34777   0.057   4.090   3.956 -0.1415  0.2471 -0.4535
 7714SOL    HW134778   4.730   4.161   3.952 -0.3658  0.0731  0.0641
 7714SOL    HW234779   0.133   4.134   3.917 -0.3376 -0.7244 -1.9348
 7715SOL     OW34780   0.988   0.977   7.480  0.0673 -0.0632  0.2369
 7715SOL    HW134781   0.894   0.987   7.488 -0.0254 -0.5220 -0.2510
 7715SOL    HW234782   1.021   0.933   7.559 -0.2945 -0.8158 -0.0285
 7716SOL     OW34783   0.804   0.132   7.722 -0.0700 -0.2448  0.2435
 7716SOL    HW134784   0.873   0.136   7.655 -0.3654 -2.7124 -0.2089
 7716SOL    HW234785   0.761   0.055   7.686  0.3228 -0.5580  0.4570
 7717SOL     OW34786   4.004   3.883   7.379 -0.1926  0.0735 -0.0459
 7717SOL    HW134787   4.006   3.956   7.317 -3.8726 -1.0045 -1.4261
 7717SOL    HW234788   3.912   3.886   7.403 -0.1643 -0.2638  0.1157
 7718SOL     OW34789   3.843   2.692  16.963 -0.1785 -0.3750 -0.1044
 7718SOL    HW134790   3.880   2.697  17.051 -0.2506 -0.7686 -0.0532
 7718SOL    HW234791   3.915   2.651  16.915 -0.0726 -0.3886  0.0654
 7719SOL     OW34792   1.315   2.856   4.230  0.2774 -0.3196  0.3730
 7719SOL    HW134793   1.368   2.865   4.309 -1.1998  0.4432  1.2608
 7719SOL    HW234794   1.383   2.833   4.167  0.2696 -0.7258  0.5113
 7720SOL     OW34795   4.168   3.616   0.823  0.2658  0.0592  0.3567
 7720SOL    HW134796   4.140   3.565   0.899 -0.6411  0.2617  0.1589
 7720SOL    HW234797   4.089   3.608   0.769  0.7313 -1.2900 -0.1259
 7721SOL     OW34798   3.439   2.577  10.924  0.2043  0.4737  0.0238
 7721SOL    HW134799   3.477   2.541  11.004  0.1124  1.5404  0.5414
 7721SOL    HW234800   3.430   2.502  10.864  0.7918  1.3368 -1.1430
 7722SOL     OW34801   1.429   4.470  17.086  0.1395 -0.0766 -0.3172
 7722SOL    HW134802   1.497   4.536  17.101  0.0339 -0.4119  1.6330
 7722SOL    HW234803   1.433   4.428  17.172 -2.8262  0.1458 -0.0729
 7723SOL     OW34804   4.679   3.197  17.328 -0.1320 -0.4191  0.3042
 7723SOL    HW134805   0.023   3.236  17.294 -0.6167 -0.3433 -0.7594
 7723SOL    HW234806   4.692   3.211  17.421  3.1813 -0.5844 -0.1169
 7724SOL     OW34807   2.000   2.989   6.604 -0.2047 -0.2719 -0.1172
 7724SOL    HW134808   1.989   3.029   6.517 -0.8931 -1.1785 -0.4593
 7724SOL    HW234809   1.913   2.999   6.643 -2.6501 -2.3437 -4.9746
 7725SOL     OW34810   0.421   3.715  11.348 -0.2502  0.1309 -0.2658
 7725SOL    HW134811   0.495   3.773  11.331 -0.1313  0.5928  1.9282
 7725SOL    HW234812   0.352   3.760  11.298  1.9801  1.2350 -2.3420
 7726SOL     OW34813   2.299   4.404   2.613 -0.5856 -0.4354 -0.3695
 7726SOL    HW134814   2.267   4.485   2.572  0.6874  0.2266 -0.0665
 7726SOL    HW234815   2.223   4.379   2.665 -1.3514 -0.3482 -1.4334
 7727SOL     OW34816   0.995   4.113   2.742  0.1151  0.2036  0.2715
 7727SOL    HW134817   0.973   4.057   2.816  0.9775 -0.3038  0.1511
 7727SOL    HW234818   1.007   4.050   2.670  3.0907  0.9033  0.1329
 7728SOL     OW34819   0.357   2.126   8.379 -0.1439 -0.0333  0.1774
 7728SOL    HW134820   0.289   2.124   8.312  1.9040  1.6144 -1.9664
 7728SOL    HW234821   0.323   2.187   8.444 -0.3039  0.4111 -0.3205
 7729SOL     OW34822   2.836   0.420   1.414 -0.3650 -0.7136  0.5898
 7729SOL    HW134823   2.789   0.395   1.334  1.9373  2.9437 -1.9160
 7729SOL    HW234824   2.794   0.502   1.439 -0.5340 -0.6756  0.1903
 7730SOL     OW34825   3.907   4.503   2.332 -0.1513  0.3497 -0.4285
 7730SOL    HW134826   3.937   4.580   2.380 -0.4174  0.3253 -0.2196
 7730SOL    HW234827   3.872   4.456   2.408  0.4983  2.5004  1.2040
 7731SOL     OW34828   0.978   2.225   1.558 -0.0705  0.1410 -0.3514
 7731SOL    HW134829   0.983   2.162   1.485  2.1190 -0.9364  0.7172
 7731SOL    HW234830   0.992   2.309   1.515  1.3940 -0.0725 -0.3039
 7732SOL     OW34831   1.531   1.451   0.399 -0.2607  0.2300 -0.5188
 7732SOL    HW134832   1.621   1.419   0.409  0.2010  2.3303  1.9150
 7732SOL    HW234833   1.545   1.535   0.442  1.4624  1.3343 -3.1963
 7733SOL     OW34834   3.221   2.923   8.336  0.4230  0.0730 -0.1497
 7733SOL    HW134835   3.271   2.934   8.416  0.0019  0.8802 -0.0025
 7733SOL    HW234836   3.297   2.899   8.282 -0.1057 -2.1314  0.0754
 7734SOL     OW34837   0.791   0.945   2.560 -0.0544 -0.2129  0.1213
 7734SOL    HW134838   0.855   0.910   2.622 -0.0085 -0.8207 -0.2696
 7734SOL    HW234839   0.711   0.918   2.606 -0.5330 -2.1085 -1.8309
 7735SOL     OW34840   2.444   4.346   5.336  0.0704 -0.4680 -0.1610
 7735SOL    HW134841   2.422   4.299   5.416  0.6077  0.6577  0.6489
 7735SOL    HW234842   2.536   4.319   5.335  0.3956  0.6834 -2.0292
 7736SOL     OW34843   0.072   0.146   7.689 -0.5115 -0.4730 -0.1656
 7736SOL    HW134844   0.128   0.083   7.644 -0.9794 -2.2043  1.6666
 7736SOL    HW234845   4.733   0.142   7.631 -0.3251  0.0085 -0.4410
 7737SOL     OW34846   3.160   3.062  10.858  0.3956  0.4774  0.4969
 7737SOL    HW134847   3.065   3.063  10.870  0.1657 -0.3011 -1.2818
 7737SOL    HW234848   3.188   3.137  10.910  1.3170 -0.4525  1.3669
 7738SOL     OW34849   0.060   3.843  10.673  0.6205 -0.1417  0.2371
 7738SOL    HW134850   0.080   3.770  10.732 -0.9986  0.4099  1.4725
 7738SOL    HW234851   4.703   3.837  10.650  0.6964 -0.4302 -0.0076
 7739SOL     OW34852   2.129   0.914   5.756 -0.1269 -0.3050  0.5100
 7739SOL    HW134853   2.218   0.892   5.730 -0.2972  0.2783 -0.6017
 7739SOL    HW234854   2.082   0.832   5.770 -2.2694  1.2970  2.7080
 7740SOL     OW34855   1.733   2.666   6.115  0.3371 -0.4411  0.5011
 7740SOL    HW134856   1.803   2.604   6.096  0.8360  0.3771 -0.3190
 7740SOL    HW234857   1.775   2.746   6.085  0.2271 -1.1817 -1.6020
 7741SOL     OW34858   2.216   0.030   1.214 -0.5103 -0.1642 -0.0779
 7741SOL    HW134859   2.223   0.103   1.152  0.0281  0.0774  0.2641
 7741SOL    HW234860   2.287   4.718   1.172  0.0187 -0.9885  1.7541
 7742SOL     OW34861   1.944   1.799  17.264 -0.4832  0.1174 -0.3418
 7742SOL    HW134862   1.991   1.779  17.183  2.6627  0.1593  1.4777
 7742SOL    HW234863   1.965   1.892  17.268 -0.3573  0.1195 -1.0513
 7743SOL     OW34864   1.920   1.032   4.850 -0.1737  0.0604  0.7023
 7743SOL    HW134865   1.987   0.989   4.904  1.6087  3.1149  0.9215
 7743SOL    HW234866   1.856   1.044   4.920  0.4078 -1.9525  1.5724
 7744SOL     OW34867   1.803   3.803   9.308  0.0980 -0.0355  0.6548
 7744SOL    HW134868   1.778   3.878   9.255 -1.5027 -0.4663  0.7967
 7744SOL    HW234869   1.723   3.751   9.313  0.4520 -0.2118  4.6687
 7745SOL     OW34870   0.232   0.994   2.724 -0.6267 -0.1076 -0.9465
 7745SOL    HW134871   0.157   1.016   2.668 -0.1700  3.2594 -0.2143
 7745SOL    HW234872   0.246   1.072   2.777  1.0690  0.1940 -1.8412
 7746SOL     OW34873   4.664   3.688   6.900 -0.3752  0.2197 -0.5555
 7746SOL    HW134874   4.674   3.708   6.993 -1.3145 -2.0227  0.0176
 7746SOL    HW234875   4.633   3.598   6.890  0.7538 -0.1989 -0.3729
 7747SOL     OW34876   1.203   3.122   3.595 -0.5754  0.3561 -0.6349
 7747SOL    HW134877   1.298   3.129   3.606 -0.8888  0.9426  1.7088
 7747SOL    HW234878   1.189   3.028   3.604 -3.7810  1.1424  2.6933
 7748SOL     OW34879   0.871   4.414   1.164  0.4429 -0.0330  0.4630
 7748SOL    HW134880   0.937   4.483   1.155 -1.3288  1.3935 -1.5490
 7748SOL    HW234881   0.893   4.391   1.254  0.1993 -1.2378  0.2116
 7749SOL     OW34882   2.123   2.496  14.563  0.0662  0.2411 -0.1082
 7749SOL    HW134883   2.131   2.547  14.483  1.9173 -1.2712 -0.8982
 7749SOL    HW234884   2.215   2.474  14.573 -0.6673 -2.0752  1.6727
 7750SOL     OW34885   1.587   1.243   4.778 -0.4145 -0.3969 -0.2571
 7750SOL    HW134886   1.604   1.232   4.684  1.7859 -1.0667  0.2374
 7750SOL    HW234887   1.562   1.336   4.784 -0.3109 -0.3443 -0.6495
 7751SOL     OW34888   4.147   0.407   3.871  0.1100 -0.4550  0.1006
 7751SOL    HW134889   4.148   0.333   3.811  0.4050  0.9865 -1.6605
 7751SOL    HW234890   4.171   0.472   3.804  0.8090 -1.0581 -0.2290
 7752SOL     OW34891   2.575   1.363   3.229  0.2423  0.4235 -0.1671
 7752SOL    HW134892   2.596   1.289   3.173 -2.1012  0.7421 -1.4498
 7752SOL    HW234893   2.576   1.438   3.169 -0.7472  0.3391 -0.2801
 7753SOL     OW34894   0.882   4.250   7.273  0.5814 -0.4528 -0.3450
 7753SOL    HW134895   0.841   4.186   7.331  0.4384 -1.4207 -1.5143
 7753SOL    HW234896   0.946   4.285   7.335  0.1466 -0.1471 -0.0711
 7754SOL     OW34897   3.650   1.139   2.879  0.4358 -0.1337  0.0171
 7754SOL    HW134898   3.627   1.134   2.786 -2.6985 -0.2237  0.7692
 7754SOL    HW234899   3.565   1.124   2.922  0.3145  1.5922  0.4090
 7755SOL     OW34900   2.985   3.324   4.871 -0.6774  0.4972 -0.5693
 7755SOL    HW134901   2.911   3.303   4.929  0.2915 -0.1944  0.4035
 7755SOL    HW234902   3.056   3.280   4.916 -0.6740  0.8411 -0.2380
 7756SOL     OW34903   3.674   2.117   8.113 -0.5849  0.3545  0.0443
 7756SOL    HW134904   3.738   2.096   8.044 -1.9249 -2.4361 -0.3514
 7756SOL    HW234905   3.686   2.209   8.137 -1.5137  0.1053  1.4407
 7757SOL     OW34906   0.273   2.097  10.696  0.5537  0.6924 -0.2953
 7757SOL    HW134907   0.238   2.076  10.609  0.3668  0.9270 -0.2763
 7757SOL    HW234908   0.264   2.192  10.688  0.3081  0.6628 -0.3716
 7758SOL     OW34909   3.103   0.450   2.709 -0.2060  0.0518 -0.0907
 7758SOL    HW134910   3.196   0.470   2.704 -0.0880 -0.2302  0.8891
 7758SOL    HW234911   3.069   0.529   2.751 -0.0060 -0.5527  1.2170
 7759SOL     OW34912   3.910   4.035   5.972  0.0757  0.5481 -0.4373
 7759SOL    HW134913   3.938   4.093   5.901  1.0292 -0.0432 -0.5409
 7759SOL    HW234914   3.818   4.058   5.979 -0.0741 -0.3233  0.3991
 7760SOL     OW34915   3.169   3.528   4.484 -0.1340 -0.2824  0.6144
 7760SOL    HW134916   3.077   3.501   4.484  0.2542 -1.5826 -2.4076
 7760SOL    HW234917   3.144   3.621   4.480 -1.7114 -0.7190  0.2212
 7761SOL     OW34918   2.254   0.522   5.076 -0.0118 -0.5108 -0.0096
 7761SOL    HW134919   2.312   0.452   5.045 -2.5372 -2.0405 -1.3065
 7761SOL    HW234920   2.255   0.514   5.171  1.9475 -0.7983 -0.0542
 7762SOL     OW34921   0.649   3.889   4.172 -0.8613  0.1764  0.5169
 7762SOL    HW134922   0.740   3.900   4.201 -0.0855  1.3650 -2.3822
 7762SOL    HW234923   0.661   3.860   4.082 -1.6036 -1.3896  0.9247
 7763SOL     OW34924   2.608   2.947   6.935 -0.0727  0.5019  0.4708
 7763SOL    HW134925   2.697   2.948   6.901 -0.3731  2.2867 -0.2818
 7763SOL    HW234926   2.614   2.971   7.027  0.7384 -0.2295  0.6118
 7764SOL     OW34927   3.902   3.582   4.508  0.0060  0.0414 -0.1420
 7764SOL    HW134928   3.938   3.669   4.494  0.4031 -0.4402 -2.2691
 7764SOL    HW234929   3.950   3.534   4.440  1.4480  2.8824 -1.1148
 7765SOL     OW34930   4.332   4.118   0.133  0.5230  0.2280  0.6047
 7765SOL    HW134931   4.253   4.066   0.114 -0.2793  2.0455 -0.9959
 7765SOL    HW234932   4.376   4.119   0.048  0.4876  1.6085  0.6021
 7766SOL     OW34933   1.692   1.183   3.481 -0.1266  0.4040 -0.4593
 7766SOL    HW134934   1.649   1.142   3.556  0.6484  1.6877  0.6914
 7766SOL    HW234935   1.739   1.106   3.449 -2.5262 -2.3350  2.6449
 7767SOL     OW34936   3.759   1.258  10.103  0.3226  0.1358 -0.2219
 7767SOL    HW134937   3.707   1.284  10.179 -1.4118  0.8117 -1.6437
 7767SOL    HW234938   3.846   1.289  10.128 -0.1777  1.5284 -0.2163
 7768SOL     OW34939   2.034   4.263   6.864  0.1707 -0.0972  0.6607
 7768SOL    HW134940   2.010   4.352   6.890  2.4242  0.3908  1.0117
 7768SOL    HW234941   2.065   4.227   6.947 -1.2159  0.9427  1.6316
 7769SOL     OW34942   3.706   1.485  13.163 -0.1645 -0.2031 -0.5724
 7769SOL    HW134943   3.692   1.424  13.236  0.2619 -0.3835 -0.6396
 7769SOL    HW234944   3.796   1.508  13.186 -1.4884  3.9622  0.4328
 7770SOL     OW34945   0.533   1.383  12.915 -0.5598  0.1217  0.2102
 7770SOL    HW134946   0.484   1.414  12.991 -3.0519 -0.2841 -1.2454
 7770SOL    HW234947   0.511   1.454  12.855  0.7299  1.1435  0.9176
 7771SOL     OW34948   0.582   2.947   1.863 -0.2257  0.6250  0.1130
 7771SOL    HW134949   0.633   2.884   1.812  1.0270  2.1541 -0.5464
 7771SOL    HW234950   0.651   3.002   1.902 -0.7047  1.3824 -0.1115
 7772SOL     OW34951   2.125   3.626   3.454  0.4230  0.0689 -0.6283
 7772SOL    HW134952   2.187   3.587   3.516 -1.4882 -1.0158  0.5840
 7772SOL    HW234953   2.170   3.606   3.372  0.2180  0.2462 -0.7851
 7773SOL     OW34954   4.512   1.830   5.109 -0.3037 -0.5645  0.1539
 7773SOL    HW134955   4.526   1.891   5.180  0.5825 -0.5955  0.0024
 7773SOL    HW234956   4.593   1.839   5.058  0.3494 -0.4720  1.2225
 7774SOL     OW34957   3.579   3.128   1.803  0.2733  0.3598  0.0701
 7774SOL    HW134958   3.491   3.165   1.795  1.0931  2.3562  0.3672
 7774SOL    HW234959   3.631   3.188   1.750 -1.4817  0.7291 -1.2360
 7775SOL     OW34960   3.039   3.153   4.383  0.4523 -0.0616  0.4100
 7775SOL    HW134961   2.950   3.155   4.418  0.5751  1.6751  0.6195
 7775SOL    HW234962   3.076   3.169   4.470  0.7703  0.0849  0.2479
 7776SOL     OW34963   4.353   0.824   8.782 -0.0134  0.1011  0.0383
 7776SOL    HW134964   4.349   0.783   8.695 -1.3454  0.2312  0.0363
 7776SOL    HW234965   4.282   0.888   8.774  0.6649  0.6478 -1.6742
 7777SOL     OW34966   0.631   3.461  14.818 -0.0420  0.1949 -0.6456
 7777SOL    HW134967   0.537   3.447  14.810 -0.2958  1.5788 -0.1664
 7777SOL    HW234968   0.635   3.554  14.842 -1.9603  0.6565 -2.1721
 7778SOL     OW34969   0.206   4.732   5.846  0.4127 -0.2048  0.2662
 7778SOL    HW134970   0.191   4.638   5.858  2.1277 -0.4254  0.6521
 7778SOL    HW234971   0.293   0.015   5.880  1.0480  0.1290 -1.5238
 7779SOL     OW34972   0.376   0.886   1.907  0.5494 -0.7556  0.1055
 7779SOL    HW134973   0.350   0.973   1.937 -0.9600 -0.9574 -0.6416
 7779SOL    HW234974   0.454   0.873   1.960  2.3370  0.7505 -2.1349
 7780SOL     OW34975   2.607   2.627   1.325  0.1394 -0.1914 -0.1866
 7780SOL    HW134976   2.674   2.667   1.269  1.4802 -0.8843  0.9339
 7780SOL    HW234977   2.640   2.542   1.352 -0.8400 -0.3911  0.3974
 7781SOL     OW34978   2.043   1.400   7.554  0.3172 -0.3941 -0.3971
 7781SOL    HW134979   2.016   1.491   7.565 -0.0772 -0.5725  0.0781
 7781SOL    HW234980   2.037   1.376   7.647 -2.3251 -0.4145 -0.5731
 7782SOL     OW34981   0.745   3.470  16.181  0.3120 -0.6638  0.6468
 7782SOL    HW134982   0.712   3.500  16.266 -2.7673 -1.0368 -0.4215
 7782SOL    HW234983   0.706   3.537  16.125  0.8081 -3.5717 -3.1499
 7783SOL     OW34984   2.993   1.784  15.549 -0.2203  0.1247  0.0749
 7783SOL    HW134985   2.940   1.848  15.501 -0.4477 -0.8242 -0.9283
 7783SOL    HW234986   3.017   1.724  15.478  1.4663  3.2001 -1.9115
 7784SOL     OW34987   1.399   2.406   3.272 -0.1065  0.6405  0.5370
 7784SOL    HW134988   1.424   2.481   3.218 -1.9103 -0.4684 -1.8611
 7784SOL    HW234989   1.396   2.341   3.203 -1.7992  2.6882 -1.3308
 7785SOL     OW34990   2.345   4.055   9.830  0.1413 -0.1076  0.0861
 7785SOL    HW134991   2.360   4.075   9.923 -1.7528 -1.0184  0.5849
 7785SOL    HW234992   2.331   4.136   9.781  1.2485 -1.0736 -1.8466
 7786SOL     OW34993   1.261   1.859  15.339 -0.2487  0.1691  0.0577
 7786SOL    HW134994   1.208   1.852  15.259  0.8102  2.6265 -0.8403
 7786SOL    HW234995   1.339   1.806  15.324 -1.1017 -0.8111 -0.9662
 7787SOL     OW34996   1.595   2.867   3.165 -0.0290  0.1352  0.3816
 7787SOL    HW134997   1.648   2.852   3.086 -0.0595 -0.8094  0.5497
 7787SOL    HW234998   1.623   2.787   3.208 -2.3745 -0.8437  0.0594
 7788SOL     OW34999   0.790   2.319   8.414  0.2438 -0.1960 -0.5798
 7788SOL    HW135000   0.727   2.365   8.469 -3.5031 -3.3785 -2.2418
 7788SOL    HW235001   0.805   2.394   8.356  0.0548  0.3923  0.1267
 7789SOL     OW35002   2.027   3.367  17.286 -0.5262  0.1748 -0.6144
 7789SOL    HW135003   2.095   3.341  17.349 -0.7126 -0.2428 -0.5844
 7789SOL    HW235004   1.968   3.292  17.294  0.3442 -0.3739  0.8175
 7790SOL     OW35005   0.591   2.991   9.880 -0.2137  0.5014 -0.1282
 7790SOL    HW135006   0.615   3.084   9.880  0.3434  0.3593 -1.0035
 7790SOL    HW235007   0.531   2.990   9.955 -1.9920  3.2205 -1.5355
 7791SOL     OW35008   2.504   1.627   3.604  0.2924  0.0689 -0.5919
 7791SOL    HW135009   2.494   1.539   3.642  1.1312 -0.4848 -1.6335
 7791SOL    HW235010   2.551   1.670   3.675 -3.4304 -1.5368  2.8571
 7792SOL     OW35011   3.783   4.573  16.589 -0.6412  0.5745 -0.2502
 7792SOL    HW135012   3.791   4.479  16.608 -0.8713  0.1707 -2.2215
 7792SOL    HW235013   3.865   4.615  16.616 -1.0219  0.5830  0.9086
 7793SOL     OW35014   2.594   1.882   5.152  0.0980 -0.4563 -0.2596
 7793SOL    HW135015   2.633   1.931   5.224 -0.2410 -0.9650  0.2755
 7793SOL    HW235016   2.582   1.950   5.086  2.1756 -1.8491 -2.0765
 7794SOL     OW35017   3.499   3.397   7.360 -0.4088  0.1146  0.0876
 7794SOL    HW135018   3.480   3.490   7.353 -1.5592  0.0271  1.9977
 7794SOL    HW235019   3.557   3.396   7.437  0.5566 -0.6206 -0.6532
 7795SOL     OW35020   0.188   4.409   2.430 -0.6355  0.0516 -0.5764
 7795SOL    HW135021   0.233   4.350   2.490  1.4040  2.6167  0.3823
 7795SOL    HW235022   0.240   4.402   2.350  0.9267 -1.6819  0.5855
 7796SOL     OW35023   3.571   3.339  17.307  0.0363  0.3516 -0.0767
 7796SOL    HW135024   3.512   3.415  17.306 -1.5400 -0.8805  0.0513
 7796SOL    HW235025   3.550   3.293  17.226  0.5529 -1.9454  1.0951
 7797SOL     OW35026   4.534   2.950   1.344  0.2736 -0.3518  0.0008
 7797SOL    HW135027   4.628   2.945   1.330  0.2929 -0.5287  0.1941
 7797SOL    HW235028   4.538   2.877   1.405 -0.6658  0.4861  1.0530
 7798SOL     OW35029   2.709   0.210   7.432  0.1123  0.3082  0.2557
 7798SOL    HW135030   2.756   0.277   7.382  0.3007 -0.6405 -0.8305
 7798SOL    HW235031   2.785   0.196   7.489  3.3143  3.8594 -3.0343
 7799SOL     OW35032   2.207   1.763   2.084 -0.0596  0.6636  0.4063
 7799SOL    HW135033   2.243   1.677   2.103  2.9677  1.6625 -0.7986
 7799SOL    HW235034   2.120   1.735   2.058  1.1129 -1.5126 -1.1398
 7800SOL     OW35035   2.096   1.615   4.932  0.8584 -0.1695  0.2244
 7800SOL    HW135036   2.090   1.578   5.019 -2.4503  0.6868  0.3456
 7800SOL    HW235037   2.010   1.645   4.903  0.2383 -0.6190  1.6080
 7801SOL     OW35038   0.332   2.144   8.763  0.1521  0.0050  0.2658
 7801SOL    HW135039   0.293   2.187   8.687  1.1667  0.9600  0.2893
 7801SOL    HW235040   0.251   2.135   8.813  0.5121  1.9115  1.1903
 7802SOL     OW35041   0.185   0.258   0.576 -0.1308  0.4903  0.3356
 7802SOL    HW135042   0.117   0.325   0.580 -1.0450 -0.4268  0.2701
 7802SOL    HW235043   0.147   0.210   0.503 -1.6081  0.6780  0.9887
 7803SOL     OW35044   2.095   0.104   0.574 -0.0713  0.7990 -0.2201
 7803SOL    HW135045   2.022   0.098   0.512  0.5451 -2.1804 -0.6407
 7803SOL    HW235046   2.162   0.129   0.510  1.1892 -0.8898  0.4327
 7804SOL     OW35047   3.347   3.089   2.689 -0.3676  0.5180  0.5410
 7804SOL    HW135048   3.432   3.132   2.703 -0.2966  0.9033 -1.0340
 7804SOL    HW235049   3.296   3.146   2.745  0.1290 -1.6252  3.1453
 7805SOL     OW35050   1.445   4.171   4.239  0.0610  0.1067 -0.2730
 7805SOL    HW135051   1.506   4.144   4.307 -1.3422 -0.1358  0.8898
 7805SOL    HW235052   1.480   4.132   4.159  1.5763  0.1770  0.3586
 7806SOL     OW35053   0.765   1.624   4.184  0.1777 -0.0886 -0.2576
 7806SOL    HW135054   0.695   1.577   4.230  0.2998  0.0313  0.0485
 7806SOL    HW235055   0.768   1.587   4.096  0.4801 -0.0678 -0.2544
 7807SOL     OW35056   2.015   2.162   8.659  0.4262  0.5252  0.0194
 7807SOL    HW135057   2.100   2.123   8.640  0.9269  1.7261 -0.1901
 7807SOL    HW235058   1.962   2.083   8.651 -0.4163  1.1291 -0.3737
 7808SOL     OW35059   4.469   0.023  13.852 -0.5337  0.4481  0.5843
 7808SOL    HW135060   4.506   0.046  13.936 -0.4560 -0.1077  0.7045
 7808SOL    HW235061   4.553   0.000  13.811  1.2362  1.5636  3.6405
 7809SOL     OW35062   1.718   3.667   9.894 -0.2137 -0.1880 -0.2134
 7809SOL    HW135063   1.724   3.648   9.801 -0.6282 -1.5753  0.0391
 7809SOL    HW235064   1.707   3.762   9.894  0.5543 -0.0988 -0.7618
 7810SOL     OW35065   3.629   3.362   6.165  0.0474  0.3415  0.3664
 7810SOL    HW135066   3.559   3.373   6.228  1.8773  1.9474  2.1204
 7810SOL    HW235067   3.611   3.268   6.152 -0.5657  0.5008  0.0660
 7811SOL     OW35068   0.677   2.079   4.386  0.2368  0.7178 -0.1336
 7811SOL    HW135069   0.581   2.074   4.390  0.1880  2.8859  1.2526
 7811SOL    HW235070   0.693   2.111   4.297  2.3768  1.4521  0.5230
 7812SOL     OW35071   2.186   3.126   6.965 -0.5790  0.2553  0.4993
 7812SOL    HW135072   2.233   3.160   7.042 -0.0613 -1.8507  1.1022
 7812SOL    HW235073   2.093   3.141   6.982 -1.4192 -2.7508 -1.5110
 7813SOL     OW35074   3.443   3.424   9.271 -0.0815 -0.1451  0.1057
 7813SOL    HW135075   3.401   3.405   9.187  0.4931 -0.1749 -0.1753
 7813SOL    HW235076   3.393   3.360   9.321  1.1456 -1.0690  0.1477
 7814SOL     OW35077   2.435   0.178   2.078  0.0947  0.3990  0.1070
 7814SOL    HW135078   2.345   0.160   2.105 -0.4178  2.0754 -0.4643
 7814SOL    HW235079   2.485   0.138   2.149  0.1286  1.5532  0.7414
 7815SOL     OW35080   2.592   3.088   8.867  0.1745  0.4355 -0.5583
 7815SOL    HW135081   2.684   3.109   8.854  0.6763 -0.9456  0.6932
 7815SOL    HW235082   2.586   2.996   8.840  0.3411 -0.2398  1.6994
 7816SOL     OW35083   2.318   4.731  12.773 -0.7562  0.4204  0.5447
 7816SOL    HW135084   2.325   0.090  12.780  0.3466  0.5488 -2.3143
 7816SOL    HW235085   2.241   4.717  12.718 -0.7818 -1.1714  0.9913
 7817SOL     OW35086   0.152   2.041  16.794 -0.3229  0.0464 -0.4215
 7817SOL    HW135087   0.157   2.134  16.774  1.2363 -0.2174 -1.2320
 7817SOL    HW235088   0.086   2.047  16.863 -0.9130 -0.3069 -0.9490
 7818SOL     OW35089   4.719   1.268   3.418  0.9124  0.2325  0.2784
 7818SOL    HW135090   4.707   1.176   3.394 -3.0486  0.5578  1.0830
 7818SOL    HW235091   0.065   1.291   3.375 -0.3858 -0.4609 -2.5894
 7819SOL     OW35092   0.407   3.566  12.478  0.3716  0.7783 -0.4257
 7819SOL    HW135093   0.474   3.498  12.483  0.0367  0.4859  0.0436
 7819SOL    HW235094   0.431   3.616  12.556 -0.3582  1.7370 -0.8108
 7820SOL     OW35095   0.190   1.741   8.608 -0.0113  0.4650 -0.1646
 7820SOL    HW135096   0.211   1.798   8.682 -1.7777 -0.0464  0.7253
 7820SOL    HW235097   0.147   1.810   8.558 -0.4384  0.7347  0.5786
 7821SOL     OW35098   0.436   0.791   8.715 -0.4422 -0.4022 -0.1959
 7821SOL    HW135099   0.421   0.726   8.646 -1.1958 -1.1697  0.6914
 7821SOL    HW235100   0.451   0.744   8.797 -1.9652 -1.3673 -0.4697
 7822SOL     OW35101   2.212   4.178   7.083 -0.2460 -0.1049  0.2502
 7822SOL    HW135102   2.189   4.239   7.153 -1.1538  0.4090 -0.4971
 7822SOL    HW235103   2.293   4.130   7.102 -0.0083  0.0803 -0.2940
 7823SOL     OW35104   4.164   1.348  16.870 -0.2204 -0.3196  0.1792
 7823SOL    HW135105   4.144   1.373  16.961 -0.2015 -5.0406  1.5332
 7823SOL    HW235106   4.219   1.420  16.842 -0.7459 -0.1841 -0.5048
 7824SOL     OW35107   4.237   2.226   5.260 -0.0823 -0.2346  0.1626
 7824SOL    HW135108   4.301   2.212   5.190  0.7660 -1.7767  1.2416
 7824SOL    HW235109   4.180   2.150   5.248 -2.3340  1.0986  2.5164
 7825SOL     OW35110   2.990   4.619   5.582  0.0523  0.0224  0.5517
 7825SOL    HW135111   2.937   4.540   5.590  0.1101  0.1003  1.8116
 7825SOL    HW235112   3.083   4.594   5.575  0.1257 -0.3574  2.6707
 7826SOL     OW35113   4.695   2.474  15.446  0.2560  0.8274  0.0101
 7826SOL    HW135114   4.649   2.397  15.412  1.9551 -0.6158  0.9471
 7826SOL    HW235115   4.655   2.490  15.532 -0.2992 -0.3908 -0.0155
 7827SOL     OW35116   4.389   3.734   1.891 -0.2001  0.6382 -0.2353
 7827SOL    HW135117   4.384   3.797   1.819  0.8745 -0.9450 -1.7113
 7827SOL    HW235118   4.483   3.732   1.908 -0.4425 -1.4660  0.8773
 7828SOL     OW35119   1.516   3.385   1.416  0.0018  0.1448 -0.3249
 7828SOL    HW135120   1.441   3.363   1.360 -1.7599  0.7696  1.7846
 7828SOL    HW235121   1.591   3.374   1.358  1.8579  0.3918  2.0398
 7829SOL     OW35122   0.127   1.836   4.288  0.0525 -0.2236  0.0218
 7829SOL    HW135123   0.113   1.921   4.329  0.7913  0.3542 -0.9033
 7829SOL    HW235124   0.189   1.876   4.226  0.0288 -1.6248 -0.9303
 7830SOL     OW35125   0.140   2.093  11.721  0.4618  0.4454 -0.3709
 7830SOL    HW135126   0.110   2.142  11.798  0.1322  0.7056 -0.6608
 7830SOL    HW235127   0.226   2.134  11.717  0.0493  1.4533  0.7055
 7831SOL     OW35128   1.281   1.995   5.580  0.4640  0.5074 -0.0930
 7831SOL    HW135129   1.331   1.939   5.639  0.2705 -1.0860 -1.4756
 7831SOL    HW235130   1.206   2.015   5.637  1.3902 -0.7257  1.5517
 7832SOL     OW35131   1.000   3.684   7.668  0.1114  0.0417  0.3227
 7832SOL    HW135132   1.055   3.610   7.694 -0.6527 -0.9105 -0.7389
 7832SOL    HW235133   0.993   3.724   7.754 -2.2778 -1.9694  1.0395
 7833SOL     OW35134   2.059   0.516   6.252  0.2843  0.6721  0.2737
 7833SOL    HW135135   1.974   0.481   6.226 -0.1228 -0.0302  2.4727
 7833SOL    HW235136   2.061   0.593   6.196 -1.1839 -0.0878 -0.8439
 7834SOL     OW35137   4.367   1.598  12.834  0.0597  0.4506 -0.2671
 7834SOL    HW135138   4.336   1.608  12.924  1.1769 -1.0738  0.2832
 7834SOL    HW235139   4.357   1.505  12.817  2.7462  0.0822  0.3306
 7835SOL     OW35140   2.479   2.776   8.473 -0.7415  0.3986 -0.1176
 7835SOL    HW135141   2.413   2.751   8.408 -0.5520 -0.1048 -0.1220
 7835SOL    HW235142   2.466   2.701   8.531  1.8052  0.5874  0.6978
 7836SOL     OW35143   1.871   1.056   6.541 -0.9385 -0.4085  0.1669
 7836SOL    HW135144   1.887   1.006   6.620 -2.1925  2.8241  2.4753
 7836SOL    HW235145   1.873   1.145   6.578 -1.4713  0.4785 -1.9136
 7837SOL     OW35146   1.160   2.974  15.720  0.5845 -0.0562 -0.1207
 7837SOL    HW135147   1.132   3.031  15.791  1.7978 -1.0922  1.1859
 7837SOL    HW235148   1.085   3.001  15.668 -0.5782 -1.0198  1.0533
 7838SOL     OW35149   0.911   2.202   3.793 -0.2390 -0.1482 -0.3307
 7838SOL    HW135150   1.006   2.210   3.802 -0.1723  1.0944 -2.3468
 7838SOL    HW235151   0.888   2.288   3.760 -1.4319  0.4069  1.9347
 7839SOL     OW35152   3.053   0.477   4.488 -0.5040 -0.0783 -0.2063
 7839SOL    HW135153   3.117   0.529   4.440 -0.3862  1.6310  1.8080
 7839SOL    HW235154   3.103   0.434   4.558  0.8678  1.7690 -0.0715
 7840SOL     OW35155   0.853   1.327   3.247  0.2702 -1.0637 -0.5430
 7840SOL    HW135156   0.834   1.419   3.234  0.6515 -0.7016  1.4307
 7840SOL    HW235157   0.929   1.322   3.189  0.6972 -5.0050  0.3184
 7841SOL     OW35158   1.231   0.959   3.136  0.9108 -0.0115 -0.3477
 7841SOL    HW135159   1.138   0.972   3.154  1.0573 -0.5727  0.8071
 7841SOL    HW235160   1.232   0.918   3.050  2.8277 -1.2773  0.2752
 7842SOL     OW35161   3.566   2.097   5.038 -0.0663 -0.8894 -0.3809
 7842SOL    HW135162   3.593   2.045   5.114  0.8182  0.3736  0.1685
 7842SOL    HW235163   3.561   2.186   5.071 -1.3301 -0.7028 -1.0870
 7843SOL     OW35164   1.171   2.821   3.097 -0.4445 -0.2279  0.5474
 7843SOL    HW135165   1.143   2.870   3.175 -1.7785 -2.4095  1.4473
 7843SOL    HW235166   1.236   2.881   3.060  0.8695 -2.4626 -0.7171
 7844SOL     OW35167   3.543   4.141  12.405  0.3487 -0.2217 -0.4200
 7844SOL    HW135168   3.584   4.184  12.480 -0.7834  0.2413 -0.0661
 7844SOL    HW235169   3.451   4.153  12.429  1.0859 -0.3139  2.5174
 7845SOL     OW35170   1.699   3.154   3.544 -0.7071 -0.8133  0.4130
 7845SOL    HW135171   1.773   3.169   3.485 -1.3977 -0.7944 -0.4385
 7845SOL    HW235172   1.695   3.058   3.545 -0.5934 -0.8282 -0.2501
 7846SOL     OW35173   3.908   3.395   4.748  0.7310  0.2498  0.1812
 7846SOL    HW135174   3.955   3.322   4.707  1.6854  0.7622  0.3630
 7846SOL    HW235175   3.871   3.441   4.672  0.5970 -1.6946 -0.9470
 7847SOL     OW35176   0.725   3.076  15.721  0.0827  0.2741  0.7444
 7847SOL    HW135177   0.684   3.119  15.646 -0.3953 -1.7230 -0.1367
 7847SOL    HW235178   0.811   3.053  15.684  0.4329  0.8351  1.2027
 7848SOL     OW35179   1.131   4.153   1.155 -0.4154 -0.3381 -0.0981
 7848SOL    HW135180   1.215   4.117   1.183  0.5058  0.5628 -1.7042
 7848SOL    HW235181   1.157   4.242   1.177 -1.9439  0.6413 -2.2205
 7849SOL     OW35182   2.398   1.324  15.680  0.5224 -0.0553  0.4052
 7849SOL    HW135183   2.389   1.399  15.622  0.4280 -1.7225 -1.7197
 7849SOL    HW235184   2.441   1.256  15.628  1.5547  2.0583 -1.4967
 7850SOL     OW35185   3.597   2.110   3.371  0.1820 -0.2676 -0.1211
 7850SOL    HW135186   3.542   2.110   3.292  0.3239  0.5624 -0.2260
 7850SOL    HW235187   3.534   2.117   3.443 -0.2678  0.5826 -0.5978
 7851SOL     OW35188   0.620   2.462   0.908  0.2450 -0.2130  0.0130
 7851SOL    HW135189   0.594   2.462   0.816  0.6104  0.8427 -0.0841
 7851SOL    HW235190   0.659   2.549   0.910  0.2556 -0.2414  1.1874
 7852SOL     OW35191   0.089   1.030  12.632 -0.5008  0.3361 -0.2806
 7852SOL    HW135192   0.100   1.100  12.698  1.3113 -1.4600  1.3232
 7852SOL    HW235193   0.025   1.066  12.571 -1.8130  1.0463  1.4798
 7853SOL     OW35194   1.781   0.226   3.570  0.0387  0.1567  0.0196
 7853SOL    HW135195   1.693   0.230   3.609 -0.4042 -0.0486 -0.9661
 7853SOL    HW235196   1.824   0.271   3.643  2.7073 -0.4796 -1.1756
 7854SOL     OW35197   3.160   3.003   6.667 -0.3966 -0.1668  0.0555
 7854SOL    HW135198   3.127   3.088   6.637 -1.4248 -0.4161  0.4897
 7854SOL    HW235199   3.184   3.033   6.755 -1.8471  0.2917  0.2964
 7855SOL     OW35200   1.175   0.205   1.740  0.1345 -0.2224 -0.3932
 7855SOL    HW135201   1.259   0.159   1.746  0.2742 -0.0759 -1.2477
 7855SOL    HW235202   1.143   0.213   1.830 -2.3397  2.1261 -1.4689
 7856SOL     OW35203   2.189   4.376   7.275 -0.2391  0.3647 -0.2014
 7856SOL    HW135204   2.230   4.458   7.302  0.5345 -0.5981  1.5553
 7856SOL    HW235205   2.195   4.336   7.362 -0.9171  1.6851  0.4489
 7857SOL     OW35206   0.918   1.108   1.439 -0.1086  0.1864  0.2485
 7857SOL    HW135207   0.829   1.084   1.414 -0.1094  1.2140 -0.7501
 7857SOL    HW235208   0.969   1.030   1.418  2.6331  1.5244  1.9548
 7858SOL     OW35209   2.651   0.797   2.162 -0.2414  0.7021 -0.1252
 7858SOL    HW135210   2.649   0.747   2.080  1.5247 -1.3394  1.0635
 7858SOL    HW235211   2.722   0.858   2.141 -1.6972  2.2225 -0.5369
 7859SOL     OW35212   3.393   2.623   8.794 -0.2918 -0.1304  0.3524
 7859SOL    HW135213   3.340   2.584   8.724 -0.2969 -0.9343  0.8056
 7859SOL    HW235214   3.461   2.556   8.794  0.1305  0.3027 -0.6010
 7860SOL     OW35215   1.674   1.524   8.182  0.5657 -0.6151  0.6069
 7860SOL    HW135216   1.730   1.475   8.122  2.8103  2.8715 -0.1845
 7860SOL    HW235217   1.636   1.581   8.115  0.9675 -0.1352  0.7839
 7861SOL     OW35218   1.970   3.449   4.989 -0.0353 -0.4494 -0.5949
 7861SOL    HW135219   2.003   3.517   4.930  0.4871 -0.5504 -0.4174
 7861SOL    HW235220   2.028   3.454   5.065 -1.4775 -0.1329  0.4745
 7862SOL     OW35221   1.803   4.469  14.938  0.6206 -0.0068  0.0296
 7862SOL    HW135222   1.804   4.401  14.870 -0.7660  0.7143 -0.7008
 7862SOL    HW235223   1.881   4.451  14.991 -0.3255 -1.2456  0.9772
 7863SOL     OW35224   3.124   3.662   6.314 -0.4291 -0.3689 -0.2386
 7863SOL    HW135225   3.178   3.741   6.321 -0.1218 -0.6084  0.1372
 7863SOL    HW235226   3.041   3.699   6.344 -0.0615 -0.0085  0.3644
 7864SOL     OW35227   0.083   0.407   7.609  0.5054 -0.0137  0.3596
 7864SOL    HW135228   0.167   0.450   7.622  0.0606  0.7692  0.6023
 7864SOL    HW235229   0.090   0.333   7.670  2.1684 -2.0373 -2.2430
 7865SOL     OW35230   2.408   4.221   1.184  0.2356  0.3247 -0.2578
 7865SOL    HW135231   2.470   4.267   1.127 -0.6841 -0.1957 -1.6693
 7865SOL    HW235232   2.450   4.216   1.270 -0.3004  0.0219 -0.0134
 7866SOL     OW35233   3.484   3.426  12.857 -0.3628 -0.0049  0.0120
 7866SOL    HW135234   3.418   3.473  12.907  2.1308  2.8056  0.6400
 7866SOL    HW235235   3.533   3.498  12.817  1.1362 -0.7558  0.4640
 7867SOL     OW35236   3.279   0.702   4.421 -0.2088  0.2368  0.1654
 7867SOL    HW135237   3.308   0.791   4.444  1.7742 -0.2787 -0.2924
 7867SOL    HW235238   3.341   0.688   4.349  1.1570  0.3615  1.3138
 7868SOL     OW35239   1.254   3.854   8.759  0.1119 -0.0338 -0.2048
 7868SOL    HW135240   1.212   3.853   8.673 -2.3760  1.0288  0.9959
 7868SOL    HW235241   1.249   3.761   8.782  2.3592 -0.5937 -1.9486
 7869SOL     OW35242   0.833   1.056   3.834  0.1441 -0.0101 -0.7763
 7869SOL    HW135243   0.740   1.032   3.836  0.2451 -0.4950 -2.1075
 7869SOL    HW235244   0.823   1.150   3.847 -0.6391 -0.2883  0.6418
 7870SOL     OW35245   0.659   3.712   3.431  0.4167  0.5863 -0.2632
 7870SOL    HW135246   0.711   3.639   3.465  0.4628  0.6125 -0.2787
 7870SOL    HW235247   0.724   3.753   3.376  1.3767 -2.9835 -1.8048
 7871SOL     OW35248   1.607   3.407   3.610  0.5803  0.1945 -0.7909
 7871SOL    HW135249   1.625   3.315   3.590 -0.1970 -0.7165  2.6278
 7871SOL    HW235250   1.591   3.434   3.520  0.6766  1.7658 -0.3348
 7872SOL     OW35251   1.201   3.635   2.322  0.0572  0.0711  0.3707
 7872SOL    HW135252   1.158   3.563   2.369 -3.2119  0.9851 -1.1901
 7872SOL    HW235253   1.127   3.693   2.305  0.7528  1.2112  1.1774
 7873SOL     OW35254   3.545   3.451  14.924 -0.1809 -0.1925 -0.4403
 7873SOL    HW135255   3.491   3.446  15.003  0.8693 -0.4439  0.2587
 7873SOL    HW235256   3.487   3.420  14.854 -0.2032 -2.3016  0.5311
 7874SOL     OW35257   1.781   2.507   6.461  0.1359 -0.2892  0.4870
 7874SOL    HW135258   1.786   2.417   6.428 -0.7964 -0.6330  1.2719
 7874SOL    HW235259   1.863   2.540   6.425 -0.3252  0.1025 -0.1862
 7875SOL     OW35260   0.354   3.076   5.008  0.3763 -0.8513  0.1270
 7875SOL    HW135261   0.369   2.997   5.059 -0.7977 -0.4699  1.0486
 7875SOL    HW235262   0.343   3.140   5.078  1.5276  0.1209 -0.5742
 7876SOL     OW35263   3.967   4.709  11.416 -0.0603 -0.5636  0.2370
 7876SOL    HW135264   3.997   0.010  11.499 -0.3932 -0.6056  0.3756
 7876SOL    HW235265   3.876   4.693  11.440 -0.3232 -0.9977 -1.0932
 7877SOL     OW35266   2.943   0.888   4.479  0.0344  0.2110  0.6602
 7877SOL    HW135267   2.882   0.832   4.432 -1.7489  0.4991  2.6104
 7877SOL    HW235268   2.890   0.966   4.495  0.7760  0.8463 -0.0096
 7878SOL     OW35269   3.986   1.063   4.288  0.3199  0.5226  0.4582
 7878SOL    HW135270   3.982   1.008   4.209  2.0521  0.9908  0.0213
 7878SOL    HW235271   3.960   1.146   4.248  0.1306 -0.1856 -0.9040
 7879SOL     OW35272   2.462   0.925  16.866 -0.2124 -0.7907 -0.2084
 7879SOL    HW135273   2.396   0.870  16.908  0.8481 -0.9404  1.2541
 7879SOL    HW235274   2.537   0.865  16.858  0.8388  0.2301  2.2187
 7880SOL     OW35275   0.208   2.745   5.833  0.3676  0.0809  0.1745
 7880SOL    HW135276   0.229   2.654   5.854  2.5165  0.4562 -0.2978
 7880SOL    HW235277   0.280   2.797   5.870 -0.3708  1.2490 -0.0143
 7881SOL     OW35278   2.957   3.119   1.070  0.2946  0.2055 -0.8094
 7881SOL    HW135279   2.916   3.202   1.046  2.7618  1.1640 -1.6688
 7881SOL    HW235280   3.043   3.156   1.092 -0.4209  0.3182  1.7342
 7882SOL     OW35281   0.742   0.874  16.557 -0.0842  0.0775  0.2875
 7882SOL    HW135282   0.789   0.883  16.474 -0.6416 -1.2317 -0.1709
 7882SOL    HW235283   0.756   0.961  16.595 -0.2220 -0.7155  2.1731
 7883SOL     OW35284   3.119   0.262   7.690  0.3793 -0.2956 -0.5723
 7883SOL    HW135285   3.045   0.218   7.649 -0.3980 -1.5532  2.2464
 7883SOL    HW235286   3.084   0.269   7.779  1.7026 -0.0331 -0.0630
 7884SOL     OW35287   1.332   2.513   0.068  0.2666 -0.0787 -0.0185
 7884SOL    HW135288   1.358   2.594   0.111  1.6982 -0.2401 -0.5876
 7884SOL    HW235289   1.413   2.463   0.082 -0.3037 -1.2273 -0.7473
 7885SOL     OW35290   2.644   2.050   1.580  0.3919 -0.0259 -0.7645
 7885SOL    HW135291   2.628   2.122   1.641 -2.7182 -1.2605 -0.0846
 7885SOL    HW235292   2.700   2.090   1.514 -1.1417  0.9791 -1.4745
 7886SOL     OW35293   3.360   0.275  11.272  0.2092 -0.2128 -0.1332
 7886SOL    HW135294   3.347   0.368  11.253 -0.4430 -0.0800  0.9674
 7886SOL    HW235295   3.350   0.250  11.180 -1.0032 -0.7541  0.1478
 7887SOL     OW35296   4.038   2.205  10.076 -0.1325 -0.1162 -0.4616
 7887SOL    HW135297   3.968   2.140  10.073  1.2256 -1.5658 -0.7517
 7887SOL    HW235298   4.046   2.216  10.171 -2.9426  2.1600 -0.4693
 7888SOL     OW35299   4.411   1.477   8.248 -0.2012  0.0052  0.2315
 7888SOL    HW135300   4.455   1.393   8.248 -0.8925 -0.3506 -0.6426
 7888SOL    HW235301   4.371   1.474   8.162  1.2339 -0.4215 -0.4147
 7889SOL     OW35302   0.266   1.616   2.013 -0.0475  0.2375 -0.6922
 7889SOL    HW135303   0.185   1.643   2.056 -0.1849 -1.8430  0.3248
 7889SOL    HW235304   0.326   1.673   2.061 -1.8125  0.1392  1.6161
 7890SOL     OW35305   3.260   4.552   5.561  0.0644  0.1562 -0.2629
 7890SOL    HW135306   3.305   4.469   5.542 -0.7246 -0.3925  0.2395
 7890SOL    HW235307   3.302   4.614   5.503 -0.5533  0.2951 -0.5632
 7891SOL     OW35308   4.531   1.772  16.644 -0.3659 -0.3488 -0.0551
 7891SOL    HW135309   4.503   1.857  16.610 -0.4660 -0.2824  0.1860
 7891SOL    HW235310   4.465   1.711  16.611 -1.7335  2.0624 -1.7583
 7892SOL     OW35311   4.491   1.283   4.598 -0.6581 -0.3828  0.1323
 7892SOL    HW135312   4.411   1.302   4.549  0.3370  1.1856 -0.8678
 7892SOL    HW235313   4.475   1.303   4.691 -0.5760  0.7071 -0.0925
 7893SOL     OW35314   1.167   0.438   2.668  0.6096 -0.5122  0.4684
 7893SOL    HW135315   1.082   0.415   2.631  0.6268  0.5152 -0.2082
 7893SOL    HW235316   1.149   0.489   2.747  0.3011 -1.5352  1.0570
 7894SOL     OW35317   3.081   1.961   5.153 -0.0333 -0.2725 -0.0190
 7894SOL    HW135318   3.139   1.949   5.228 -2.5854 -0.2020  1.9709
 7894SOL    HW235319   3.142   2.006   5.095  0.9695  1.7204  2.5687
 7895SOL     OW35320   0.985   2.751   6.990  0.3339  0.1584  0.0789
 7895SOL    HW135321   1.054   2.709   6.938 -0.2335 -2.5502  1.5474
 7895SOL    HW235322   1.006   2.706   7.072 -0.3122 -1.0133 -0.4017
 7896SOL     OW35323   0.114   3.911   4.165  0.4390 -0.0090 -0.1173
 7896SOL    HW135324   0.131   3.984   4.224  2.1420 -0.1427 -0.4490
 7896SOL    HW235325   0.117   3.955   4.080 -0.1935 -0.3097 -0.2949
 7897SOL     OW35326   2.997   4.273   9.370  0.0911  0.4110 -0.1064
 7897SOL    HW135327   3.084   4.251   9.335 -0.2189 -1.7858  0.4743
 7897SOL    HW235328   2.949   4.190   9.374 -1.4907  1.4231  1.6722
 7898SOL     OW35329   1.032   0.040   3.399  0.5643  0.5264 -0.3923
 7898SOL    HW135330   1.083   4.711   3.445  0.0873  0.8223  0.5496
 7898SOL    HW235331   1.077   0.037   3.314  1.6128 -1.7852  0.2485
 7899SOL     OW35332   0.814   4.159   7.034 -0.2947 -0.2934 -0.1125
 7899SOL    HW135333   0.818   4.210   7.115  0.0820 -0.3762 -0.0802
 7899SOL    HW235334   0.877   4.209   6.981  0.2944 -1.1284 -0.1893
 7900SOL     OW35335   1.424   0.966   2.109  0.2517  0.5897  0.2587
 7900SOL    HW135336   1.415   0.995   2.019 -1.2663  2.5620  1.0364
 7900SOL    HW235337   1.507   1.007   2.132 -1.5394  3.3970  1.7222
 7901SOL     OW35338   1.078   3.551   6.744 -0.0244 -0.1147  0.2898
 7901SOL    HW135339   1.075   3.578   6.653 -0.6314  2.6676  1.1363
 7901SOL    HW235340   0.992   3.514   6.760 -0.6168  2.4151  2.9843
 7902SOL     OW35341   4.066   2.159   7.410 -0.5054 -0.0184  0.2841
 7902SOL    HW135342   3.984   2.113   7.430 -2.1082  2.3655 -0.8714
 7902SOL    HW235343   4.083   2.215   7.485  0.5858 -1.4333  1.1026
 7903SOL     OW35344   0.666   2.954  10.986 -0.2413 -0.6060  0.3286
 7903SOL    HW135345   0.602   3.009  10.940  0.7364  1.9916  2.0949
 7903SOL    HW235346   0.647   2.951  11.080 -1.8768 -0.4038  0.0063
 7904SOL     OW35347   3.553   1.005   8.801 -0.5094 -0.3470  0.1945
 7904SOL    HW135348   3.591   0.993   8.888 -0.0647  0.0894  0.0618
 7904SOL    HW235349   3.594   1.084   8.766  0.2524 -0.8758 -0.0975
 7905SOL     OW35350   1.859   1.650   5.462  0.0393 -0.1665 -0.2518
 7905SOL    HW135351   1.771   1.613   5.470 -0.6941  1.4733 -0.7629
 7905SOL    HW235352   1.884   1.646   5.554 -1.2624 -1.9483  0.0236
 7906SOL     OW35353   3.150   3.221   8.991  0.0649  0.3458  0.2585
 7906SOL    HW135354   3.102   3.302   9.007 -2.1391 -0.6153 -1.5753
 7906SOL    HW235355   3.099   3.161   9.045 -0.5798  0.1899 -0.5295
 7907SOL     OW35356   2.811   1.562   6.607 -0.3496 -0.0191  0.7492
 7907SOL    HW135357   2.813   1.609   6.524 -1.7910  0.6052  1.0632
 7907SOL    HW235358   2.773   1.622   6.671 -2.3507 -1.1137  0.6088
 7908SOL     OW35359   3.887   1.652   1.992 -0.1862  0.7312 -0.0855
 7908SOL    HW135360   3.805   1.603   2.001  2.7498 -4.6306 -2.7131
 7908SOL    HW235361   3.950   1.582   1.979  2.0746  2.6678  0.3291
 7909SOL     OW35362   0.836   4.557   9.473 -0.0796 -0.0180 -0.0926
 7909SOL    HW135363   0.875   4.607   9.545 -1.4242  2.6995 -1.2719
 7909SOL    HW235364   0.806   4.476   9.516  0.0456 -0.7981 -1.4747
 7910SOL     OW35365   3.614   3.197   2.754 -0.3282  0.2980 -0.2152
 7910SOL    HW135366   3.641   3.283   2.785 -0.3465 -0.2879  1.4069
 7910SOL    HW235367   3.579   3.160   2.834 -0.0477 -0.3548 -0.3925
 7911SOL     OW35368   2.561   1.369   4.887 -0.0198  0.0412 -0.2272
 7911SOL    HW135369   2.599   1.324   4.963  0.4913  1.9176  0.6546
 7911SOL    HW235370   2.637   1.395   4.835  0.5970  0.9455  1.1050
 7912SOL     OW35371   1.668   4.315   2.356 -0.1790  0.4079 -0.5043
 7912SOL    HW135372   1.655   4.226   2.324  0.0869 -0.3200  1.3683
 7912SOL    HW235373   1.762   4.312   2.372 -0.3259  0.8575  0.4829
 7913SOL     OW35374   1.450   1.861   5.734  0.4640  0.8457 -0.5438
 7913SOL    HW135375   1.453   1.888   5.826 -1.7085  1.3070 -0.6232
 7913SOL    HW235376   1.451   1.766   5.744 -0.6393  1.0163  1.1526
 7914SOL     OW35377   3.807   2.061   3.159  0.4898  0.1079 -0.6391
 7914SOL    HW135378   3.767   2.089   3.076  0.3799  3.0656  0.4107
 7914SOL    HW235379   3.754   2.093   3.231  0.8156  1.4653 -1.0054
 7915SOL     OW35380   4.704   1.925   3.549 -0.1552 -0.3816 -0.5322
 7915SOL    HW135381   4.646   1.941   3.474  0.6795 -0.6284 -1.2325
 7915SOL    HW235382   0.052   1.938   3.507  0.1022 -0.8939 -0.1803
 7916SOL     OW35383   0.080   3.339  16.297  0.3354 -0.5617  0.0015
 7916SOL    HW135384   0.065   3.259  16.247  2.5193 -0.5640 -0.6471
 7916SOL    HW235385   4.734   3.385  16.314  0.8488  0.3202  0.1297
 7917SOL     OW35386   2.207   0.624  11.899  0.1438 -0.2813 -0.2333
 7917SOL    HW135387   2.115   0.630  11.873  0.0236  1.4500  0.6531
 7917SOL    HW235388   2.199   0.647  11.991 -1.9241  0.8947 -0.7096
 7918SOL     OW35389   4.362   1.200   2.972 -0.1416 -0.1393 -0.4146
 7918SOL    HW135390   4.320   1.242   3.048 -1.1968 -0.3763 -0.8761
 7918SOL    HW235391   4.395   1.280   2.931 -3.1411 -0.5566 -3.6632
 7919SOL     OW35392   0.197   0.653   6.940 -0.3473  0.5022 -0.3895
 7919SOL    HW135393   0.244   0.725   6.897 -0.4963  0.5976 -0.3896
 7919SOL    HW235394   0.177   0.700   7.021  1.6162  0.0369  0.3724
 7920SOL     OW35395   0.606   0.621  11.143  0.1379 -0.1859  0.0492
 7920SOL    HW135396   0.661   0.591  11.071  1.5896 -1.8743  1.8625
 7920SOL    HW235397   0.668   0.665  11.201 -0.1518  1.7846 -1.1229
 7921SOL     OW35398   1.977   4.282  16.980 -0.6688 -0.3120 -0.2504
 7921SOL    HW135399   1.970   4.364  17.028 -1.2272  0.1753 -1.1743
 7921SOL    HW235400   2.071   4.284  16.961 -0.6790  0.3145 -0.2489
 7922SOL     OW35401   2.679   0.811  15.308  0.3539  0.4599  0.2155
 7922SOL    HW135402   2.730   0.838  15.384 -0.9891 -1.0679  1.6743
 7922SOL    HW235403   2.714   0.723  15.302 -0.4285  0.0032  2.4087
 7923SOL     OW35404   0.495   2.375   2.990 -0.0053  0.3973 -0.1507
 7923SOL    HW135405   0.587   2.384   3.013 -0.2021 -0.3848  0.9375
 7923SOL    HW235406   0.439   2.387   3.066  0.1385 -0.2796  0.0655
 7924SOL     OW35407   4.278   3.965   2.582  0.5223  0.0964 -0.1305
 7924SOL    HW135408   4.188   3.934   2.591  0.0275  1.3956 -0.6101
 7924SOL    HW235409   4.312   3.966   2.671 -2.1614  0.8268  0.8894
 7925SOL     OW35410   4.515   1.699   7.826 -0.5254 -0.4318 -0.2679
 7925SOL    HW135411   4.582   1.697   7.894 -0.9846 -3.4113  0.0675
 7925SOL    HW235412   4.505   1.605   7.811  0.9995 -0.3387 -1.8714
 7926SOL     OW35413   4.145   2.912   4.977 -0.1095 -0.3536  0.5565
 7926SOL    HW135414   4.107   2.929   4.891 -0.5071 -1.5668  0.4826
 7926SOL    HW235415   4.147   2.999   5.014  1.9852  0.0066 -0.4027
 7927SOL     OW35416   1.018   3.667  10.156  0.1667 -0.3016  0.3883
 7927SOL    HW135417   1.038   3.759  10.176 -1.3856  0.0987  0.0730
 7927SOL    HW235418   0.942   3.652  10.211 -0.5196  1.9977  0.0559
 7928SOL     OW35419   1.880   1.894   8.647  0.4551 -0.4499 -0.7657
 7928SOL    HW135420   1.880   1.848   8.562  1.7708 -1.3283 -0.2877
 7928SOL    HW235421   1.808   1.953   8.624  0.9185  0.9580  1.4696
 7929SOL     OW35422   3.493   2.190   6.227  0.7128  0.2049  0.0461
 7929SOL    HW135423   3.538   2.136   6.162  0.9321 -0.5334  0.8066
 7929SOL    HW235424   3.468   2.269   6.180  0.9184 -0.5148 -1.2803
 7930SOL     OW35425   2.012   4.672   6.820 -0.0792 -0.2430 -0.0609
 7930SOL    HW135426   2.008   4.595   6.877  0.9710  0.9752  1.6768
 7930SOL    HW235427   1.985   4.731   6.890  0.2048  0.7532 -0.7827
 7931SOL     OW35428   2.456   1.853   5.416  0.0265 -0.5117 -0.0765
 7931SOL    HW135429   2.510   1.924   5.448 -0.9506  0.7190 -1.1421
 7931SOL    HW235430   2.420   1.893   5.336 -0.8779 -1.6061 -0.2334
 7932SOL     OW35431   3.366   0.663  17.718 -0.1794 -0.0436  0.0683
 7932SOL    HW135432   3.362   0.746   0.022  0.1152  0.4461 -0.7436
 7932SOL    HW235433   3.277   0.669  17.684 -0.1162  0.2147 -0.0483
 7933SOL     OW35434   0.757   1.270   4.453  0.0072  0.0704  0.1307
 7933SOL    HW135435   0.832   1.329   4.456  0.3011 -0.3538  1.0625
 7933SOL    HW235436   0.794   1.196   4.407 -1.8997 -0.8289  0.0539
 7934SOL     OW35437   1.804   0.208  13.346 -0.0177 -0.7703  0.1239
 7934SOL    HW135438   1.725   0.220  13.399  0.1273 -0.5842  0.2948
 7934SOL    HW235439   1.810   0.116  13.372 -0.3543 -0.7772  0.1817
 7935SOL     OW35440   2.374   1.461   7.302 -0.0418 -0.2833 -0.5812
 7935SOL    HW135441   2.297   1.517   7.290  0.1762  0.5976  2.0930
 7935SOL    HW235442   2.335   1.385   7.345 -0.2846  0.1363 -0.0548
 7936SOL     OW35443   2.473   4.331   2.276  0.0958 -1.1011  0.3077
 7936SOL    HW135444   2.411   4.270   2.316  0.4324 -2.1784 -0.8119
 7936SOL    HW235445   2.415   4.370   2.211  2.2094 -0.1575 -0.9979
 7937SOL     OW35446   2.730   0.861   8.253  0.2883  1.0895 -0.3459
 7937SOL    HW135447   2.764   0.825   8.335  0.3204  1.4967 -0.1827
 7937SOL    HW235448   2.780   0.817   8.183 -1.1851  2.1745 -2.0630
 7938SOL     OW35449   2.066   0.543   7.123  0.2319 -0.0046 -0.0656
 7938SOL    HW135450   1.999   0.579   7.181 -0.5863  0.8825 -1.5476
 7938SOL    HW235451   2.009   0.471   7.097  0.3348 -0.0691 -0.1077
 7939SOL     OW35452   0.994   0.628   9.064 -0.1678  0.6337  0.1046
 7939SOL    HW135453   0.993   0.716   9.100  0.6911  0.7929 -0.2469
 7939SOL    HW235454   0.903   0.600   9.056  0.0042  0.1832 -0.3004
 7940SOL     OW35455   3.113   1.708   8.946  0.0237 -0.3182  0.0528
 7940SOL    HW135456   3.186   1.698   9.008  0.4873  0.2085 -0.4058
 7940SOL    HW235457   3.151   1.716   8.859 -0.8868  1.2379 -0.1792
 7941SOL     OW35458   1.118   2.458   8.934 -0.3608 -0.0577 -0.2714
 7941SOL    HW135459   1.207   2.491   8.922 -0.1592 -1.2587 -2.0739
 7941SOL    HW235460   1.132   2.378   8.883 -0.4471 -0.3070  0.0967
 7942SOL     OW35461   0.018   0.720   7.835  0.6026  0.3079 -0.3855
 7942SOL    HW135462   4.663   0.737   7.859  0.3843 -0.0257 -0.9780
 7942SOL    HW235463   0.064   0.802   7.852  0.2030  0.3776  0.3903
 7943SOL     OW35464   0.507   4.706   9.344  0.5028 -0.8800 -0.5323
 7943SOL    HW135465   0.464   4.621   9.349 -1.1215  0.0558  1.4848
 7943SOL    HW235466   0.479   0.006   9.428  0.7587 -0.7284 -0.5128
 7944SOL     OW35467   0.476   3.014   6.667 -0.4856  0.1014  0.6506
 7944SOL    HW135468   0.494   3.033   6.759  0.3449  0.2246  0.4611
 7944SOL    HW235469   0.504   2.924   6.653  1.2859  0.6332  0.7709
 7945SOL     OW35470   0.541   4.080   6.330 -0.1366  0.4159  0.3361
 7945SOL    HW135471   0.449   4.076   6.303 -0.4793 -1.4369  1.8425
 7945SOL    HW235472   0.544   4.009   6.393  1.4750 -1.6985 -2.1560
 7946SOL     OW35473   1.223   1.376  14.250 -0.3085 -0.1932  0.2956
 7946SOL    HW135474   1.153   1.311  14.257 -0.9611  0.0827 -3.3156
 7946SOL    HW235475   1.272   1.326  14.185  0.7671  1.0532  0.1526
 7947SOL     OW35476   3.315   3.816   2.708  0.2066 -0.3836 -0.1429
 7947SOL    HW135477   3.343   3.883   2.646  1.4972 -0.0053  0.8580
 7947SOL    HW235478   3.229   3.851   2.732 -0.3364 -2.6726  1.2960
 7948SOL     OW35479   1.247   3.404  14.366 -0.2827 -0.1230 -0.2186
 7948SOL    HW135480   1.341   3.406  14.350 -0.6594  2.6448 -2.0401
 7948SOL    HW235481   1.250   3.458  14.445 -1.3861 -0.2980 -0.0512
 7949SOL     OW35482   3.559   1.644   4.542  0.2942  0.0215  0.1040
 7949SOL    HW135483   3.574   1.559   4.582  1.6325  0.0494 -0.3287
 7949SOL    HW235484   3.648   1.681   4.543  0.2012  0.2293  0.5038
 7950SOL     OW35485   3.608   2.745   5.900  0.2193 -0.3472  0.1982
 7950SOL    HW135486   3.620   2.838   5.877  0.6274 -0.2421  0.8343
 7950SOL    HW235487   3.630   2.692   5.824  0.4612  2.1291 -1.4652
 7951SOL     OW35488   3.472   2.511   7.478 -0.1262  0.6138  0.2387
 7951SOL    HW135489   3.537   2.446   7.450  0.1896  0.6983  0.7901
 7951SOL    HW235490   3.531   2.579   7.510  0.0844  0.6891 -0.3049
 7952SOL     OW35491   0.586   2.678   7.886  0.2516 -0.5181 -0.0684
 7952SOL    HW135492   0.520   2.706   7.950  1.6033  1.3191  0.5068
 7952SOL    HW235493   0.536   2.599   7.863  1.5612 -0.9382 -1.4696
 7953SOL     OW35494   2.201   4.336  10.619  0.1389  0.0769  0.3038
 7953SOL    HW135495   2.193   4.406  10.684  0.0845  0.5664 -0.2279
 7953SOL    HW235496   2.268   4.281  10.660  1.1969  0.8748 -0.3496
 7954SOL     OW35497   4.121   0.027   7.988 -0.7829 -0.0871 -1.1761
 7954SOL    HW135498   4.035   4.726   8.007 -0.4076 -1.1423 -1.5565
 7954SOL    HW235499   4.159   0.009   8.074  0.8244  1.0242 -1.6739
 7955SOL     OW35500   0.631   2.395   8.086 -0.1091  0.1840  0.2518
 7955SOL    HW135501   0.583   2.317   8.115 -1.0913  0.8039  0.2830
 7955SOL    HW235502   0.555   2.452   8.077  1.2551  1.4201 -3.8531
 7956SOL     OW35503   2.567   4.001  12.970  0.1931 -0.4180 -0.7020
 7956SOL    HW135504   2.642   3.940  12.972 -0.4640 -1.2174 -0.4194
 7956SOL    HW235505   2.604   4.089  12.961 -1.5665  0.6598  2.9308
 7957SOL     OW35506   0.268   2.608   0.749  0.6457  0.2070  0.7332
 7957SOL    HW135507   0.288   2.702   0.750  2.9385 -0.2936  0.0822
 7957SOL    HW235508   0.357   2.577   0.735  1.2799  2.7440 -0.8956
 7958SOL     OW35509   3.416   1.559   2.023 -0.1842 -0.3813 -0.1852
 7958SOL    HW135510   3.339   1.503   2.036  0.1713 -0.8604 -0.1481
 7958SOL    HW235511   3.361   1.638   2.025 -1.0850 -1.0517  1.5202
 7959SOL     OW35512   0.227   1.756   6.406 -0.1205  0.4632  0.1500
 7959SOL    HW135513   0.239   1.686   6.342  2.3914 -0.0221  1.1868
 7959SOL    HW235514   0.221   1.836   6.353  0.6343 -0.6929 -1.6702
 7960SOL     OW35515   2.506   0.220  16.648  0.2762  0.0918 -0.1433
 7960SOL    HW135516   2.515   0.282  16.576 -1.2209 -1.2855 -1.5024
 7960SOL    HW235517   2.429   0.166  16.632  1.7490 -1.4616 -1.9363
 7961SOL     OW35518   3.784   2.869   8.623 -0.1436  0.2526 -0.2227
 7961SOL    HW135519   3.851   2.937   8.617  1.6464 -1.6211 -1.2018
 7961SOL    HW235520   3.752   2.890   8.710  0.8860  0.0360  0.2019
 7962SOL     OW35521   4.516   3.867   7.573  0.4081  0.0346 -0.1980
 7962SOL    HW135522   4.557   3.893   7.491  1.2732  1.4647  0.6837
 7962SOL    HW235523   4.425   3.884   7.548  1.0586  2.0720 -1.1760
 7963SOL     OW35524   0.176   4.634   4.526  0.8351  0.3454  0.0817
 7963SOL    HW135525   0.107   4.662   4.585  1.5635  1.9551  0.1712
 7963SOL    HW235526   0.165   4.702   4.459 -2.6059 -1.6005 -1.2846
 7964SOL     OW35527   1.019   4.166   4.521 -0.1836  0.0766  0.0542
 7964SOL    HW135528   0.978   4.111   4.454 -4.8756  0.2183  2.7855
 7964SOL    HW235529   1.110   4.160   4.492  0.3127 -1.1567  1.8635
 7965SOL     OW35530   3.795   3.579   0.336 -0.4708 -0.1925 -0.1678
 7965SOL    HW135531   3.834   3.577   0.424 -0.3799 -1.1043 -0.2372
 7965SOL    HW235532   3.776   3.488   0.314  1.5401 -0.7326  0.3169
 7966SOL     OW35533   3.222   0.410  13.411  0.5393 -0.3150  0.6379
 7966SOL    HW135534   3.235   0.500  13.439  1.0003  0.1326 -1.0072
 7966SOL    HW235535   3.194   0.418  13.320 -2.4038  0.5454  1.6466
 7967SOL     OW35536   3.906   2.361   9.867  0.0716 -0.6030 -0.0422
 7967SOL    HW135537   3.947   2.337   9.949  1.2739 -1.3413 -0.8589
 7967SOL    HW235538   3.924   2.280   9.818  0.9403 -0.1779 -0.4258
 7968SOL     OW35539   2.856   0.762   5.679 -0.4146 -0.1517  0.3730
 7968SOL    HW135540   2.921   0.703   5.639 -1.1633 -0.3590 -0.5568
 7968SOL    HW235541   2.854   0.835   5.617 -2.2227 -0.6281 -0.1169
 7969SOL     OW35542   4.426   3.126   7.203 -0.2951 -0.7834  0.3202
 7969SOL    HW135543   4.458   3.052   7.151 -0.4147 -0.3889 -0.3180
 7969SOL    HW235544   4.458   3.104   7.291 -2.0807  0.9625  1.3973
 7970SOL     OW35545   4.335   2.462  14.776 -0.7909 -0.0471 -0.4769
 7970SOL    HW135546   4.302   2.404  14.707  0.3772 -1.8264  0.4710
 7970SOL    HW235547   4.321   2.408  14.854 -0.6093  1.8426  0.8625
 7971SOL     OW35548   4.302   0.027  10.708 -0.2464  0.8047 -0.2431
 7971SOL    HW135549   4.376   0.009  10.651  1.3167  2.3390  1.2990
 7971SOL    HW235550   4.252   0.087  10.652  0.1108  0.3233 -1.0757
 7972SOL     OW35551   0.132   4.229   1.926 -0.1474  0.2628  0.0048
 7972SOL    HW135552   0.084   4.257   1.849 -0.7743  0.4924  0.4831
 7972SOL    HW235553   0.209   4.197   1.879  0.5041 -0.4291  1.5254
 7973SOL     OW35554   0.677   0.624   6.054 -0.1752 -0.0831  0.8127
 7973SOL    HW135555   0.750   0.620   5.992 -0.8148 -0.4624  0.0785
 7973SOL    HW235556   0.716   0.598   6.137  1.2800 -0.0100  0.1382
 7974SOL     OW35557   2.906   0.888   9.797  0.3748 -0.1346  0.2107
 7974SOL    HW135558   2.984   0.902   9.743 -0.3546 -0.2089 -0.8616
 7974SOL    HW235559   2.931   0.799   9.823  0.7891  0.1999  0.9513
 7975SOL     OW35560   3.955   0.754   4.773 -0.1289  0.5705  0.8122
 7975SOL    HW135561   3.897   0.766   4.698  0.4381  1.0528  0.4543
 7975SOL    HW235562   3.914   0.686   4.827 -0.3938  0.9299  1.0606
 7976SOL     OW35563   3.359   4.653   5.811  0.2930 -0.1161 -0.1396
 7976SOL    HW135564   3.335   4.628   5.722  0.7348 -0.0057 -0.2893
 7976SOL    HW235565   3.430   4.717   5.807 -1.0726  1.3620 -0.8141
 7977SOL     OW35566   2.347   0.118   0.769  0.3927  0.2232  0.1192
 7977SOL    HW135567   2.396   0.040   0.746 -0.8988 -0.2327 -1.1002
 7977SOL    HW235568   2.254   0.095   0.766 -0.1835  2.4029  0.5442
 7978SOL     OW35569   3.565   2.598   5.607 -0.4417  0.1973 -0.1224
 7978SOL    HW135570   3.506   2.670   5.586  0.1833  0.5849 -0.5598
 7978SOL    HW235571   3.649   2.642   5.592 -0.1641 -1.3208 -3.0741
 7979SOL     OW35572   2.103   4.343   2.773 -0.1266  0.3241 -0.0270
 7979SOL    HW135573   2.097   4.412   2.839  1.1013  0.1594  0.2476
 7979SOL    HW235574   2.091   4.261   2.820 -0.4861  0.3982  0.0143
 7980SOL     OW35575   3.436   2.894   1.323 -0.1119  0.2729 -0.1112
 7980SOL    HW135576   3.494   2.970   1.332  0.1046  0.0536  0.3340
 7980SOL    HW235577   3.484   2.821   1.362 -0.3809 -1.5015 -3.0241
 7981SOL     OW35578   2.256   1.220   4.139  0.1702 -0.0336  0.1186
 7981SOL    HW135579   2.328   1.272   4.173  1.1408 -2.5528  1.9748
 7981SOL    HW235580   2.261   1.237   4.045 -1.4869  0.1116  0.0527
 7982SOL     OW35581   0.298   4.583   2.026  0.3475  0.5346 -0.0409
 7982SOL    HW135582   0.353   4.532   1.966  0.3581  1.6386 -0.9616
 7982SOL    HW235583   0.277   4.515   2.090 -0.6891  0.9452  0.0457
 7983SOL     OW35584   4.168   2.468  15.156 -0.4891  0.6642 -0.1119
 7983SOL    HW135585   4.176   2.563  15.162 -0.8578  0.6974 -0.1728
 7983SOL    HW235586   4.110   2.459  15.232 -0.2536 -0.1740 -0.0339
 7984SOL     OW35587   2.628   2.993   3.425 -0.2039  0.5357 -0.0386
 7984SOL    HW135588   2.564   3.055   3.391 -0.8468 -0.0388  0.1233
 7984SOL    HW235589   2.706   3.049   3.427  0.8978 -1.0428  1.0575
 7985SOL     OW35590   3.978   4.328  13.707  0.2127 -0.1663 -0.1850
 7985SOL    HW135591   4.018   4.380  13.777  1.0927 -1.8643  0.5650
 7985SOL    HW235592   3.885   4.343  13.720 -0.1423 -2.5256 -0.0299
 7986SOL     OW35593   1.875   0.129  12.858 -0.1782  0.1267  0.2776
 7986SOL    HW135594   1.782   0.129  12.837 -0.1781  0.7195  0.2931
 7986SOL    HW235595   1.894   0.221  12.843  2.5922 -0.0595  2.5548
 7987SOL     OW35596   3.842   0.112   3.794 -0.2439 -0.1123 -0.0726
 7987SOL    HW135597   3.771   0.099   3.731 -0.6042  2.1115 -0.1164
 7987SOL    HW235598   3.794   0.161   3.861  0.5382 -0.2809  0.6184
 7988SOL     OW35599   1.810   1.751   2.848 -0.2576 -0.4804 -0.1664
 7988SOL    HW135600   1.837   1.715   2.932  0.4174  0.1335 -0.1284
 7988SOL    HW235601   1.902   1.757   2.824 -0.4303  1.2332 -0.3520
 7989SOL     OW35602   3.460   4.491  12.718 -0.2996  0.7622 -0.2534
 7989SOL    HW135603   3.531   4.489  12.654 -0.6225 -0.8675 -0.5586
 7989SOL    HW235604   3.398   4.455  12.655 -0.3077  0.2837  0.0281
 7990SOL     OW35605   0.704   2.097   3.219  0.3520 -0.3863  0.4399
 7990SOL    HW135606   0.630   2.139   3.263 -0.5226 -0.5970 -0.8310
 7990SOL    HW235607   0.777   2.148   3.253  0.3123 -2.3666  3.5324
 7991SOL     OW35608   2.446   3.375   0.304  0.6703  0.0757 -0.1480
 7991SOL    HW135609   2.447   3.437   0.376 -0.3450 -0.3694  0.2582
 7991SOL    HW235610   2.523   3.404   0.256  0.5540  2.3818  1.0750
 7992SOL     OW35611   2.716   3.657   0.993 -0.5167 -0.0567 -0.3628
 7992SOL    HW135612   2.670   3.694   1.068  0.6801 -1.7900  1.2348
 7992SOL    HW235613   2.679   3.707   0.920 -0.3465 -1.0565 -1.1424
 7993SOL     OW35614   1.349   2.081  16.913  0.4922 -0.0845  0.5728
 7993SOL    HW135615   1.327   2.174  16.917  1.0851  0.0503  0.7594
 7993SOL    HW235616   1.437   2.090  16.878  0.1731  0.1722 -0.1522
 7994SOL     OW35617   3.106   1.911   8.335 -0.0364  0.0082  0.4407
 7994SOL    HW135618   3.051   1.834   8.317  2.0573 -1.7351  1.5005
 7994SOL    HW235619   3.088   1.922   8.428 -0.6896 -0.7370  0.4083
 7995SOL     OW35620   2.964   2.722   1.433 -0.7748 -0.6603  0.5198
 7995SOL    HW135621   3.043   2.669   1.437 -0.1423  0.2890  0.5317
 7995SOL    HW235622   2.988   2.814   1.445 -1.6791 -0.1364 -1.7635
 7996SOL     OW35623   1.198   3.022   8.135  0.3674 -0.0314 -0.0400
 7996SOL    HW135624   1.290   3.049   8.127 -0.0420  1.1955 -0.5518
 7996SOL    HW235625   1.192   3.023   8.230 -1.3311 -0.2650 -0.1431
 7997SOL     OW35626   2.409   3.197   3.418 -0.6106 -0.4547 -0.0692
 7997SOL    HW135627   2.345   3.185   3.347 -1.5347 -1.2230  0.9009
 7997SOL    HW235628   2.355   3.226   3.491 -0.7501  0.6022 -0.5907
 7998SOL     OW35629   1.450   1.908  17.618  0.0880  0.6069  0.3131
 7998SOL    HW135630   1.401   1.988  17.635 -0.3360  0.4079  0.0305
 7998SOL    HW235631   1.493   1.901  17.703 -1.5392  0.1004  1.0956
 7999SOL     OW35632   3.615   0.382  16.976  0.2557 -0.1887 -0.6523
 7999SOL    HW135633   3.693   0.418  16.933  2.1742 -0.9400  2.1961
 7999SOL    HW235634   3.547   0.434  16.933 -1.8067 -0.9745  1.6666
 8000SOL     OW35635   0.752   2.930   5.679  0.5229 -0.0305 -0.7215
 8000SOL    HW135636   0.811   2.956   5.749  0.4317 -1.6808 -0.0213
 8000SOL    HW235637   0.817   2.904   5.614  0.0316 -0.3352 -1.0987
 8001SOL     OW35638   4.011   0.960   5.617 -0.0406 -0.0312 -1.0504
 8001SOL    HW135639   4.081   0.909   5.658 -0.8264 -1.4850 -1.5185
 8001SOL    HW235640   3.980   1.003   5.696  1.2350 -1.5786  0.2893
 8002SOL     OW35641   0.149   2.762  16.299 -0.2774  0.3065 -0.3025
 8002SOL    HW135642   0.072   2.776  16.353  1.2749  1.0261  1.7494
 8002SOL    HW235643   0.148   2.666  16.303  0.7733  0.3177  0.2661
 8003SOL     OW35644   4.024   1.758   5.382  0.0577  0.0864  0.6612
 8003SOL    HW135645   4.065   1.762   5.468 -1.2266 -3.2027  1.4246
 8003SOL    HW235646   3.936   1.732   5.412 -0.4451 -0.1340 -0.9834
 8004SOL     OW35647   2.402   0.914  14.643 -0.3116 -0.1368 -0.1102
 8004SOL    HW135648   2.489   0.943  14.617 -0.1299 -0.4109  0.1884
 8004SOL    HW235649   2.419   0.840  14.702 -0.2840  0.8053  1.0753
 8005SOL     OW35650   1.018   3.152   8.541  0.0828 -0.4841  0.0003
 8005SOL    HW135651   0.951   3.116   8.599  2.3112 -0.1747  2.7614
 8005SOL    HW235652   1.041   3.237   8.580 -1.6789  1.1436 -2.5142
 8006SOL     OW35653   4.427   4.059   2.812  0.0040  0.2797 -0.2046
 8006SOL    HW135654   4.478   4.041   2.891 -0.0524  2.7731  0.3946
 8006SOL    HW235655   4.373   4.127   2.850 -1.6375 -2.4287  2.2574
 8007SOL     OW35656   4.493   2.765   8.261  0.4399  0.4121  0.6009
 8007SOL    HW135657   4.571   2.737   8.212  0.5464  3.0427 -0.7511
 8007SOL    HW235658   4.438   2.804   8.194  0.8155  1.8998  1.1381
 8008SOL     OW35659   3.324   3.032   0.267  0.4191 -0.5956 -0.1330
 8008SOL    HW135660   3.405   3.004   0.223  1.9771  2.3110  0.8990
 8008SOL    HW235661   3.269   2.962   0.230 -0.0788 -0.5759  0.5728
 8009SOL     OW35662   0.851   0.420   2.866  0.1024  0.2932 -0.1040
 8009SOL    HW135663   0.786   0.353   2.883 -0.7988  1.1001 -0.3759
 8009SOL    HW235664   0.878   0.411   2.774  0.2090  1.5859 -0.2090
 8010SOL     OW35665   2.494   0.312  12.905 -0.1788  0.3623  0.4603
 8010SOL    HW135666   2.583   0.345  12.918  1.0295 -3.1599  1.0530
 8010SOL    HW235667   2.448   0.379  12.956  1.7147  2.1145 -0.1340
 8011SOL     OW35668   4.582   2.424  10.666  0.4167 -0.4101 -0.3148
 8011SOL    HW135669   4.574   2.330  10.678 -1.4682 -0.3141 -0.7320
 8011SOL    HW235670   4.566   2.426  10.571  1.5483  0.5127 -0.4885
 8012SOL     OW35671   4.260   0.662  16.384 -0.1652 -0.6274 -0.6183
 8012SOL    HW135672   4.307   0.707  16.314  1.5660 -2.1126 -0.4283
 8012SOL    HW235673   4.331   0.634  16.442 -1.3417 -1.9981  0.1701
 8013SOL     OW35674   2.995   2.067   7.497  0.2720 -0.4105 -0.3053
 8013SOL    HW135675   2.983   1.975   7.521 -1.6837 -0.7096 -2.4271
 8013SOL    HW235676   3.060   2.099   7.559 -1.0211  1.4531  0.1003
 8014SOL     OW35677   2.388   2.808   0.889  0.1092  0.6477 -0.2655
 8014SOL    HW135678   2.361   2.824   0.980  0.1454  0.4349 -0.2159
 8014SOL    HW235679   2.483   2.822   0.894  0.1204 -0.0868  1.7622
 8015SOL     OW35680   3.169   2.409   2.642  0.3707  0.3429 -0.0139
 8015SOL    HW135681   3.250   2.415   2.694  1.0338 -1.7726 -0.8033
 8015SOL    HW235682   3.198   2.439   2.556 -2.4856 -0.6456 -1.2920
 8016SOL     OW35683   3.297   4.261   3.379  0.0072  0.2360  0.0501
 8016SOL    HW135684   3.258   4.216   3.454 -0.1727  0.4162  0.0627
 8016SOL    HW235685   3.332   4.181   3.338  2.2586  2.3623 -2.1343
 8017SOL     OW35686   4.724   0.559  10.328 -0.4410  0.3376  0.2597
 8017SOL    HW135687   4.649   0.552  10.386 -0.2052 -0.7077  0.4262
 8017SOL    HW235688   4.692   0.516  10.249 -1.5542  0.0285  0.8866
 8018SOL     OW35689   1.903   2.030   8.296 -0.1967  0.2449 -0.0903
 8018SOL    HW135690   1.811   2.052   8.313 -0.3599 -1.2181  0.9386
 8018SOL    HW235691   1.920   2.071   8.212 -2.4780  1.1539 -0.1021
 8019SOL     OW35692   3.981   3.069   5.498  0.2470  0.5031  0.1442
 8019SOL    HW135693   3.953   2.982   5.467  2.0687 -0.2036  0.4525
 8019SOL    HW235694   4.044   3.057   5.569  0.8548 -2.2109 -0.8267
 8020SOL     OW35695   1.432   4.275   3.618 -0.6401  0.7134  0.1400
 8020SOL    HW135696   1.439   4.319   3.533  0.7920 -0.1190 -0.1662
 8020SOL    HW235697   1.340   4.255   3.634 -0.6431  0.5946 -0.0283
 8021SOL     OW35698   2.145   3.556   6.852  0.0210  0.2964  0.3793
 8021SOL    HW135699   2.107   3.610   6.921 -2.0973  0.6613 -1.0470
 8021SOL    HW235700   2.204   3.616   6.807 -0.5845 -0.7256 -1.7893
 8022SOL     OW35701   1.310   1.402  14.561  0.1352  0.0686 -0.3735
 8022SOL    HW135702   1.259   1.349  14.622 -2.4090  2.5917 -0.2845
 8022SOL    HW235703   1.286   1.367  14.476  2.5051 -0.1987 -0.9174
 8023SOL     OW35704   0.278   3.271   1.874  0.7383  0.5522 -0.0688
 8023SOL    HW135705   0.210   3.323   1.917  0.9434  1.6189 -1.0144
 8023SOL    HW235706   0.269   3.282   1.779  2.2404 -0.1996 -0.3025
 8024SOL     OW35707   2.001   0.905   6.306 -0.4699  0.1037  0.1832
 8024SOL    HW135708   1.966   0.856   6.231  1.5594 -2.2499  0.7646
 8024SOL    HW235709   2.001   0.991   6.263 -0.7972  0.3503  0.6877
 8025SOL     OW35710   3.254   0.024   0.558  0.3132  0.1405 -0.3128
 8025SOL    HW135711   3.180   4.714   0.519  1.2821 -1.0580 -0.7196
 8025SOL    HW235712   3.336   4.724   0.523  0.1939 -0.9718  0.5673
 8026SOL     OW35713   2.461   4.176   6.354  0.1995  0.4421 -0.0779
 8026SOL    HW135714   2.422   4.092   6.378 -2.5273  1.9547  0.7582
 8026SOL    HW235715   2.541   4.144   6.310 -0.1152 -1.2684  0.5841
 8027SOL     OW35716   0.417   1.528  13.090  0.2121  0.5509  0.0670
 8027SOL    HW135717   0.329   1.564  13.081 -0.7840 -2.0081 -0.5041
 8027SOL    HW235718   0.428   1.559  13.179 -0.4708 -0.4496  0.4971
 8028SOL     OW35719   4.341   1.383   8.586  0.0434  0.3998 -0.0018
 8028SOL    HW135720   4.291   1.465   8.576  1.4920  1.3244  0.3826
 8028SOL    HW235721   4.355   1.360   8.495  2.9195  1.4955  0.1738
 8029SOL     OW35722   0.324   2.869   3.291  0.2691 -0.3335  0.0024
 8029SOL    HW135723   0.244   2.902   3.250 -0.7651 -0.7092  1.7123
 8029SOL    HW235724   0.342   2.794   3.235 -0.3551  0.4488 -1.2482
 8030SOL     OW35725   0.247   3.039  15.866 -0.3362  0.6135  0.0618
 8030SOL    HW135726   0.248   2.997  15.952 -1.6633 -0.4915 -0.4746
 8030SOL    HW235727   0.299   2.974  15.818 -1.1987  0.0000 -0.0241
 8031SOL     OW35728   0.781   2.426   2.996  0.1731 -0.2699  0.2801
 8031SOL    HW135729   0.796   2.477   3.076 -1.0212 -0.3448  0.5597
 8031SOL    HW235730   0.790   2.490   2.925 -2.9289  0.8638  0.8664
 8032SOL     OW35731   3.364   0.098  10.566 -0.2482  0.4675  0.1234
 8032SOL    HW135732   3.436   0.073  10.624 -0.7547  0.2724  0.6590
 8032SOL    HW235733   3.308   0.021  10.576 -0.9604  1.0901  0.8077
 8033SOL     OW35734   1.981   3.409   5.391  0.0770 -0.3244 -0.6837
 8033SOL    HW135735   1.911   3.465   5.358 -0.2104 -0.4916 -0.3557
 8033SOL    HW235736   2.050   3.433   5.328 -0.8760  3.5608 -0.2677
 8034SOL     OW35737   0.885   3.285  16.052  0.1760  0.2767 -0.7570
 8034SOL    HW135738   0.832   3.360  16.081  0.9586 -0.6892  3.2357
 8034SOL    HW235739   0.970   3.309  16.089 -0.5762  0.6289  0.7562
 8035SOL     OW35740   4.682   0.840   8.323 -0.4924  0.4413 -0.2805
 8035SOL    HW135741   4.659   0.768   8.265 -0.1987  0.5652 -0.5568
 8035SOL    HW235742   4.703   0.912   8.263 -0.4029 -0.5655 -1.4432
 8036SOL     OW35743   4.589   0.140   6.366 -0.1460  0.0640 -0.3804
 8036SOL    HW135744   4.515   0.165   6.312  1.0026  2.6172 -0.7688
 8036SOL    HW235745   4.546   0.107   6.445  0.6272  1.5766  0.6679
 8037SOL     OW35746   3.190   2.129  17.391  0.4942 -0.8514  0.3669
 8037SOL    HW135747   3.216   2.221  17.387  3.4458 -1.7269 -0.6692
 8037SOL    HW235748   3.274   2.087  17.411  0.2781 -1.8140 -0.7971
 8038SOL     OW35749   1.926   2.196   2.816  0.2818  0.1228 -0.0741
 8038SOL    HW135750   1.944   2.119   2.870  0.4390  0.0173 -0.2762
 8038SOL    HW235751   1.994   2.248   2.859 -0.0028 -0.5507  1.1921
 8039SOL     OW35752   2.005   0.836   1.581  0.2166  0.0869 -0.1688
 8039SOL    HW135753   1.973   0.911   1.632 -2.0345 -0.1973 -1.1668
 8039SOL    HW235754   2.066   0.884   1.524 -0.2745 -1.3322 -1.9017
 8040SOL     OW35755   4.144   1.556  12.184 -0.1821 -0.1639 -0.3475
 8040SOL    HW135756   4.203   1.598  12.120 -0.1740 -0.6916 -0.6967
 8040SOL    HW235757   4.078   1.622  12.200 -0.5151 -0.8016  0.8640
 8041SOL     OW35758   1.491   0.890   2.866  0.1762 -0.2034 -0.1250
 8041SOL    HW135759   1.523   0.969   2.822  0.1629 -0.6526 -0.9389
 8041SOL    HW235760   1.557   0.887   2.935 -0.2652 -1.8551  0.2229
 8042SOL     OW35761   2.656   4.672  17.132  0.0428  0.3042 -0.0622
 8042SOL    HW135762   2.577   4.645  17.177 -0.3147 -0.1778 -0.9946
 8042SOL    HW235763   2.688   0.002  17.194 -0.1487  1.9620 -1.7271
 8043SOL     OW35764   4.023   0.985  17.675 -0.6260 -0.2230 -0.0255
 8043SOL    HW135765   4.015   0.891  17.658  0.6508 -0.0743 -1.5305
 8043SOL    HW235766   4.087   0.982   0.001 -1.0187  0.3052  0.3524
 8044SOL     OW35767   3.782   3.930  15.093  0.0802  0.5643 -0.5865
 8044SOL    HW135768   3.707   3.871  15.089  1.2811 -0.8411 -2.0729
 8044SOL    HW235769   3.856   3.874  15.069  0.5841  1.0209 -0.0751
 8045SOL     OW35770   2.433   1.345   5.191  0.4824 -0.0617 -0.2053
 8045SOL    HW135771   2.450   1.436   5.165 -0.9525 -0.0441 -1.0812
 8045SOL    HW235772   2.493   1.290   5.142  0.5104 -0.3238  0.1250
 8046SOL     OW35773   4.171   0.287  10.290 -0.4514 -0.1862  0.2462
 8046SOL    HW135774   4.189   0.253  10.202 -0.3210  2.5823 -0.8159
 8046SOL    HW235775   4.201   0.212  10.340 -1.0920  1.0776  2.5444
 8047SOL     OW35776   0.003   1.903  17.007  0.9914  0.1885  0.0167
 8047SOL    HW135777   4.683   1.968  17.050 -0.4510 -1.7012  0.9679
 8047SOL    HW235778   4.670   1.844  16.979 -0.3658  1.6681  0.2436
 8048SOL     OW35779   0.938   0.646  17.293  0.2342  0.6865  0.0064
 8048SOL    HW135780   0.922   0.666  17.201  0.4412  0.1642 -0.1448
 8048SOL    HW235781   0.901   0.720  17.341  3.3565  2.1547  0.1736
 8049SOL     OW35782   4.144   2.745   8.210 -0.1103  0.5512 -0.0239
 8049SOL    HW135783   4.133   2.829   8.254  0.4610 -0.1598  1.4773
 8049SOL    HW235784   4.181   2.781   8.130 -0.6905  1.2185  0.0091
 8050SOL     OW35785   1.795   2.695   3.050 -0.3008 -0.1551 -0.1275
 8050SOL    HW135786   1.765   2.621   2.997 -0.0139  1.1034 -2.0182
 8050SOL    HW235787   1.848   2.654   3.119 -0.8001 -2.1530 -0.9396
 8051SOL     OW35788   2.357   0.144   1.573  0.2164 -0.1918 -0.2496
 8051SOL    HW135789   2.427   0.124   1.511 -0.0806 -0.3572 -0.5356
 8051SOL    HW235790   2.401   0.187   1.646  0.2600  0.0537 -0.4221
 8052SOL     OW35791   1.904   1.892  15.573  0.2891 -0.9622  0.0456
 8052SOL    HW135792   1.887   1.932  15.488  1.9276  2.0141  1.1216
 8052SOL    HW235793   1.851   1.944  15.634  0.6223 -0.8625  0.2498
 8053SOL     OW35794   2.348   0.306   0.196 -0.0260  0.1536  0.2384
 8053SOL    HW135795   2.347   0.401   0.208  1.0544 -0.1636  2.7358
 8053SOL    HW235796   2.262   0.274   0.225  0.6283 -1.4047  0.4454
 8054SOL     OW35797   1.471   0.243   4.027 -0.1874  0.0966  0.4004
 8054SOL    HW135798   1.430   0.225   3.942 -1.0899  1.0424  0.6349
 8054SOL    HW235799   1.405   0.287   4.080  1.3956  3.3171 -0.3192
 8055SOL     OW35800   1.079   1.778   4.627 -0.1529 -0.1539  0.4324
 8055SOL    HW135801   1.069   1.767   4.532 -1.4581 -0.2830  0.5921
 8055SOL    HW235802   1.015   1.848   4.634 -0.1808 -0.1792  0.4296
 8056SOL     OW35803   1.270   4.735   1.576 -0.2076 -0.2575 -0.0674
 8056SOL    HW135804   1.296   0.084   1.543 -0.5637  0.5040  1.6209
 8056SOL    HW235805   1.178   4.733   1.549  0.4950  0.3759 -2.5603
 8057SOL     OW35806   3.973   4.058   7.147  0.7847  0.3132  0.0966
 8057SOL    HW135807   3.980   4.073   7.053 -0.4196 -2.4547 -0.4118
 8057SOL    HW235808   3.966   4.148   7.178  0.8379 -0.3391  1.9995
 8058SOL     OW35809   4.322   0.466  16.065  0.0485 -0.8789 -0.0186
 8058SOL    HW135810   4.257   0.426  16.123  0.0398  0.0639  0.6203
 8058SOL    HW235811   4.313   0.425  15.979  1.2401 -0.6502 -0.2446
 8059SOL     OW35812   4.111   2.602  16.852  0.0066 -0.9514 -0.1410
 8059SOL    HW135813   4.186   2.595  16.793 -0.5006  2.2682 -1.1658
 8059SOL    HW235814   4.087   2.690  16.823 -0.5147  0.7938  5.6495
 8060SOL     OW35815   2.092   1.450   0.658 -0.2684 -0.3531  0.3971
 8060SOL    HW135816   2.111   1.489   0.573 -0.9037  0.2215  0.5200
 8060SOL    HW235817   1.999   1.472   0.657  0.2508  1.7306 -0.6407
 8061SOL     OW35818   2.041   3.952   0.673 -0.2379 -0.5161  0.3469
 8061SOL    HW135819   2.064   3.986   0.587 -0.4268  0.5522  0.7216
 8061SOL    HW235820   1.985   3.877   0.653  0.7561 -0.9772 -0.6928
 8062SOL     OW35821   0.437   1.054   2.217  0.4078  0.1295  0.1636
 8062SOL    HW135822   0.408   1.085   2.131  0.0735 -2.0194 -0.4991
 8062SOL    HW235823   0.392   1.111   2.280  2.0576 -0.0553  1.4861
 8063SOL     OW35824   1.868   4.081   2.233  0.0786  0.4747 -0.0860
 8063SOL    HW135825   1.785   4.054   2.271  2.1065 -4.0536  1.1771
 8063SOL    HW235826   1.861   4.089   2.138  1.0434  0.1731 -0.1849
 8064SOL     OW35827   1.102   3.240   7.915 -0.1716 -0.0996  0.0940
 8064SOL    HW135828   1.053   3.174   7.866  0.0812  1.1461 -1.8064
 8064SOL    HW235829   1.141   3.181   7.980  3.1462  0.5433 -1.3166
 8065SOL     OW35830   2.966   0.935   5.937  0.6229  0.0434  0.0013
 8065SOL    HW135831   2.918   0.869   5.886 -1.7210 -0.3414  2.6411
 8065SOL    HW235832   2.966   1.009   5.878  2.1804  0.7676  0.9246
 8066SOL     OW35833   1.950   2.040  11.678 -0.0374 -0.2529 -0.7278
 8066SOL    HW135834   2.002   2.120  11.688  0.1321 -0.6350  1.5148
 8066SOL    HW235835   2.008   1.981  11.630  0.0832  0.8364 -1.9376
 8067SOL     OW35836   3.223   2.995   3.768  0.1544 -0.1046 -0.3907
 8067SOL    HW135837   3.156   2.930   3.745  0.7321 -0.8397 -0.0249
 8067SOL    HW235838   3.187   3.051   3.836  1.3636 -1.1248  1.0926
 8068SOL     OW35839   2.319   4.243   7.513 -0.0796  0.2801 -0.5806
 8068SOL    HW135840   2.341   4.157   7.478  0.5763 -0.2019  1.0550
 8068SOL    HW235841   2.298   4.228   7.605  0.1792  0.2604 -0.5271
 8069SOL     OW35842   1.067   1.764   5.304  0.6437 -0.2395 -0.0945
 8069SOL    HW135843   1.131   1.722   5.246  0.9216 -1.4317  1.0823
 8069SOL    HW235844   1.075   1.852   5.268  3.1885 -0.2511  0.4118
 8070SOL     OW35845   3.954   4.179  10.956  0.0691 -0.4053  0.2278
 8070SOL    HW135846   4.011   4.123  10.903  0.2693 -0.0418  0.0606
 8070SOL    HW235847   3.929   4.115  11.023  0.5399 -1.6552 -0.8065
 8071SOL     OW35848   4.314   3.414   2.173  0.0381 -0.8577  0.3358
 8071SOL    HW135849   4.303   3.489   2.114 -2.6477 -1.4142  0.1677
 8071SOL    HW235850   4.277   3.349   2.114  0.4590 -1.0023  0.2289
 8072SOL     OW35851   0.381   0.560   5.658 -0.6800 -0.0453  0.2422
 8072SOL    HW135852   0.421   0.553   5.744  0.3816 -0.0701 -0.2602
 8072SOL    HW235853   0.383   0.648   5.619  0.5515 -0.2321 -0.1179
 8073SOL     OW35854   2.229   3.457   8.249 -0.1113 -0.5019 -0.3198
 8073SOL    HW135855   2.200   3.544   8.224 -2.1080 -1.0873  0.0212
 8073SOL    HW235856   2.325   3.464   8.247 -0.2283  0.7359 -1.5714
 8074SOL     OW35857   3.227   1.118   9.478  0.3856 -0.4206 -0.1223
 8074SOL    HW135858   3.286   1.099   9.405  0.9290 -1.3313  0.5471
 8074SOL    HW235859   3.166   1.184   9.446  0.1273 -2.0347 -3.0045
 8075SOL     OW35860   3.748   3.476   7.462 -0.5868 -0.0879  0.2169
 8075SOL    HW135861   3.688   3.530   7.514 -0.1270 -0.2469  0.9028
 8075SOL    HW235862   3.808   3.545   7.434  0.8144 -1.1494  0.5937
 8076SOL     OW35863   3.658   4.608  16.106 -0.9007 -0.6176  0.7394
 8076SOL    HW135864   3.570   4.625  16.072 -1.3255 -1.9533  1.1567
 8076SOL    HW235865   3.652   4.596  16.201  0.9388 -0.5489  0.8598
 8077SOL     OW35866   4.241   0.582   3.659  0.3513 -0.0245 -0.0843
 8077SOL    HW135867   4.334   0.586   3.680  0.4781  1.7197 -1.0240
 8077SOL    HW235868   4.219   0.656   3.603 -1.2324 -1.0407 -0.8211
 8078SOL     OW35869   4.595   0.693  16.874  0.4722 -0.2188 -0.0695
 8078SOL    HW135870   4.614   0.772  16.822  0.0609 -0.3778 -0.4604
 8078SOL    HW235871   4.642   0.706  16.956  0.1506 -1.3515  0.2907
 8079SOL     OW35872   4.364   0.591   5.223 -0.2185 -0.0784 -0.1925
 8079SOL    HW135873   4.429   0.528   5.191 -0.7669  0.4256 -2.3003
 8079SOL    HW235874   4.284   0.544   5.204 -1.0503  1.2881 -0.0555
 8080SOL     OW35875   3.799   1.688   5.523 -0.1816  0.1042 -0.3685
 8080SOL    HW135876   3.738   1.655   5.457 -0.1987 -0.5282 -0.0320
 8080SOL    HW235877   3.859   1.614   5.532 -0.6901 -0.3205 -0.4602
 8081SOL     OW35878   2.913   1.056   9.459  0.2850  0.6933  0.5510
 8081SOL    HW135879   2.967   0.984   9.425 -0.8787 -0.5696  1.3847
 8081SOL    HW235880   2.846   1.003   9.502 -0.2952  1.0784  0.1189
 8082SOL     OW35881   0.005   1.591  16.628  0.0273 -0.0197  0.1981
 8082SOL    HW135882   0.063   1.616  16.700  0.6482  1.0932 -0.6940
 8082SOL    HW235883   4.683   1.667  16.629  1.9153  1.4467  0.7077
 8083SOL     OW35884   4.510   1.528  17.583  0.3255  0.7552  0.0871
 8083SOL    HW135885   4.584   1.491  17.536  1.1980  1.3233  1.0071
 8083SOL    HW235886   4.527   1.504  17.674  0.3299  0.8483  0.1116
 8084SOL     OW35887   3.094   2.969   7.017 -0.3939 -0.0494  0.1963
 8084SOL    HW135888   3.098   3.041   7.079 -2.1977  0.9507 -0.8568
 8084SOL    HW235889   3.182   2.934   7.024 -1.5782 -3.1541 -0.2595
 8085SOL     OW35890   3.700   3.309  13.506  0.1946  0.0668 -0.3262
 8085SOL    HW135891   3.715   3.256  13.427 -0.8948  0.1261 -0.5632
 8085SOL    HW235892   3.665   3.390  13.469  0.7278 -0.3074 -1.6845
 8086SOL     OW35893   3.113   4.311   4.335 -0.1996  0.0070 -0.3273
 8086SOL    HW135894   3.043   4.272   4.283  0.1345 -1.7282  0.5013
 8086SOL    HW235895   3.179   4.242   4.336 -0.1684  0.0324 -0.6379
 8087SOL     OW35896   1.022   2.041   4.792 -0.3405 -0.3418  0.2366
 8087SOL    HW135897   0.977   2.037   4.707  1.3163  0.5612 -0.7020
 8087SOL    HW235898   0.972   2.109   4.837 -1.4765  1.7640 -4.1084
 8088SOL     OW35899   3.890   0.220  17.355  0.3246 -0.5114  0.1113
 8088SOL    HW135900   3.810   0.215  17.303  0.9450 -0.0371 -0.8961
 8088SOL    HW235901   3.843   0.216  17.438 -0.3224  4.4897 -0.0109
 8089SOL     OW35902   3.377   3.209   6.542 -0.2713  0.2219 -0.3621
 8089SOL    HW135903   3.284   3.229   6.553 -0.0265  1.1536  0.0338
 8089SOL    HW235904   3.413   3.272   6.604  1.0237 -0.2888 -0.5934
 8090SOL     OW35905   3.643   3.471   5.237 -0.6341  0.0360  0.1620
 8090SOL    HW135906   3.637   3.431   5.150  2.7864  0.7802 -0.4336
 8090SOL    HW235907   3.735   3.474   5.262  0.2472 -2.9191 -2.7058
 8091SOL     OW35908   3.898   0.193  12.462  0.2220  0.1741  0.2055
 8091SOL    HW135909   3.884   0.287  12.460  0.6953  0.2574  0.6520
 8091SOL    HW235910   3.908   0.187  12.557 -0.7896  0.2210  0.3117
 8092SOL     OW35911   0.128   2.632   4.129  0.9277  0.2486  0.1392
 8092SOL    HW135912   0.185   2.667   4.060 -0.7780 -0.1897 -1.4808
 8092SOL    HW235913   0.128   2.693   4.202 -0.3701  1.0700 -0.5386
 8093SOL     OW35914   3.668   0.771   6.766 -0.1183  0.2426 -0.4658
 8093SOL    HW135915   3.611   0.734   6.834  0.7229 -0.8385 -0.3382
 8093SOL    HW235916   3.664   0.694   6.709 -2.7195  1.2417 -1.6346
 8094SOL     OW35917   0.175   3.860   2.346  0.4921 -0.1511 -0.5526
 8094SOL    HW135918   0.105   3.876   2.282 -0.1443  0.9823  0.4174
 8094SOL    HW235919   0.154   3.779   2.392  0.9633  0.0238 -0.0245
 8095SOL     OW35920   4.613   2.522   2.105 -0.1302 -0.3987 -0.1017
 8095SOL    HW135921   4.691   2.516   2.051  0.7399 -0.4715  1.1620
 8095SOL    HW235922   4.568   2.438   2.092 -0.3496 -0.3245  0.1649
 8096SOL     OW35923   3.272   1.104  12.946 -0.5918 -0.3861 -0.1584
 8096SOL    HW135924   3.244   1.142  12.863  0.5351 -0.2889 -0.4887
 8096SOL    HW235925   3.298   1.017  12.915 -1.0958 -1.8811  3.4925
 8097SOL     OW35926   1.622   1.721   6.582  0.1427  0.4643 -0.5020
 8097SOL    HW135927   1.602   1.814   6.571  0.4230  0.5333 -0.4479
 8097SOL    HW235928   1.548   1.673   6.547 -0.7570  0.2554  1.6733
 8098SOL     OW35929   0.440   0.566   7.096  0.3440 -0.2943  0.7172
 8098SOL    HW135930   0.433   0.586   7.189 -1.5477  0.1408  0.4846
 8098SOL    HW235931   0.347   0.580   7.079  0.3392 -0.6908  0.4084
 8099SOL     OW35932   4.463   0.537   0.032  0.5126 -0.0304 -0.3533
 8099SOL    HW135933   4.467   0.632   0.040  3.0412 -0.3183  1.9629
 8099SOL    HW235934   4.370   0.524   0.014 -0.2663  1.7399  2.4137
 8100SOL     OW35935   1.502   2.755   2.832  0.4136 -0.2332  0.6179
 8100SOL    HW135936   1.562   2.806   2.778  0.8500 -1.6648 -0.2539
 8100SOL    HW235937   1.532   2.666   2.813  1.2282 -0.0102  0.8606
 8101SOL     OW35938   0.323   3.924  10.636 -0.5208 -0.1455  0.2209
 8101SOL    HW135939   0.231   3.897  10.641 -1.1934  2.2004  0.6110
 8101SOL    HW235940   0.336   3.969  10.720 -0.9101  0.6873 -0.1669
 8102SOL     OW35941   4.656   4.093   4.685 -0.1505 -0.1645 -0.1698
 8102SOL    HW135942   4.733   4.042   4.660  1.4620  2.1255  0.1283
 8102SOL    HW235943   4.651   4.147   4.607  1.7384  1.5232  0.8763
 8103SOL     OW35944   4.566   3.721   4.536  0.4437  0.1814  0.5248
 8103SOL    HW135945   4.622   3.768   4.598 -0.5800  0.8096  0.9904
 8103SOL    HW235946   4.591   3.758   4.452 -1.9947 -0.2361 -0.3752
 8104SOL     OW35947   1.825   2.132   6.696 -0.4912 -0.8265  0.6945
 8104SOL    HW135948   1.883   2.102   6.765  0.0154  1.2318  1.1469
 8104SOL    HW235949   1.889   2.132   6.624 -1.1559  2.8239  0.0874
 8105SOL     OW35950   1.728   3.913  12.880 -0.2026 -0.5402 -0.2284
 8105SOL    HW135951   1.655   3.854  12.860  0.2482 -0.0986 -3.1715
 8105SOL    HW235952   1.757   3.931  12.791  0.3360 -0.1230  0.0361
 8106SOL     OW35953   3.649   1.271  11.841 -0.3067 -0.0849  0.0735
 8106SOL    HW135954   3.581   1.338  11.836  0.5470  0.6998 -1.0920
 8106SOL    HW235955   3.729   1.316  11.869 -0.5404  2.1082 -2.7377
 8107SOL     OW35956   3.899   3.167   6.974  0.0522  0.0847  0.1478
 8107SOL    HW135957   3.870   3.080   7.000 -2.4175  0.8183 -0.1730
 8107SOL    HW235958   3.994   3.155   6.974  0.2823  1.7586 -2.5783
 8108SOL     OW35959   4.191   0.966   0.148 -0.0386  0.5720  0.3607
 8108SOL    HW135960   4.269   1.022   0.150  0.0531  0.4017  1.5641
 8108SOL    HW235961   4.172   0.963   0.242  3.6770  1.0056  1.1575
 8109SOL     OW35962   0.703   2.857   8.609  0.8866  0.4459  0.2981
 8109SOL    HW135963   0.782   2.872   8.555 -2.5554  3.2490 -3.9749
 8109SOL    HW235964   0.685   2.940   8.653  1.6804  1.6645 -1.6413
 8110SOL     OW35965   0.260   2.647  13.104  0.0610 -0.0611  0.7178
 8110SOL    HW135966   0.275   2.578  13.038  1.6280  1.8928 -0.9526
 8110SOL    HW235967   0.298   2.606  13.181  1.5380  1.7948  0.9749
 8111SOL     OW35968   3.681   4.194  12.625 -0.0981  0.3906 -0.3663
 8111SOL    HW135969   3.773   4.207  12.601  0.1959 -1.4666 -0.2511
 8111SOL    HW235970   3.691   4.115  12.677 -0.1771  0.8148  0.2936
 8112SOL     OW35971   4.056   0.329  13.061 -0.3570  0.3765 -0.2724
 8112SOL    HW135972   3.990   0.399  13.070  0.5438  1.1610  0.2108
 8112SOL    HW235973   4.066   0.300  13.151 -0.9663 -0.8574 -0.6049
 8113SOL     OW35974   1.685   3.244   7.204 -0.5064  0.2415 -0.3145
 8113SOL    HW135975   1.656   3.308   7.268  0.5559  0.7573 -0.3570
 8113SOL    HW235976   1.748   3.200   7.261 -0.5824  1.4073  0.6778
 8114SOL     OW35977   2.578   4.232   4.726 -0.6779 -0.2165 -0.0581
 8114SOL    HW135978   2.607   4.269   4.643  0.1611 -2.1035 -0.6165
 8114SOL    HW235979   2.654   4.262   4.777 -1.4329 -0.3150  1.1120
 8115SOL     OW35980   0.392   2.346   1.218 -0.3903 -0.0320 -0.4337
 8115SOL    HW135981   0.377   2.332   1.124  0.7935 -1.0320 -0.4724
 8115SOL    HW235982   0.316   2.303   1.257 -1.1789 -0.6874 -2.6589
 8116SOL     OW35983   3.095   2.865   4.264  0.2423  0.8496 -1.2432
 8116SOL    HW135984   3.085   2.772   4.247  0.9550  0.3644  0.8956
 8116SOL    HW235985   3.095   2.870   4.360  1.6144 -0.3229 -1.1776
 8117SOL     OW35986   3.611   1.896  14.595 -0.0659 -0.4993  0.4499
 8117SOL    HW135987   3.524   1.912  14.558 -0.4347  1.6759  2.2538
 8117SOL    HW235988   3.653   1.979  14.572  0.4375 -1.2999 -1.4666
 8118SOL     OW35989   1.438   4.565   3.112  0.5582 -0.5393  0.0671
 8118SOL    HW135990   1.529   4.579   3.086  0.2454 -1.3972 -1.4956
 8118SOL    HW235991   1.404   4.579   3.024 -1.4828 -0.1514  0.9304
 8119SOL     OW35992   1.827   0.856   5.048 -0.4280  0.6222  0.0447
 8119SOL    HW135993   1.792   0.938   5.084 -0.5206  0.7025 -0.2341
 8119SOL    HW235994   1.863   0.810   5.124 -1.0362 -0.6221 -0.4121
 8120SOL     OW35995   2.842   4.155  16.632 -0.7472 -0.4927  0.4572
 8120SOL    HW135996   2.922   4.160  16.686  1.1193 -2.9005 -2.1023
 8120SOL    HW235997   2.842   4.074  16.582 -1.4164 -0.3062  0.1632
 8121SOL     OW35998   1.535   0.244   4.986  0.3975  0.2487  0.3624
 8121SOL    HW135999   1.452   0.290   5.002 -0.8310 -1.5303 -0.8548
 8121SOL    HW236000   1.549   0.237   4.892  0.7603 -2.3004  0.6060
 8122SOL     OW36001   4.726   2.255  10.476 -0.0647 -0.4852 -0.3435
 8122SOL    HW136002   4.665   2.317  10.436 -1.3866 -1.5469  0.0201
 8122SOL    HW236003   0.042   2.236  10.398 -1.0389 -0.7902 -0.9337
 8123SOL     OW36004   1.084   1.965   5.805 -0.0557 -0.0035  0.1866
 8123SOL    HW136005   0.988   1.964   5.808 -0.0855  0.6184 -0.4281
 8123SOL    HW236006   1.111   1.875   5.785  1.0251  0.6373 -1.2670
 8124SOL     OW36007   0.842   2.612  11.364 -0.4098  0.5113 -0.2385
 8124SOL    HW136008   0.857   2.607  11.270  1.1483 -0.7913  0.0855
 8124SOL    HW236009   0.895   2.538  11.393 -3.6620 -2.1429 -1.0838
 8125SOL     OW36010   2.602   2.871  15.811 -0.0104 -0.1532  0.1511
 8125SOL    HW136011   2.569   2.865  15.721 -0.1100 -1.5148  0.2673
 8125SOL    HW236012   2.692   2.897  15.793 -0.4065 -0.5016 -2.3988
 8126SOL     OW36013   1.168   3.564   5.538 -0.2376  0.1619  0.3026
 8126SOL    HW136014   1.136   3.474   5.544  1.8165 -0.5137  1.0334
 8126SOL    HW236015   1.200   3.585   5.626  0.5701  2.4947 -0.5510
 8127SOL     OW36016   3.881   2.704   0.510  0.1975 -0.2979 -0.2093
 8127SOL    HW136017   3.942   2.771   0.481 -2.0489 -0.2636 -4.8085
 8127SOL    HW236018   3.936   2.674   0.583  0.0160  0.5866  0.2894
 8128SOL     OW36019   2.568   3.707  16.919 -0.1567 -0.1164  0.4869
 8128SOL    HW136020   2.515   3.629  16.904 -1.3486  0.8934 -0.6605
 8128SOL    HW236021   2.651   3.670  16.946  0.9433  3.2077  1.7020
 8129SOL     OW36022   1.927   1.518   8.604 -0.5960  0.3950 -0.4168
 8129SOL    HW136023   1.833   1.537   8.594 -0.8352  0.4010  1.8653
 8129SOL    HW236024   1.951   1.585   8.668 -0.0932 -0.9527  0.7968
 8130SOL     OW36025   0.399   2.520  11.723  0.0415  0.5497 -0.2286
 8130SOL    HW136026   0.463   2.554  11.661 -0.7025 -0.6093 -1.6246
 8130SOL    HW236027   0.409   2.576  11.800  0.1107  0.3530 -0.0953
 8131SOL     OW36028   2.385   0.950   2.142  0.1155 -0.4465 -0.3072
 8131SOL    HW136029   2.391   0.855   2.130 -4.3786 -0.7259 -0.5853
 8131SOL    HW236030   2.474   0.982   2.128 -0.3056  0.4802 -0.8626
 8132SOL     OW36031   0.703   0.610   8.267 -0.0189 -0.0019  0.0070
 8132SOL    HW136032   0.708   0.681   8.332 -0.6198 -1.2162  1.3837
 8132SOL    HW236033   0.720   0.534   8.324 -1.1945 -0.9013 -0.8365
 8133SOL     OW36034   0.162   0.792   1.787 -0.1128 -0.2684  0.4074
 8133SOL    HW136035   0.245   0.826   1.822  0.2718  0.0188 -0.7968
 8133SOL    HW236036   0.118   0.771   1.869 -0.5487 -0.1619  0.2002
 8134SOL     OW36037   1.799   3.148  13.369 -0.5640  0.2295  0.2385
 8134SOL    HW136038   1.774   3.130  13.460  3.2414 -2.0172  0.8209
 8134SOL    HW236039   1.819   3.062  13.334  0.0646 -0.1370  1.4873
 8135SOL     OW36040   0.263   1.443   6.333  0.6590  0.1321  0.5651
 8135SOL    HW136041   0.223   1.357   6.328 -1.9098  1.4389 -1.1862
 8135SOL    HW236042   0.287   1.439   6.426 -1.8182  1.1820  1.2360
 8136SOL     OW36043   2.850   2.342  14.255 -0.0052 -0.6530 -0.0727
 8136SOL    HW136044   2.942   2.325  14.273  0.0660 -1.6067 -1.3345
 8136SOL    HW236045   2.865   2.432  14.227 -0.2700  0.0580  2.0353
 8137SOL     OW36046   0.596   1.472   4.343 -0.0983 -0.5733  0.0874
 8137SOL    HW136047   0.634   1.422   4.416 -0.7789  0.1755  0.9502
 8137SOL    HW236048   0.554   1.399   4.297 -1.2169 -0.0767  0.3270
 8138SOL     OW36049   2.659   4.683   7.401 -0.3053 -0.3244 -0.1079
 8138SOL    HW136050   2.679   0.037   7.423 -0.2760 -0.7665  1.6756
 8138SOL    HW236051   2.571   4.674   7.437 -0.9823  0.5040 -1.5876
 8139SOL     OW36052   2.629   2.931  15.263  0.1384  0.3092  0.5895
 8139SOL    HW136053   2.682   2.993  15.212 -0.9182  1.2634  0.6345
 8139SOL    HW236054   2.555   2.981  15.296 -1.7977 -1.7964 -0.5512
 8140SOL     OW36055   0.634   1.603   1.989  0.3287 -0.3819  0.1818
 8140SOL    HW136056   0.699   1.664   1.955 -1.4111  0.4096 -1.7138
 8140SOL    HW236057   0.585   1.657   2.052 -1.1809  0.6629 -1.8978
 8141SOL     OW36058   3.733   2.458   1.584  0.1047 -0.5491 -0.4626
 8141SOL    HW136059   3.775   2.521   1.526  0.0612 -1.5440 -1.5762
 8141SOL    HW236060   3.678   2.526   1.624 -0.0859 -0.4213 -0.9513
 8142SOL     OW36061   0.660   3.097   6.009  0.0718 -0.4725 -0.6496
 8142SOL    HW136062   0.747   3.112   6.048 -0.1443 -1.0812  0.0619
 8142SOL    HW236063   0.643   3.162   5.940 -3.1550  1.5160  2.0176
 8143SOL     OW36064   0.104   3.137  14.595 -0.0565  0.1414 -0.5629
 8143SOL    HW136065   0.145   3.216  14.630  0.3860 -0.0672 -0.6067
 8143SOL    HW236066   0.131   3.062  14.648 -0.8136  1.0497  1.1409
 8144SOL     OW36067   3.588   0.184  13.128 -0.1935 -0.1280  0.0996
 8144SOL    HW136068   3.523   0.143  13.185  0.0249  0.0503  0.4771
 8144SOL    HW236069   3.667   0.160  13.175 -0.0229 -1.5613 -0.9472
 8145SOL     OW36070   0.592   3.396  13.648 -0.0984  0.7086  0.1229
 8145SOL    HW136071   0.596   3.341  13.571  0.1252 -0.0117  0.6461
 8145SOL    HW236072   0.606   3.485  13.615  0.3790 -0.3906 -2.6285
 8146SOL     OW36073   3.280   3.830  12.266  0.1432  0.3796  0.2206
 8146SOL    HW136074   3.192   3.868  12.272 -0.0805 -0.3008  1.2692
 8146SOL    HW236075   3.261   3.747  12.223 -0.2930  2.3888 -3.4317
 8147SOL     OW36076   2.935   3.838   8.695 -0.1258 -0.8477 -0.1429
 8147SOL    HW136077   3.006   3.853   8.633 -0.1137 -0.5968 -0.0680
 8147SOL    HW236078   2.958   3.747   8.710 -0.6188 -1.0622 -0.6599
 8148SOL     OW36079   4.492   4.236   7.965 -0.4399  0.1220  0.1023
 8148SOL    HW136080   4.552   4.206   7.896 -1.2479 -0.1254 -0.4992
 8148SOL    HW236081   4.457   4.316   7.925 -2.4774 -0.9757 -0.3163
 8149SOL     OW36082   0.537   1.223   4.768  0.1572 -0.0777  0.2482
 8149SOL    HW136083   0.625   1.255   4.748  0.7079 -2.0944 -0.5636
 8149SOL    HW236084   0.541   1.202   4.861  0.3854 -1.1931 -0.0079
 8150SOL     OW36085   1.898   2.266   1.692 -0.5360  0.2128  0.3852
 8150SOL    HW136086   1.993   2.256   1.688 -0.5539  0.9542 -2.1295
 8150SOL    HW236087   1.885   2.329   1.621 -1.4074  0.7061  0.9922
 8151SOL     OW36088   1.776   2.926  16.479  0.5782 -0.1199 -0.1597
 8151SOL    HW136089   1.866   2.927  16.444 -0.1737  0.5706 -2.0649
 8151SOL    HW236090   1.730   2.917  16.396  0.5319 -2.6874  0.1484
 8152SOL     OW36091   2.344   4.699   6.802 -0.1625  0.0491 -0.7182
 8152SOL    HW136092   2.374   0.025   6.737 -1.2498 -1.3256 -2.5190
 8152SOL    HW236093   2.338   0.007   6.887 -1.9507 -0.0061 -0.8239
 8153SOL     OW36094   2.752   1.572  16.684  0.0272  0.4058  0.1498
 8153SOL    HW136095   2.830   1.615  16.719  0.9516 -0.8523 -0.3775
 8153SOL    HW236096   2.747   1.483  16.719  1.9128 -0.0575 -0.7394
 8154SOL     OW36097   1.521   1.366   2.046 -0.3806 -0.3558 -0.4114
 8154SOL    HW136098   1.562   1.283   2.072  0.7868  0.0422 -1.0170
 8154SOL    HW236099   1.521   1.363   1.950  1.5195  1.1086 -0.4520
 8155SOL     OW36100   2.784   2.504   5.442  0.0948 -0.3878  0.4948
 8155SOL    HW136101   2.730   2.454   5.504  1.2909  1.2190  2.8095
 8155SOL    HW236102   2.845   2.435   5.416 -1.3447 -0.9063 -1.5951
 8156SOL     OW36103   3.136   1.154  13.827  0.1039 -0.0349  0.0690
 8156SOL    HW136104   3.229   1.132  13.824  0.1557  0.2215 -0.2032
 8156SOL    HW236105   3.123   1.152  13.921  2.1645 -1.9710  0.3022
 8157SOL     OW36106   4.169   2.324   7.627  0.0481 -0.5334  0.2679
 8157SOL    HW136107   4.187   2.417   7.610  1.5072 -0.6446  1.1605
 8157SOL    HW236108   4.245   2.282   7.668  0.2287  0.5719  1.0677
 8158SOL     OW36109   2.791   4.077   7.135  0.2960  0.4281 -0.3804
 8158SOL    HW136110   2.878   4.037   7.131 -0.0800 -0.3650 -0.5543
 8158SOL    HW236111   2.761   4.066   7.045 -0.1829  0.0316 -0.1696
 8159SOL     OW36112   1.078   2.609  11.773  0.1484 -0.3593 -0.4587
 8159SOL    HW136113   1.092   2.615  11.868 -2.2509 -0.9515 -0.0617
 8159SOL    HW236114   0.989   2.574  11.771 -0.2324  0.3037  3.8055
 8160SOL     OW36115   3.480   3.056   1.045 -0.3804  0.3657  0.2967
 8160SOL    HW136116   3.575   3.043   1.051 -0.8216 -2.6672  0.6892
 8160SOL    HW236117   3.449   3.015   1.125  0.8246 -1.5429 -0.2331
 8161SOL     OW36118   3.721   1.022   6.903  0.1589 -0.9626 -0.1348
 8161SOL    HW136119   3.704   0.939   6.857 -0.3118 -0.7263 -0.3793
 8161SOL    HW236120   3.639   1.071   6.901 -1.7282 -4.0707  0.1276
 8162SOL     OW36121   4.239   1.490  13.853 -0.1564 -0.1386  0.3132
 8162SOL    HW136122   4.150   1.509  13.882 -0.0978 -0.6704  0.8324
 8162SOL    HW236123   4.277   1.472  13.939  0.3746 -1.3567 -0.1729
 8163SOL     OW36124   0.051   0.160   0.327 -0.2919  0.0431 -0.2368
 8163SOL    HW136125   0.043   0.106   0.249 -1.1719 -0.2808  0.0818
 8163SOL    HW236126   4.698   0.192   0.330 -0.0394  0.6158  1.1859
 8164SOL     OW36127   2.245   2.961  16.708  0.0136  0.0395  0.0157
 8164SOL    HW136128   2.164   3.003  16.680  0.8749  0.2355 -2.1384
 8164SOL    HW236129   2.281   3.009  16.782  0.0347 -2.4684  1.6529
 8165SOL     OW36130   1.158   0.930   8.021 -0.2681 -0.3366  0.0869
 8165SOL    HW136131   1.204   0.846   8.017 -1.3450 -0.9096 -0.3417
 8165SOL    HW236132   1.079   0.905   8.070  0.9335 -1.7474  1.3166
 8166SOL     OW36133   1.645   1.627   1.627  0.4223  0.0505 -0.3012
 8166SOL    HW136134   1.639   1.547   1.575  0.9951 -0.9903  1.2098
 8166SOL    HW236135   1.555   1.636   1.658  0.6625 -2.8849  1.3368
 8167SOL     OW36136   3.629   3.204   0.598 -0.2238  0.7881  0.5361
 8167SOL    HW136137   3.539   3.199   0.565 -0.3102 -1.1477  1.0615
 8167SOL    HW236138   3.616   3.213   0.693 -1.5120  3.1733  0.1290
 8168SOL     OW36139   1.875   3.353   2.241 -0.0683 -0.1258  0.5817
 8168SOL    HW136140   1.950   3.392   2.287 -0.1674 -1.9427  2.2637
 8168SOL    HW236141   1.915   3.272   2.211 -0.7335 -0.3284  0.2442
 8169SOL     OW36142   3.259   1.597   0.840 -0.2753  0.6158 -0.3796
 8169SOL    HW136143   3.290   1.519   0.887 -3.4553 -0.1555  0.4158
 8169SOL    HW236144   3.340   1.648   0.833  0.0729  0.2642  1.0584
 8170SOL     OW36145   4.435   3.290  16.906  0.3420 -0.1486  0.2503
 8170SOL    HW136146   4.522   3.251  16.896  0.8480  0.9103  0.4974
 8170SOL    HW236147   4.422   3.272  16.999 -0.0270 -0.1371  0.1999
 8171SOL     OW36148   4.213   2.777   7.843 -0.2263  0.1027  0.2070
 8171SOL    HW136149   4.189   2.686   7.823  0.4852  0.3717 -1.8754
 8171SOL    HW236150   4.295   2.779   7.794 -0.5472 -0.8158 -0.3753
 8172SOL     OW36151   2.637   0.308  14.364 -0.2085  0.0166 -0.2630
 8172SOL    HW136152   2.666   0.389  14.406  0.4595 -0.1879 -0.3386
 8172SOL    HW236153   2.571   0.274  14.425  0.0353 -0.9722 -0.5568
 8173SOL     OW36154   3.216   1.561  13.698 -0.2746  0.6612  0.2273
 8173SOL    HW136155   3.306   1.540  13.675 -1.2232 -1.1683 -1.8331
 8173SOL    HW236156   3.208   1.656  13.691  0.5651  0.5418 -2.2385
 8174SOL     OW36157   4.627   4.612   3.265  0.7599  0.1423 -0.2074
 8174SOL    HW136158   4.620   4.626   3.170  2.2745  1.7315 -0.0833
 8174SOL    HW236159   4.702   4.665   3.290 -0.7998  0.2893  4.0950
 8175SOL     OW36160   0.476   0.959   3.665 -0.2965 -0.2244  0.0567
 8175SOL    HW136161   0.499   0.910   3.744 -0.0516  0.4277  0.3835
 8175SOL    HW236162   0.385   0.983   3.683 -0.1656 -0.5137  1.1151
 8176SOL     OW36163   1.051   0.351  12.036  0.0467 -0.1232 -0.7628
 8176SOL    HW136164   1.099   0.307  12.107  0.8071  1.0865 -0.5146
 8176SOL    HW236165   0.986   0.283  12.023 -1.0546  1.1466 -1.9091
 8177SOL     OW36166   4.139   0.963   9.499 -0.0642  0.1053 -0.4084
 8177SOL    HW136167   4.204   1.032   9.487  2.0761 -1.8467 -0.0978
 8177SOL    HW236168   4.112   0.980   9.589  1.5964 -2.3321  0.5446
 8178SOL     OW36169   2.826   4.150   4.492  0.0849  0.2459 -0.3514
 8178SOL    HW136170   2.798   4.230   4.449  1.1722  0.0032 -1.4902
 8178SOL    HW236171   2.855   4.091   4.423  1.3842  1.5507 -0.8989
 8179SOL     OW36172   3.799   2.134   1.879  0.0310  0.0372 -0.2388
 8179SOL    HW136173   3.709   2.114   1.906  0.4783  0.0038  1.2008
 8179SOL    HW236174   3.849   2.052   1.885 -0.1385 -0.1284 -1.0522
 8180SOL     OW36175   2.794   3.854  10.976  0.0087 -0.0230 -0.4466
 8180SOL    HW136176   2.846   3.812  11.045  1.6772  1.5214 -0.7777
 8180SOL    HW236177   2.711   3.844  11.023  0.2380 -0.7541 -0.1904
 8181SOL     OW36178   2.798   2.458   8.642 -0.0209 -0.0679 -0.3317
 8181SOL    HW136179   2.866   2.494   8.586  1.5461  0.8484  2.1453
 8181SOL    HW236180   2.743   2.414   8.577 -0.2828  0.1051 -0.2252
 8182SOL     OW36181   0.435   4.682   3.244  0.3992  0.4533 -0.4292
 8182SOL    HW136182   0.433   0.014   3.177  2.1377 -0.5411 -1.4640
 8182SOL    HW236183   0.500   4.712   3.307  0.4762  1.2591 -0.8918
 8183SOL     OW36184   2.498   4.132  16.918 -0.2366 -0.4172 -0.6054
 8183SOL    HW136185   2.500   4.062  16.983  0.7448  0.8117  0.6964
 8183SOL    HW236186   2.570   4.186  16.950  0.6278 -3.6020  2.8109
 8184SOL     OW36187   1.827   4.597   9.653 -0.0206 -1.3725 -0.1759
 8184SOL    HW136188   1.763   4.628   9.717  0.9825  0.9046 -0.2830
 8184SOL    HW236189   1.766   4.555   9.592 -1.8804  0.3286  0.5102
 8185SOL     OW36190   0.276   3.226   7.359 -0.0353 -0.0436  0.0056
 8185SOL    HW136191   0.362   3.242   7.397 -0.0727 -0.9291  0.4835
 8185SOL    HW236192   0.230   3.241   7.442  4.1353  1.7675  1.9842
 8186SOL     OW36193   2.112   2.904   7.512 -0.2641 -0.1693  0.7010
 8186SOL    HW136194   2.025   2.937   7.534  0.9262  2.0625  2.0956
 8186SOL    HW236195   2.085   2.853   7.435 -1.7107  2.3167 -0.4349
 8187SOL     OW36196   1.412   1.768   2.546 -0.7296 -0.4701 -0.1342
 8187SOL    HW136197   1.412   1.793   2.454 -0.0493  1.6915  0.4399
 8187SOL    HW236198   1.503   1.789   2.570 -0.8087  0.6618 -0.8311
 8188SOL     OW36199   0.755   0.271  16.315  0.3766  0.6831 -0.2254
 8188SOL    HW136200   0.816   0.306  16.380  1.5624  0.3263 -1.1595
 8188SOL    HW236201   0.779   0.318  16.235 -1.1785 -0.5071 -1.3938
 8189SOL     OW36202   1.894   2.972  16.776 -0.3378  0.2076  0.8741
 8189SOL    HW136203   1.918   2.929  16.694 -1.0787 -2.4330  2.0274
 8189SOL    HW236204   1.941   3.056  16.771  2.3912 -1.4608 -1.9881
 8190SOL     OW36205   4.079   1.553   8.988 -0.2783  0.1848 -1.2230
 8190SOL    HW136206   4.081   1.476   8.931 -0.5788 -1.0455  0.3922
 8190SOL    HW236207   3.995   1.592   8.964 -0.4042  0.8522  0.2698
 8191SOL     OW36208   0.755   3.994  15.199 -0.0223 -0.1907  0.5475
 8191SOL    HW136209   0.809   4.004  15.121  1.1316 -1.2020  1.2170
 8191SOL    HW236210   0.810   4.006  15.277 -0.3385  0.7395  0.6272
 8192SOL     OW36211   2.499   0.155   1.005  0.6871 -0.8753  0.3723
 8192SOL    HW136212   2.484   0.065   1.032 -1.9697 -0.8250 -0.9953
 8192SOL    HW236213   2.536   0.132   0.920 -1.9289 -0.8551 -0.7696
 8193SOL     OW36214   3.590   1.312   5.369  0.7685 -0.1540  0.4694
 8193SOL    HW136215   3.602   1.406   5.385  2.5577 -0.0546 -1.4326
 8193SOL    HW236216   3.644   1.275   5.438 -1.7713 -3.2556  0.7681
 8194SOL     OW36217   4.516   2.243   2.195  0.1890  0.1035  0.9148
 8194SOL    HW136218   4.573   2.168   2.213 -0.9704 -1.0023 -0.0591
 8194SOL    HW236219   4.515   2.276   2.285 -1.8812  0.7133  0.6567
 8195SOL     OW36220   3.670   4.548   8.443 -0.2090  0.7472 -0.3370
 8195SOL    HW136221   3.594   4.491   8.426 -1.4658  2.2883  0.1264
 8195SOL    HW236222   3.643   4.635   8.414 -1.6674  0.4856  0.2230
 8196SOL     OW36223   4.379   4.401   8.744  0.4074 -0.1536 -0.3102
 8196SOL    HW136224   4.372   4.424   8.836  1.0919  0.0532 -0.3072
 8196SOL    HW236225   4.366   4.486   8.701 -1.5377 -0.6357 -0.6917
 8197SOL     OW36226   2.199   1.113  14.672  0.1647 -0.0898 -0.2393
 8197SOL    HW136227   2.270   1.048  14.668 -0.3421 -0.6322 -0.4587
 8197SOL    HW236228   2.255   1.190  14.666 -2.4320  1.8302 -0.0723
 8198SOL     OW36229   3.466   1.672   2.316 -0.0400  0.5365 -0.2229
 8198SOL    HW136230   3.553   1.634   2.299 -0.3730 -0.5863  0.5776
 8198SOL    HW236231   3.485   1.714   2.400  0.2626  1.8810 -0.9600
 8199SOL     OW36232   3.092   3.858  16.830  0.2670 -0.0620  0.0878
 8199SOL    HW136233   3.135   3.778  16.800  0.6742  0.5252 -0.9201
 8199SOL    HW236234   3.012   3.849  16.779  1.2151  0.6491 -1.5507
 8200SOL     OW36235   1.026   4.689   1.454 -0.0614  0.3978 -0.1136
 8200SOL    HW136236   0.940   4.695   1.496  0.4123 -1.8497  1.1866
 8200SOL    HW236237   1.012   0.009   1.378  1.8559  0.5297 -0.3570
 8201SOL     OW36238   0.945   1.503   5.962  0.0894  0.0595  0.0607
 8201SOL    HW136239   0.856   1.520   5.993  0.8990  0.3446  2.2109
 8201SOL    HW236240   0.940   1.582   5.908  0.7938  0.6203  0.8301
 8202SOL     OW36241   0.447   3.983  17.189  0.0076  1.4957  0.1727
 8202SOL    HW136242   0.486   4.028  17.114  3.8825 -1.8681  0.1608
 8202SOL    HW236243   0.455   4.046  17.261  1.3844  0.3007  1.0744
 8203SOL     OW36244   3.512   3.474   4.793 -0.0030  0.1813 -0.1831
 8203SOL    HW136245   3.568   3.517   4.729  0.2993  0.3072  0.1655
 8203SOL    HW236246   3.466   3.550   4.831  1.8081  1.3730 -0.4163
 8204SOL     OW36247   2.009   2.435  15.626  0.3305 -0.0843  0.1844
 8204SOL    HW136248   2.034   2.368  15.563  0.3250  1.2793 -1.2801
 8204SOL    HW236249   2.083   2.432  15.687  1.5408  1.4209 -1.2238
 8205SOL     OW36250   1.046   0.352   6.827 -0.1497 -0.6334 -0.0592
 8205SOL    HW136251   1.130   0.339   6.871 -0.5256 -0.4492  0.7082
 8205SOL    HW236252   1.070   0.309   6.744  0.1041  1.0432 -0.8546
 8206SOL     OW36253   3.844   0.963   4.986 -0.4601 -0.4631 -0.2971
 8206SOL    HW136254   3.787   1.003   4.920 -1.6396 -1.6323  0.0345
 8206SOL    HW236255   3.836   0.874   4.951 -1.4990 -1.1938  1.8346
 8207SOL     OW36256   3.331   1.524   7.748  0.0582 -0.1863 -0.6442
 8207SOL    HW136257   3.285   1.514   7.831 -2.4112 -0.0097 -1.9794
 8207SOL    HW236258   3.296   1.456   7.691  1.1627 -1.1047 -0.2097
 8208SOL     OW36259   3.729   4.014   4.629 -0.2657 -0.2791 -0.3027
 8208SOL    HW136260   3.756   4.062   4.551  0.1695  0.5963  0.3919
 8208SOL    HW236261   3.653   4.070   4.645  0.3782  0.6766 -0.5719
 8209SOL     OW36262   3.309   1.671   9.412 -0.2542  0.0317 -0.6853
 8209SOL    HW136263   3.275   1.752   9.450 -1.0105 -0.7904  0.4131
 8209SOL    HW236264   3.303   1.607   9.484  0.7595  1.4746  0.6860
 8210SOL     OW36265   3.233   0.628  10.336  0.3102  0.3844  0.4358
 8210SOL    HW136266   3.280   0.623  10.419  1.5385  0.7551 -0.2349
 8210SOL    HW236267   3.295   0.682  10.287  0.9744  0.5881  1.4845
 8211SOL     OW36268   0.301   0.086   7.989 -0.3929 -0.7867 -0.4903
 8211SOL    HW136269   0.340   0.020   8.046  1.6185  0.9436  0.1368
 8211SOL    HW236270   0.209   0.071   8.013 -0.6461  2.0050  0.2394
 8212SOL     OW36271   2.570   0.231  17.486 -0.3808  0.1229 -0.0453
 8212SOL    HW136272   2.556   0.325  17.503  0.3829  0.0445  1.0182
 8212SOL    HW236273   2.537   0.190  17.566 -1.7627 -0.7818 -1.0786
 8213SOL     OW36274   2.357   2.914  10.438  0.6703  0.2298 -0.6171
 8213SOL    HW136275   2.416   2.886  10.369  0.0354 -1.6074 -0.4089
 8213SOL    HW236276   2.314   2.835  10.471  1.6350 -0.2537 -0.5240
 8214SOL     OW36277   0.289   0.611  17.587 -0.0429  0.0840  0.0656
 8214SOL    HW136278   0.328   0.582  17.669 -1.3240 -0.9020  0.3261
 8214SOL    HW236279   0.333   0.556  17.522  0.5291 -1.4912  1.7781
 8215SOL     OW36280   3.126   4.121  10.719  0.0060  0.0237  0.2531
 8215SOL    HW136281   3.153   4.049  10.663 -0.9817 -0.1189 -0.0380
 8215SOL    HW236282   3.197   4.112  10.783  0.2813 -1.1743 -0.2347
 8216SOL     OW36283   4.522   0.965   6.090 -0.0685 -0.1290 -0.5192
 8216SOL    HW136284   4.494   0.937   6.003  0.3780 -1.4920 -0.2246
 8216SOL    HW236285   4.600   0.909   6.090  0.7428  1.0060 -1.0202
 8217SOL     OW36286   1.579   3.084   7.851 -0.0293  0.3650  0.3943
 8217SOL    HW136287   1.540   3.068   7.937 -2.3782 -0.8174 -0.8670
 8217SOL    HW236288   1.505   3.109   7.796  1.2276  1.2446 -0.8923
 8218SOL     OW36289   0.936   2.936   6.810 -0.0057 -0.2487  0.5827
 8218SOL    HW136290   0.963   2.875   6.879  1.7219 -0.0369  0.1046
 8218SOL    HW236291   1.021   2.920   6.768  0.6783  1.5343  1.2649
 8219SOL     OW36292   0.323   1.358   5.125  0.0364 -0.0948 -0.0669
 8219SOL    HW136293   0.398   1.319   5.080 -2.5942 -1.3781 -3.3604
 8219SOL    HW236294   0.249   1.302   5.100  0.0430  1.1969 -3.0458
 8220SOL     OW36295   1.760   2.676  14.216  0.1209 -0.0453  0.0688
 8220SOL    HW136296   1.702   2.600  14.222  2.6426 -1.9777 -0.2949
 8220SOL    HW236297   1.769   2.694  14.310 -0.9818 -2.2577  0.6015
 8221SOL     OW36298   3.655   0.354  16.195 -0.1548 -0.3491 -0.0927
 8221SOL    HW136299   3.662   0.378  16.288  0.3583 -1.6503  0.2032
 8221SOL    HW236300   3.672   0.260  16.196 -2.2964 -0.7491 -1.6544
 8222SOL     OW36301   2.726   0.716   4.409  0.2779  0.6420  0.9608
 8222SOL    HW136302   2.632   0.697   4.406  0.7565 -1.6131 -0.1067
 8222SOL    HW236303   2.714   0.801   4.368 -1.2876 -0.7375 -1.5093
 8223SOL     OW36304   1.431   3.730   0.895 -0.4443  0.2056  0.1957
 8223SOL    HW136305   1.348   3.744   0.941  0.1454  2.2434  0.6454
 8223SOL    HW236306   1.431   3.635   0.886  4.3583  0.3295 -1.1747
 8224SOL     OW36307   2.076   3.213   9.185 -0.5282 -0.0887 -0.0115
 8224SOL    HW136308   2.131   3.286   9.156  1.3717 -0.1479  3.3982
 8224SOL    HW236309   2.015   3.249   9.249 -0.6926  1.3138 -0.9593
 8225SOL     OW36310   2.778   4.374   0.169 -0.4090  0.2971 -0.5310
 8225SOL    HW136311   2.704   4.424   0.203 -1.7215 -2.4172  0.6709
 8225SOL    HW236312   2.810   4.326   0.246 -1.9343 -0.5294 -0.4064
 8226SOL     OW36313   2.162   2.451   3.348 -0.3336  0.0248  0.0558
 8226SOL    HW136314   2.148   2.430   3.440 -1.3307 -1.1258 -0.3584
 8226SOL    HW236315   2.256   2.468   3.347 -0.0888 -1.3372 -0.1742
 8227SOL     OW36316   0.341   4.307   1.259  0.0274 -0.3968 -0.1124
 8227SOL    HW136317   0.431   4.312   1.227 -0.0732 -0.6560 -0.4261
 8227SOL    HW236318   0.286   4.330   1.184 -1.0344  1.7606  1.3112
 8228SOL     OW36319   1.398   2.707   2.026 -0.5513 -0.0971 -0.3534
 8228SOL    HW136320   1.328   2.667   1.975 -0.6163 -2.4905  1.5905
 8228SOL    HW236321   1.477   2.678   1.979 -1.4164  0.2320 -2.0172
 8229SOL     OW36322   1.686   3.369   7.564  0.2925  0.2113 -0.1488
 8229SOL    HW136323   1.767   3.385   7.517  0.1269 -1.7530 -1.1267
 8229SOL    HW236324   1.621   3.413   7.510 -0.3464  0.3004  0.6856
 8230SOL     OW36325   0.737   2.542  16.365  0.1996 -0.8595 -0.6269
 8230SOL    HW136326   0.742   2.455  16.326  0.9749 -0.4771 -1.3588
 8230SOL    HW236327   0.816   2.585  16.333  0.1784 -1.6211 -1.6896
 8231SOL     OW36328   0.063   2.992  17.196  0.2999  0.5050 -0.5419
 8231SOL    HW136329   0.008   3.042  17.256  1.8351  1.1346  0.3326
 8231SOL    HW236330   0.135   3.053  17.177  0.5934  0.2704 -0.1664
 8232SOL     OW36331   2.910   0.521   9.581 -0.2495 -0.2597  0.1030
 8232SOL    HW136332   2.993   0.487   9.547  0.5091  0.3068  1.3800
 8232SOL    HW236333   2.851   0.458   9.539  0.4790  0.2803 -1.7284
 8233SOL     OW36334   4.260   3.735  13.093 -0.1287 -0.0124  0.0464
 8233SOL    HW136335   4.192   3.755  13.157  1.9894 -1.1456  2.6318
 8233SOL    HW236336   4.336   3.742  13.151 -0.6165  1.4673  0.4984
 8234SOL     OW36337   0.544   0.999   4.346 -0.0973 -0.6040  0.2948
 8234SOL    HW136338   0.526   1.087   4.314 -1.4311 -2.1977 -3.4182
 8234SOL    HW236339   0.535   1.010   4.440  1.1725  1.3498  0.1823
 8235SOL     OW36340   0.757   0.099   2.494  1.1867  0.3492  0.5241
 8235SOL    HW136341   0.667   0.129   2.505  1.7128  2.9986 -2.4274
 8235SOL    HW236342   0.757   0.010   2.529  0.3084  0.5341  0.9819
 8236SOL     OW36343   1.089   4.260   7.440 -0.4532  0.4067  0.5667
 8236SOL    HW136344   1.147   4.299   7.505  1.1940 -1.4207  0.1887
 8236SOL    HW236345   1.080   4.173   7.478  0.4493 -0.7261 -1.8095
 8237SOL     OW36346   2.100   1.776  11.789  0.1579  0.1090 -0.4846
 8237SOL    HW136347   2.181   1.729  11.772  0.7837  1.1704 -0.3911
 8237SOL    HW236348   2.105   1.843  11.721 -0.5050  0.3628 -0.2931
 8238SOL     OW36349   1.170   4.534   3.853  0.2290 -0.2133  0.8424
 8238SOL    HW136350   1.207   4.451   3.883  0.8178 -0.4817 -0.6219
 8238SOL    HW236351   1.109   4.545   3.926  0.1316 -1.0465  0.8863
 8239SOL     OW36352   0.564   3.856   6.456  0.2235  0.0734 -0.2048
 8239SOL    HW136353   0.607   3.772   6.438 -0.4977 -0.3652  0.1218
 8239SOL    HW236354   0.491   3.826   6.511  1.8509 -1.0214  1.3629
 8240SOL     OW36355   3.375   0.061  17.619  0.4931 -0.3440 -0.1615
 8240SOL    HW136356   3.429   0.085  17.543  1.0385  0.9067  0.6328
 8240SOL    HW236357   3.440   0.078  17.686 -0.4998  1.5131  0.3284
 8241SOL     OW36358   3.419   3.007   0.766  0.0874  0.0873  0.0917
 8241SOL    HW136359   3.447   3.000   0.858  0.0217 -1.4661 -0.0150
 8241SOL    HW236360   3.479   2.948   0.721 -0.9935 -0.4916 -0.5887
 8242SOL     OW36361   4.137   0.395   6.639 -0.2191 -0.3044  0.1767
 8242SOL    HW136362   4.094   0.317   6.605  0.3088 -1.4553  2.1420
 8242SOL    HW236363   4.193   0.415   6.564 -0.7617  0.3347 -0.0569
 8243SOL     OW36364   1.291   1.108   7.561  0.3636 -0.2887  0.0871
 8243SOL    HW136365   1.296   1.157   7.644 -0.0448 -3.8738  2.2266
 8243SOL    HW236366   1.258   1.030   7.606 -2.5043 -0.1277 -1.7924
 8244SOL     OW36367   0.338   3.621  12.097  0.5980  0.1386 -0.0894
 8244SOL    HW136368   0.350   3.573  12.015 -1.0399 -0.5913  0.1006
 8244SOL    HW236369   0.431   3.626  12.120  1.0557 -1.7165 -1.5788
 8245SOL     OW36370   0.064   3.733   5.600 -0.8967  0.1918 -0.1718
 8245SOL    HW136371   0.127   3.798   5.629 -0.5898 -0.3783  0.4062
 8245SOL    HW236372   0.019   3.709   5.681 -0.5305  0.1631  0.0196
 8246SOL     OW36373   1.710   0.023   2.333 -0.2750  0.5686  0.4385
 8246SOL    HW136374   1.649   0.063   2.395  0.1868 -0.1094  1.3366
 8246SOL    HW236375   1.755   4.712   2.403  0.1454  1.5998  0.8615
 8247SOL     OW36376   3.504   1.274   7.243 -0.0094 -0.0647  0.3579
 8247SOL    HW136377   3.429   1.257   7.301  0.4214 -0.9821  0.6448
 8247SOL    HW236378   3.572   1.271   7.311  0.5314  0.7192 -0.1571
 8248SOL     OW36379   0.696   1.066  13.943 -0.5228  0.0562  0.8027
 8248SOL    HW136380   0.676   1.154  13.977 -0.8374  0.7773 -1.2573
 8248SOL    HW236381   0.737   1.023  14.018 -1.1819 -0.1539  1.0456
 8249SOL     OW36382   4.669   3.812   1.346 -0.6441  0.2057 -0.0025
 8249SOL    HW136383   4.667   3.907   1.339 -0.2125  0.1617 -0.6718
 8249SOL    HW236384   0.025   3.794   1.330 -0.1730  0.5842  2.4024
 8250SOL     OW36385   4.671   1.872   4.096 -0.0881  0.1915 -0.3578
 8250SOL    HW136386   4.724   1.859   4.175 -0.9026 -0.0046  0.1556
 8250SOL    HW236387   4.669   1.967   4.083 -0.8221  0.2742  0.3762
 8251SOL     OW36388   4.640   0.156  17.529  0.0611  0.1349 -0.4521
 8251SOL    HW136389   4.579   0.177  17.599  0.6575  2.5060 -0.6295
 8251SOL    HW236390   4.664   0.247  17.510  0.5161  0.1805  0.3326
 8252SOL     OW36391   2.169   3.382  15.244 -0.7769  0.6622 -0.2456
 8252SOL    HW136392   2.111   3.390  15.319  0.5690 -2.1359  1.1274
 8252SOL    HW236393   2.176   3.286  15.236 -0.5682  0.8335 -2.1868
 8253SOL     OW36394   2.533   3.807   1.548 -0.0707  0.3367 -0.1313
 8253SOL    HW136395   2.533   3.855   1.630  1.0945 -0.6151  0.4371
 8253SOL    HW236396   2.486   3.728   1.576  0.6787  0.2313  0.8381
 8254SOL     OW36397   0.195   3.366   4.668 -0.5515 -0.2025  0.0563
 8254SOL    HW136398   0.166   3.375   4.759 -0.5207  1.1942 -0.0702
 8254SOL    HW236399   0.133   3.300   4.639 -0.5524  0.4199 -1.3442
 8255SOL     OW36400   3.092   1.080   2.949 -0.6649  0.5551 -0.3407
 8255SOL    HW136401   3.066   1.051   3.037 -2.8965  2.0174 -0.5280
 8255SOL    HW236402   3.185   1.059   2.939 -0.4559  1.0027  0.6202
 8256SOL     OW36403   0.775   2.871   2.508 -0.1072 -0.7450 -0.1813
 8256SOL    HW136404   0.698   2.848   2.456 -0.9513 -0.7555  1.0758
 8256SOL    HW236405   0.758   2.965   2.518  0.8172 -0.4008 -1.8074
 8257SOL     OW36406   4.232   1.283  10.867  0.6673 -0.4933  0.3699
 8257SOL    HW136407   4.212   1.326  10.950  0.6373 -0.5517  0.3932
 8257SOL    HW236408   4.308   1.230  10.889  0.5730 -1.3308 -1.3185
 8258SOL     OW36409   0.586   4.578   7.888  0.8024 -0.6479 -0.0109
 8258SOL    HW136410   0.615   4.529   7.812 -0.9008 -0.1697 -0.9787
 8258SOL    HW236411   0.646   4.558   7.959  0.8404  0.7763  0.3553
 8259SOL     OW36412   1.302   4.316  14.445  0.2379 -0.0845 -0.2928
 8259SOL    HW136413   1.389   4.281  14.462  1.0601  1.6794 -0.7544
 8259SOL    HW236414   1.271   4.252  14.382  0.3233  0.2411 -0.6696
 8260SOL     OW36415   3.955   2.993   2.054 -0.3638  0.0787  0.2712
 8260SOL    HW136416   3.968   2.936   2.130  0.6520  0.3859  0.3265
 8260SOL    HW236417   3.861   3.011   2.063 -0.1909  0.6659  0.9814
 8261SOL     OW36418   2.104   1.190   6.487 -0.1105  0.2519  0.0267
 8261SOL    HW136419   2.042   1.133   6.442  2.2799 -1.2181 -1.4075
 8261SOL    HW236420   2.151   1.234   6.417  0.7340  0.1869  0.5445
 8262SOL     OW36421   0.220   0.621   7.244  0.2343  0.4771  0.6709
 8262SOL    HW136422   0.153   0.556   7.264 -0.9650  1.2113 -0.9464
 8262SOL    HW236423   0.205   0.678   7.320  1.2508  0.2592  1.0457
 8263SOL     OW36424   2.007   1.040   1.755 -0.8379 -0.1284 -0.5407
 8263SOL    HW136425   2.072   1.039   1.825  1.3043  0.6183 -2.5287
 8263SOL    HW236426   1.962   1.124   1.762  0.1665  0.4263 -0.7757
 8264SOL     OW36427   2.950   3.818   2.367 -0.8351  0.1198 -0.1485
 8264SOL    HW136428   2.939   3.913   2.358 -2.1964 -0.2294 -2.2339
 8264SOL    HW236429   2.883   3.801   2.433 -0.0594  1.1857  0.9008
 8265SOL     OW36430   1.823   1.197   6.290  0.6801  0.3831 -0.0916
 8265SOL    HW136431   1.737   1.161   6.265  0.6697  0.2449  0.1403
 8265SOL    HW236432   1.840   1.140   6.365 -0.0285  1.0670  0.5990
 8266SOL     OW36433   4.519   3.292   7.940 -0.2964  0.4776  0.5301
 8266SOL    HW136434   4.491   3.367   7.887  1.3766  0.8951  0.2420
 8266SOL    HW236435   4.458   3.307   8.012 -0.3167 -0.2433  0.6580
 8267SOL     OW36436   0.196   1.254   3.233  0.4073 -0.1058 -0.6495
 8267SOL    HW136437   0.277   1.208   3.252  1.0675  0.3795 -2.3076
 8267SOL    HW236438   0.145   1.185   3.190 -2.2466  0.8517  0.9370
 8268SOL     OW36439   0.555   2.901   9.003  0.0321  0.5282 -0.5091
 8268SOL    HW136440   0.519   2.985   8.974 -0.6068 -0.1377 -1.6292
 8268SOL    HW236441   0.492   2.885   9.073  0.1053 -0.3131 -0.6448
 8269SOL     OW36442   1.294   0.272   5.956 -0.0731  0.1869  0.0066
 8269SOL    HW136443   1.271   0.300   5.867 -0.6722  0.6892  0.3190
 8269SOL    HW236444   1.208   0.282   5.998  0.5243  0.2045  1.2377
 8270SOL     OW36445   1.367   0.842  15.335 -0.0771 -0.4717  0.1809
 8270SOL    HW136446   1.324   0.900  15.273  0.1340  1.4394  1.8388
 8270SOL    HW236447   1.454   0.882  15.341 -0.2561 -0.0866  0.1844
 8271SOL     OW36448   3.781   4.572  10.449 -0.3273  0.3844  0.2260
 8271SOL    HW136449   3.837   4.622  10.389  0.6465 -0.9584  0.0160
 8271SOL    HW236450   3.697   4.596  10.409 -0.0466  0.7744 -0.1417
 8272SOL     OW36451   3.666   0.155   1.848 -0.2101 -0.2975 -0.6188
 8272SOL    HW136452   3.651   0.213   1.773 -2.5742 -0.2516 -0.0877
 8272SOL    HW236453   3.584   0.169   1.895  0.1750  0.1114 -0.0603
 8273SOL     OW36454   2.783   0.224   4.202  0.2328 -0.2898 -0.1150
 8273SOL    HW136455   2.826   0.296   4.247 -0.0043 -0.8125  0.9402
 8273SOL    HW236456   2.696   0.238   4.239  0.0003  0.3598 -0.9108
 8274SOL     OW36457   2.246   3.270   3.628  0.2130  0.0597 -0.1182
 8274SOL    HW136458   2.252   3.365   3.619 -1.4607  0.5125  3.5768
 8274SOL    HW236459   2.249   3.253   3.722 -0.8049 -2.0350 -0.4634
 8275SOL     OW36460   3.757   4.364   3.670  0.2185 -0.7209 -0.0121
 8275SOL    HW136461   3.796   4.281   3.645  0.9570  0.1014 -1.6004
 8275SOL    HW236462   3.664   4.347   3.680 -0.2784  2.2002  0.5401
 8276SOL     OW36463   0.304   4.529   6.567  0.6281 -0.4961  0.3144
 8276SOL    HW136464   0.344   4.445   6.588  1.4333  0.4326  2.4892
 8276SOL    HW236465   0.215   4.496   6.579  0.9490 -1.0951  1.0025
 8277SOL     OW36466   1.357   2.559   8.853 -0.1268 -0.1957 -0.1155
 8277SOL    HW136467   1.350   2.570   8.758 -0.6570  1.9831  0.1755
 8277SOL    HW236468   1.452   2.561   8.862 -0.0682  3.1792 -1.4572
 8278SOL     OW36469   2.215   3.910   1.391  0.0016 -0.5463  0.0353
 8278SOL    HW136470   2.279   3.915   1.321 -1.2798  0.5225 -1.0496
 8278SOL    HW236471   2.193   3.817   1.401  0.8114 -0.6748  0.6468
 8279SOL     OW36472   3.324   0.028  12.388 -0.1755 -0.2144  0.1347
 8279SOL    HW136473   3.367   4.690  12.431 -0.5869 -0.4892  0.0769
 8279SOL    HW236474   3.263   4.720  12.329 -0.6857  1.2782 -0.4512
 8280SOL     OW36475   3.484   2.142   8.681  0.3586 -0.6802  0.4975
 8280SOL    HW136476   3.452   2.161   8.593  0.8683  0.0338  0.4615
 8280SOL    HW236477   3.408   2.095   8.715  0.5461 -0.1065  1.7204
 8281SOL     OW36478   2.651   0.122   6.443  0.0885  0.2778  0.8184
 8281SOL    HW136479   2.599   0.042   6.433  0.5295 -0.1454  1.9296
 8281SOL    HW236480   2.651   0.157   6.354  0.7477 -2.0323 -0.1018
 8282SOL     OW36481   0.373   0.419  17.407  0.2400  0.1340 -0.5285
 8282SOL    HW136482   0.290   0.434  17.360  0.1593 -0.9903 -0.7444
 8282SOL    HW236483   0.382   0.324  17.408  0.8671  0.2252  1.1218
 8283SOL     OW36484   0.464   2.343   9.387 -0.5398  0.6428  0.2167
 8283SOL    HW136485   0.457   2.297   9.304  1.5817  2.0056 -0.7330
 8283SOL    HW236486   0.410   2.418   9.362  0.5670  2.4972  3.3409
 8284SOL     OW36487   0.644   4.375   7.711  0.3519 -0.3105 -0.2914
 8284SOL    HW136488   0.606   4.409   7.630  0.6225 -0.1768 -0.3631
 8284SOL    HW236489   0.706   4.310   7.677  3.1130  1.7708  0.7819
 8285SOL     OW36490   4.545   3.753   3.004  0.2473  0.0943 -0.1022
 8285SOL    HW136491   4.483   3.759   2.931  1.3597  1.2914 -0.9470
 8285SOL    HW236492   4.528   3.830   3.058  0.6088 -1.0022  1.5637
 8286SOL     OW36493   1.341   3.837   9.450  0.6597  0.0169 -0.3944
 8286SOL    HW136494   1.276   3.863   9.384  2.1154 -1.5894 -2.4762
 8286SOL    HW236495   1.346   3.921   9.495  2.7298  0.4548 -1.4227
 8287SOL     OW36496   0.263   2.392  11.405 -0.0821 -0.3213  0.0962
 8287SOL    HW136497   0.181   2.393  11.456 -0.6306  0.4703 -0.8028
 8287SOL    HW236498   0.238   2.354  11.321  1.4401 -1.3883  0.1239
 8288SOL     OW36499   4.630   1.665  12.819  0.2297 -0.0182 -0.2305
 8288SOL    HW136500   4.656   1.631  12.904 -1.3952 -1.0733 -0.1703
 8288SOL    HW236501   4.538   1.642  12.825 -0.0179  1.1222  0.2318
 8289SOL     OW36502   4.319   0.392   0.518  0.3771 -0.5785  0.3530
 8289SOL    HW136503   4.254   0.413   0.451 -1.4056  2.2214  3.0188
 8289SOL    HW236504   4.290   0.456   0.582 -1.4212  0.2644 -1.2907
 8290SOL     OW36505   2.737   2.449   3.203  0.0259 -0.0970 -0.5480
 8290SOL    HW136506   2.643   2.466   3.208 -0.1869 -1.5657  0.4681
 8290SOL    HW236507   2.766   2.514   3.139 -0.8342  1.3135  0.5063
 8291SOL     OW36508   3.271   2.312   0.710  0.1907  0.0183  0.0315
 8291SOL    HW136509   3.345   2.355   0.667  0.3873  0.1434  0.5017
 8291SOL    HW236510   3.302   2.221   0.716  1.0117  0.0336 -3.4870
 8292SOL     OW36511   1.892   0.167  17.427 -0.6671 -0.3425  0.0928
 8292SOL    HW136512   1.862   0.166  17.518  1.9388 -0.6489  0.9398
 8292SOL    HW236513   1.881   0.259  17.402  0.5986 -0.1133  0.3721
 8293SOL     OW36514   3.174   2.985   7.657 -0.2981 -0.3342 -0.1139
 8293SOL    HW136515   3.150   2.893   7.655  1.3347 -0.7234 -1.5013
 8293SOL    HW236516   3.265   2.992   7.686 -0.9040  2.0018  1.2656
 8294SOL     OW36517   3.171   0.375   9.544  0.0755  0.3023 -0.1951
 8294SOL    HW136518   3.249   0.378   9.600  0.3810 -0.8714 -0.5410
 8294SOL    HW236519   3.129   0.292   9.564  0.3185  0.6159  1.5637
 8295SOL     OW36520   2.321   0.392   7.034  0.2475  0.6935  0.3456
 8295SOL    HW136521   2.237   0.438   7.035 -0.3920 -0.4541  0.0068
 8295SOL    HW236522   2.345   0.415   6.945 -1.8695 -0.4766 -0.5339
 8296SOL     OW36523   3.958   4.533  12.679  0.1533 -0.3715 -0.4196
 8296SOL    HW136524   3.878   4.574  12.714  0.4770  0.3610 -0.5260
 8296SOL    HW236525   4.020   4.527  12.752  0.0782 -0.0329 -0.3275
 8297SOL     OW36526   1.269   3.478  10.269 -0.3217  0.0390 -0.0753
 8297SOL    HW136527   1.359   3.500  10.247 -0.7347  1.7181 -0.1558
 8297SOL    HW236528   1.231   3.563  10.293  0.5885 -0.0008  1.4759
 8298SOL     OW36529   2.806   3.442   3.352  0.1068 -0.0417  0.1185
 8298SOL    HW136530   2.849   3.527   3.339  3.0212 -1.7330 -1.2655
 8298SOL    HW236531   2.813   3.435   3.447 -0.9196 -1.2981  0.0993
 8299SOL     OW36532   1.063   2.554   5.958 -0.7016 -0.2830 -0.3064
 8299SOL    HW136533   1.025   2.529   5.874 -0.5217  0.0745 -0.4928
 8299SOL    HW236534   0.982   2.580   6.002  1.2021  0.6741  2.6697
 8300SOL     OW36535   2.346   4.544   5.061 -0.1425 -0.2158 -0.1155
 8300SOL    HW136536   2.408   4.547   5.135 -0.9501 -0.1717  0.5560
 8300SOL    HW236537   2.304   4.460   5.076  1.3365 -0.7379  1.0754
 8301SOL     OW36538   3.764   1.107   3.385 -0.0461 -0.4725 -0.1133
 8301SOL    HW136539   3.823   1.171   3.423  0.2104 -1.0359  0.4396
 8301SOL    HW236540   3.693   1.108   3.449 -1.1517 -1.3527 -1.2925
 8302SOL     OW36541   2.179   2.839   6.737  1.1190  0.0608  0.1617
 8302SOL    HW136542   2.141   2.851   6.825  0.8657  2.5216 -0.2878
 8302SOL    HW236543   2.145   2.917   6.694 -0.7223 -1.1194 -0.5310
 8303SOL     OW36544   1.035   0.457   4.642  0.2340 -0.8372  0.5043
 8303SOL    HW136545   1.094   0.519   4.600  0.4355 -0.6796  1.0216
 8303SOL    HW236546   0.980   0.415   4.576 -1.5266  1.2914  0.5922
 8304SOL     OW36547   0.560   3.194   6.454 -0.1937 -0.1311  0.5047
 8304SOL    HW136548   0.543   3.127   6.520  1.9558 -0.4756  0.7044
 8304SOL    HW236549   0.605   3.270   6.492  0.0657  0.5924 -1.2502
 8305SOL     OW36550   3.757   2.306   2.122  0.1643 -0.1842  0.1994
 8305SOL    HW136551   3.769   2.253   2.042  0.9299 -1.8344  1.4075
 8305SOL    HW236552   3.825   2.372   2.111 -0.2725  0.4672  1.3878
 8306SOL     OW36553   2.745   0.810  10.465  0.2697 -0.3450 -0.2393
 8306SOL    HW136554   2.806   0.755  10.515  1.5038  0.5350 -0.7817
 8306SOL    HW236555   2.718   0.874  10.531  2.5432  0.3621  0.0231
 8307SOL     OW36556   0.355   4.248  11.788 -0.3859  0.0185 -0.0318
 8307SOL    HW136557   0.388   4.282  11.704 -1.3662  1.3305  0.1135
 8307SOL    HW236558   0.401   4.166  11.772  2.0011  1.4732 -0.4962
 8308SOL     OW36559   1.076   2.750   1.430  0.3366  0.3686 -0.2365
 8308SOL    HW136560   1.164   2.786   1.441  0.9546 -1.7664  1.8526
 8308SOL    HW236561   1.118   2.664   1.425  0.2079  0.2642  0.5048
 8309SOL     OW36562   3.131   2.397  12.306  0.4139 -0.1854 -0.5513
 8309SOL    HW136563   3.177   2.481  12.302 -2.5021  1.4290 -0.3900
 8309SOL    HW236564   3.117   2.397  12.401  1.3678 -0.1325 -0.4074
 8310SOL     OW36565   1.519   3.078   8.505 -0.3837  0.0811 -0.1880
 8310SOL    HW136566   1.497   2.992   8.541  0.9017  0.1087  0.6333
 8310SOL    HW236567   1.603   3.102   8.542  0.3197 -2.8796  0.1436
 8311SOL     OW36568   2.786   0.457   4.446  0.4773  0.4206  0.6861
 8311SOL    HW136569   2.775   0.552   4.454  1.7713  0.7607 -1.3904
 8311SOL    HW236570   2.879   0.442   4.461  0.2641  0.8186  2.4377
 8312SOL     OW36571   1.526   3.851   1.481 -0.5910  0.2055 -0.9096
 8312SOL    HW136572   1.580   3.930   1.487 -0.3305 -0.0298 -0.0794
 8312SOL    HW236573   1.576   3.779   1.520 -0.8361  0.8038  0.5060
 8313SOL     OW36574   0.083   3.163   3.305  0.1897  0.2847  0.1367
 8313SOL    HW136575   0.085   3.155   3.209  1.6134 -0.2892  0.2161
 8313SOL    HW236576   0.123   3.250   3.312  4.0398 -1.4567 -0.0460
 8314SOL     OW36577   4.367   1.082   7.408 -0.1725 -0.2739 -0.1188
 8314SOL    HW136578   4.349   1.151   7.344 -0.9448  1.3560  1.8484
 8314SOL    HW236579   4.450   1.049   7.374  0.3727  2.1873 -1.1682
 8315SOL     OW36580   3.571   3.168  10.911 -0.2526 -0.3427  0.3023
 8315SOL    HW136581   3.610   3.205  10.990  0.8568 -1.8418  0.4560
 8315SOL    HW236582   3.618   3.213  10.841  0.7934 -0.7545  0.7516
 8316SOL     OW36583   1.051   4.717   6.184  0.2235  0.0873 -0.7716
 8316SOL    HW136584   1.025   4.627   6.204  1.4920  0.2328  1.5497
 8316SOL    HW236585   0.974   0.019   6.225  1.5568  0.1414  1.7294
 8317SOL     OW36586   1.087   0.166  16.637  0.2800 -0.1546 -0.4913
 8317SOL    HW136587   1.092   0.106  16.711  1.9830 -1.2228 -1.4565
 8317SOL    HW236588   1.178   0.161  16.606 -0.5838  0.0117 -3.0336
 8318SOL     OW36589   1.599   4.680   5.196 -0.5083  0.1904 -0.4006
 8318SOL    HW136590   1.634   4.711   5.279  0.4271  0.7700 -1.0138
 8318SOL    HW236591   1.530   0.003   5.168 -0.3452  1.1794  1.3240
 8319SOL     OW36592   2.085   1.703  15.429 -0.1283 -0.0108 -0.2067
 8319SOL    HW136593   2.140   1.779  15.448  1.2337 -1.0360 -0.0846
 8319SOL    HW236594   2.006   1.743  15.464 -0.6047 -0.0685 -1.2073
 8320SOL     OW36595   0.779   3.613   4.404 -0.2599 -0.0101  0.1727
 8320SOL    HW136596   0.708   3.585   4.346  2.3054 -1.0904 -2.4443
 8320SOL    HW236597   0.747   3.601   4.493 -0.1729 -1.2036  0.0453
 8321SOL     OW36598   4.660   0.344   0.028  0.6816  0.0651  0.1895
 8321SOL    HW136599   4.584   0.287   0.017 -0.0249  0.8547  1.0121
 8321SOL    HW236600   4.618   0.430   0.032 -1.4390 -0.9112 -0.9657
 8322SOL     OW36601   2.644   1.577   5.965 -0.1124 -0.5258  0.1141
 8322SOL    HW136602   2.617   1.487   5.983 -1.3131  0.1994  1.9494
 8322SOL    HW236603   2.719   1.584   6.024  0.8676 -0.5274 -1.1287
 8323SOL     OW36604   4.520   2.803   2.808 -0.2834 -0.3021 -0.4017
 8323SOL    HW136605   4.566   2.881   2.776  0.1496  0.4267  1.9989
 8323SOL    HW236606   4.430   2.821   2.780 -0.1972 -0.2474 -0.6405
 8324SOL     OW36607   4.141   2.206   4.861  0.0778 -0.4233 -0.0704
 8324SOL    HW136608   4.164   2.272   4.796 -0.0438 -1.0225 -0.7263
 8324SOL    HW236609   4.051   2.232   4.879  1.2236  3.9176 -0.6220
 8325SOL     OW36610   1.846   0.013   2.851  0.4495  0.0427  0.0163
 8325SOL    HW136611   1.862   0.100   2.813  1.0767  0.6172  1.6285
 8325SOL    HW236612   1.755   4.734   2.826 -0.0175 -2.2334  3.2204
 8326SOL     OW36613   0.110   3.312   9.038  0.2253 -0.3731 -0.0316
 8326SOL    HW136614   0.145   3.373   8.973 -2.0691  1.2247  0.2216
 8326SOL    HW236615   0.022   3.350   9.047 -0.5321 -1.7398 -1.6496
 8327SOL     OW36616   1.570   3.614   7.906 -0.1247  0.9702  0.3106
 8327SOL    HW136617   1.606   3.659   7.982 -0.4900  0.1775  0.9540
 8327SOL    HW236618   1.575   3.521   7.928  2.7870  1.2767  0.9692
 8328SOL     OW36619   4.313   1.549   7.351  0.4319 -0.4182  0.2191
 8328SOL    HW136620   4.286   1.578   7.264  1.7078 -1.9192 -0.6685
 8328SOL    HW236621   4.268   1.607   7.412  3.5742  3.0549 -0.8272
 8329SOL     OW36622   0.549   0.126   6.603 -0.3377  0.0124  1.1003
 8329SOL    HW136623   0.629   0.158   6.645  0.0398 -0.2638  0.5764
 8329SOL    HW236624   0.516   0.194   6.544 -1.2573 -0.9432  0.5137
 8330SOL     OW36625   3.979   1.040   2.325  0.5978 -0.1358  0.1621
 8330SOL    HW136626   4.046   1.026   2.258  1.8532  3.3405  0.7191
 8330SOL    HW236627   3.979   1.135   2.335  0.6088 -0.3454  2.0254
 8331SOL     OW36628   0.703   0.656   3.609  0.1101  0.1788  0.1504
 8331SOL    HW136629   0.746   0.740   3.618  0.0963  0.0522  1.4775
 8331SOL    HW236630   0.632   0.679   3.670 -1.6418 -0.0649 -1.8067
 8332SOL     OW36631   2.622   0.027   0.506  0.3321 -0.1682  0.1436
 8332SOL    HW136632   2.594   0.114   0.476  3.2922  0.9544  0.5901
 8332SOL    HW236633   2.710   0.051   0.537  0.2201  0.3998  0.0329
 8333SOL     OW36634   4.346   4.303   8.497  0.2574 -0.3041 -0.6154
 8333SOL    HW136635   4.436   4.284   8.471  1.0052  0.0113  1.6625
 8333SOL    HW236636   4.352   4.324   8.591  0.9630  0.8923 -0.9357
 8334SOL     OW36637   2.269   1.890   1.011  0.1237 -0.3264 -0.0971
 8334SOL    HW136638   2.285   1.914   1.103 -0.6830 -1.1881  0.2710
 8334SOL    HW236639   2.305   1.972   0.978 -0.6650  0.0553  0.0017
 8335SOL     OW36640   1.272   3.854   9.136 -0.1281 -0.3178  0.1073
 8335SOL    HW136641   1.269   3.950   9.139  0.9593 -0.2404 -1.6696
 8335SOL    HW236642   1.352   3.846   9.084  0.3482  0.2210  0.7514
 8336SOL     OW36643   1.565   3.273   4.534 -0.5326  0.8042 -0.1875
 8336SOL    HW136644   1.487   3.328   4.523 -0.8143  0.1516 -1.5079
 8336SOL    HW236645   1.525   3.214   4.598  0.5571  0.4072  0.1262
 8337SOL     OW36646   1.612   3.240   8.266 -0.4483  0.4629  0.1216
 8337SOL    HW136647   1.692   3.227   8.316  0.4750 -1.8986 -1.9840
 8337SOL    HW236648   1.565   3.300   8.324  0.6016  3.2142 -1.8948
 8338SOL     OW36649   3.351   3.259   1.718  0.0861 -0.8195  0.8562
 8338SOL    HW136650   3.294   3.332   1.744 -0.8008 -0.6455 -1.5631
 8338SOL    HW236651   3.298   3.219   1.649  2.2671  0.7889 -1.7446
 8339SOL     OW36652   0.659   3.958  14.536  0.1061  0.2328 -0.4228
 8339SOL    HW136653   0.742   3.976  14.493  0.1175 -0.6866 -0.7706
 8339SOL    HW236654   0.634   3.871  14.506  1.2721 -0.3920  0.4260
 8340SOL     OW36655   0.258   3.578  16.010 -0.4387  0.7711  0.0309
 8340SOL    HW136656   0.267   3.486  15.986 -0.2945  0.6649  0.4861
 8340SOL    HW236657   0.189   3.591  16.074 -1.6669 -1.3069 -0.8757
 8341SOL     OW36658   4.091   3.252  12.931 -0.4785  0.5540  0.6246
 8341SOL    HW136659   4.115   3.342  12.909 -0.0664  0.3493  0.2512
 8341SOL    HW236660   4.126   3.254  13.020 -1.4318  4.0869  0.9084
 8342SOL     OW36661   3.518   3.867   7.807 -0.0220  0.0963 -0.1497
 8342SOL    HW136662   3.466   3.787   7.809  2.9217 -1.7955  1.1100
 8342SOL    HW236663   3.603   3.826   7.822  0.2627  1.3763  1.7761
 8343SOL     OW36664   2.965   2.795   4.779 -0.2472  0.4784  0.5052
 8343SOL    HW136665   2.881   2.841   4.790 -0.0702  1.1946 -1.1762
 8343SOL    HW236666   3.030   2.838   4.835  0.9585  0.3967 -0.8500
 8344SOL     OW36667   2.099   3.455  11.187 -0.0740  0.3747 -0.1142
 8344SOL    HW136668   2.039   3.415  11.124 -0.2237  0.4130  0.0055
 8344SOL    HW236669   2.043   3.464  11.263  0.3527  2.4411 -0.0469
 8345SOL     OW36670   1.836   0.265   6.173  0.4234  0.3096  0.2737
 8345SOL    HW136671   1.866   0.243   6.261  0.0157 -0.7407  0.1533
 8345SOL    HW236672   1.922   0.261   6.130  0.3432  0.7114  0.0754
 8346SOL     OW36673   2.214   2.851   3.283 -0.1449 -0.2203 -0.2046
 8346SOL    HW136674   2.230   2.810   3.368 -0.2969  1.1009  0.4517
 8346SOL    HW236675   2.151   2.917   3.313  0.5510  0.7018 -0.7845
 8347SOL     OW36676   0.961   0.536   7.762 -0.1292 -0.5245  0.0971
 8347SOL    HW136677   0.988   0.560   7.851  1.3142 -1.5412 -0.0629
 8347SOL    HW236678   0.894   0.479   7.800 -0.4276 -0.5674 -0.5090
 8348SOL     OW36679   1.674   4.154  12.540 -0.0045  0.2788 -0.0882
 8348SOL    HW136680   1.680   4.240  12.580  0.9272  1.3493 -2.5167
 8348SOL    HW236681   1.763   4.118  12.546  0.3696  1.3416  0.6025
 8349SOL     OW36682   2.902   4.628   6.355 -0.7543  0.1954 -0.2830
 8349SOL    HW136683   2.885   4.722   6.367  0.6304  0.4937 -0.7347
 8349SOL    HW236684   2.896   4.607   6.448 -0.0165 -0.4725 -0.3949
 8350SOL     OW36685   2.911   4.215  12.892  0.4771  0.3323  0.1219
 8350SOL    HW136686   2.956   4.163  12.958  0.7630 -2.7377 -2.5256
 8350SOL    HW236687   2.820   4.230  12.919  0.5846 -0.4959  0.9282
 8351SOL     OW36688   0.359   3.059   5.541  0.1935 -0.2888  0.0927
 8351SOL    HW136689   0.284   3.082   5.596  0.8202  1.5737  0.1702
 8351SOL    HW236690   0.344   2.964   5.548  0.8090 -0.2965  1.3457
 8352SOL     OW36691   3.361   3.546  12.457  0.3381 -0.1089  0.3870
 8352SOL    HW136692   3.307   3.589  12.524 -2.6449 -0.8558 -1.5174
 8352SOL    HW236693   3.391   3.624  12.410 -0.4813 -0.2966 -0.4530
 8353SOL     OW36694   3.212   1.744   7.552 -0.2369  0.0284  0.1123
 8353SOL    HW136695   3.225   1.677   7.619 -1.5615 -0.4880 -0.1420
 8353SOL    HW236696   3.118   1.761   7.560  0.2413  2.0378  1.3910
 8354SOL     OW36697   3.926   3.746   2.116  0.5671 -0.1444 -0.1654
 8354SOL    HW136698   3.862   3.682   2.087 -0.8906  0.6881  1.1933
 8354SOL    HW236699   4.004   3.692   2.130  0.7844 -0.1196 -1.3435
 8355SOL     OW36700   3.990   3.521  14.607  0.0018  0.0948 -0.0009
 8355SOL    HW136701   4.076   3.480  14.599  0.2989  0.3556  1.9268
 8355SOL    HW236702   3.934   3.445  14.627  1.4655 -0.7863  0.7615
 8356SOL     OW36703   4.093   2.105   6.286 -0.2437 -0.1415 -0.4357
 8356SOL    HW136704   4.088   2.014   6.313  0.9671 -0.3644 -0.9577
 8356SOL    HW236705   4.182   2.121   6.253 -0.4365 -2.7132 -2.1649
 8357SOL     OW36706   1.095   0.294   4.852 -0.3646  0.3674  0.0748
 8357SOL    HW136707   1.094   0.201   4.828 -2.7920  0.1125  1.1468
 8357SOL    HW236708   1.054   0.330   4.773 -0.4035 -1.1953 -0.6119
 8358SOL     OW36709   4.225   2.460   2.497 -0.0991  0.1401  0.2850
 8358SOL    HW136710   4.148   2.475   2.442 -0.1497  2.6257  1.0001
 8358SOL    HW236711   4.200   2.519   2.569 -0.3205  1.0625 -0.5460
 8359SOL     OW36712   2.558   0.561   4.886 -0.2056  0.2492  0.1035
 8359SOL    HW136713   2.600   0.605   4.812  2.2970 -1.6721  0.3634
 8359SOL    HW236714   2.615   0.587   4.959 -0.4055 -0.0752  0.3793
 8360SOL     OW36715   0.683   0.186   7.425 -0.6095 -0.2362  0.2280
 8360SOL    HW136716   0.773   0.179   7.456 -0.5738  2.2705  0.6834
 8360SOL    HW236717   0.636   0.102   7.433  0.1946 -0.6748  0.3748
 8361SOL     OW36718   0.886   4.159  10.699 -0.6217 -0.2248  0.1507
 8361SOL    HW136719   0.938   4.156  10.779  0.4806 -2.3688 -0.6425
 8361SOL    HW236720   0.954   4.204  10.649  1.2570 -2.6792  0.4955
 8362SOL     OW36721   1.038   1.192  14.245 -0.2911  0.5265  0.0841
 8362SOL    HW136722   0.981   1.128  14.287 -0.4833  0.5556 -0.1320
 8362SOL    HW236723   1.061   1.150  14.162 -0.1392  0.0221  0.3821
 8363SOL     OW36724   3.478   3.627   0.504 -0.7852 -0.3339 -1.5379
 8363SOL    HW136725   3.487   3.722   0.514 -2.5913 -0.5036  1.5716
 8363SOL    HW236726   3.385   3.614   0.489 -1.6209  3.5500  0.3964
 8364SOL     OW36727   3.648   0.501   8.455  0.2667  0.5788 -0.3153
 8364SOL    HW136728   3.743   0.502   8.467  0.1686  0.4278  0.4443
 8364SOL    HW236729   3.641   0.414   8.416  0.5852  0.5008 -0.1959
 8365SOL     OW36730   0.631   0.565   6.604  0.1730 -0.3485 -0.5171
 8365SOL    HW136731   0.537   0.551   6.616  0.2933 -0.6213  0.1020
 8365SOL    HW236732   0.650   0.642   6.658 -0.7604  0.0403 -0.7388
 8366SOL     OW36733   4.298   1.249   6.089  0.1516 -0.1050 -0.2892
 8366SOL    HW136734   4.265   1.275   6.003  0.4107  2.4011  0.3654
 8366SOL    HW236735   4.233   1.193   6.131 -2.0080  1.1668 -1.9335
 8367SOL     OW36736   1.557   1.687  10.535  0.6447  0.3930 -1.0069
 8367SOL    HW136737   1.646   1.653  10.529 -0.2197 -2.1212  0.2897
 8367SOL    HW236738   1.533   1.663  10.624 -0.5102  1.3792 -1.0503
 8368SOL     OW36739   0.846   0.800   1.965  0.1985  0.4140  0.3940
 8368SOL    HW136740   0.815   0.874   1.913 -0.1513  0.5726  0.8363
 8368SOL    HW236741   0.838   0.726   1.905 -0.3391  0.2731  0.6478
 8369SOL     OW36742   0.179   0.347  12.714 -0.7171  0.1329 -0.6588
 8369SOL    HW136743   0.250   0.404  12.742 -0.7488 -0.8564  1.4332
 8369SOL    HW236744   0.208   0.337  12.623 -1.5042  0.5354 -0.9503
 8370SOL     OW36745   2.354   1.157   4.873 -0.5956  0.1606  0.3071
 8370SOL    HW136746   2.426   1.216   4.849 -0.5772 -0.1687 -0.4482
 8370SOL    HW236747   2.306   1.221   4.925 -0.6615 -1.6582  2.4507
 8371SOL     OW36748   3.848   0.371   9.651  0.4815 -0.7389 -0.3796
 8371SOL    HW136749   3.787   0.443   9.639  2.2448  0.6403 -1.1146
 8371SOL    HW236750   3.886   0.357   9.564 -0.0819  1.9408 -1.0579
 8372SOL     OW36751   0.081   3.830   5.900 -0.2018  0.3206 -0.6401
 8372SOL    HW136752   0.069   3.900   5.965 -0.4390 -0.4828  0.1885
 8372SOL    HW236753   0.028   3.767   5.949  0.1084  0.6110  0.0730
 8373SOL     OW36754   2.687   4.675   5.369  0.7542  0.0748  0.8151
 8373SOL    HW136755   2.608   4.668   5.315  2.4359 -2.8774 -1.2484
 8373SOL    HW236756   2.679   4.593   5.417 -0.1728 -0.3819 -0.1017
 8374SOL     OW36757   0.986   2.582   3.162 -0.2759  0.4811 -0.3642
 8374SOL    HW136758   1.039   2.629   3.226  0.8666 -0.9609 -0.2585
 8374SOL    HW236759   0.942   2.657   3.123 -0.4153  0.4397 -0.2852
 8375SOL     OW36760   1.785   0.519   8.161  0.1831 -0.1503  0.1950
 8375SOL    HW136761   1.758   0.599   8.116 -2.2855 -1.3563 -0.4917
 8375SOL    HW236762   1.704   0.494   8.204  1.1109  0.5010  2.3199
 8376SOL     OW36763   3.298   1.010   6.069  0.0598 -0.1979  0.6386
 8376SOL    HW136764   3.288   1.100   6.040  3.7723 -0.4194 -1.4211
 8376SOL    HW236765   3.309   1.019   6.164 -1.0232 -1.1854  0.8628
 8377SOL     OW36766   1.525   0.351   8.695  0.3734  0.0288  0.4038
 8377SOL    HW136767   1.443   0.359   8.645  0.7704  3.1923  0.2763
 8377SOL    HW236768   1.551   0.443   8.706 -1.0356  0.1184  2.9643
 8378SOL     OW36769   2.284   1.878   6.952  0.2894  0.0966 -0.5200
 8378SOL    HW136770   2.313   1.898   6.863 -0.2679  0.8600 -0.5334
 8378SOL    HW236771   2.352   1.923   7.001  1.8380 -1.3621 -1.3478
 8379SOL     OW36772   3.842   2.006  10.064 -0.3832  0.6233  0.5114
 8379SOL    HW136773   3.758   2.040  10.095 -2.4605 -1.8147 -2.4606
 8379SOL    HW236774   3.865   1.935  10.124  2.1532 -1.4315 -2.8975
 8380SOL     OW36775   3.022   3.956  12.005 -0.6846  0.6671 -0.3624
 8380SOL    HW136776   2.989   4.041  11.977 -3.2554 -0.3569 -0.3893
 8380SOL    HW236777   3.116   3.955  11.984 -0.4509 -0.4895  0.7368
 8381SOL     OW36778   2.471   0.268  13.308  0.1832  0.5319  0.7961
 8381SOL    HW136779   2.470   0.352  13.353 -0.0622  0.4484  0.9490
 8381SOL    HW236780   2.401   0.237  13.366  0.6697 -1.2463  0.4525
 8382SOL     OW36781   1.805   0.873   2.802  0.2285 -0.2143  0.0341
 8382SOL    HW136782   1.719   0.867   2.760  0.6221 -2.4004 -0.4560
 8382SOL    HW236783   1.863   0.878   2.726 -1.5100 -0.9525 -1.3608
 8383SOL     OW36784   3.677   1.818   8.640  0.6004 -0.3764 -0.2008
 8383SOL    HW136785   3.690   1.912   8.644  1.7855 -0.6439  1.9504
 8383SOL    HW236786   3.765   1.792   8.667  0.5955  1.7520  1.7906
 8384SOL     OW36787   1.436   0.638  11.824  0.1555 -0.3430  0.3139
 8384SOL    HW136788   1.465   0.693  11.752  0.1831 -3.1705 -1.8248
 8384SOL    HW236789   1.374   0.576  11.787 -0.1970  0.9181 -1.2024
 8385SOL     OW36790   0.279   0.176   3.090  0.1720 -0.0916 -0.0484
 8385SOL    HW136791   0.285   0.236   3.016  0.8199  0.0081  0.0888
 8385SOL    HW236792   0.273   0.232   3.167  1.8058 -1.8205  1.3449
 8386SOL     OW36793   3.909   1.241   5.382 -0.4401 -0.3034 -0.3300
 8386SOL    HW136794   3.965   1.272   5.310  1.3131  0.5411  1.4046
 8386SOL    HW236795   3.881   1.157   5.346 -2.0264  0.3904 -0.7109
 8387SOL     OW36796   4.443   4.610   4.258 -0.1912 -0.3475  0.1496
 8387SOL    HW136797   4.417   4.580   4.345 -2.6756  1.0308 -0.1319
 8387SOL    HW236798   4.413   4.701   4.260  1.9684  0.3537  0.8814
 8388SOL     OW36799   3.700   4.708   8.175  0.4912 -0.4993 -1.1884
 8388SOL    HW136800   3.766   0.037   8.198  0.0788  0.4114 -2.5985
 8388SOL    HW236801   3.667   0.001   8.090 -0.6316 -1.8167 -1.2089
 8389SOL     OW36802   3.988   2.406  16.976  0.0775  0.4601 -0.7453
 8389SOL    HW136803   4.025   2.488  16.943 -0.4342 -0.4590 -3.6016
 8389SOL    HW236804   4.047   2.344  16.932  0.2572  0.5779 -0.6723
 8390SOL     OW36805   3.323   4.326   7.136  0.0567 -0.1713  0.0908
 8390SOL    HW136806   3.249   4.302   7.192  1.0824 -0.9594  1.1141
 8390SOL    HW236807   3.284   4.340   7.050 -0.5060 -0.0054  0.3693
 8391SOL     OW36808   2.234   4.632   4.365  0.4914  0.4137 -0.3421
 8391SOL    HW136809   2.175   4.707   4.365 -0.9734 -0.7465  2.4385
 8391SOL    HW236810   2.203   4.581   4.440 -0.3581 -0.4515 -1.2866
 8392SOL     OW36811   1.024   4.112  10.939  0.2378 -0.7359  0.7793
 8392SOL    HW136812   1.097   4.169  10.914  0.5326 -1.0347  0.9493
 8392SOL    HW236813   1.073   4.034  10.966  0.4126 -0.9331 -0.1028
 8393SOL     OW36814   0.124   3.856   3.709 -0.3630 -0.1324 -0.0709
 8393SOL    HW136815   0.170   3.939   3.721 -0.6121 -0.0777  0.4961
 8393SOL    HW236816   0.149   3.833   3.620  0.7322  0.8344 -0.0199
 8394SOL     OW36817   3.967   2.016   6.709 -0.8041  0.0709  0.2773
 8394SOL    HW136818   3.968   1.949   6.640  0.5174 -0.9640  1.3182
 8394SOL    HW236819   3.937   1.967   6.785  1.2080 -0.3170  0.8082
 8395SOL     OW36820   0.167   4.421  14.605  0.0166  0.2130 -0.3826
 8395SOL    HW136821   0.134   4.384  14.687  1.2605  0.1066  0.0631
 8395SOL    HW236822   0.087   4.427  14.553  0.1267  1.7365 -0.3635
 8396SOL     OW36823   0.655   1.305   2.065  0.2373  0.0655 -0.3260
 8396SOL    HW136824   0.629   1.397   2.074  1.4439  0.2837  0.9198
 8396SOL    HW236825   0.644   1.298   1.970 -0.1846  0.2627 -0.2950
 8397SOL     OW36826   4.627   0.321   1.518  0.1251 -0.1287 -0.0819
 8397SOL    HW136827   4.625   0.416   1.507 -2.0296  0.0359  1.7540
 8397SOL    HW236828   4.621   0.291   1.427 -0.6458 -3.4446  1.0617
 8398SOL     OW36829   0.308   3.663   9.008 -0.2155  0.3311  0.3744
 8398SOL    HW136830   0.280   3.622   8.927  1.4314 -1.1351  0.5433
 8398SOL    HW236831   0.271   3.752   9.004 -1.8416 -0.2844  1.7198
 8399SOL     OW36832   0.254   2.416   4.757 -1.1724 -0.3633 -0.2518
 8399SOL    HW136833   0.229   2.497   4.714  0.8593  0.1737 -0.4217
 8399SOL    HW236834   0.330   2.385   4.708 -0.3521 -0.9287  1.3683
 8400SOL     OW36835   4.003   3.254   2.492  0.4268  0.3159 -0.5808
 8400SOL    HW136836   4.076   3.201   2.461  0.2572  0.3235 -0.9924
 8400SOL    HW236837   4.019   3.338   2.448 -3.8843  1.0303 -0.7493
 8401SOL     OW36838   2.806   3.666  17.556  0.6302 -0.4441 -0.2369
 8401SOL    HW136839   2.724   3.638  17.516  1.5299 -0.5429 -2.0322
 8401SOL    HW236840   2.810   3.752  17.513 -0.4760 -0.0210  0.5092
 8402SOL     OW36841   4.658   4.552   4.115  0.1657 -0.0820  0.4593
 8402SOL    HW136842   4.711   4.523   4.189  0.9342 -1.5643 -0.6815
 8402SOL    HW236843   4.571   4.555   4.155 -0.3738  0.9904 -0.7726
 8403SOL     OW36844   1.051   1.928   4.380  0.3948  0.0210 -0.3956
 8403SOL    HW136845   1.060   2.023   4.395  0.0396  0.0073 -0.1168
 8403SOL    HW236846   0.999   1.917   4.301  1.7374  0.4458 -1.3510
 8404SOL     OW36847   3.209   3.621   3.169 -0.7617 -0.0269  0.2622
 8404SOL    HW136848   3.114   3.605   3.162 -0.6463  1.1237 -4.1584
 8404SOL    HW236849   3.232   3.589   3.256  0.6233  0.5604  0.1050
 8405SOL     OW36850   2.651   2.191  10.027 -0.3038  0.3781 -0.0961
 8405SOL    HW136851   2.574   2.239  10.057  0.4464 -0.0019  2.4716
 8405SOL    HW236852   2.626   2.176   9.936 -1.7565  0.9661  0.2076
 8406SOL     OW36853   3.669   4.472   6.499  0.3399  0.3618  0.0379
 8406SOL    HW136854   3.750   4.429   6.527 -1.0545 -1.4036  1.3808
 8406SOL    HW236855   3.646   4.428   6.417 -1.0629  1.1156  0.0437
 8407SOL     OW36856   1.940   3.703   7.960 -0.6400  0.2107 -0.1423
 8407SOL    HW136857   1.981   3.786   7.937 -0.2904 -0.5868 -2.3639
 8407SOL    HW236858   1.862   3.733   8.007 -1.6787  0.3083 -1.9410
 8408SOL     OW36859   3.637   2.684   2.998  0.9288 -0.5575  0.3217
 8408SOL    HW136860   3.729   2.711   2.998  0.8846 -0.3414 -1.6506
 8408SOL    HW236861   3.613   2.722   2.913 -0.0519  0.4977  1.0774
 8409SOL     OW36862   3.380   4.666  15.639 -0.3572  0.5063 -0.3371
 8409SOL    HW136863   3.445   4.728  15.674 -1.0977  1.3742 -0.4904
 8409SOL    HW236864   3.401   4.679  15.546 -1.0252  2.9221 -0.1656
 8410SOL     OW36865   4.626   2.547   2.760 -0.2457  0.1351  0.7287
 8410SOL    HW136866   4.541   2.520   2.795 -1.1563 -0.4946 -1.9529
 8410SOL    HW236867   4.614   2.636   2.727 -1.3337  0.9206  3.2095
 8411SOL     OW36868   2.301   3.852   3.299  0.7582  0.1535 -0.1689
 8411SOL    HW136869   2.281   3.758   3.299  2.6802 -0.2452  1.9696
 8411SOL    HW236870   2.392   3.862   3.326  0.1316  0.0730  1.9395
 8412SOL     OW36871   2.903   1.267   2.223 -0.0777 -0.1856 -0.0769
 8412SOL    HW136872   2.889   1.187   2.274  2.3802 -1.1841 -1.0248
 8412SOL    HW236873   2.898   1.336   2.290  2.4343 -1.4416  1.3697
 8413SOL     OW36874   4.595   1.846   6.709  0.0614  0.3839  0.1905
 8413SOL    HW136875   4.541   1.769   6.728 -0.9127  1.2522  0.9567
 8413SOL    HW236876   4.652   1.848   6.786 -0.4648  0.9179  0.5725
 8414SOL     OW36877   1.253   1.279  13.562 -0.2340 -0.6034 -0.0638
 8414SOL    HW136878   1.256   1.197  13.513  0.0557 -0.3149 -0.5432
 8414SOL    HW236879   1.300   1.249  13.640 -2.2551 -0.2966  1.2507
 8415SOL     OW36880   2.056   3.599   3.013 -0.4909  0.1787  0.2685
 8415SOL    HW136881   1.977   3.647   3.039 -1.0834 -0.1718 -0.8548
 8415SOL    HW236882   2.033   3.553   2.932  2.6652 -1.9113  0.5687
 8416SOL     OW36883   1.527   3.125   7.473 -0.2150 -0.2415  0.1057
 8416SOL    HW136884   1.471   3.148   7.548 -0.0754  0.9347 -0.1457
 8416SOL    HW236885   1.600   3.185   7.489  0.8137 -1.4696 -0.0112
 8417SOL     OW36886   1.780   1.546   5.907 -0.9914 -0.1522 -0.2044
 8417SOL    HW136887   1.864   1.556   5.861 -1.3099  1.1939 -0.5023
 8417SOL    HW236888   1.719   1.503   5.847  1.3694 -0.4673 -2.3982
 8418SOL     OW36889   0.332   2.549  11.128  0.4234  0.0937 -0.5953
 8418SOL    HW136890   0.323   2.596  11.044 -2.1340  1.5167  0.4790
 8418SOL    HW236891   0.407   2.597  11.163  0.1018  0.5707 -0.5542
 8419SOL     OW36892   3.214   3.663  12.632  0.0329  0.4365 -0.7332
 8419SOL    HW136893   3.246   3.658  12.722 -0.8112 -1.6690 -0.5479
 8419SOL    HW236894   3.260   3.740  12.598 -0.2203  0.1223 -1.7943
 8420SOL     OW36895   2.805   2.985   4.905 -0.8038  0.1334 -0.5932
 8420SOL    HW136896   2.785   3.066   4.952 -1.1765 -0.7842  0.8380
 8420SOL    HW236897   2.850   2.929   4.968 -0.6721 -0.2209 -0.9977
 8421SOL     OW36898   1.941   0.277   4.928 -0.7808  0.4732  0.1555
 8421SOL    HW136899   1.989   0.198   4.903 -2.2442 -0.0123 -1.1870
 8421SOL    HW236900   1.992   0.345   4.885 -1.0401  0.8346  0.4315
 8422SOL     OW36901   3.049   3.685   1.191  0.6242  0.6308 -0.5653
 8422SOL    HW136902   2.969   3.669   1.241  1.1074  1.0147  0.3491
 8422SOL    HW236903   3.079   3.597   1.168 -2.3471 -0.5578  0.1662
 8423SOL     OW36904   0.880   1.945   6.903  0.1958  0.3982  0.0901
 8423SOL    HW136905   0.788   1.971   6.911 -0.2807 -0.8687 -1.1476
 8423SOL    HW236906   0.883   1.933   6.808  2.4371  3.4199 -0.2235
 8424SOL     OW36907   0.065   1.883   5.294 -0.2164 -0.4741  0.6722
 8424SOL    HW136908   0.025   1.921   5.216  2.7011 -0.8492 -1.0286
 8424SOL    HW236909   0.152   1.862   5.259 -1.1916 -0.6939 -1.6734
 8425SOL     OW36910   1.443   1.871   7.540  0.6119  0.0511  0.5314
 8425SOL    HW136911   1.353   1.887   7.511  0.7193 -0.2978  0.0129
 8425SOL    HW236912   1.454   1.910   7.627  2.1679  0.5762  0.1042
 8426SOL     OW36913   0.055   3.229   0.935  0.5761 -0.2952 -0.3165
 8426SOL    HW136914   0.019   3.222   1.024  0.7107 -0.8651 -0.3059
 8426SOL    HW236915   4.731   3.286   0.887 -0.5709 -1.9106 -0.7908
 8427SOL     OW36916   1.468   3.914  11.885 -0.6830 -0.0797  0.1687
 8427SOL    HW136917   1.561   3.904  11.903 -0.3707 -0.1662 -1.4695
 8427SOL    HW236918   1.468   3.892  11.792  1.4995  0.4473  0.0569
 8428SOL     OW36919   3.575   1.895   6.914  0.2603  0.2246  0.1310
 8428SOL    HW136920   3.518   1.892   6.991  1.7953  1.9447  1.3489
 8428SOL    HW236921   3.592   1.987   6.897 -0.5383  0.9521  3.2976
 8429SOL     OW36922   3.223   1.301  13.422 -0.4595  0.4033  0.1724
 8429SOL    HW136923   3.190   1.228  13.475 -0.2059 -0.9615 -1.5506
 8429SOL    HW236924   3.211   1.274  13.331  0.5229 -0.9892  0.4552
 8430SOL     OW36925   0.944   0.374   3.127 -0.4749 -0.1029 -0.3576
 8430SOL    HW136926   0.885   0.400   3.056 -0.3357 -0.7763 -0.7168
 8430SOL    HW236927   0.974   0.289   3.096 -1.3152 -0.7100  0.5049
 8431SOL     OW36928   2.776   3.684   1.680  0.0363  0.0738  0.3795
 8431SOL    HW136929   2.711   3.743   1.643  1.3161  0.4352 -1.3181
 8431SOL    HW236930   2.793   3.729   1.762  0.4056  1.3238 -0.3792
 8432SOL     OW36931   0.067   3.084  16.146  0.7550  0.1004 -0.4563
 8432SOL    HW136932   0.010   3.020  16.104  0.9075  1.1944 -2.3672
 8432SOL    HW236933   0.144   3.031  16.124  1.3974  1.2857 -1.0701
 8433SOL     OW36934   3.572   1.622   4.269  0.0502 -0.1410 -0.7807
 8433SOL    HW136935   3.615   1.705   4.286  0.8671 -0.7753  0.2542
 8433SOL    HW236936   3.550   1.598   4.359  1.9013 -1.1288 -0.5836
 8434SOL     OW36937   1.886   2.372  14.974 -0.4963  0.2993  0.7496
 8434SOL    HW136938   1.877   2.375  14.879 -1.0322 -3.2163  0.6716
 8434SOL    HW236939   1.828   2.301  15.002  0.8546 -0.7669  0.8890
 8435SOL     OW36940   4.501   4.645   7.823  0.2047 -0.1694 -0.0064
 8435SOL    HW136941   4.510   4.728   7.776 -1.7188  0.2752  0.4392
 8435SOL    HW236942   4.552   4.664   7.903  0.0989  0.9737 -0.2068
 8436SOL     OW36943   2.011   4.125   0.372 -0.1897  0.3668 -0.0974
 8436SOL    HW136944   2.022   4.031   0.380  0.2822  0.4613  0.3244
 8436SOL    HW236945   1.919   4.136   0.399 -0.1787 -0.8151  0.4110
 8437SOL     OW36946   1.192   2.252  14.943  0.8032  0.7629  0.0350
 8437SOL    HW136947   1.113   2.207  14.974  0.0958  1.1719 -1.1883
 8437SOL    HW236948   1.160   2.337  14.912 -0.4664  1.0350  2.0836
 8438SOL     OW36949   3.901   2.861   5.774 -0.0249 -0.5301  0.5268
 8438SOL    HW136950   3.889   2.906   5.857 -0.4187  1.0100 -0.3600
 8438SOL    HW236951   3.989   2.893   5.753 -0.7216 -0.0115 -1.6185
 8439SOL     OW36952   0.617   2.902   4.606  0.4890 -0.0426 -0.0485
 8439SOL    HW136953   0.626   2.918   4.700  2.6585  4.1983 -0.9773
 8439SOL    HW236954   0.626   2.994   4.580 -0.6386 -0.2374 -1.1261
 8440SOL     OW36955   1.780   1.962   4.026 -0.0305  0.2741 -0.3015
 8440SOL    HW136956   1.707   1.944   3.967  1.1066 -2.0201 -1.0301
 8440SOL    HW236957   1.725   1.986   4.100  0.2875 -0.3302  0.1394
 8441SOL     OW36958   1.221   1.589  10.960 -1.4474  0.0722 -0.4184
 8441SOL    HW136959   1.150   1.548  10.911 -2.1385 -0.1452  0.7725
 8441SOL    HW236960   1.240   1.526  11.030 -0.5240 -1.4798 -2.0803
 8442SOL     OW36961   0.819   0.970  16.298 -0.6443 -0.0411  0.8569
 8442SOL    HW136962   0.896   0.959  16.241 -0.8801 -0.8681  0.6922
 8442SOL    HW236963   0.762   0.902  16.262  1.5249 -1.3323 -0.2103
 8443SOL     OW36964   2.470   2.084  12.906  0.6062  0.1127  0.2298
 8443SOL    HW136965   2.564   2.071  12.897  0.4027 -1.4861  0.3701
 8443SOL    HW236966   2.478   2.170  12.946  0.0104  0.7141 -0.9257
 8444SOL     OW36967   2.696   3.578   9.395 -0.6065  0.0990 -0.0524
 8444SOL    HW136968   2.671   3.671   9.393  0.5174  0.3500 -2.3654
 8444SOL    HW236969   2.658   3.553   9.311 -1.9768 -1.7792  1.1462
 8445SOL     OW36970   2.412   4.547   7.249  0.0810  0.2209 -0.5107
 8445SOL    HW136971   2.436   4.510   7.164  0.9851 -0.8501  0.2002
 8445SOL    HW236972   2.479   4.508   7.306 -1.5070 -2.0320 -0.1706
 8446SOL     OW36973   1.874   2.205   4.008  0.0938  0.1384 -0.2287
 8446SOL    HW136974   1.858   2.112   3.994  0.8896 -0.1859  1.0179
 8446SOL    HW236975   1.969   2.209   4.022  0.0144  1.9202 -0.2200
 8447SOL     OW36976   0.426   3.778   3.907 -0.6721 -0.2349 -0.4511
 8447SOL    HW136977   0.484   3.815   3.841 -1.2447  1.1281 -0.1908
 8447SOL    HW236978   0.351   3.838   3.903 -2.1655 -1.9006  1.8673
 8448SOL     OW36979   4.007   4.271   0.578  0.1995 -0.0708 -0.0426
 8448SOL    HW136980   3.931   4.214   0.575 -0.8387  1.1905  3.2086
 8448SOL    HW236981   3.960   4.342   0.622 -1.2609 -0.0511 -1.6461
 8449SOL     OW36982   3.955   0.780   5.893  0.2719 -0.0301 -0.0360
 8449SOL    HW136983   4.009   0.719   5.842 -0.5345  0.3854 -1.4082
 8449SOL    HW236984   4.025   0.813   5.949 -0.1714  2.5338 -1.0162
 8450SOL     OW36985   0.829   1.208   2.734 -0.1432  0.1318 -0.3060
 8450SOL    HW136986   0.796   1.134   2.683  0.7034  1.8536 -3.3558
 8450SOL    HW236987   0.889   1.258   2.678  1.3248  0.3926  1.5306
 8451SOL     OW36988   2.995   4.136   4.737  0.7431 -0.0476 -0.3064
 8451SOL    HW136989   2.980   4.156   4.644 -0.5590 -0.8368 -0.2628
 8451SOL    HW236990   3.089   4.152   4.749  0.1437  2.3876  1.1143
 8452SOL     OW36991   0.861   4.316  13.897 -0.6387  0.0312 -0.3109
 8452SOL    HW136992   0.854   4.411  13.898 -1.4650 -0.0287  0.2049
 8452SOL    HW236993   0.953   4.299  13.881 -0.3247  0.7147  0.7755
 8453SOL     OW36994   4.547   0.427  12.926  0.4558  0.4877  0.6296
 8453SOL    HW136995   4.506   0.419  13.013  2.1050 -1.7957  1.2134
 8453SOL    HW236996   4.506   0.355  12.878  2.2237 -1.0532  1.4367
 8454SOL     OW36997   3.671   4.050  13.243 -0.1098  0.1358  0.4309
 8454SOL    HW136998   3.684   4.140  13.272  0.0224  1.1203 -2.6621
 8454SOL    HW236999   3.696   4.052  13.150  1.5301  2.6517  0.9271
 8455SOL     OW37000   3.514   2.250   4.163 -0.2307 -0.0276  0.1617
 8455SOL    HW137001   3.518   2.208   4.249  0.1299 -0.9165 -0.2850
 8455SOL    HW237002   3.490   2.339   4.187 -0.5757 -0.2806  0.7444
 8456SOL     OW37003   1.848   3.178   5.491 -0.3312 -0.2205  0.4202
 8456SOL    HW137004   1.921   3.221   5.446 -0.0054 -3.3400 -2.0038
 8456SOL    HW237005   1.778   3.195   5.429  0.5944  0.7185 -0.3822
 8457SOL     OW37006   0.267   1.915   7.987  0.1473 -0.0274  0.2970
 8457SOL    HW137007   0.251   1.993   8.041  1.8200  0.4820  0.0443
 8457SOL    HW237008   0.300   1.848   8.046  0.0251 -0.7989 -0.5076
 8458SOL     OW37009   4.515   2.198   3.106  0.4497 -0.4225  0.0625
 8458SOL    HW137010   4.583   2.135   3.081  0.6778  0.1709 -0.7789
 8458SOL    HW237011   4.451   2.175   3.038  0.7135 -2.8821  0.6213
 8459SOL     OW37012   1.983   4.613   5.043 -0.0382 -0.0202 -0.2018
 8459SOL    HW137013   1.930   4.551   5.093 -0.8858  0.2074 -0.8063
 8459SOL    HW237014   2.056   4.631   5.102 -1.1091 -2.9763  2.0259
 8460SOL     OW37015   2.596   1.517   7.532 -0.2184 -0.0091  0.7341
 8460SOL    HW137016   2.527   1.515   7.465  0.5613 -0.5420 -0.0543
 8460SOL    HW237017   2.608   1.611   7.534  3.3874 -0.4782  1.0658
 8461SOL     OW37018   2.308   2.375  11.067  0.1003  0.6295 -0.4674
 8461SOL    HW137019   2.280   2.348  10.980 -1.0533 -2.0778  0.7679
 8461SOL    HW237020   2.399   2.401  11.048  1.6228 -2.2211  2.9564
 8462SOL     OW37021   3.780   2.779   4.169  0.0540 -0.2406 -0.1540
 8462SOL    HW137022   3.809   2.866   4.143 -0.8413  0.1850  0.2582
 8462SOL    HW237023   3.689   2.792   4.143  0.4751  0.9593 -1.0269
 8463SOL     OW37024   0.064   3.682   2.927  0.6879  0.5937 -0.4498
 8463SOL    HW137025   4.715   3.714   2.956  0.9448  0.2431  0.7036
 8463SOL    HW237026   0.057   3.707   2.835 -0.4089  0.6165 -0.3605
 8464SOL     OW37027   3.789   0.915   7.962  0.1917 -0.2098 -0.6217
 8464SOL    HW137028   3.726   0.865   8.014 -0.4290  1.9152  0.6941
 8464SOL    HW237029   3.727   0.927   7.890 -1.1799  0.2985  0.6452
 8465SOL     OW37030   1.269   3.037   8.697  0.7555  0.4735 -0.1879
 8465SOL    HW137031   1.193   2.981   8.715 -0.3362  2.3320  0.9776
 8465SOL    HW237032   1.335   2.983   8.741  1.5181  0.4862 -1.3271
 8466SOL     OW37033   4.531   3.526  12.345 -0.0439 -0.3339 -0.0474
 8466SOL    HW137034   4.468   3.594  12.322  0.8214 -0.1642 -1.9125
 8466SOL    HW237035   4.494   3.484  12.423  2.4605  0.7201  1.6902
 8467SOL     OW37036   4.418   0.462   8.754  0.1153 -0.0033  0.6562
 8467SOL    HW137037   4.414   0.538   8.812 -1.1362 -0.0594  0.6573
 8467SOL    HW237038   4.492   0.468   8.694  0.7843 -2.0017  1.2877
 8468SOL     OW37039   1.114   1.865  15.110  0.1370  0.4111  0.3374
 8468SOL    HW137040   1.070   1.948  15.090  0.0605  0.8725  2.3263
 8468SOL    HW237041   1.055   1.812  15.057  1.5291  0.6759 -1.4529
 8469SOL     OW37042   2.676   3.022   0.190 -0.0706  0.6277  0.4892
 8469SOL    HW137043   2.764   3.014   0.153 -1.8716 -0.2949 -3.6740
 8469SOL    HW237044   2.642   3.086   0.127 -0.4888 -0.7123 -0.6431
 8470SOL     OW37045   0.718   3.652   2.911 -0.0307  0.2623 -0.1411
 8470SOL    HW137046   0.686   3.738   2.940 -0.1099  0.3074 -0.3646
 8470SOL    HW237047   0.641   3.601   2.885  2.1748 -3.0182 -0.2350
 8471SOL     OW37048   4.032   1.779   2.791 -0.1611 -0.2811 -0.2406
 8471SOL    HW137049   4.095   1.850   2.787 -1.1284  0.7624  2.6108
 8471SOL    HW237050   4.031   1.756   2.698 -2.1710 -1.5023  0.0763
 8472SOL     OW37051   4.604   1.240  11.674 -0.0219  0.1967  0.5583
 8472SOL    HW137052   4.653   1.158  11.670  1.0794  1.0286 -3.3736
 8472SOL    HW237053   4.646   1.278  11.751 -0.4524  0.7101  0.5318
 8473SOL     OW37054   4.598   4.283   6.786 -0.1707  0.4043  0.1386
 8473SOL    HW137055   4.566   4.296   6.875 -1.0475 -2.0465  0.1673
 8473SOL    HW237056   4.527   4.239   6.741  0.1189 -0.1413  0.2175
 8474SOL     OW37057   2.226   3.089   1.690 -0.5433 -0.4299 -0.4087
 8474SOL    HW137058   2.150   3.142   1.714 -1.0354 -0.7146 -1.3362
 8474SOL    HW237059   2.291   3.099   1.760  0.0061 -1.9426 -0.6986
 8475SOL     OW37060   1.600   1.392   1.211  0.3708 -0.2621 -0.4386
 8475SOL    HW137061   1.546   1.462   1.248 -0.0668 -1.2281  0.7299
 8475SOL    HW237062   1.690   1.424   1.209  0.9014 -1.7293 -0.1965
 8476SOL     OW37063   3.155   2.481   1.498 -0.2367  0.2009  0.4103
 8476SOL    HW137064   3.124   2.424   1.568  1.0791 -4.0172 -2.4828
 8476SOL    HW237065   3.243   2.443   1.498 -1.0151 -1.5970 -0.1725
 8477SOL     OW37066   2.801   2.819   3.686 -0.2444 -0.0486 -0.5056
 8477SOL    HW137067   2.721   2.784   3.646 -2.2483  0.0980  3.3225
 8477SOL    HW237068   2.800   2.811   3.782 -1.0260  2.1580 -0.3117
 8478SOL     OW37069   1.935   2.804   5.690 -0.4464  0.2327 -0.0370
 8478SOL    HW137070   1.867   2.830   5.752  0.4946  1.9466  0.2585
 8478SOL    HW237071   1.896   2.823   5.605  0.9725  0.7440 -0.5640
 8479SOL     OW37072   3.216   1.616   6.920 -0.2806 -0.3979 -0.4739
 8479SOL    HW137073   3.190   1.673   6.849  3.3999  0.3332 -1.2514
 8479SOL    HW237074   3.139   1.572   6.955 -0.2745 -0.1716 -0.1808
 8480SOL     OW37075   2.647   2.442   2.209 -0.6244 -0.4520  0.4197
 8480SOL    HW137076   2.665   2.514   2.148  0.3190  0.6772  2.0163
 8480SOL    HW237077   2.735   2.416   2.237  0.0249 -1.6727 -2.7853
 8481SOL     OW37078   1.859   0.166   5.381 -0.3231 -0.1749 -0.0732
 8481SOL    HW137079   1.822   0.194   5.297 -0.3851  1.6312  0.5632
 8481SOL    HW237080   1.942   0.215   5.381  0.0399 -0.7889 -0.7865
 8482SOL     OW37081   1.021   2.284   9.862  0.2337 -0.4450 -0.5902
 8482SOL    HW137082   1.064   2.360   9.823  1.8708 -0.6821  0.7332
 8482SOL    HW237083   0.933   2.280   9.824  0.4830  0.3490 -1.2562
 8483SOL     OW37084   4.626   0.102   4.110  0.3324 -0.1882 -0.5826
 8483SOL    HW137085   4.608   0.008   4.110  0.5181 -0.2244  1.7554
 8483SOL    HW237086   4.658   0.118   4.022  2.3413  2.7780  0.6600
 8484SOL     OW37087   1.165   1.681   4.279  0.1398  0.1644  0.2641
 8484SOL    HW137088   1.118   1.680   4.196  0.0797 -1.7281  0.3163
 8484SOL    HW237089   1.137   1.763   4.321 -0.2864 -0.3794  1.0600
 8485SOL     OW37090   0.508   3.913   6.890  0.3950  0.3937  0.2317
 8485SOL    HW137091   0.513   3.945   6.800  0.0229  3.2384  1.2371
 8485SOL    HW237092   0.500   3.995   6.938 -2.8930  0.6171 -0.6813
 8486SOL     OW37093   3.415   3.325   5.691 -0.3948 -0.0704 -0.4653
 8486SOL    HW137094   3.373   3.326   5.605 -2.7412  0.0052  0.6794
 8486SOL    HW237095   3.497   3.370   5.667 -0.7047 -0.3055 -1.9600
 8487SOL     OW37096   3.928   0.568   6.658 -0.3113  1.0142 -0.3523
 8487SOL    HW137097   4.000   0.504   6.667 -2.9313 -1.9693 -0.6926
 8487SOL    HW237098   3.895   0.553   6.747 -1.3676  1.6023 -0.6570
 8488SOL     OW37099   2.513   2.797   5.101  0.0351  0.2128  0.1717
 8488SOL    HW137100   2.473   2.841   5.176  2.4067 -1.5159  2.4085
 8488SOL    HW237101   2.597   2.774   5.141 -0.8281 -0.3636  1.6337
 8489SOL     OW37102   1.896   3.145   6.375 -0.3015  0.1131  0.6864
 8489SOL    HW137103   1.905   3.223   6.429  0.3705 -0.7250  1.7926
 8489SOL    HW237104   1.802   3.125   6.380 -0.7726  1.6339 -2.2641
 8490SOL     OW37105   2.453   4.423   1.747 -0.2777 -0.0067 -0.4012
 8490SOL    HW137106   2.389   4.484   1.708  0.1804  1.7396  1.6131
 8490SOL    HW237107   2.530   4.445   1.695  0.7331  1.0061  1.5316
 8491SOL     OW37108   2.763   2.573   7.087 -0.6024 -0.1883 -0.0259
 8491SOL    HW137109   2.739   2.516   7.160  4.6589 -2.6949 -0.3183
 8491SOL    HW237110   2.732   2.658   7.120  0.3976  0.2452 -0.2085
 8492SOL     OW37111   0.799   3.400   1.359  0.2467  0.0672 -0.3467
 8492SOL    HW137112   0.855   3.351   1.420 -3.1382  0.2579  2.9380
 8492SOL    HW237113   0.752   3.322   1.330  0.1298  0.1060 -0.2624
 8493SOL     OW37114   0.585   1.691   7.018 -0.5582  0.8813 -0.2967
 8493SOL    HW137115   0.663   1.746   7.027  0.3294 -0.5187  0.6432
 8493SOL    HW237116   0.619   1.615   6.972 -1.2248 -0.1306  0.8736
 8494SOL     OW37117   0.138   3.873  11.291  0.2243 -0.4211 -0.2419
 8494SOL    HW137118   0.137   3.898  11.384  0.8474  1.9223 -0.8617
 8494SOL    HW237119   0.113   3.782  11.307  0.0444 -0.1602  0.9640
 8495SOL     OW37120   4.209   3.842   6.447  0.4022 -0.4014 -0.3022
 8495SOL    HW137121   4.203   3.755   6.488 -1.7464  0.0204  0.3204
 8495SOL    HW237122   4.121   3.875   6.467 -0.0167 -1.8877  0.3457
 8496SOL     OW37123   2.422   4.536  13.212 -0.2590 -0.2362 -0.3562
 8496SOL    HW137124   2.363   4.610  13.225  0.4886 -0.2158  2.8113
 8496SOL    HW237125   2.427   4.538  13.116 -0.4552 -0.9724 -0.3833
 8497SOL     OW37126   1.257   4.203   2.701  0.3700  0.1395  0.0646
 8497SOL    HW137127   1.236   4.282   2.652  2.3591  0.8115  0.2974
 8497SOL    HW237128   1.166   4.176   2.716  0.2898  0.1318 -0.4359
 8498SOL     OW37129   4.074   3.074   1.406  0.4098  0.1255  0.1921
 8498SOL    HW137130   4.151   3.094   1.459  0.1663  0.0697  0.5656
 8498SOL    HW237131   4.077   2.980   1.426 -2.3863  0.0133  0.0707
 8499SOL     OW37132   3.084   0.860   8.649 -0.1623  0.4845  0.0316
 8499SOL    HW137133   3.011   0.894   8.702  0.9847  0.0372  1.9120
 8499SOL    HW237134   3.158   0.911   8.680 -0.2712  0.1960  0.7767
 8500SOL     OW37135   3.288   0.948  13.463 -0.5957 -0.4542  0.0179
 8500SOL    HW137136   3.215   0.993  13.506  0.0150 -0.9195  1.5118
 8500SOL    HW237137   3.336   0.919  13.540 -0.0106  1.6174  0.4204
 8501SOL     OW37138   3.577   2.476   4.915  0.1593 -0.4876  0.6395
 8501SOL    HW137139   3.645   2.501   4.977 -0.5238  0.4684  0.9926
 8501SOL    HW237140   3.554   2.566   4.894 -2.7095 -1.0685  1.2789
 8502SOL     OW37141   0.455   0.069   7.789  0.0505 -0.4497 -0.9320
 8502SOL    HW137142   0.496   4.722   7.811 -1.2788 -0.7052  0.4956
 8502SOL    HW237143   0.411   0.080   7.873  1.9640 -0.5353  0.0861
 8503SOL     OW37144   2.642   0.045   7.150 -0.1290 -0.0535 -0.3492
 8503SOL    HW137145   2.639   4.701   7.097  2.4811  0.2875 -1.0087
 8503SOL    HW237146   2.631   0.003   7.235  1.8488 -1.7528 -0.9421
 8504SOL     OW37147   3.641   2.115   9.822 -0.3064  0.3603  0.4054
 8504SOL    HW137148   3.633   2.203   9.859 -1.0448  0.1779  0.6748
 8504SOL    HW237149   3.678   2.070   9.897  0.2132  1.2471  0.6798
 8505SOL     OW37150   0.908   3.806   7.447  0.2710 -0.6063 -0.2550
 8505SOL    HW137151   0.966   3.803   7.370  0.0206  0.4634 -0.4954
 8505SOL    HW237152   0.957   3.755   7.511 -1.2006  2.0811  3.0130
 8506SOL     OW37153   1.198   1.825  10.409 -0.5145  0.1163 -0.5204
 8506SOL    HW137154   1.153   1.909  10.400 -1.0277 -0.2873 -1.7010
 8506SOL    HW237155   1.195   1.803  10.316 -0.6848 -1.0502 -0.2477
 8507SOL     OW37156   0.436   4.241   3.582  0.3574 -0.3773  0.1883
 8507SOL    HW137157   0.414   4.325   3.622 -1.3431 -0.2206 -1.0512
 8507SOL    HW237158   0.531   4.239   3.584  0.4126  1.9434  0.2568
 8508SOL     OW37159   4.438   3.877   2.366 -0.3463 -0.0832 -0.1039
 8508SOL    HW137160   4.393   3.892   2.449  1.4226 -0.5971  0.9448
 8508SOL    HW237161   4.371   3.908   2.305  0.4066  1.0004 -0.3736
 8509SOL     OW37162   3.932   3.478   5.260 -0.0072  0.3605  0.0522
 8509SOL    HW137163   3.980   3.397   5.276 -1.0858 -0.3856 -0.4847
 8509SOL    HW237164   3.979   3.534   5.198 -0.6432  1.5034  0.6088
 8510SOL     OW37165   3.101   3.853   0.984  0.9126 -0.2212 -0.0623
 8510SOL    HW137166   3.087   3.783   1.047  0.6911  0.4641  0.6629
 8510SOL    HW237167   3.175   3.821   0.933 -0.0733  0.4212 -1.9020
 8511SOL     OW37168   4.535   4.507   7.579 -0.1440  0.1446 -0.0411
 8511SOL    HW137169   4.516   4.529   7.670 -2.6747 -2.9474  0.1931
 8511SOL    HW237170   4.593   4.431   7.577  0.1709  0.3629  0.7900
 8512SOL     OW37171   2.227   2.638  15.765  0.0097  0.1485 -0.7078
 8512SOL    HW137172   2.169   2.712  15.747  1.4377  1.6652  0.9983
 8512SOL    HW237173   2.292   2.635  15.695  1.0847  0.5092  0.2671
 8513SOL     OW37174   1.254   1.542   3.911  0.6109 -0.2377  0.1286
 8513SOL    HW137175   1.312   1.605   3.954  0.7163  0.1602 -0.6045
 8513SOL    HW237176   1.169   1.584   3.929 -0.1484 -2.2872  1.3396
 8514SOL     OW37177   2.377   0.821   3.299  0.0996 -1.1118  0.4790
 8514SOL    HW137178   2.410   0.774   3.221  0.0519 -2.4663  1.2691
 8514SOL    HW237179   2.377   0.744   3.357 -2.9802 -1.5775 -0.1709
 8515SOL     OW37180   1.096   1.263  12.163 -0.2740 -0.8057  0.1413
 8515SOL    HW137181   1.136   1.314  12.093  0.9841 -1.5290  0.3249
 8515SOL    HW237182   1.057   1.329  12.220  0.0745 -1.5103  1.2119
 8516SOL     OW37183   1.891   1.800   9.494 -0.1735 -0.1403 -0.0988
 8516SOL    HW137184   1.820   1.786   9.431 -2.3316  0.6495  2.1721
 8516SOL    HW237185   1.962   1.765   9.441 -0.2814  0.4863 -0.6555
 8517SOL     OW37186   3.639   0.477   2.884  0.2497 -0.6403  0.3676
 8517SOL    HW137187   3.582   0.419   2.935  2.8450 -2.6215  1.0542
 8517SOL    HW237188   3.644   0.555   2.940 -0.9906  0.3872 -0.9668
 8518SOL     OW37189   1.413   1.633   7.381 -0.3316 -0.1646  0.4371
 8518SOL    HW137190   1.403   1.710   7.436 -2.0136  1.2323 -1.8364
 8518SOL    HW237191   1.344   1.652   7.316 -0.4797  0.3353  0.7447
 8519SOL     OW37192   4.497   0.249  15.906 -0.6850  0.3561 -0.0376
 8519SOL    HW137193   4.418   0.292  15.873 -1.0205 -0.2602 -0.0465
 8519SOL    HW237194   4.455   0.164  15.921  2.1056 -1.2676 -1.4857
 8520SOL     OW37195   2.261   4.203   7.770  0.3567  0.4612 -0.0957
 8520SOL    HW137196   2.172   4.170   7.760  0.5642 -0.2029  0.2247
 8520SOL    HW237197   2.310   4.125   7.795  0.7061  0.5882 -0.3854
 8521SOL     OW37198   3.059   0.586   5.934 -0.3787  0.9268 -0.2412
 8521SOL    HW137199   3.114   0.637   5.993 -0.5600  0.8091  0.0304
 8521SOL    HW237200   3.062   0.624   5.846  0.9420  1.1610 -0.0933
 8522SOL     OW37201   1.963   2.652   5.049 -0.2993 -0.3806 -0.3021
 8522SOL    HW137202   1.957   2.559   5.027  1.8440 -0.8916  1.2001
 8522SOL    HW237203   2.045   2.647   5.099 -0.1270 -2.3878 -0.7678
 8523SOL     OW37204   2.412   4.656   7.952  0.5925  0.0339 -0.4261
 8523SOL    HW137205   2.482   4.658   8.018  0.0111  1.8414  0.1368
 8523SOL    HW237206   2.355   4.728   7.976  0.6653  0.0051 -0.1644
 8524SOL     OW37207   0.144   1.789  11.400 -0.7134  0.2489  0.1870
 8524SOL    HW137208   0.113   1.875  11.430  0.7641  0.5174  0.9109
 8524SOL    HW237209   0.196   1.753  11.471  0.8599  0.4718 -0.8587
 8525SOL     OW37210   0.788   0.766   6.702  0.3552  0.0343  0.6254
 8525SOL    HW137211   0.796   0.741   6.794  0.0288 -0.5530  0.4952
 8525SOL    HW237212   0.847   0.700   6.666  1.2877  0.0896  2.0699
 8526SOL     OW37213   1.443   3.012   4.718 -0.3414  0.2403 -0.1143
 8526SOL    HW137214   1.361   3.034   4.675  0.6169  0.6992 -1.7208
 8526SOL    HW237215   1.412   3.026   4.808  1.1329 -1.4958  0.6790
 8527SOL     OW37216   1.095   1.892   2.059  0.0497  0.6088  0.4933
 8527SOL    HW137217   1.132   1.834   1.992 -1.2593 -2.1324  2.1398
 8527SOL    HW237218   1.013   1.843   2.067  0.7591 -0.4879  1.1304
 8528SOL     OW37219   1.697   3.693   4.766  0.2409  0.0798 -0.6020
 8528SOL    HW137220   1.781   3.708   4.809 -0.3871  1.8296 -0.0007
 8528SOL    HW237221   1.707   3.600   4.745  2.5238  0.5177 -1.4241
 8529SOL     OW37222   1.235   0.841   5.848  0.2027 -0.3101 -0.2413
 8529SOL    HW137223   1.302   0.789   5.892  0.2335 -1.8916 -2.1575
 8529SOL    HW237224   1.229   0.908   5.915 -1.2378 -1.0997  0.4146
 8530SOL     OW37225   2.373   2.468   4.216  0.3275  0.1426 -0.2136
 8530SOL    HW137226   2.386   2.409   4.142  3.5077  2.5483 -1.5932
 8530SOL    HW237227   2.350   2.554   4.181  1.2989  0.6726  0.4719
 8531SOL     OW37228   1.706   1.126   5.014  0.1692  0.0098  0.2747
 8531SOL    HW137229   1.685   1.153   4.924  1.9116  0.9726  0.1512
 8531SOL    HW237230   1.741   1.208   5.050 -0.4919  0.9993 -1.2868
 8532SOL     OW37231   2.585   4.109   3.325  0.4944  0.4344  0.4034
 8532SOL    HW137232   2.493   4.131   3.343  0.4109  0.3708  0.0588
 8532SOL    HW237233   2.580   4.014   3.331 -1.6502  0.2646 -3.2564
 8533SOL     OW37234   4.470   2.994   8.649  0.7225 -0.0272  0.0432
 8533SOL    HW137235   4.440   2.911   8.614 -1.6644  1.6340 -1.8508
 8533SOL    HW237236   4.522   3.024   8.574 -1.2127 -0.4434 -1.4580
 8534SOL     OW37237   0.808   1.952   3.806  0.0610 -0.0042 -0.1097
 8534SOL    HW137238   0.887   1.908   3.837  1.1321  0.3955 -2.2745
 8534SOL    HW237239   0.841   2.042   3.802  1.6902 -0.7157 -2.0973
 8535SOL     OW37240   1.191   4.137  14.267 -0.4144  0.1803 -0.1085
 8535SOL    HW137241   1.260   4.101  14.211 -0.4698 -0.5449  0.2912
 8535SOL    HW237242   1.145   4.199  14.211 -3.7132 -2.2010 -0.0366
 8536SOL     OW37243   3.229   2.330   7.061  0.0856  0.4502  0.0215
 8536SOL    HW137244   3.244   2.421   7.087 -0.1588 -0.3584  3.0531
 8536SOL    HW237245   3.137   2.323   7.036 -0.4086 -0.2451  2.0364
 8537SOL     OW37246   4.282   4.146   6.039 -0.3187  0.2934  0.5258
 8537SOL    HW137247   4.296   4.053   6.019 -2.4318 -0.1456  1.0583
 8537SOL    HW237248   4.370   4.178   6.021  0.6342 -2.3292  0.4413
 8538SOL     OW37249   3.081   2.404   7.395  0.3518 -0.1624 -0.4097
 8538SOL    HW137250   3.082   2.345   7.470 -0.9598 -0.1757 -0.3938
 8538SOL    HW237251   3.141   2.471   7.429 -0.2750  0.9987 -1.5648
 8539SOL     OW37252   0.596   1.736   9.129 -0.1806 -0.0357 -0.1501
 8539SOL    HW137253   0.521   1.755   9.186 -0.6642 -0.9242 -0.5055
 8539SOL    HW237254   0.580   1.782   9.047 -1.4163  0.4890  0.3826
 8540SOL     OW37255   1.468   1.529   6.808  0.3804  0.3456  0.2158
 8540SOL    HW137256   1.427   1.523   6.722  1.4163  0.8916 -0.3212
 8540SOL    HW237257   1.513   1.613   6.795  1.0399  0.1085  0.9706
 8541SOL     OW37258   0.955   3.960   1.635  0.4141 -0.1279 -0.5749
 8541SOL    HW137259   0.914   4.027   1.689  1.4577  1.2952 -1.5481
 8541SOL    HW237260   0.950   4.013   1.555 -1.3944 -1.4834 -1.3799
 8542SOL     OW37261   4.085   2.452   2.069 -1.0839  0.1076 -0.0338
 8542SOL    HW137262   4.129   2.536   2.075  0.5451 -0.6222 -1.5636
 8542SOL    HW237263   4.164   2.400   2.054 -0.9148  0.7603 -1.4287
 8543SOL     OW37264   3.130   2.557   9.553 -0.4825 -0.3277  0.1754
 8543SOL    HW137265   3.121   2.477   9.501  1.5674 -0.4941  0.0659
 8543SOL    HW237266   3.165   2.523   9.635 -3.1137 -1.9720  0.6023
 8544SOL     OW37267   1.223   1.786   3.161 -0.1208 -0.6130 -0.3827
 8544SOL    HW137268   1.223   1.882   3.152  1.9836 -0.6578 -0.7773
 8544SOL    HW237269   1.318   1.780   3.161  0.0232  1.7988 -1.7173
 8545SOL     OW37270   2.395   1.487   4.628 -0.0111 -0.3394 -0.1475
 8545SOL    HW137271   2.310   1.450   4.607 -0.3761  0.7106 -0.5052
 8545SOL    HW237272   2.363   1.552   4.691 -3.5871 -2.9418  0.7323
 8546SOL     OW37273   4.119   3.334   1.543  0.0777  0.0317 -0.0335
 8546SOL    HW137274   4.027   3.362   1.538  0.8830  2.7912  0.6955
 8546SOL    HW237275   4.122   3.255   1.488  5.2371  1.7804 -2.2453
 8547SOL     OW37276   1.949   2.400   1.092 -0.5836 -0.0480 -0.4764
 8547SOL    HW137277   1.871   2.416   1.146  0.0268 -1.7876  0.9201
 8547SOL    HW237278   1.931   2.318   1.046  0.1866 -0.6244  0.2359
 8548SOL     OW37279   3.632   3.832  16.554  0.6239  0.7856  0.3854
 8548SOL    HW137280   3.554   3.814  16.502 -0.5292  0.9573  2.0670
 8548SOL    HW237281   3.602   3.875  16.634 -3.0210 -1.6885  0.3222
 8549SOL     OW37282   3.156   4.220   3.944  0.3396  0.2575 -0.0790
 8549SOL    HW137283   3.196   4.290   3.996  0.7889  1.9928 -2.7133
 8549SOL    HW237284   3.077   4.270   3.921  0.9838  2.4424  2.3727
 8550SOL     OW37285   1.406   1.385   5.873  0.7652 -0.8878  0.0201
 8550SOL    HW137286   1.418   1.291   5.865 -2.3392 -1.2619 -0.2998
 8550SOL    HW237287   1.335   1.384   5.937  0.9408 -1.6164  0.2020
 8551SOL     OW37288   2.400   2.740  14.341 -0.1231 -0.2800  0.0667
 8551SOL    HW137289   2.315   2.739  14.297 -0.3495 -0.7378  0.5089
 8551SOL    HW237290   2.413   2.648  14.362 -1.0184 -0.8088 -1.7259
 8552SOL     OW37291   2.965   2.664   3.908 -0.1368  0.1197 -0.0514
 8552SOL    HW137292   2.949   2.744   3.959  1.9826  0.9972 -0.7574
 8552SOL    HW237293   3.044   2.633   3.951  0.5826  2.4878  0.3486
 8553SOL     OW37294   2.894   3.501   6.205 -0.0031  0.4869 -0.3193
 8553SOL    HW137295   2.878   3.544   6.120  0.6750 -1.2859 -1.3437
 8553SOL    HW237296   2.808   3.497   6.246 -0.4250 -0.4140 -1.2982
 8554SOL     OW37297   2.734   1.715   2.498 -0.6982  0.0388 -0.1054
 8554SOL    HW137298   2.775   1.709   2.585  0.5554 -1.9831 -0.8454
 8554SOL    HW237299   2.703   1.625   2.500 -1.3049  0.2395 -0.7152
 8555SOL     OW37300   0.263   4.410   8.326 -0.1373  0.0375 -0.3045
 8555SOL    HW137301   0.279   4.349   8.398  2.5218  2.4607  1.1537
 8555SOL    HW237302   0.255   4.348   8.253  0.6405 -1.8889  1.2264
 8556SOL     OW37303   1.121   4.095  12.592  0.1566  0.2571 -0.5608
 8556SOL    HW137304   1.216   4.107  12.598  0.0974  0.3271  0.2377
 8556SOL    HW237305   1.111   4.061  12.503  3.8115 -3.1328  0.3548
 8557SOL     OW37306   2.442   0.989   6.160 -0.9243  0.8369 -0.1930
 8557SOL    HW137307   2.435   1.073   6.204  0.2227  1.0883 -0.4761
 8557SOL    HW237308   2.534   0.964   6.174 -0.9631 -0.1486 -1.6373
 8558SOL     OW37309   0.694   2.228  10.500 -0.6927  0.3499 -0.3475
 8558SOL    HW137310   0.666   2.270  10.581  1.4208 -2.0316  1.5847
 8558SOL    HW237311   0.735   2.145  10.525 -1.5440 -0.4530 -1.5757
 8559SOL     OW37312   1.227   0.905   3.509 -0.3277  0.1867 -0.2878
 8559SOL    HW137313   1.184   0.991   3.512 -0.5194  0.0419  1.2163
 8559SOL    HW237314   1.151   0.850   3.529 -0.6878  0.6913 -0.2465
 8560SOL     OW37315   2.430   0.496   3.287  0.4049 -0.1873 -0.4621
 8560SOL    HW137316   2.355   0.519   3.341  0.3295 -0.0956 -0.6093
 8560SOL    HW237317   2.474   0.458   3.363 -1.8890 -1.7352  0.0946
 8561SOL     OW37318   0.224   2.887   5.311 -0.2742 -0.2432  0.2215
 8561SOL    HW137319   0.216   2.899   5.217 -2.2844 -1.1270  0.2738
 8561SOL    HW237320   0.148   2.832   5.332 -1.4708  1.1843 -0.3434
 8562SOL     OW37321   0.358   2.876  12.982  0.3768 -0.5555 -0.3376
 8562SOL    HW137322   0.290   2.939  13.006  0.0433 -2.0458  2.6578
 8562SOL    HW237323   0.322   2.791  13.008 -0.9456  0.8948  2.5069
 8563SOL     OW37324   0.275   0.779  15.543 -0.0893 -0.2337 -0.0997
 8563SOL    HW137325   0.291   0.695  15.587  0.6320 -0.4044 -0.6746
 8563SOL    HW237326   0.264   0.835  15.619 -4.2357 -2.4309  0.9108
 8564SOL     OW37327   3.580   0.432  12.901  0.4426  0.0889 -0.3653
 8564SOL    HW137328   3.618   0.395  12.980  0.6660  3.7167  1.2165
 8564SOL    HW237329   3.495   0.467  12.929 -0.0847 -2.4933  1.2179
 8565SOL     OW37330   3.228   4.626   1.060 -0.2085  0.0057 -0.1830
 8565SOL    HW137331   3.176   4.680   1.120  0.1463 -1.3143  1.3092
 8565SOL    HW237332   3.249   4.550   1.114  0.9243  0.7407  0.4088
 8566SOL     OW37333   1.171   4.081   8.500  0.6938 -0.0397 -0.3101
 8566SOL    HW137334   1.192   4.165   8.541 -0.2928  0.4321 -0.7740
 8566SOL    HW237335   1.220   4.097   8.420 -0.6416 -1.7121 -1.4640
 8567SOL     OW37336   4.198   2.626   9.224 -0.3015 -0.1118  0.4205
 8567SOL    HW137337   4.118   2.672   9.196 -0.9850 -0.7299  1.3253
 8567SOL    HW237338   4.179   2.615   9.318  5.0185  0.1112  1.5142
 8568SOL     OW37339   2.246   1.720  12.705 -0.1393  0.1399  0.2050
 8568SOL    HW137340   2.313   1.654  12.688  0.3584  0.3260  1.4207
 8568SOL    HW237341   2.289   1.766  12.777 -0.5176  0.2427  0.3671
 8569SOL     OW37342   4.723   2.847  15.488  0.2825  0.0565 -0.4922
 8569SOL    HW137343   4.717   2.879  15.578  0.7813 -0.3278 -0.3226
 8569SOL    HW237344   0.053   2.779  15.495 -1.0586 -0.9445  2.3030
 8570SOL     OW37345   2.495   2.297   0.625 -0.1065 -0.3335  0.1001
 8570SOL    HW137346   2.553   2.222   0.633  0.2223  0.0069  0.9017
 8570SOL    HW237347   2.555   2.340   0.566 -1.4286  1.4927  0.0851
 8571SOL     OW37348   2.324   4.394   3.971 -0.1581  0.4894 -0.3247
 8571SOL    HW137349   2.399   4.414   4.027  0.6644  0.1980 -1.3302
 8571SOL    HW237350   2.354   4.437   3.892  1.6962 -0.1798  0.0193
 8572SOL     OW37351   4.402   4.338   0.285  0.1073 -0.0477 -0.3260
 8572SOL    HW137352   4.491   4.344   0.249 -0.7255  1.7699 -2.1075
 8572SOL    HW237353   4.374   4.268   0.227  0.3988 -0.3681 -0.0825
 8573SOL     OW37354   4.440   2.924  16.736  0.0719 -0.2071  0.6159
 8573SOL    HW137355   4.521   2.915  16.786 -0.2974  1.5649  1.5302
 8573SOL    HW237356   4.447   2.854  16.670  1.2937  0.9706 -0.5247
 8574SOL     OW37357   1.035   3.366   3.604  0.2005  0.1258  0.0013
 8574SOL    HW137358   1.106   3.381   3.542  0.2131 -2.3283 -0.5714
 8574SOL    HW237359   1.050   3.273   3.621 -2.7288 -0.2466  0.5959
 8575SOL     OW37360   0.650   4.031   5.600  0.7021  0.6352  0.2155
 8575SOL    HW137361   0.633   4.000   5.688  0.9520 -0.3455 -0.0824
 8575SOL    HW237362   0.653   4.126   5.614  0.1766  0.3109  2.4855
 8576SOL     OW37363   4.142   3.825   2.821 -0.2068  0.0952  0.2442
 8576SOL    HW137364   4.094   3.751   2.859 -2.8536  0.2577 -2.8961
 8576SOL    HW237365   4.069   3.886   2.810  0.6776  0.9401 -0.8856
 8577SOL     OW37366   0.300   0.414  11.885  0.2752  0.0547 -0.3463
 8577SOL    HW137367   0.208   0.387  11.881 -0.2539  1.1186  4.0960
 8577SOL    HW237368   0.292   0.510  11.881  0.5505  0.0821 -0.1988
 8578SOL     OW37369   0.781   1.213   8.924 -0.4838  0.2237  0.4620
 8578SOL    HW137370   0.841   1.232   8.997 -0.5212 -0.1564  0.5926
 8578SOL    HW237371   0.723   1.154   8.971 -0.3160  0.1061  0.5232
 8579SOL     OW37372   0.187   3.368   4.215  0.3600 -0.1434 -0.5019
 8579SOL    HW137373   0.130   3.360   4.291  1.1560  1.5661  0.2748
 8579SOL    HW237374   0.197   3.464   4.215 -1.6241  0.0587  1.8395
 8580SOL     OW37375   3.240   3.183   3.305  0.0140 -0.1521 -0.4109
 8580SOL    HW137376   3.204   3.142   3.384  1.6195 -0.4903  0.1368
 8580SOL    HW237377   3.326   3.142   3.305  0.7092  1.3301  1.3192
 8581SOL     OW37378   1.702   1.225   9.791 -0.0992  0.1975  0.3075
 8581SOL    HW137379   1.655   1.288   9.737 -0.7678 -0.5826 -0.0365
 8581SOL    HW237380   1.657   1.225   9.876 -0.4870 -1.2763  0.1165
 8582SOL     OW37381   3.143   4.251   1.402  0.0512  0.1198  0.3418
 8582SOL    HW137382   3.058   4.210   1.386 -0.3863  0.4354  1.8558
 8582SOL    HW237383   3.198   4.181   1.438 -0.6618 -0.3731  0.4734
 8583SOL     OW37384   0.479   0.154   4.038  0.2206 -0.0842 -0.1411
 8583SOL    HW137385   0.406   0.204   4.000 -0.5460 -0.7612  0.4227
 8583SOL    HW237386   0.557   0.190   3.996 -0.6019  2.1546  0.2780
 8584SOL     OW37387   1.640   4.485  11.106 -0.1969  0.0261  0.3790
 8584SOL    HW137388   1.579   4.536  11.160 -1.8348 -2.1501  0.5693
 8584SOL    HW237389   1.697   4.437  11.165 -0.4736 -1.1546 -0.3106
 8585SOL     OW37390   3.963   4.094  13.264 -0.1617  0.2104  0.2011
 8585SOL    HW137391   3.905   4.161  13.300  0.2726 -0.4807  2.2172
 8585SOL    HW237392   4.029   4.154  13.227 -0.2647  1.0847  1.4254
 8586SOL     OW37393   2.946   2.133   6.560  0.0444  0.0541  0.1678
 8586SOL    HW137394   2.984   2.191   6.626 -1.4732 -2.3682  3.1814
 8586SOL    HW237395   2.894   2.196   6.509 -0.7943 -1.5980 -1.0574
 8587SOL     OW37396   3.959   4.566   4.126  0.3030  0.3205 -0.2904
 8587SOL    HW137397   4.015   4.506   4.077  1.2671 -0.0066  1.2122
 8587SOL    HW237398   4.014   4.645   4.131  0.6746 -0.0782  2.0208
 8588SOL     OW37399   1.649   3.794   7.122 -0.0619 -0.4881  0.3031
 8588SOL    HW137400   1.711   3.866   7.131  0.3506 -0.7603 -0.4479
 8588SOL    HW237401   1.690   3.720   7.168 -0.7658  0.0667  1.8366
 8589SOL     OW37402   1.378   4.418  17.386 -0.3368  0.7524 -0.0007
 8589SOL    HW137403   1.426   4.478  17.443  0.2433  0.4667 -0.1953
 8589SOL    HW237404   1.424   4.336  17.404  0.3948  1.1719  0.0476
 8590SOL     OW37405   4.088   1.719   6.091 -0.0456  0.3980 -0.0011
 8590SOL    HW137406   4.083   1.650   6.158 -1.6732 -0.7255 -1.2764
 8590SOL    HW237407   4.098   1.667   6.011  1.2479  0.8009 -0.0992
 8591SOL     OW37408   1.844   3.300   3.292  0.2203 -0.5116  0.4309
 8591SOL    HW137409   1.855   3.315   3.198 -0.0850  0.3999  0.5467
 8591SOL    HW237410   1.790   3.371   3.325  0.8510 -0.0357  0.4245
 8592SOL     OW37411   0.457   1.569  12.724  0.2038 -0.0704 -0.4332
 8592SOL    HW137412   0.405   1.648  12.741 -0.6073 -0.6963  0.0383
 8592SOL    HW237413   0.398   1.514  12.672  1.3395 -0.1165 -1.6686
 8593SOL     OW37414   2.839   1.321   4.210  0.4612 -0.4147 -0.5461
 8593SOL    HW137415   2.921   1.285   4.177  0.9355 -0.6181  0.8264
 8593SOL    HW237416   2.834   1.402   4.160 -0.5921  0.4409  0.9341
 8594SOL     OW37417   4.136   3.393  12.152 -0.3352  0.0041 -0.2681
 8594SOL    HW137418   4.152   3.447  12.230  2.0995  1.4602 -1.8064
 8594SOL    HW237419   4.227   3.377  12.130 -0.4782  0.1089 -0.9337
 8595SOL     OW37420   0.279   2.827   2.144 -0.0567 -0.4934  0.2240
 8595SOL    HW137421   0.339   2.760   2.110  0.3774 -0.9849  1.9478
 8595SOL    HW237422   0.282   2.879   2.064  1.8567  0.3027  0.7917
 8596SOL     OW37423   1.739   3.432   1.846 -0.1778  0.8314  0.2139
 8596SOL    HW137424   1.719   3.397   1.759 -1.2566  0.8984  0.4302
 8596SOL    HW237425   1.832   3.448   1.833 -0.1874  1.5632  1.0107
 8597SOL     OW37426   1.103   1.240   8.539 -0.2143 -0.3041 -0.4167
 8597SOL    HW137427   1.024   1.195   8.570 -0.1818  0.2033  0.3930
 8597SOL    HW237428   1.166   1.204   8.602 -1.2730 -0.5381  0.5189
 8598SOL     OW37429   1.134   0.664   4.221  0.6634 -0.5004 -0.3823
 8598SOL    HW137430   1.040   0.645   4.217  0.8502 -1.3025 -1.1759
 8598SOL    HW237431   1.152   0.610   4.298  1.7182 -0.3283 -0.5172
 8599SOL     OW37432   3.451   3.973   2.249  0.0497 -0.1886 -0.1188
 8599SOL    HW137433   3.492   3.996   2.165  1.2290 -1.7319  0.0441
 8599SOL    HW237434   3.468   3.880   2.261  1.2445  0.0337 -0.1039
 8600SOL     OW37435   2.268   3.749   2.833  0.0381  0.6358 -0.3287
 8600SOL    HW137436   2.286   3.841   2.853  1.7832  0.5675 -1.5137
 8600SOL    HW237437   2.204   3.733   2.902 -0.6894 -3.2907 -1.9050
 8601SOL     OW37438   2.600   0.080   5.124 -0.2515 -0.4977 -0.4290
 8601SOL    HW137439   2.647   0.012   5.075 -0.6817 -1.5409  0.5882
 8601SOL    HW237440   2.519   0.034   5.145 -0.2247 -1.0016 -1.4290
 8602SOL     OW37441   4.330   2.386   1.011  0.2868 -0.0818 -0.4981
 8602SOL    HW137442   4.421   2.361   1.024 -0.4928 -2.1993  0.8485
 8602SOL    HW237443   4.281   2.376   1.093 -0.6643 -0.5957 -1.1322
 8603SOL     OW37444   2.352   3.742   0.252 -0.3842 -0.7924 -0.6462
 8603SOL    HW137445   2.305   3.661   0.236 -0.6128 -0.6312 -0.7807
 8603SOL    HW237446   2.345   3.788   0.169  0.2102  1.6837  0.6760
 8604SOL     OW37447   2.905   0.721   1.259  0.6988 -0.3801  0.6421
 8604SOL    HW137448   2.972   0.714   1.328  2.9185  1.2535 -1.3847
 8604SOL    HW237449   2.823   0.706   1.307  1.3726  0.1526  1.9461
 8605SOL     OW37450   0.994   4.657   5.371 -0.8989 -0.7250  0.6102
 8605SOL    HW137451   0.899   4.652   5.379 -0.7730 -0.5744  2.2245
 8605SOL    HW237452   1.031   4.638   5.457 -0.5628 -0.9989  0.4083
 8606SOL     OW37453   1.661   3.679   8.185 -0.2772  0.1849  0.5862
 8606SOL    HW137454   1.617   3.648   8.265  0.1803 -0.5162  0.5653
 8606SOL    HW237455   1.742   3.627   8.179 -0.9213 -0.8380  0.7234
 8607SOL     OW37456   2.497   2.626  16.254  0.2039  0.4328  0.1114
 8607SOL    HW137457   2.491   2.693  16.322  0.0242 -0.6782  1.1906
 8607SOL    HW237458   2.497   2.678  16.173  1.5111 -2.0554 -1.4626
 8608SOL     OW37459   1.098   3.827   2.882  0.1276 -0.0562 -0.5958
 8608SOL    HW137460   1.178   3.834   2.831 -0.4753  2.0884 -1.2445
 8608SOL    HW237461   1.058   3.753   2.837 -1.6733 -0.3444  1.4584
 8609SOL     OW37462   2.995   1.976   1.766  0.0291 -0.0643 -0.3291
 8609SOL    HW137463   2.930   2.010   1.827 -0.5249 -0.8344 -0.4911
 8609SOL    HW237464   2.972   1.883   1.764  0.0835 -0.1136  1.0907
 8610SOL     OW37465   1.210   0.692   2.348  0.0604 -0.1590  0.3466
 8610SOL    HW137466   1.163   0.712   2.267  0.6002 -1.8387 -0.3738
 8610SOL    HW237467   1.222   0.598   2.334  1.4373  0.1154 -0.2942
 8611SOL     OW37468   2.394   0.412   4.568 -0.4323  0.4291 -0.4800
 8611SOL    HW137469   2.483   0.448   4.570  0.9654 -3.2299  3.3480
 8611SOL    HW237470   2.412   0.322   4.595 -0.2487  0.7939  0.6391
 8612SOL     OW37471   1.007   0.924   5.360  0.2307 -0.3081  0.1671
 8612SOL    HW137472   1.077   0.870   5.325 -1.3973 -0.1164 -3.3040
 8612SOL    HW237473   1.002   0.885   5.448  3.5147 -1.7944 -0.3062
 8613SOL     OW37474   0.642   1.721   1.156  0.2461 -0.0220  0.0017
 8613SOL    HW137475   0.602   1.730   1.070  0.8300 -0.2627 -0.2966
 8613SOL    HW237476   0.637   1.627   1.174  0.2375 -0.2376 -1.1718
 8614SOL     OW37477   3.208   0.300   7.996  0.1000  0.3803  0.0962
 8614SOL    HW137478   3.117   0.310   8.024 -0.1453 -1.0012 -0.2201
 8614SOL    HW237479   3.249   0.367   8.052  1.7972  0.5477 -1.3544
 8615SOL     OW37480   3.159   0.658   8.832  0.1783 -0.1159 -0.3816
 8615SOL    HW137481   3.126   0.721   8.768  1.4178 -0.5630 -1.4521
 8615SOL    HW237482   3.252   0.675   8.821  0.4643 -0.6603  1.2735
 8616SOL     OW37483   2.718   3.953   5.000  0.0884 -0.4222 -0.1747
 8616SOL    HW137484   2.742   3.928   4.911 -1.2149  2.1263 -1.2532
 8616SOL    HW237485   2.623   3.961   4.990  0.2386  0.2695 -1.1055
 8617SOL     OW37486   4.620   0.599   1.486  0.0448  0.2773 -0.1459
 8617SOL    HW137487   4.659   0.666   1.430 -1.4156  1.1085 -0.1429
 8617SOL    HW237488   4.540   0.632   1.525 -0.5032  0.9682 -1.8623
 8618SOL     OW37489   3.985   2.149   5.909  0.4781  0.5007  0.0271
 8618SOL    HW137490   3.935   2.167   5.989 -0.8851 -1.8445 -0.3158
 8618SOL    HW237491   3.982   2.055   5.890 -0.8474 -0.0661  3.1812
 8619SOL     OW37492   1.840   0.844   5.328  0.2605 -0.6027  0.6061
 8619SOL    HW137493   1.758   0.850   5.378  0.1874  0.1468  0.3996
 8619SOL    HW237494   1.867   0.755   5.348  2.0144 -0.4686 -1.1570
 8620SOL     OW37495   2.662   2.414   0.892  0.2805 -0.3804 -0.4140
 8620SOL    HW137496   2.637   2.333   0.847  0.3073  1.0815 -3.0608
 8620SOL    HW237497   2.695   2.466   0.820  0.3052 -1.4637 -1.1848
 8621SOL     OW37498   4.159   0.834   1.628 -0.1058  0.7585 -0.2248
 8621SOL    HW137499   4.119   0.906   1.677  1.0340  2.0237 -1.1559
 8621SOL    HW237500   4.086   0.772   1.620  0.9897 -0.1579 -3.0182
 8622SOL     OW37501   0.919   2.792   8.065  0.3929  0.1248  0.2688
 8622SOL    HW137502   0.855   2.791   8.136  2.4255 -0.2597  2.1034
 8622SOL    HW237503   0.938   2.885   8.056  1.6656 -0.3598 -2.1217
 8623SOL     OW37504   4.007   4.091   2.188  0.3130  0.2481 -0.1599
 8623SOL    HW137505   4.009   4.114   2.281  1.8461 -0.9316  0.0968
 8623SOL    HW237506   3.976   4.168   2.140 -0.8109 -2.2943 -3.4876
 8624SOL     OW37507   4.117   0.124   3.458  0.6900  0.0357  0.5543
 8624SOL    HW137508   4.121   0.044   3.406  0.1476  0.4888 -0.1765
 8624SOL    HW237509   4.182   0.182   3.420  2.6142 -1.9210  0.8144
 8625SOL     OW37510   1.856   4.464  16.738  0.7592  0.7512 -0.1458
 8625SOL    HW137511   1.908   4.483  16.816  0.6229  0.8278 -0.0741
 8625SOL    HW237512   1.768   4.463  16.776  0.2254  1.4723 -1.3308
 8626SOL     OW37513   1.958   0.918   6.751 -0.3336 -0.1428  0.2621
 8626SOL    HW137514   2.036   0.959   6.789  1.1183 -0.3291 -2.5025
 8626SOL    HW237515   1.915   0.869   6.820 -1.6446 -1.3243 -1.4071
 8627SOL     OW37516   3.867   4.352   2.581 -0.4208 -0.1405  0.6227
 8627SOL    HW137517   3.813   4.286   2.624 -0.9957  0.1135  0.2853
 8627SOL    HW237518   3.820   4.428   2.615 -1.7512 -0.7969  0.2810
 8628SOL     OW37519   0.794   3.669   9.244 -0.4494  0.2441  0.4362
 8628SOL    HW137520   0.889   3.680   9.241 -0.4264  0.1270  0.7328
 8628SOL    HW237521   0.753   3.754   9.228 -0.3025 -0.1305 -2.0309
 8629SOL     OW37522   0.066   2.083  15.086  0.3167  0.0370  0.2215
 8629SOL    HW137523   0.143   2.034  15.114  0.1737  0.3396  1.1450
 8629SOL    HW237524   0.063   2.152  15.153  2.9107 -2.2690  2.7250
 8630SOL     OW37525   1.988   3.549   5.664 -0.2437  0.2093 -0.3014
 8630SOL    HW137526   1.965   3.500   5.585  1.8831 -2.0581  0.4909
 8630SOL    HW237527   1.926   3.621   5.676 -1.0242 -1.0508  3.1293
 8631SOL     OW37528   3.509   1.446   9.197  0.0673 -0.3584 -0.0286
 8631SOL    HW137529   3.493   1.435   9.291  1.5017 -1.0215  0.1232
 8631SOL    HW237530   3.527   1.353   9.190  0.1313 -0.1430 -2.6425
 8632SOL     OW37531   2.741   3.116  15.101  0.0451  0.1762 -0.7071
 8632SOL    HW137532   2.828   3.076  15.102  0.1452  0.5428  3.5653
 8632SOL    HW237533   2.752   3.199  15.054 -0.6923  0.7996  0.2234
 8633SOL     OW37534   4.189   0.860   7.468  0.9330  0.1073  0.6716
 8633SOL    HW137535   4.242   0.939   7.456 -0.6751  0.5833 -3.2876
 8633SOL    HW237536   4.259   0.795   7.460  1.6111  0.9329 -0.0897
 8634SOL     OW37537   2.603   0.550   6.756 -0.0597 -0.3238  0.4368
 8634SOL    HW137538   2.618   0.549   6.661 -0.8866  0.4989  0.2942
 8634SOL    HW237539   2.626   0.637   6.788  1.1160 -1.0183  1.4722
 8635SOL     OW37540   2.415   3.393   5.223 -0.0050 -0.0587 -0.5594
 8635SOL    HW137541   2.477   3.443   5.170  0.5398  1.6804  1.7580
 8635SOL    HW237542   2.443   3.303   5.206 -1.3433 -0.4535 -0.7404
 8636SOL     OW37543   0.360   2.035   1.731 -0.1043 -0.0130  0.7375
 8636SOL    HW137544   0.450   2.008   1.748  0.4753  0.3354 -1.8426
 8636SOL    HW237545   0.369   2.033   1.636  0.2609  0.9490  0.7588
 8637SOL     OW37546   1.491   3.340   6.097  0.5170 -0.5136  0.1064
 8637SOL    HW137547   1.487   3.431   6.128  1.8614 -0.8711  1.3539
 8637SOL    HW237548   1.557   3.357   6.030  0.2700 -0.1706 -0.0502
 8638SOL     OW37549   2.431   0.366   0.640 -0.0871  0.1663 -0.9027
 8638SOL    HW137550   2.444   0.326   0.554  0.3280  0.6390 -1.0563
 8638SOL    HW237551   2.419   0.288   0.694 -0.6489  0.0441 -1.2055
 8639SOL     OW37552   1.514   3.912   3.101 -0.3943 -0.2307 -0.0248
 8639SOL    HW137553   1.573   3.986   3.086  0.0405 -0.8794 -1.5751
 8639SOL    HW237554   1.429   3.932   3.061  0.3814  0.7382 -1.2024
 8640SOL     OW37555   0.612   0.737  16.343 -0.0447 -0.7446 -0.1314
 8640SOL    HW137556   0.633   0.759  16.434  3.1128 -1.5373 -0.6854
 8640SOL    HW237557   0.676   0.670  16.318  1.5393  1.2570 -1.4164
 8641SOL     OW37558   1.678   4.630   4.912  0.3149  0.5832  0.1606
 8641SOL    HW137559   1.697   4.665   4.999  0.5100  2.2612 -0.5644
 8641SOL    HW237560   1.586   4.609   4.932 -0.9504  2.5546 -3.4868
 8642SOL     OW37561   0.576   3.294   3.283  0.1811  0.6103 -0.4943
 8642SOL    HW137562   0.508   3.359   3.297 -0.3448  0.1123 -0.7644
 8642SOL    HW237563   0.588   3.294   3.188  0.4963  1.1483 -0.4527
 8643SOL     OW37564   4.725   1.296   7.591 -0.0223 -0.1005  0.0983
 8643SOL    HW137565   4.673   1.341   7.525 -0.7650 -1.5591 -0.3345
 8643SOL    HW237566   0.072   1.304   7.544  1.5456 -2.2133  2.5141
 8644SOL     OW37567   0.219   3.698   3.454  0.5527  0.3317 -0.1935
 8644SOL    HW137568   0.292   3.758   3.440  2.3037 -1.6045  0.6414
 8644SOL    HW237569   0.248   3.611   3.428 -0.3518  0.2216 -0.8089
 8645SOL     OW37570   4.277   4.012   2.200 -0.0773  0.0289 -0.0099
 8645SOL    HW137571   4.296   4.103   2.222  0.7039 -0.5105  1.5842
 8645SOL    HW237572   4.183   4.011   2.180 -0.0779  1.1239 -0.0564
 8646SOL     OW37573   1.015   3.547   1.702 -0.2420 -0.2983 -0.4160
 8646SOL    HW137574   1.017   3.580   1.612 -0.7478  0.7666 -0.0356
 8646SOL    HW237575   1.072   3.615   1.738 -3.4274  1.2148  1.7060
 8647SOL     OW37576   3.096   3.469  17.743 -0.0859  0.1652  0.3470
 8647SOL    HW137577   3.103   3.479  17.648 -1.3906  1.1004  0.3446
 8647SOL    HW237578   3.099   3.376   0.019  0.4192  0.0475 -0.2394
 8648SOL     OW37579   3.811   2.495   4.665  0.0367 -0.1027  0.2006
 8648SOL    HW137580   3.820   2.438   4.742  0.8119 -1.0473 -0.5979
 8648SOL    HW237581   3.892   2.546   4.670 -0.0627  0.3432 -2.8362
 8649SOL     OW37582   4.665   1.437   7.843 -0.0069  0.6440 -0.2534
 8649SOL    HW137583   0.012   1.463   7.881  0.6640 -2.0448  0.0796
 8649SOL    HW237584   4.693   1.398   7.760 -0.7494 -0.3629 -0.0335
 8650SOL     OW37585   2.628   2.495   2.525  0.1389  0.1920  0.3700
 8650SOL    HW137586   2.643   2.479   2.432  0.1165  1.5130  0.1409
 8650SOL    HW237587   2.544   2.542   2.521  1.5111  2.7432  2.4202
 8651SOL     OW37588   0.181   4.267  10.244  0.0246 -0.1319 -0.4438
 8651SOL    HW137589   0.260   4.302  10.285  2.4608 -3.7510 -2.0240
 8651SOL    HW237590   0.224   4.195  10.197  0.4554 -0.1525 -0.0226
 8652SOL     OW37591   4.706   4.292   6.323 -0.3144 -0.2630 -0.0677
 8652SOL    HW137592   4.655   4.303   6.403 -0.8669  1.2471 -0.6287
 8652SOL    HW237593   0.046   4.255   6.365  0.5973 -0.7868 -2.2064
 8653SOL     OW37594   1.419   0.152   6.505 -0.4095 -0.3048 -0.4328
 8653SOL    HW137595   1.355   0.215   6.472 -0.7900 -0.1667  0.5734
 8653SOL    HW237596   1.482   0.142   6.433 -0.0778 -1.1154 -0.0365
 8654SOL     OW37597   2.951   0.579   3.257 -0.2742  1.0284  0.2386
 8654SOL    HW137598   2.908   0.665   3.257  0.0655  1.1983  0.0093
 8654SOL    HW237599   2.963   0.567   3.352 -0.0750 -1.5552 -0.1142
 8655SOL     OW37600   2.275   3.181  10.069 -0.8785  0.1690  0.4785
 8655SOL    HW137601   2.309   3.094  10.087 -0.2391  0.4846  0.8082
 8655SOL    HW237602   2.277   3.208  10.161 -0.2176  3.0660 -0.3713
 8656SOL     OW37603   3.433   2.168   7.969  0.2875  0.0614  0.2129
 8656SOL    HW137604   3.481   2.205   8.043 -0.9508  0.9981  0.5353
 8656SOL    HW237605   3.352   2.146   8.013 -0.0409 -0.6126 -0.7384
 8657SOL     OW37606   1.776   4.689   6.679  0.2151 -0.8584  0.4285
 8657SOL    HW137607   1.787   4.676   6.585 -0.3268 -1.0131  0.3839
 8657SOL    HW237608   1.866   4.681   6.710  0.0424 -2.5026  0.5433
 8658SOL     OW37609   2.016   4.177   1.684  0.3534 -0.1115  0.3994
 8658SOL    HW137610   2.040   4.245   1.621 -0.4227 -1.9741 -1.9176
 8658SOL    HW237611   1.992   4.104   1.627 -0.3961 -0.8678  1.6820
 8659SOL     OW37612   2.157   1.046   1.998 -0.4403 -0.0019 -0.3494
 8659SOL    HW137613   2.194   1.132   1.977  0.1249 -0.1448  0.0623
 8659SOL    HW237614   2.230   1.009   2.049 -0.0194  0.1601 -0.8319
 8660SOL     OW37615   1.297   0.993   8.883 -0.0780 -0.0187  0.3067
 8660SOL    HW137616   1.336   1.020   8.966  0.3938  1.1343 -0.2938
 8660SOL    HW237617   1.205   0.988   8.909 -0.8329  0.7432 -2.1819
 8661SOL     OW37618   0.246   1.358  14.015 -0.4809  0.0548 -0.2788
 8661SOL    HW137619   0.196   1.361  14.096  0.7984  1.4179  0.4683
 8661SOL    HW237620   0.277   1.268  14.023  2.4994  1.3585  2.8123
 8662SOL     OW37621   3.169   1.118   0.110 -0.4770  0.1743 -0.0207
 8662SOL    HW137622   3.248   1.161   0.142 -0.2376 -0.0944 -0.2541
 8662SOL    HW237623   3.201   1.029   0.124 -1.1220  0.3132  2.3979
 8663SOL     OW37624   4.291   2.962   8.855 -0.7340  0.2764 -0.0233
 8663SOL    HW137625   4.357   2.980   8.789  1.3373 -4.1145  0.7833
 8663SOL    HW237626   4.246   2.887   8.815  2.7988 -2.3650  0.9644
 8664SOL     OW37627   3.691   0.067   3.571  0.2277  0.1381 -0.4973
 8664SOL    HW137628   3.742   0.067   3.490  1.1507 -1.9964  0.1039
 8664SOL    HW237629   3.614   0.014   3.550  0.2591 -0.3056  0.5620
 8665SOL     OW37630   4.620   3.155   2.463 -0.1711  0.1992 -0.1498
 8665SOL    HW137631   4.582   3.243   2.467 -0.8695 -0.0995 -0.3163
 8665SOL    HW237632   4.546   3.099   2.439  1.5160 -1.9361 -0.3823
 8666SOL     OW37633   2.260   1.621   1.806  0.0348 -0.1077 -0.1149
 8666SOL    HW137634   2.234   1.629   1.714 -0.6746 -0.5514  0.0501
 8666SOL    HW237635   2.294   1.709   1.823 -0.4470 -0.2021  1.3242
 8667SOL     OW37636   1.415   0.955  14.281 -0.0514  0.1489 -0.0600
 8667SOL    HW137637   1.397   0.862  14.272  0.3009 -0.1237  1.9815
 8667SOL    HW237638   1.511   0.948  14.287 -0.2018 -0.3867  1.7797
 8668SOL     OW37639   3.010   0.025   8.908 -0.1387  0.2588  0.6984
 8668SOL    HW137640   2.973   0.110   8.886  0.2214 -0.1001 -1.2717
 8668SOL    HW237641   3.062   0.012   8.829 -1.2805  3.1769 -0.5440
 8669SOL     OW37642   1.863   2.312   3.172  0.3648  0.0613 -0.0093
 8669SOL    HW137643   1.788   2.258   3.146 -0.3851  1.2475 -0.2786
 8669SOL    HW237644   1.928   2.249   3.141  0.6039  0.2955  0.0201
 8670SOL     OW37645   1.059   4.120   4.169  0.0530 -0.1194 -0.1631
 8670SOL    HW137646   0.995   4.078   4.112 -2.0815 -0.2504  2.3247
 8670SOL    HW237647   1.132   4.060   4.160 -0.2787 -0.9353  2.6604
 8671SOL     OW37648   3.601   2.776   9.665  0.5294  0.4780 -0.1944
 8671SOL    HW137649   3.576   2.804   9.753  2.9216 -1.8533  1.2127
 8671SOL    HW237650   3.573   2.685   9.679  1.4123  0.5143  1.8283
 8672SOL     OW37651   0.475   1.266  13.725 -0.0328  0.2242 -0.1693
 8672SOL    HW137652   0.447   1.185  13.767 -2.5494  0.2187 -1.8511
 8672SOL    HW237653   0.509   1.326  13.792  0.7796 -1.9155  1.3170
 8673SOL     OW37654   0.052   2.102   6.253 -0.2682  0.3541 -0.2888
 8673SOL    HW137655   0.020   2.047   6.325  2.0333  0.5676  0.9023
 8673SOL    HW237656   4.721   2.100   6.186 -0.0681  1.6823 -0.5259
 8674SOL     OW37657   0.033   3.287   5.585  0.2373 -0.5548 -0.0506
 8674SOL    HW137658   0.053   3.233   5.509 -0.3112 -2.4315  1.1383
 8674SOL    HW237659   0.063   3.371   5.549 -1.8940  0.0480 -0.4254
 8675SOL     OW37660   2.244   0.620  11.019 -0.0420  0.1887 -0.3120
 8675SOL    HW137661   2.190   0.675  10.962 -3.1858 -2.5361 -0.0249
 8675SOL    HW237662   2.190   0.540  11.024  0.2160  0.1236  1.6525
 8676SOL     OW37663   3.140   3.261  17.384  0.3832 -0.4276 -0.1370
 8676SOL    HW137664   3.134   3.274  17.289 -1.5410 -2.8841 -0.3437
 8676SOL    HW237665   3.115   3.343  17.427 -1.7019 -2.0366  1.7038
 8677SOL     OW37666   3.814   1.978   7.929 -0.3355 -0.3596 -0.1872
 8677SOL    HW137667   3.908   1.988   7.916 -0.6897  1.7313 -1.0812
 8677SOL    HW237668   3.779   1.916   7.865  2.3814 -1.4559 -0.6035
 8678SOL     OW37669   1.430   2.993  16.492  0.7773 -0.1263  0.3013
 8678SOL    HW137670   1.346   3.034  16.514  1.5234 -0.2326  3.3563
 8678SOL    HW237671   1.426   2.985  16.397  0.5920  2.0858  0.1075
 8679SOL     OW37672   0.787   3.784   1.859  0.1451 -0.5905 -0.8075
 8679SOL    HW137673   0.852   3.830   1.806 -1.0679  1.1112 -0.8061
 8679SOL    HW237674   0.829   3.698   1.854  0.9853 -0.2218  0.0271
 8680SOL     OW37675   1.168   2.048  13.579 -0.0695 -0.4877  0.1592
 8680SOL    HW137676   1.089   1.998  13.599 -1.4293  0.5781 -2.5987
 8680SOL    HW237677   1.151   2.059  13.486 -1.3239 -1.2342  0.2910
 8681SOL     OW37678   1.055   0.725   7.591 -0.1107  0.0642  0.1079
 8681SOL    HW137679   1.048   0.663   7.663  1.8305  0.6502  0.8158
 8681SOL    HW237680   0.964   0.717   7.564  0.4960 -2.3875 -1.1261
 8682SOL     OW37681   3.040   1.491  12.649  0.9186 -0.3834  0.2908
 8682SOL    HW137682   3.037   1.445  12.733  1.0622  0.6473  0.8650
 8682SOL    HW237683   3.129   1.525  12.637 -0.1685  1.4549 -2.6362
 8683SOL     OW37684   2.068   0.022  12.641  0.0887  0.3553 -0.4189
 8683SOL    HW137685   2.015   0.057  12.712  0.7297  0.0788  0.1996
 8683SOL    HW237686   2.007   0.034  12.569  0.6943 -2.2028 -1.3942
 8684SOL     OW37687   0.647   0.677   9.184  0.8772  0.5939  0.1047
 8684SOL    HW137688   0.670   0.601   9.130 -2.1437  1.0207 -1.7822
 8684SOL    HW237689   0.577   0.635   9.235  1.2355 -0.9015 -0.6130
 8685SOL     OW37690   4.469   1.256   6.954 -0.3204  0.0417 -0.2479
 8685SOL    HW137691   4.536   1.188   6.948 -0.9553 -0.5540 -0.6453
 8685SOL    HW237692   4.447   1.266   6.861 -1.6816  0.7182  0.1503
 8686SOL     OW37693   0.051   3.480   3.095 -0.2126  0.0568 -0.0176
 8686SOL    HW137694   0.047   3.552   3.032 -0.5411  0.4404  0.4379
 8686SOL    HW237695   4.725   3.522   3.153 -0.4907 -1.4503  0.7678
 8687SOL     OW37696   2.519   0.241   0.397 -0.4896 -0.0924 -0.2061
 8687SOL    HW137697   2.574   0.308   0.356 -0.2479  1.7817  3.2766
 8687SOL    HW237698   2.452   0.259   0.331 -0.7433  1.5112  0.4962
 8688SOL     OW37699   3.390   0.035   3.212 -0.4121 -0.0811  0.0942
 8688SOL    HW137700   3.417   4.690   3.253  0.3662  0.3202  0.3810
 8688SOL    HW237701   3.332   0.007   3.141 -0.8362 -1.1612  0.8586
 8689SOL     OW37702   2.817   1.838   5.533 -0.0667 -0.2406 -0.4503
 8689SOL    HW137703   2.860   1.763   5.574 -0.8617  0.7467  2.1580
 8689SOL    HW237704   2.776   1.793   5.458 -0.7505  0.2005 -0.3439
 8690SOL     OW37705   2.811   0.606   6.065  0.3795  0.0366 -0.0581
 8690SOL    HW137706   2.896   0.618   6.022  0.0858 -0.4863 -0.7943
 8690SOL    HW237707   2.745   0.622   5.997 -0.7167 -0.7183  0.8255
 8691SOL     OW37708   4.553   3.775  14.238 -0.1961 -0.0810 -0.0986
 8691SOL    HW137709   4.630   3.832  14.234 -0.1007 -0.3300 -1.8595
 8691SOL    HW237710   4.498   3.799  14.164  0.0062  1.3666  0.2126
 8692SOL     OW37711   3.958   2.615  15.368  1.4454  0.3859 -0.4533
 8692SOL    HW137712   3.929   2.526  15.347  0.9051  0.2450  0.9017
 8692SOL    HW237713   3.914   2.635  15.451  1.2026 -1.2793 -0.1777
 8693SOL     OW37714   0.793   0.704   1.589 -0.5080  0.0666 -0.5393
 8693SOL    HW137715   0.815   0.794   1.615  0.1593 -0.3470  0.3264
 8693SOL    HW237716   0.711   0.689   1.636  0.5577 -0.6783  1.0611
 8694SOL     OW37717   2.204   0.802   3.832 -0.0241 -0.2157  0.0151
 8694SOL    HW137718   2.186   0.872   3.769 -0.3373  1.7371  2.2694
 8694SOL    HW237719   2.300   0.804   3.834 -0.0072 -0.6186 -0.4110
 8695SOL     OW37720   1.547   0.119   6.250  0.1331  0.0431 -0.2963
 8695SOL    HW137721   1.503   0.046   6.208 -1.4125  0.5116  0.5210
 8695SOL    HW237722   1.635   0.113   6.212  1.2287 -1.8490  2.4634
 8696SOL     OW37723   4.622   3.808   8.226  0.5173  0.1379  0.1069
 8696SOL    HW137724   4.611   3.855   8.143 -0.1625  1.9196  1.2111
 8696SOL    HW237725   4.537   3.826   8.266  1.4833 -0.1812  2.2935
 8697SOL     OW37726   4.072   1.513   8.329  0.4059  0.2856 -0.3325
 8697SOL    HW137727   3.987   1.472   8.312  0.3209  0.4167 -0.2236
 8697SOL    HW237728   4.117   1.429   8.337  1.2753  0.5287 -2.7117
 8698SOL     OW37729   4.204   3.951   4.058  0.1294 -0.2647 -0.1570
 8698SOL    HW137730   4.138   3.892   4.095 -0.2579  1.8006  2.4344
 8698SOL    HW237731   4.165   3.967   3.972 -0.5104 -0.4448  0.1000
 8699SOL     OW37732   1.248   2.116   2.868 -0.1148  0.6775 -0.6621
 8699SOL    HW137733   1.291   2.160   2.942 -1.6048  1.1893 -0.0838
 8699SOL    HW237734   1.162   2.159   2.868 -0.3753  0.2018  1.8992
 8700SOL     OW37735   3.027   2.103   2.809  0.2325 -0.2685 -0.3286
 8700SOL    HW137736   2.938   2.104   2.775  0.5284 -1.2797 -1.1219
 8700SOL    HW237737   3.062   2.029   2.760  2.4028 -0.0968  0.9429
 8701SOL     OW37738   3.725   2.869  12.777  0.0790  0.0211  0.0947
 8701SOL    HW137739   3.711   2.843  12.868  2.5517 -0.5451  0.3075
 8701SOL    HW237740   3.799   2.928  12.787  0.8755 -0.2761 -3.6899
 8702SOL     OW37741   0.790   2.300  15.007  0.3274  0.5468  0.2793
 8702SOL    HW137742   0.779   2.387  15.046 -1.6093  0.6080 -0.4025
 8702SOL    HW237743   0.715   2.244  15.027  0.3413 -0.2868 -2.0444
 8703SOL     OW37744   2.582   3.434   2.283 -0.4787 -0.1971  0.2015
 8703SOL    HW137745   2.639   3.369   2.325  1.0721  1.2076  0.2764
 8703SOL    HW237746   2.571   3.506   2.345 -1.2127  2.4109 -2.9841
 8704SOL     OW37747   4.725   1.807   6.213  0.4813  0.0316  0.5108
 8704SOL    HW137748   4.660   1.832   6.147  1.6065  1.7496  0.0579
 8704SOL    HW237749   4.692   1.852   6.292 -1.1432  0.3358 -0.3449
 8705SOL     OW37750   1.283   2.128   0.948 -0.2932  0.0055  0.4418
 8705SOL    HW137751   1.272   2.090   0.861  0.9230 -0.5980  0.5538
 8705SOL    HW237752   1.212   2.086   0.996 -0.1130 -1.2303 -0.3743
 8706SOL     OW37753   0.660   1.707   2.469  0.4126 -0.8621  0.2570
 8706SOL    HW137754   0.714   1.642   2.423  0.4363  1.1272 -2.4926
 8706SOL    HW237755   0.572   1.683   2.442  0.1058  0.9976 -0.4048
 8707SOL     OW37756   2.000   1.613   9.136 -0.1509 -0.9133  0.2720
 8707SOL    HW137757   1.951   1.696   9.133  2.8247  0.7985 -0.9376
 8707SOL    HW237758   2.001   1.593   9.229  1.5244 -3.4351 -0.3214
 8708SOL     OW37759   4.297   3.068   3.264  0.1321  0.1160  0.1501
 8708SOL    HW137760   4.246   3.044   3.341  2.7682 -1.4157  1.4182
 8708SOL    HW237761   4.350   3.138   3.302 -1.7030 -0.3022  3.4688
 8709SOL     OW37762   1.526   0.577   4.834 -0.1903  0.0500  0.3836
 8709SOL    HW137763   1.542   0.671   4.841  3.1194 -0.5708  1.2027
 8709SOL    HW237764   1.458   0.569   4.901 -2.3722 -1.4941 -2.0272
 8710SOL     OW37765   1.643   4.680   2.667  0.3375 -0.0055 -0.5048
 8710SOL    HW137766   1.587   4.733   2.609 -1.3681  0.6144  1.7257
 8710SOL    HW237767   1.583   4.607   2.680 -2.1896  2.4067  1.3635
 8711SOL     OW37768   4.627   1.130  12.475  0.3466 -0.0061  0.2547
 8711SOL    HW137769   4.569   1.057  12.498  1.0888 -0.6959 -0.0452
 8711SOL    HW237770   4.573   1.204  12.500 -1.2736 -0.3213 -2.3023
 8712SOL     OW37771   2.550   2.116   0.140 -0.3270  0.2947 -0.1563
 8712SOL    HW137772   2.535   2.027   0.173 -1.0473  1.0797  1.6334
 8712SOL    HW237773   2.643   2.134   0.127  0.5275 -4.4597 -0.4224
 8713SOL     OW37774   2.851   2.610   4.944  0.4333 -0.8585 -0.3318
 8713SOL    HW137775   2.846   2.681   5.008 -2.3863 -0.6916 -0.7539
 8713SOL    HW237776   2.922   2.638   4.887  0.1947 -0.3546 -0.3840
 8714SOL     OW37777   3.642   2.518  10.354  0.1766 -0.3788  0.3075
 8714SOL    HW137778   3.557   2.532  10.396  0.1658 -1.7102  0.7041
 8714SOL    HW237779   3.663   2.447  10.414 -1.5600 -0.2105  1.1073
 8715SOL     OW37780   1.052   1.955  13.264 -0.0788 -0.2374  0.7301
 8715SOL    HW137781   1.069   1.871  13.307 -0.9575 -1.7506 -1.8625
 8715SOL    HW237782   1.093   1.939  13.180  0.3935  0.0017  0.9155
 8716SOL     OW37783   1.791   3.747   5.054 -0.2227  0.1021 -0.3742
 8716SOL    HW137784   1.802   3.840   5.033 -0.2975  0.5674  1.6492
 8716SOL    HW237785   1.878   3.712   5.033 -0.2612 -1.9905  3.0198
 8717SOL     OW37786   3.919   3.379  10.983  0.0606 -0.0894  0.7946
 8717SOL    HW137787   3.871   3.312  11.031 -0.9097 -0.2941 -0.4476
 8717SOL    HW237788   3.849   3.443  10.969  0.2397 -0.1574 -0.4396
 8718SOL     OW37789   2.708   1.948  16.317  0.3151  0.1898  0.0748
 8718SOL    HW137790   2.770   2.017  16.291  0.5824  0.1652  0.6530
 8718SOL    HW237791   2.624   1.983  16.288  0.1676 -0.6055 -0.4720
 8719SOL     OW37792   0.642   1.422   6.921  0.2537  0.0585  0.5488
 8719SOL    HW137793   0.579   1.350   6.930  1.2235 -1.2630 -3.4345
 8719SOL    HW237794   0.661   1.423   6.827 -2.3766  1.7115  0.0243
 8720SOL     OW37795   1.131   2.262   6.332 -0.5267  0.0752  0.4960
 8720SOL    HW137796   1.141   2.327   6.262  1.7989 -0.9040 -0.1004
 8720SOL    HW237797   1.115   2.181   6.284 -1.8763  0.8061 -0.2699
 8721SOL     OW37798   2.413   0.577   2.810 -0.0425 -0.0354  0.2857
 8721SOL    HW137799   2.466   0.518   2.864 -1.2847 -1.2229  0.2009
 8721SOL    HW237800   2.351   0.512   2.777  0.8700 -0.4115 -0.7236
 8722SOL     OW37801   3.484   2.730  14.924 -0.5226  0.0043 -0.1226
 8722SOL    HW137802   3.397   2.757  14.956  1.9523  3.5583  3.5528
 8722SOL    HW237803   3.516   2.819  14.911  1.4657 -1.0031 -1.9028
 8723SOL     OW37804   1.128   4.287   8.144 -0.5407 -0.0227 -0.7751
 8723SOL    HW137805   1.195   4.223   8.169 -1.1240  0.1263  1.2380
 8723SOL    HW237806   1.135   4.287   8.049  2.1009  0.9858 -0.5846
 8724SOL     OW37807   3.277   3.183   6.863  0.5486 -0.3272  0.0682
 8724SOL    HW137808   3.277   3.271   6.900  0.6536 -0.0001 -0.7162
 8724SOL    HW237809   3.338   3.140   6.924 -0.0059 -1.1442  0.0403
 8725SOL     OW37810   0.472   1.786   0.509 -0.1809  0.0202  0.2263
 8725SOL    HW137811   0.506   1.697   0.501  3.2060  1.5035 -1.8197
 8725SOL    HW237812   0.383   1.765   0.537 -1.0075  0.5684 -1.9503
 8726SOL     OW37813   3.998   4.180   5.015 -0.2577 -0.0940 -0.1771
 8726SOL    HW137814   4.076   4.167   4.960 -0.2590  1.6830 -0.5910
 8726SOL    HW237815   4.038   4.198   5.100  0.7925  0.3171 -0.7429
 8727SOL     OW37816   4.473   3.501   3.059 -0.0998 -0.3367 -0.0089
 8727SOL    HW137817   4.518   3.585   3.053  1.0430 -0.8591  1.2421
 8727SOL    HW237818   4.385   3.528   3.033  1.1248  1.7126 -1.9821
 8728SOL     OW37819   4.061   0.103   2.961  0.2933 -0.0102 -0.2990
 8728SOL    HW137820   3.967   0.102   2.979 -0.0601 -0.2664 -2.1904
 8728SOL    HW237821   4.071   0.164   2.888 -2.6182  0.7214 -0.0855
 8729SOL     OW37822   2.838   0.115  12.506  0.5517  0.1421  0.1750
 8729SOL    HW137823   2.752   0.125  12.546  0.2929 -1.6251  0.0749
 8729SOL    HW237824   2.843   0.021  12.488  1.3899  0.6894 -2.4070
 8730SOL     OW37825   3.643   3.501  12.360 -0.3702 -0.7322  0.2627
 8730SOL    HW137826   3.674   3.590  12.373 -0.1620 -0.3139 -3.0143
 8730SOL    HW237827   3.549   3.502  12.380 -0.8767  0.2508 -2.1581
 8731SOL     OW37828   3.101   2.445  14.310  0.1571  0.6514 -0.4373
 8731SOL    HW137829   3.128   2.529  14.271 -1.4539  1.3885  0.0382
 8731SOL    HW237830   3.065   2.466  14.396 -3.0569  0.3384 -1.7042
 8732SOL     OW37831   1.504   3.835   3.696  0.4727 -0.3870  0.0119
 8732SOL    HW137832   1.570   3.822   3.629  1.6922  0.3228  1.0592
 8732SOL    HW237833   1.499   3.931   3.694 -0.3624 -0.4525 -0.9525
 8733SOL     OW37834   1.746   3.788  12.554  0.3507 -0.0995 -0.0443
 8733SOL    HW137835   1.688   3.714  12.573 -0.9049  0.7610 -0.4545
 8733SOL    HW237836   1.825   3.765  12.601 -0.4454  1.3021  1.9911
 8734SOL     OW37837   2.583   3.739   1.266 -0.1974  0.9411 -0.1330
 8734SOL    HW137838   2.533   3.727   1.347  0.0869  0.2566 -0.0629
 8734SOL    HW237839   2.517   3.770   1.203 -0.6382  1.2858  0.5013
 8735SOL     OW37840   3.883   0.756   3.589  0.5444 -0.0586  0.4478
 8735SOL    HW137841   3.935   0.676   3.589  1.4029  0.4992 -0.4904
 8735SOL    HW237842   3.881   0.788   3.499  2.5220 -0.4012  0.2761
 8736SOL     OW37843   3.781   1.441  12.761 -0.6008 -0.1905 -0.0426
 8736SOL    HW137844   3.713   1.447  12.694  0.4041 -2.7650 -1.2784
 8736SOL    HW237845   3.774   1.524  12.807 -0.3145  0.0566 -0.4512
 8737SOL     OW37846   2.096   0.351   8.660 -0.0659  0.3475 -0.0558
 8737SOL    HW137847   2.100   0.336   8.566 -1.6449 -0.4157  0.0003
 8737SOL    HW237848   2.005   0.321   8.660 -0.3314  1.1380  0.3141
 8738SOL     OW37849   0.008   0.826   8.802 -0.1445  0.7084 -0.2447
 8738SOL    HW137850   0.094   0.858   8.776  1.0661 -1.3162  1.2673
 8738SOL    HW237851   0.020   0.774   8.881  0.5258  1.6191  0.2532
 8739SOL     OW37852   4.451   3.512   7.769  0.2686 -0.3360 -0.1667
 8739SOL    HW137853   4.438   3.600   7.804  1.3164 -1.3811  2.8592
 8739SOL    HW237854   4.531   3.522   7.717 -1.4285  2.0821 -2.2969
 8740SOL     OW37855   3.493   3.990  12.149 -0.6779  0.1841  0.4154
 8740SOL    HW137856   3.430   3.936  12.197  0.3270 -0.4053  1.0683
 8740SOL    HW237857   3.568   3.933  12.133 -1.3074 -0.4459 -0.3094
 8741SOL     OW37858   3.277   2.004   8.796 -0.5036  0.5484 -0.0299
 8741SOL    HW137859   3.317   1.958   8.870  3.0148  0.0234 -2.2284
 8741SOL    HW237860   3.231   1.937   8.744  2.2113 -1.5982  0.3419
 8742SOL     OW37861   3.431   2.179   6.755  1.1139  0.5525  0.5859
 8742SOL    HW137862   3.398   2.125   6.683 -0.6515  0.1764  1.6611
 8742SOL    HW237863   3.487   2.237   6.705 -0.6989  1.4799 -0.3567
 8743SOL     OW37864   0.053   2.448   3.034 -0.0951  0.1367  0.4499
 8743SOL    HW137865   0.009   2.365   3.015 -1.4648  1.1002 -0.6162
 8743SOL    HW237866   0.024   2.511   2.968 -1.8318  0.0549  1.1257
 8744SOL     OW37867   1.320   2.505   4.641 -0.0095  0.2150 -1.0304
 8744SOL    HW137868   1.282   2.430   4.685  0.3347  0.5296 -0.2118
 8744SOL    HW237869   1.375   2.553   4.702  2.7039  0.7992 -3.9238
 8745SOL     OW37870   1.841   4.226   4.638  0.3535 -0.5560  0.3222
 8745SOL    HW137871   1.820   4.277   4.559 -0.3126  1.0244  1.5324
 8745SOL    HW237872   1.828   4.292   4.706  1.5763  1.5902 -1.5351
 8746SOL     OW37873   3.576   2.407   6.056 -0.3376 -0.0644 -0.7644
 8746SOL    HW137874   3.551   2.491   6.094  2.6824  0.5366 -0.0934
 8746SOL    HW237875   3.671   2.409   6.059 -0.3181 -0.8090 -0.9505
 8747SOL     OW37876   0.346   1.518   9.188 -0.0571  0.3055  0.3287
 8747SOL    HW137877   0.368   1.488   9.100  0.6493 -1.8657  1.2499
 8747SOL    HW237878   0.407   1.464   9.237 -1.2653 -0.4852  0.9613
 8748SOL     OW37879   2.936   2.958   0.116 -0.1532  0.2006 -0.2211
 8748SOL    HW137880   2.881   2.902   0.062 -0.0133 -0.1207 -0.0309
 8748SOL    HW237881   2.993   2.897   0.164 -0.2454 -0.3158 -0.7668
 8749SOL     OW37882   0.639   3.098   3.726  0.4353 -0.4256 -0.9173
 8749SOL    HW137883   0.623   3.011   3.761 -0.6669  0.2812  0.3020
 8749SOL    HW237884   0.579   3.096   3.651  0.1998  1.5021 -0.7932
 8750SOL     OW37885   2.522   1.800   6.464 -0.7217 -0.1802 -0.3958
 8750SOL    HW137886   2.462   1.744   6.513  0.5786 -0.2262  1.1248
 8750SOL    HW237887   2.574   1.726   6.431  1.5700  1.2213  0.0372
 8751SOL     OW37888   2.116   2.902   7.968  0.5461  0.4972  0.3656
 8751SOL    HW137889   2.064   2.980   7.949 -0.2361  0.2129  1.2777
 8751SOL    HW237890   2.101   2.859   7.884 -0.3524  1.7172 -0.1017
 8752SOL     OW37891   2.823   4.197  13.448 -0.2510  0.1986 -0.2434
 8752SOL    HW137892   2.755   4.153  13.397  0.6987  0.1789 -1.4810
 8752SOL    HW237893   2.890   4.133  13.472  0.8463  2.2315  2.1710
 8753SOL     OW37894   0.281   2.494   3.206 -0.0335  0.2018 -0.2321
 8753SOL    HW137895   0.286   2.428   3.275  1.9368  0.2041 -0.3792
 8753SOL    HW237896   0.198   2.477   3.162  0.0072 -1.3968  0.2840
 8754SOL     OW37897   3.499   2.758   4.122 -0.2032 -0.6687  0.2008
 8754SOL    HW137898   3.511   2.666   4.148 -0.6452 -1.0884 -1.0576
 8754SOL    HW237899   3.464   2.744   4.034 -2.9696  0.6643  1.1051
 8755SOL     OW37900   2.567   4.290   0.939  0.2747  0.1503 -0.3149
 8755SOL    HW137901   2.578   4.381   0.911  0.0485 -0.1163 -1.2509
 8755SOL    HW237902   2.478   4.262   0.917 -0.0455  0.4164  0.6248
 8756SOL     OW37903   2.909   1.477   2.409  0.1723 -0.6193  0.4969
 8756SOL    HW137904   2.898   1.564   2.371  2.0671  0.2026  1.8669
 8756SOL    HW237905   2.976   1.486   2.477  2.0944 -1.8611 -1.2332
 8757SOL     OW37906   0.082   0.611   9.518  0.5644  0.7209 -0.2955
 8757SOL    HW137907   0.139   0.656   9.456  0.0836  0.8954 -0.6100
 8757SOL    HW237908   0.008   0.593   9.459  1.1669  1.4296 -1.2600
 8758SOL     OW37909   0.579   4.228   8.057  0.4670 -0.1118 -0.1226
 8758SOL    HW137910   0.594   4.193   7.969 -0.1343  1.0385 -0.6956
 8758SOL    HW237911   0.652   4.289   8.066 -1.4886  2.3102 -0.4753
 8759SOL     OW37912   0.388   1.952   0.169  0.2581 -0.3882  1.1825
 8759SOL    HW137913   0.450   1.982   0.104 -0.4845 -0.1558  0.5770
 8759SOL    HW237914   0.443   1.894   0.221  1.2840  0.9770  1.6008
 8760SOL     OW37915   2.376   2.643   7.149 -0.5841 -0.1809 -0.1891
 8760SOL    HW137916   2.411   2.662   7.062 -0.4696 -0.8011 -0.2781
 8760SOL    HW237917   2.447   2.596   7.193 -1.7114  0.9040  2.7328
 8761SOL     OW37918   3.218   2.299   3.171 -0.2083  0.0838 -0.0751
 8761SOL    HW137919   3.135   2.336   3.201 -0.4652  0.1499 -0.8534
 8761SOL    HW237920   3.202   2.272   3.080 -1.3213 -1.0997  0.4701
 8762SOL     OW37921   0.221   3.914  16.690  0.0001 -0.1334  0.1321
 8762SOL    HW137922   0.292   3.978  16.695  0.6547 -0.9568  1.2377
 8762SOL    HW237923   0.249   3.857  16.761 -0.8661 -0.3812  0.2675
 8763SOL     OW37924   2.188   1.544  10.001 -0.2043 -0.2167 -0.5213
 8763SOL    HW137925   2.132   1.480  10.045  1.7176 -2.5406 -1.4552
 8763SOL    HW237926   2.142   1.561   9.919 -1.6171  2.1573  0.7758
 8764SOL     OW37927   1.389   3.034   1.153 -0.2602 -0.3927  0.1092
 8764SOL    HW137928   1.424   3.108   1.104  1.6998 -0.5247  1.2808
 8764SOL    HW237929   1.449   3.035   1.228  1.8370 -4.2161 -1.5264
 8765SOL     OW37930   0.343   3.762  11.007 -0.9154 -0.5072 -0.7688
 8765SOL    HW137931   0.431   3.782  10.973 -0.9275  0.4033 -0.2797
 8765SOL    HW237932   0.324   3.848  11.044 -0.1302 -0.1747 -1.1144
 8766SOL     OW37933   2.849   2.094   7.033  0.2751 -0.2277 -0.6810
 8766SOL    HW137934   2.898   2.128   7.107  1.6350 -0.0735 -1.6435
 8766SOL    HW237935   2.828   2.005   7.061 -1.6506  0.5759  0.4156
 8767SOL     OW37936   4.060   1.189   9.130 -0.1661 -0.5971 -0.2912
 8767SOL    HW137937   3.988   1.245   9.159 -0.5431 -0.1744 -2.0147
 8767SOL    HW237938   4.126   1.256   9.146 -0.9025 -0.1069  0.6717
 8768SOL     OW37939   2.871   4.513   4.734 -0.1172 -0.6262 -0.4975
 8768SOL    HW137940   2.926   4.477   4.664 -0.2070 -1.9279  0.0984
 8768SOL    HW237941   2.890   4.604   4.712  0.5140 -0.5296  0.4517
 8769SOL     OW37942   0.481   2.128   5.811  0.1248 -0.2826  0.2658
 8769SOL    HW137943   0.527   2.211   5.805  0.7097 -0.6551 -0.4396
 8769SOL    HW237944   0.414   2.158   5.873  0.0565 -0.9635  0.5219
 8770SOL     OW37945   1.866   4.661  10.980 -0.2488 -0.4379  0.0651
 8770SOL    HW137946   1.911   4.595  10.928 -0.0197 -1.0608  1.0475
 8770SOL    HW237947   1.779   4.622  10.984 -0.9886  1.1788  0.0031
 8771SOL     OW37948   1.136   2.168   1.971 -0.2622 -0.7080  0.7645
 8771SOL    HW137949   1.146   2.089   2.025  1.2092  0.9707  2.9413
 8771SOL    HW237950   1.206   2.229   1.994  0.6558 -1.4918  0.0728
 8772SOL     OW37951   4.450   2.022   7.507  0.3940 -0.3490 -0.1251
 8772SOL    HW137952   4.477   2.089   7.444 -0.8704  0.6637  0.4072
 8772SOL    HW237953   4.524   1.966   7.526 -0.3195 -1.7276 -1.3950
 8773SOL     OW37954   1.097   3.536   3.791 -0.0213 -0.6664  0.3308
 8773SOL    HW137955   1.081   3.483   3.713 -1.5350  0.5617 -0.1912
 8773SOL    HW237956   1.164   3.488   3.840  0.4865 -0.5780 -0.2913
 8774SOL     OW37957   0.892   3.162   1.029 -0.0745 -0.0537  0.0057
 8774SOL    HW137958   0.928   3.243   0.994 -0.8941  0.9182  1.4021
 8774SOL    HW237959   0.975   3.133   1.066 -0.8660 -0.4458  1.4821
 8775SOL     OW37960   2.614   4.526   5.615  0.2522  0.0692 -0.1543
 8775SOL    HW137961   2.522   4.505   5.632  0.3422 -0.8027 -0.7957
 8775SOL    HW237962   2.651   4.445   5.580  1.3800  0.5673 -0.1241
 8776SOL     OW37963   2.461   0.337   8.050 -0.7462 -0.0400  0.2980
 8776SOL    HW137964   2.399   0.290   7.995  1.0422 -0.4164 -1.4187
 8776SOL    HW237965   2.444   0.426   8.017  0.6851 -0.5541 -1.8552
 8777SOL     OW37966   4.389   1.048   5.009 -1.1377 -0.5038  0.3694
 8777SOL    HW137967   4.294   1.056   5.011 -0.8715  2.3362  0.9942
 8777SOL    HW237968   4.396   0.954   5.024 -1.7173 -0.1586  2.7820
 8778SOL     OW37969   3.473   3.100  15.890 -0.1729  0.4227  0.1295
 8778SOL    HW137970   3.484   3.190  15.857  1.8212 -1.1879 -3.5374
 8778SOL    HW237971   3.422   3.112  15.971  0.9313  1.0742  0.7345
 8779SOL     OW37972   2.432   3.755  16.598 -0.1720  1.0064 -0.1846
 8779SOL    HW137973   2.456   3.843  16.627  0.9292  1.1680 -1.6059
 8779SOL    HW237974   2.345   3.769  16.561 -0.4320  0.6337  0.2940
 8780SOL     OW37975   4.722   1.380   3.881 -0.1228 -0.1024  0.1609
 8780SOL    HW137976   4.698   1.308   3.939  0.1020 -1.3143 -1.2401
 8780SOL    HW237977   4.717   1.454   3.941  0.7338 -1.6137  2.0700
 8781SOL     OW37978   1.919   2.351  16.906  0.5323 -0.3203 -0.3782
 8781SOL    HW137979   1.891   2.261  16.894 -0.7587  0.1443 -0.8976
 8781SOL    HW237980   1.837   2.397  16.886  0.5035  0.2599  1.0650
 8782SOL     OW37981   3.800   4.568   7.884  0.1514  0.4426 -0.2899
 8782SOL    HW137982   3.723   4.512   7.886  0.4733 -0.0054 -0.4889
 8782SOL    HW237983   3.823   4.567   7.977 -1.5159 -2.3440  0.0733
 8783SOL     OW37984   0.224   0.402   6.846 -0.0662  0.1524 -0.0186
 8783SOL    HW137985   0.224   0.493   6.877  2.6738 -0.3290  1.4136
 8783SOL    HW237986   0.318   0.386   6.857 -0.0056  1.8740  2.1476
 8784SOL     OW37987   1.513   0.030   1.143  0.5799  0.1420 -0.1452
 8784SOL    HW137988   1.551   0.118   1.138 -2.3986  1.5126  1.0215
 8784SOL    HW237989   1.424   0.058   1.166  1.2072  1.0361  1.1392
 8785SOL     OW37990   3.135   2.228  13.224  0.0996  0.1686  0.3732
 8785SOL    HW137991   3.126   2.299  13.288 -1.2923  0.2940  0.0435
 8785SOL    HW237992   3.047   2.231  13.186  0.5461  0.9756 -0.5971
 8786SOL     OW37993   0.403   0.765   6.725 -0.1779 -0.2749 -0.0116
 8786SOL    HW137994   0.455   0.821   6.669 -0.4226  0.4089  0.4491
 8786SOL    HW237995   0.365   0.710   6.656 -1.1943  2.4722 -1.6196
 8787SOL     OW37996   0.184   3.601  12.322 -0.1392 -0.2684 -0.1247
 8787SOL    HW137997   0.244   3.577  12.252 -1.3590 -1.9070 -0.5973
 8787SOL    HW237998   0.223   3.560  12.399 -2.5335  0.0691  1.2605
 8788SOL     OW37999   4.614   3.976   5.476  0.1996 -0.6349 -0.3189
 8788SOL    HW138000   4.563   3.957   5.554 -1.6031 -1.2733 -1.6730
 8788SOL    HW238001   4.672   3.901   5.464 -0.9833 -1.9043  2.0164
 8789SOL     OW38002   3.407   3.992   8.684  0.5605  0.4585 -0.4417
 8789SOL    HW138003   3.449   3.957   8.606  1.4863 -0.0547  0.2820
 8789SOL    HW238004   3.470   3.977   8.755  0.1355  0.2186 -0.1090
 8790SOL     OW38005   2.849   0.987  15.216 -0.9777  0.3198 -0.1481
 8790SOL    HW138006   2.814   0.972  15.303 -1.0567  1.5654  0.0294
 8790SOL    HW238007   2.845   0.898  15.180  1.9132  0.1252  0.0065
 8791SOL     OW38008   0.446   4.426   3.131 -0.2342 -0.4003 -0.3530
 8791SOL    HW138009   0.352   4.417   3.112 -0.7834  0.2495  1.9480
 8791SOL    HW238010   0.437   4.517   3.161  0.4428 -0.0440 -1.2744
 8792SOL     OW38011   3.711   3.439  11.779 -0.1776 -0.4980 -0.1634
 8792SOL    HW138012   3.779   3.372  11.776  0.9796  0.6807 -0.2203
 8792SOL    HW238013   3.763   3.517  11.797 -0.8411 -0.4529  1.5114
 8793SOL     OW38014   2.166   2.299  10.849  0.2305 -0.2527 -0.0473
 8793SOL    HW138015   2.153   2.358  10.775 -2.6504  0.1629  0.7972
 8793SOL    HW238016   2.077   2.285  10.880  0.3633  3.0910  1.9210
 8794SOL     OW38017   2.823   1.976   2.447 -0.5346 -0.0340 -0.0611
 8794SOL    HW138018   2.777   1.893   2.456 -0.0005 -0.2892  0.3277
 8794SOL    HW238019   2.817   2.011   2.536 -0.0983 -1.1636  0.4118
 8795SOL     OW38020   1.987   2.623   3.248  0.1496  0.0592 -0.4256
 8795SOL    HW138021   2.014   2.704   3.292  0.0142 -0.0647 -0.1123
 8795SOL    HW238022   2.048   2.555   3.276  0.1303 -0.6432 -2.1108
 8796SOL     OW38023   1.909   3.128   7.034 -0.0660 -0.1414  0.2132
 8796SOL    HW138024   1.894   3.035   7.052  0.4219 -0.5154 -1.2919
 8796SOL    HW238025   1.838   3.175   7.077  1.2898  2.7710 -0.7000
 8797SOL     OW38026   1.078   2.024   8.642  0.3254  0.2998  0.2958
 8797SOL    HW138027   1.067   1.991   8.731 -1.5692  1.6105  0.5312
 8797SOL    HW238028   0.994   2.067   8.632 -0.4681 -0.5887  3.1124
 8798SOL     OW38029   0.831   1.629  12.430  0.1359 -0.0651  0.2846
 8798SOL    HW138030   0.788   1.556  12.475 -0.3274  0.0385  0.0050
 8798SOL    HW238031   0.923   1.609  12.449  0.1156 -0.7264 -0.3383
 8799SOL     OW38032   1.941   3.194   4.589 -0.1640  0.0241 -0.5091
 8799SOL    HW138033   1.915   3.209   4.680 -0.6739  1.9094 -0.9644
 8799SOL    HW238034   2.012   3.257   4.577  0.9318 -1.4776 -1.9050
 8800SOL     OW38035   4.376   2.253   5.006  0.0224 -0.5703 -0.3667
 8800SOL    HW138036   4.296   2.232   4.958  0.8760 -1.0563 -1.5864
 8800SOL    HW238037   4.439   2.199   4.957 -0.1631 -1.0364 -0.0966
 8801SOL     OW38038   2.097   0.617  10.079 -0.1534 -0.2871 -0.3936
 8801SOL    HW138039   2.156   0.633  10.153 -0.1457  1.8589 -0.8606
 8801SOL    HW238040   2.099   0.522  10.071  1.2634 -0.4283  1.7530
 8802SOL     OW38041   0.580   3.097   8.701  0.1381  0.2308  0.2992
 8802SOL    HW138042   0.502   3.121   8.750 -2.6508 -0.2386 -3.9087
 8802SOL    HW238043   0.562   3.121   8.610 -0.1032 -0.3522  0.1883
 8803SOL     OW38044   0.686   0.211  15.658  0.4440  0.2932  0.7947
 8803SOL    HW138045   0.749   0.283  15.656  2.0701 -1.1492 -0.0313
 8803SOL    HW238046   0.609   0.266  15.645  1.3810  1.3180 -0.3274
 8804SOL     OW38047   0.498   1.642  13.316  0.1755  0.0405  0.2871
 8804SOL    HW138048   0.498   1.641  13.412 -1.8199  3.0937  0.3401
 8804SOL    HW238049   0.513   1.737  13.316  1.1512 -0.1187  0.5947
 8805SOL     OW38050   1.591   4.324   9.080  0.2484  0.2960  0.0268
 8805SOL    HW138051   1.651   4.347   9.152  0.7840 -0.8972 -0.0398
 8805SOL    HW238052   1.549   4.244   9.111 -1.2517  0.6620 -1.0917
 8806SOL     OW38053   3.167   2.902  14.580  0.5496 -0.7738  0.5933
 8806SOL    HW138054   3.080   2.942  14.575  0.2565 -1.2140  2.4023
 8806SOL    HW238055   3.142   2.841  14.650 -0.9425  0.1480  0.8838
 8807SOL     OW38056   0.946   4.119   2.451 -0.1016  0.5532 -0.0636
 8807SOL    HW138057   0.871   4.065   2.424  1.1402 -1.3623  0.3292
 8807SOL    HW238058   0.932   4.197   2.396 -1.3140  0.6076  0.3072
 8808SOL     OW38059   4.499   3.248  11.506  0.1916 -0.3659 -0.2735
 8808SOL    HW138060   4.567   3.201  11.458 -0.3911 -0.6391 -0.8415
 8808SOL    HW238061   4.469   3.174  11.558 -2.7855  0.8482 -0.2430
 8809SOL     OW38062   4.415   2.650   4.730 -0.3487 -0.1374 -0.6686
 8809SOL    HW138063   4.497   2.601   4.735 -0.1632  0.4577  2.6696
 8809SOL    HW238064   4.441   2.741   4.724 -1.5572  0.3662  1.3930
 8810SOL     OW38065   0.499   3.450   2.352 -0.0534  0.4375 -0.1164
 8810SOL    HW138066   0.496   3.421   2.443  1.0539 -0.3036 -0.3169
 8810SOL    HW238067   0.481   3.544   2.351 -2.4756  0.0092  1.1906
 8811SOL     OW38068   0.409   2.507   4.478 -0.6676  0.2928 -0.2901
 8811SOL    HW138069   0.460   2.444   4.528 -0.0629  0.1447 -1.0912
 8811SOL    HW238070   0.432   2.588   4.522 -2.2714 -0.5370  2.1162
 8812SOL     OW38071   2.202   1.054   6.853 -0.3018  0.4709 -0.0955
 8812SOL    HW138072   2.187   1.125   6.915  1.2300  0.6208  0.1125
 8812SOL    HW238073   2.247   1.090   6.776 -3.0634 -1.5006 -2.6411
 8813SOL     OW38074   2.021   3.437   7.986 -0.3907  0.1089 -0.0118
 8813SOL    HW138075   1.989   3.528   7.985  0.2490  0.3246 -0.9947
 8813SOL    HW238076   2.002   3.419   8.078  2.6467  2.4124  1.0710
 8814SOL     OW38077   4.723   3.294   8.284  0.0277  0.2868  0.8060
 8814SOL    HW138078   4.685   3.382   8.274 -0.1553  0.1811  0.5597
 8814SOL    HW238079   0.064   3.331   8.327  0.3437 -0.5523  0.9506
 8815SOL     OW38080   2.473   4.153   6.665  0.2988  0.2215 -0.0201
 8815SOL    HW138081   2.419   4.200   6.729  0.9286  0.4097  0.3758
 8815SOL    HW238082   2.409   4.101   6.616 -0.1352  0.3961  0.3528
 8816SOL     OW38083   0.157   3.047  10.945 -0.4250  0.5387  0.2186
 8816SOL    HW138084   0.226   2.991  10.980 -0.8727  1.0330  1.8560
 8816SOL    HW238085   0.161   3.118  11.009  1.1273 -0.6223  1.4178
 8817SOL     OW38086   1.836   0.268   3.852 -0.3377 -0.1860 -0.5250
 8817SOL    HW138087   1.756   0.308   3.886 -0.2053 -1.0936  0.8352
 8817SOL    HW238088   1.906   0.298   3.910 -1.3959 -1.0050  1.1910
 8818SOL     OW38089   4.099   1.301  14.492 -0.3865  0.4858  0.1189
 8818SOL    HW138090   4.126   1.356  14.418  0.6461  0.8324  0.7533
 8818SOL    HW238091   4.004   1.289  14.485 -0.2830 -0.5879  0.6327
 8819SOL     OW38092   4.008   3.919   5.620 -0.3260 -0.9488  0.0545
 8819SOL    HW138093   3.974   3.840   5.662  0.0652 -0.3887  1.4119
 8819SOL    HW238094   3.932   3.938   5.565  0.4653  0.7649 -0.4672
 8820SOL     OW38095   3.093   1.623  12.977  1.0751 -0.8028 -0.1372
 8820SOL    HW138096   3.171   1.576  13.006  1.2050 -1.9299 -2.2634
 8820SOL    HW238097   3.020   1.562  12.988 -0.9195  1.5812 -0.1234
 8821SOL     OW38098   0.476   1.609  12.383 -0.3274  0.5207 -0.5800
 8821SOL    HW138099   0.467   1.562  12.466 -1.2119  2.5759  0.4836
 8821SOL    HW238100   0.420   1.686  12.392 -0.6082  0.5555 -2.5972
 8822SOL     OW38101   0.921   1.371   1.218  0.0197  0.1367 -0.2275
 8822SOL    HW138102   0.944   1.350   1.127  1.6057  2.0047 -0.2497
 8822SOL    HW238103   0.871   1.297   1.253 -1.9350  1.5454 -0.0330
 8823SOL     OW38104   2.331   0.370   7.334  0.0341 -0.5739 -0.2305
 8823SOL    HW138105   2.347   0.382   7.240  0.1242  1.9254  0.1059
 8823SOL    HW238106   2.249   0.417   7.349  1.0162  0.5920  1.4105
 8824SOL     OW38107   2.529   0.785   5.230 -0.0289 -0.2632  0.4582
 8824SOL    HW138108   2.498   0.876   5.228  0.8004 -0.0030 -0.9355
 8824SOL    HW238109   2.441   0.748   5.219 -0.2599  0.3826  0.0974
 8825SOL     OW38110   2.892   2.556   2.978 -0.1058 -0.6224  0.7086
 8825SOL    HW138111   2.843   2.477   2.953  0.4601  0.7079 -4.7724
 8825SOL    HW238112   2.977   2.514   2.993  0.6055 -0.1590 -2.0633
 8826SOL     OW38113   1.382   3.069  10.471 -0.7404 -0.0761 -0.1440
 8826SOL    HW138114   1.314   3.002  10.474 -0.8332  0.0359  0.1700
 8826SOL    HW238115   1.446   3.054  10.541 -0.9474 -0.4332 -0.0308
 8827SOL     OW38116   4.264   2.498   8.180 -0.5154  0.6672  0.1843
 8827SOL    HW138117   4.228   2.586   8.192 -0.6230  0.5319  0.8270
 8827SOL    HW238118   4.217   2.457   8.253 -1.5109  1.5538  0.0486
 8828SOL     OW38119   3.198   3.167   6.249 -0.8648  0.7142  0.4995
 8828SOL    HW138120   3.185   3.100   6.182 -1.1919 -0.8839  2.1611
 8828SOL    HW238121   3.111   3.170   6.288 -0.3371 -1.9328  1.8803
 8829SOL     OW38122   3.996   2.456   2.973 -0.6250  0.3762 -0.4269
 8829SOL    HW138123   4.086   2.447   2.942 -0.6472  1.5423 -0.8338
 8829SOL    HW238124   4.006   2.443   3.067 -0.2852  1.3341 -0.3272
 8830SOL     OW38125   0.003   0.701   0.469 -0.5665  0.2415  0.4667
 8830SOL    HW138126   0.043   0.769   0.416  1.3941 -0.1609  1.4554
 8830SOL    HW238127   4.668   0.686   0.408 -0.4852 -1.1850  0.7324
 8831SOL     OW38128   4.491   0.710   3.157 -0.0334  0.1015 -0.3475
 8831SOL    HW138129   4.574   0.700   3.109 -0.5934 -0.4256 -1.2106
 8831SOL    HW238130   4.444   0.638   3.115 -2.0890  1.6011 -0.5783
 8832SOL     OW38131   0.059   2.331  10.051  0.7881  0.6014 -0.4662
 8832SOL    HW138132   0.096   2.270  10.114 -2.5073 -0.5772  0.2978
 8832SOL    HW238133   4.704   2.311  10.069  0.7661  2.1806  1.1892
 8833SOL     OW38134   4.288   3.974  13.452  0.0462  0.1414 -0.5284
 8833SOL    HW138135   4.310   4.044  13.390  0.8376  0.3041 -0.0570
 8833SOL    HW238136   4.230   4.030  13.503  1.4259  0.1527  1.0295
 8834SOL     OW38137   0.005   0.446   0.514 -0.0151 -0.2785 -0.0314
 8834SOL    HW138138   4.649   0.424   0.509 -0.3685  1.3436 -0.8152
 8834SOL    HW238139   0.005   0.537   0.484  1.3465 -0.3849 -0.3623
 8835SOL     OW38140   1.208   3.564   5.821  0.3252 -0.5576 -0.1967
 8835SOL    HW138141   1.175   3.476   5.800  0.8911 -0.4253 -1.6485
 8835SOL    HW238142   1.249   3.547   5.905  3.3432 -0.4228 -1.6260
 8836SOL     OW38143   2.573   0.694  12.474 -0.2421  0.6930  0.4966
 8836SOL    HW138144   2.621   0.772  12.500  0.5457  0.8778 -1.5237
 8836SOL    HW238145   2.646   0.634  12.456  0.9276  1.8359  1.4665
 8837SOL     OW38146   2.853   3.049   8.723 -0.1972 -0.1313  0.2550
 8837SOL    HW138147   2.831   3.057   8.630 -0.5765  2.2983  0.5547
 8837SOL    HW238148   2.893   3.133   8.742  0.6434 -0.3346 -0.5917
 8838SOL     OW38149   1.101   2.170  11.075  0.0113  0.2319  0.8438
 8838SOL    HW138150   1.120   2.138  11.164 -1.8090 -1.0703  0.7663
 8838SOL    HW238151   1.133   2.260  11.079 -1.3162  0.8012 -1.4555
 8839SOL     OW38152   2.462   2.690   6.903 -0.1460 -0.1536 -0.3895
 8839SOL    HW138153   2.405   2.729   6.837 -0.0907 -0.6291 -0.7245
 8839SOL    HW238154   2.537   2.749   6.901  1.4959 -2.2164  0.6817
 8840SOL     OW38155   0.504   2.298   4.630 -0.0963 -0.1072  0.6809
 8840SOL    HW138156   0.596   2.270   4.625  0.1916  0.7536  1.1617
 8840SOL    HW238157   0.469   2.236   4.694  1.1786  0.8153  2.2817
 8841SOL     OW38158   0.167   3.228   7.112  0.0336  0.1271  0.1049
 8841SOL    HW138159   0.086   3.178   7.116  0.4284 -0.4766  0.6255
 8841SOL    HW238160   0.203   3.213   7.200  2.1759 -0.3538 -0.8447
 8842SOL     OW38161   2.932   1.849   7.633  0.4063  0.4088  0.0516
 8842SOL    HW138162   2.958   1.841   7.725 -3.1285 -2.5462  0.8071
 8842SOL    HW238163   2.927   1.760   7.599  2.1123 -0.6934  2.6776
 8843SOL     OW38164   2.217   1.057   3.257 -0.1875  0.1555  0.1730
 8843SOL    HW138165   2.268   1.121   3.307 -1.2138  1.3903 -0.3531
 8843SOL    HW238166   2.255   0.973   3.283 -2.5496 -0.7060  0.7941
 8844SOL     OW38167   2.329   0.830   6.927  0.2602 -0.5286 -0.5031
 8844SOL    HW138168   2.269   0.800   6.859  1.6950 -0.6863 -1.6982
 8844SOL    HW238169   2.290   0.917   6.931 -0.2069 -0.7307 -0.6879
 8845SOL     OW38170   4.595   2.873   8.965  0.3914  0.8041  0.3757
 8845SOL    HW138171   4.544   2.822   8.902  1.2451  1.2137 -0.6364
 8845SOL    HW238172   4.555   2.831   9.042 -1.4213  0.2928 -0.8369
 8846SOL     OW38173   2.593   2.281  12.087 -0.6066 -0.5769 -0.0335
 8846SOL    HW138174   2.653   2.207  12.094 -0.5652 -0.3947  1.4775
 8846SOL    HW238175   2.589   2.305  12.179 -1.7548  2.3476 -0.8638
 8847SOL     OW38176   3.292   2.792   5.159  0.1801  0.1585 -0.1088
 8847SOL    HW138177   3.372   2.742   5.170 -0.1054 -0.4507 -0.8014
 8847SOL    HW238178   3.310   2.869   5.213 -3.6629 -0.4924  2.0906
 8848SOL     OW38179   3.949   4.306   0.924  0.0601 -0.7158 -0.1016
 8848SOL    HW138180   4.007   4.383   0.920 -2.7387  1.3667 -0.2492
 8848SOL    HW238181   3.915   4.307   0.835  0.3458  0.1328 -0.2027
 8849SOL     OW38182   2.395   2.665  15.540 -0.0339  0.0139  0.3729
 8849SOL    HW138183   2.385   2.760  15.541  1.4188  0.1896 -1.2857
 8849SOL    HW238184   2.369   2.648  15.449 -0.0138 -2.2936  0.7928
 8850SOL     OW38185   4.365   4.576   9.005 -0.1007  0.0000 -0.0736
 8850SOL    HW138186   4.457   4.601   8.995 -0.8386  2.3519 -0.8159
 8850SOL    HW238187   4.355   4.593   9.099  1.6594  1.0745 -0.0748
 8851SOL     OW38188   2.385   0.506  13.082  0.6918 -0.4719 -0.2322
 8851SOL    HW138189   2.292   0.521  13.094  0.3882 -2.7273  0.2709
 8851SOL    HW238190   2.411   0.488  13.172 -0.4874  2.5626  0.6855
 8852SOL     OW38191   2.994   1.394   8.219  0.6321  0.1012  0.5843
 8852SOL    HW138192   3.066   1.343   8.183  0.8870  1.2780 -0.5798
 8852SOL    HW238193   2.922   1.332   8.230 -0.6301  1.5745  0.6806
 8853SOL     OW38194   4.544   3.237  13.942 -0.1656  0.2694  0.4984
 8853SOL    HW138195   4.563   3.275  13.856  0.4644 -0.7631  0.1749
 8853SOL    HW238196   4.514   3.315  13.988 -3.0147 -0.4752 -0.1558
 8854SOL     OW38197   4.447   3.193  17.176 -0.1772 -0.7011  0.4556
 8854SOL    HW138198   4.518   3.156  17.228  0.1939 -2.2132 -1.1265
 8854SOL    HW238199   4.387   3.206  17.249 -0.8226  1.3685 -0.4418
 8855SOL     OW38200   4.289   4.636   1.980  0.4223  0.4293 -0.2516
 8855SOL    HW138201   4.254   4.633   2.069 -1.4684 -0.8210 -1.0300
 8855SOL    HW238202   4.374   4.678   1.975  1.0945 -0.7587  1.0781
 8856SOL     OW38203   3.144   1.531   3.992  0.3198  0.0647 -0.1393
 8856SOL    HW138204   3.234   1.539   4.024  0.7001  1.7070 -1.5832
 8856SOL    HW238205   3.117   1.453   4.039  1.6308 -0.1421  0.2672
 8857SOL     OW38206   3.161   4.690  11.349 -0.2146 -0.3568 -0.2874
 8857SOL    HW138207   3.155   4.596  11.335 -1.0351 -0.4437  0.6654
 8857SOL    HW238208   3.068   4.705  11.368 -1.1205  0.4875 -5.2770
 8858SOL     OW38209   3.462   2.755   2.759  0.1276 -0.1174 -0.8052
 8858SOL    HW138210   3.404   2.825   2.730  0.0417 -0.9823 -2.7888
 8858SOL    HW238211   3.461   2.704   2.678  1.5099  0.5271 -1.2330
 8859SOL     OW38212   0.238   2.307  12.118  0.1675  0.4785 -0.6273
 8859SOL    HW138213   0.308   2.334  12.058 -1.0657 -1.0473 -2.7628
 8859SOL    HW238214   0.277   2.251  12.185 -1.8622 -1.0912 -0.7465
 8860SOL     OW38215   2.435   4.061   5.075 -0.1766  0.4165 -0.4982
 8860SOL    HW138216   2.427   4.067   5.170  2.7931 -1.5251 -0.1332
 8860SOL    HW238217   2.359   4.112   5.047  1.3663  1.9427 -1.9578
 8861SOL     OW38218   0.038   1.433   2.436  0.3354  0.0110 -0.6327
 8861SOL    HW138219   0.027   1.512   2.383 -3.0500 -0.7158 -1.0473
 8861SOL    HW238220   0.113   1.462   2.488 -0.1069  0.9711 -0.5333
 8862SOL     OW38221   4.573   1.229   6.127 -0.1855  0.1127 -0.1065
 8862SOL    HW138222   4.479   1.246   6.133  0.1679  2.3450 -0.9927
 8862SOL    HW238223   4.565   1.134   6.115 -0.4028  0.3518 -1.7748
 8863SOL     OW38224   3.016   0.140   4.417  0.2426 -0.1546 -0.0305
 8863SOL    HW138225   3.014   0.229   4.382 -1.3811  0.3583  1.3871
 8863SOL    HW238226   3.051   0.142   4.506 -1.4319 -1.8123  0.6725
 8864SOL     OW38227   0.401   2.388   5.030  0.0764  0.6379  0.2126
 8864SOL    HW138228   0.329   2.348   4.981 -0.9457 -0.1926  2.3765
 8864SOL    HW238229   0.447   2.435   4.961  2.0570  0.2989  1.3062
 8865SOL     OW38230   3.719   0.752  13.098  0.1642  0.2754 -0.1060
 8865SOL    HW138231   3.625   0.752  13.079 -0.2176 -1.0696  1.7648
 8865SOL    HW238232   3.737   0.845  13.114  2.6693  0.0181 -1.5271
 8866SOL     OW38233   0.249   1.416  16.497 -0.0379 -0.4342 -0.3049
 8866SOL    HW138234   0.198   1.426  16.577  1.1681  0.1959  0.3894
 8866SOL    HW238235   0.329   1.462  16.523  0.6032 -2.3120  1.0718
 8867SOL     OW38236   3.325   2.672   3.608  0.2185  0.7585  0.1632
 8867SOL    HW138237   3.365   2.592   3.573 -0.3481  0.2258  0.7179
 8867SOL    HW238238   3.235   2.646   3.628 -0.4070  0.8014 -2.5691
 8868SOL     OW38239   1.653   0.686   7.476 -0.5479 -0.8046  0.5705
 8868SOL    HW138240   1.581   0.639   7.434 -0.6438 -1.2567  1.2425
 8868SOL    HW238241   1.598   0.760   7.503  2.1420  2.0113 -1.6734
 8869SOL     OW38242   1.412   1.652   0.958 -0.0251  0.9951 -0.1656
 8869SOL    HW138243   1.434   1.677   0.868  0.2583  1.8170  0.1301
 8869SOL    HW238244   1.338   1.593   0.944 -0.6285  2.0200 -1.3440
 8870SOL     OW38245   2.824   0.463   8.471 -0.2790 -0.3447  0.2974
 8870SOL    HW138246   2.820   0.477   8.566 -0.4348 -2.1848  0.5515
 8870SOL    HW238247   2.798   0.371   8.475  1.2178 -0.7536  0.4318
 8871SOL     OW38248   2.893   4.436  17.655 -0.1370  0.3264 -0.3571
 8871SOL    HW138249   2.850   4.351  17.640  1.1752 -0.5589  0.8318
 8871SOL    HW238250   2.859   4.458  17.742 -2.6219 -3.0174 -0.4540
 8872SOL     OW38251   3.275   4.487  14.515  0.0957 -0.6367 -0.3334
 8872SOL    HW138252   3.205   4.508  14.453 -1.1281 -0.4967  1.0789
 8872SOL    HW238253   3.304   4.575  14.542 -0.2708 -0.5831 -0.1120
 8873SOL     OW38254   2.342   2.406   3.933  0.5331  0.0203 -0.9006
 8873SOL    HW138255   2.334   2.377   3.842 -1.9079 -0.5419 -0.4896
 8873SOL    HW238256   2.350   2.501   3.924  0.1884 -0.1743 -3.3115
 8874SOL     OW38257   4.184   2.016   8.369  0.3944  0.3386  0.3129
 8874SOL    HW138258   4.147   1.936   8.331 -0.5055  0.4007  1.0413
 8874SOL    HW238259   4.111   2.077   8.358 -0.4635 -1.5185 -4.2090
 8875SOL     OW38260   3.118   0.745   8.088 -0.4233  0.6628  0.4865
 8875SOL    HW138261   3.082   0.778   8.170 -0.7612  0.8895  0.2485
 8875SOL    HW238262   3.043   0.776   8.037 -0.1763 -1.6320 -1.2799
 8876SOL     OW38263   0.113   2.474   1.984 -0.1943 -0.6348 -0.8531
 8876SOL    HW138264   0.170   2.415   2.034  0.8662 -0.0589 -1.3707
 8876SOL    HW238265   0.172   2.517   1.922 -0.6679  2.1248  0.6233
 8877SOL     OW38266   4.455   1.416   2.844  0.0236 -0.0690 -0.3859
 8877SOL    HW138267   4.543   1.416   2.806 -0.4774  0.9632 -1.5308
 8877SOL    HW238268   4.449   1.485   2.910  1.3800 -1.1181  0.8525
 8878SOL     OW38269   3.890   2.510   6.498 -0.0213 -0.5818  0.3780
 8878SOL    HW138270   3.891   2.434   6.439  2.0834 -0.7957  0.6853
 8878SOL    HW238271   3.804   2.548   6.483  0.3778  0.3351  0.4182
 8879SOL     OW38272   1.462   2.986   3.369  0.2859  0.6921 -0.9476
 8879SOL    HW138273   1.513   2.963   3.292  0.4413  0.4563 -0.7765
 8879SOL    HW238274   1.505   2.945   3.445  0.6159  1.3343 -0.7911
 8880SOL     OW38275   2.967   2.807   8.279  0.6197 -0.5077  0.5777
 8880SOL    HW138276   3.027   2.881   8.288  1.9460 -1.4586 -0.4053
 8880SOL    HW238277   3.015   2.767   8.206  0.6441  0.3284  0.1312
 8881SOL     OW38278   2.406   2.240   7.740 -0.3745 -0.6035  0.3296
 8881SOL    HW138279   2.455   2.232   7.659 -2.3782 -3.6741 -0.5928
 8881SOL    HW238280   2.458   2.280   7.809  2.0302 -1.2836 -1.1045
 8882SOL     OW38281   4.304   4.143  12.974  0.4694 -0.1193  0.2878
 8882SOL    HW138282   4.295   4.140  13.069 -0.6085  0.3293  0.2001
 8882SOL    HW238283   4.215   4.172  12.953 -0.7923 -4.8633 -1.0882
 8883SOL     OW38284   0.860   3.136   8.752 -0.2403 -0.3092  0.4924
 8883SOL    HW138285   0.876   3.063   8.812  2.0749 -0.9465 -0.8790
 8883SOL    HW238286   0.765   3.147   8.756 -0.0532  1.5195 -0.1702
 8884SOL     OW38287   0.331   1.580   3.482 -1.2926 -0.3972  0.3009
 8884SOL    HW138288   0.241   1.593   3.451 -0.6777  1.4552 -0.7107
 8884SOL    HW238289   0.368   1.668   3.492  0.6380 -1.3235  1.2959
 8885SOL     OW38290   1.094   0.243   6.590 -0.0420 -0.3143  0.0744
 8885SOL    HW138291   1.000   0.250   6.602 -0.1741 -1.5946 -0.1697
 8885SOL    HW238292   1.101   0.158   6.547 -3.6530 -1.0596  0.9630
 8886SOL     OW38293   1.262   4.527   5.291  0.2527 -0.3351  0.2379
 8886SOL    HW138294   1.211   4.465   5.240 -0.2046 -1.6378  2.2661
 8886SOL    HW238295   1.194   4.574   5.340  1.1285 -2.0271  3.1045
 8887SOL     OW38296   4.697   4.407  12.820 -0.0553  0.0331  0.8426
 8887SOL    HW138297   4.729   4.323  12.787  1.1575  0.6568  0.4285
 8887SOL    HW238298   4.719   4.389  12.911 -0.8556  0.7935  1.1881
 8888SOL     OW38299   2.586   1.499   2.987  0.6263 -0.0190  0.0165
 8888SOL    HW138300   2.675   1.524   2.963  0.2864 -0.2658 -1.5220
 8888SOL    HW238301   2.549   1.463   2.906 -2.1699  0.0369  1.2360
 8889SOL     OW38302   1.290   1.611   1.987  0.4530 -0.4356 -0.3346
 8889SOL    HW138303   1.316   1.587   1.898 -1.7714 -0.9060 -0.8437
 8889SOL    HW238304   1.224   1.545   2.005  1.5776 -1.3742  0.3702
 8890SOL     OW38305   3.190   3.146   9.872  0.1053 -0.0197  0.0116
 8890SOL    HW138306   3.122   3.081   9.893  2.4690 -2.2573  0.6733
 8890SOL    HW238307   3.139   3.220   9.838  0.6394  0.3670  0.0632
 8891SOL     OW38308   1.694   1.800  12.088  0.4129  0.0501  0.5932
 8891SOL    HW138309   1.664   1.868  12.149  0.2198 -1.3892  2.1151
 8891SOL    HW238310   1.740   1.844  12.017  3.1264 -1.8895  1.1618
 8892SOL     OW38311   1.266   4.363   7.132 -0.0555 -0.1333 -0.1884
 8892SOL    HW138312   1.249   4.455   7.114  0.0123 -0.1857 -0.5194
 8892SOL    HW238313   1.189   4.318   7.096  1.7302 -2.6567 -0.8256
 8893SOL     OW38314   0.065   4.410   5.051  0.3064  0.1807 -0.4402
 8893SOL    HW138315   0.048   4.491   5.002  2.4102 -0.3972 -2.1562
 8893SOL    HW238316   4.723   4.358   5.034  0.3807  0.1032 -0.5509
 8894SOL     OW38317   2.360   0.563   7.961  0.5124 -0.5900  0.0220
 8894SOL    HW138318   2.393   0.568   7.871  0.2077 -1.9089 -0.1712
 8894SOL    HW238319   2.368   0.654   7.988 -0.6088  0.1492 -2.1873
 8895SOL     OW38320   2.528   1.603   5.114 -0.0941 -0.4468  0.0558
 8895SOL    HW138321   2.622   1.592   5.101  0.0538 -1.2407  1.8065
 8895SOL    HW238322   2.515   1.698   5.110  0.9474 -0.2663  0.7827
 8896SOL     OW38323   4.542   1.460  11.512  0.8468  0.7019  0.4336
 8896SOL    HW138324   4.591   1.388  11.552  0.6180  1.7112  2.5003
 8896SOL    HW238325   4.617   1.510  11.479  0.2673  1.4489  0.2556
 8897SOL     OW38326   0.392   3.207  16.489 -0.0949  0.2372  0.0442
 8897SOL    HW138327   0.321   3.146  16.476  0.1859  0.5448 -2.8744
 8897SOL    HW238328   0.380   3.266  16.415 -2.0634 -2.0705 -1.4515
 8898SOL     OW38329   1.097   4.711   4.545  0.3221 -0.3203  0.0907
 8898SOL    HW138330   1.191   4.716   4.526  0.2295 -0.1137 -0.3051
 8898SOL    HW238331   1.099   4.669   4.632 -2.1105  0.8720  0.7031
 8899SOL     OW38332   1.659   2.110   4.507  0.3418 -0.1810  0.2279
 8899SOL    HW138333   1.721   2.131   4.437 -0.4690 -3.3888 -1.4544
 8899SOL    HW238334   1.626   2.197   4.528 -1.0795 -0.3495 -1.2386
 8900SOL     OW38335   3.961   4.482  13.031 -0.1152 -0.2513 -0.1510
 8900SOL    HW138336   3.885   4.537  13.052  1.2997  1.7134 -0.1130
 8900SOL    HW238337   4.015   4.554  12.998  1.8944 -2.2799 -1.1935
 8901SOL     OW38338   3.092   1.268   4.086 -0.4875  0.0395  0.5958
 8901SOL    HW138339   3.129   1.256   4.173  0.6687 -2.1714 -0.1771
 8901SOL    HW238340   3.139   1.198   4.041 -2.1747 -0.7003  0.0111
 8902SOL     OW38341   0.683   2.549   6.972 -0.0190  0.3474  0.4498
 8902SOL    HW138342   0.607   2.573   6.919 -0.0615  0.6146  0.6310
 8902SOL    HW238343   0.645   2.478   7.023  2.3568 -1.1570  0.1429
 8903SOL     OW38344   1.643   0.737   5.706  0.7215  0.1235 -0.2117
 8903SOL    HW138345   1.607   0.649   5.715  0.4621  0.1076 -1.4037
 8903SOL    HW238346   1.618   0.743   5.613  1.4021 -4.4279 -0.7050
 8904SOL     OW38347   1.299   4.030  16.373 -0.0530 -0.2075  0.0337
 8904SOL    HW138348   1.378   4.011  16.322  1.9674  1.5824  2.5189
 8904SOL    HW238349   1.312   3.978  16.452  2.9612 -1.4762 -1.2868
 8905SOL     OW38350   0.875   4.487   6.213  0.3760 -0.0530  0.1507
 8905SOL    HW138351   0.799   4.443   6.252 -0.6400  0.9436 -0.6893
 8905SOL    HW238352   0.936   4.413   6.209  0.4710 -0.0532  1.6345
 8906SOL     OW38353   1.944   4.633   0.741  0.3381 -0.5249  0.1074
 8906SOL    HW138354   1.865   4.687   0.736  0.4775 -0.0102  3.2002
 8906SOL    HW238355   2.016   4.677   0.696 -1.4938 -0.8778 -3.1601
 8907SOL     OW38356   1.291   3.178   0.672  0.0319 -0.3114  0.0354
 8907SOL    HW138357   1.244   3.115   0.726  0.6252  1.5455  2.7019
 8907SOL    HW238358   1.380   3.151   0.696  1.7403  2.5090 -3.1378
 8908SOL     OW38359   2.826   4.383   5.448 -0.0918  0.4480 -0.3194
 8908SOL    HW138360   2.777   4.337   5.380 -0.5384  2.7240 -1.5234
 8908SOL    HW238361   2.904   4.330   5.467 -0.6254 -0.2388 -0.0686
 8909SOL     OW38362   3.430   2.039   5.541  0.0990 -0.3658  0.0948
 8909SOL    HW138363   3.480   2.091   5.478  0.1041  0.7178  0.9829
 8909SOL    HW238364   3.491   2.041   5.614  0.6401 -1.2294 -0.3352
 8910SOL     OW38365   2.715   3.465   1.308 -0.8159  0.0972  0.1522
 8910SOL    HW138366   2.662   3.427   1.238 -0.2540  0.6640 -0.5913
 8910SOL    HW238367   2.652   3.478   1.378 -0.9415 -0.3089  0.1102
 8911SOL     OW38368   0.640   2.922  11.244  0.1202  0.2825  0.6015
 8911SOL    HW138369   0.574   2.853  11.238  1.4217 -0.9389  0.3728
 8911SOL    HW238370   0.655   2.928  11.338  2.4203  0.3385  0.2342
 8912SOL     OW38371   2.503   2.844   2.244 -0.4517  0.4572 -0.8185
 8912SOL    HW138372   2.509   2.761   2.198 -0.2722  1.3898 -2.4833
 8912SOL    HW238373   2.472   2.806   2.326 -1.4212  0.9139 -0.9719
 8913SOL     OW38374   1.340   0.667   5.468  0.9910 -0.6190  0.4977
 8913SOL    HW138375   1.410   0.619   5.512  1.6949 -0.1706 -0.1226
 8913SOL    HW238376   1.268   0.645   5.527  0.8799  1.2577  1.0765
 8914SOL     OW38377   2.459   3.948   4.733 -0.3719 -0.1596 -0.0122
 8914SOL    HW138378   2.552   3.946   4.710  0.1608  2.8240  1.8400
 8914SOL    HW238379   2.462   4.009   4.807  0.7436  0.5593 -0.6432
 8915SOL     OW38380   3.605   1.456   6.031 -0.1599 -0.1330  0.1355
 8915SOL    HW138381   3.537   1.518   6.058  0.9031  1.3103 -0.4406
 8915SOL    HW238382   3.567   1.420   5.951 -1.2728 -2.4900  1.7458
 8916SOL     OW38383   0.060   1.642  17.637  0.0601 -0.4188  0.1672
 8916SOL    HW138384   0.135   1.611  17.587  0.1919  0.0863  0.0512
 8916SOL    HW238385   0.037   1.565  17.690 -0.4170 -0.3625  0.0481
 8917SOL     OW38386   0.603   3.928  11.261 -0.5510  0.1124 -0.0222
 8917SOL    HW138387   0.680   3.924  11.317 -1.3971  1.4193  1.2198
 8917SOL    HW238388   0.636   3.988  11.194 -3.0829 -0.4507 -1.7776
 8918SOL     OW38389   3.118   2.700  14.748 -0.1190  0.1986 -0.1231
 8918SOL    HW138390   3.183   2.631  14.733 -1.1726 -0.8536  0.1736
 8918SOL    HW238391   3.070   2.664  14.822 -0.9557 -0.2738 -0.8870
 8919SOL     OW38392   0.971   3.942   0.841 -0.6892 -0.3149 -0.5845
 8919SOL    HW138393   0.966   4.024   0.792  1.3329 -0.3269 -0.8209
 8919SOL    HW238394   0.920   3.889   0.781  1.1892 -2.0473 -0.6555
 8920SOL     OW38395   2.049   2.911   8.211  0.3178 -0.6602  1.0093
 8920SOL    HW138396   2.083   2.917   8.122  0.7135  0.1952  1.2175
 8920SOL    HW238397   2.070   2.996   8.249  0.1210 -0.9626  1.8028
 8921SOL     OW38398   3.154   4.081   7.863 -0.7380  0.2765  0.5183
 8921SOL    HW138399   3.069   4.103   7.902 -0.9520 -2.3777  1.5562
 8921SOL    HW238400   3.173   4.172   7.843 -0.6073 -0.5783 -3.2557
 8922SOL     OW38401   4.262   1.406  12.385  0.1277  0.4610 -0.1089
 8922SOL    HW138402   4.223   1.460  12.317 -1.0972  1.3495  1.3177
 8922SOL    HW238403   4.194   1.401  12.451 -1.0895 -0.7882 -1.4496
 8923SOL     OW38404   1.185   1.332   6.025  0.1449  0.7547  0.4275
 8923SOL    HW138405   1.107   1.379   5.996 -0.7497 -0.4765  0.8172
 8923SOL    HW238406   1.159   1.241   6.043 -0.7587  0.9742  0.2051
 8924SOL     OW38407   1.362   4.292  15.472  0.5848 -0.2803 -0.1335
 8924SOL    HW138408   1.446   4.254  15.445  0.8446  0.1383  0.0767
 8924SOL    HW238409   1.389   4.384  15.482 -2.5608  0.5048  0.8966
 8925SOL     OW38410   4.390   3.728   2.779  0.0212  0.3505  0.3644
 8925SOL    HW138411   4.395   3.695   2.690 -1.4813  1.6691 -0.1976
 8925SOL    HW238412   4.298   3.750   2.792 -0.2183  0.0121 -0.8349
 8926SOL     OW38413   0.872   0.107   6.334  0.1390  0.4136  0.0560
 8926SOL    HW138414   0.834   0.059   6.408  0.2250  0.6907  0.2809
 8926SOL    HW238415   0.798   0.163   6.309 -1.4606 -1.7118  0.0143
 8927SOL     OW38416   1.996   4.129   2.464  0.5074 -0.6001  0.8285
 8927SOL    HW138417   1.987   4.105   2.371 -0.2358 -0.1349  0.7803
 8927SOL    HW238418   1.969   4.048   2.507 -0.9832  0.0660  1.1168
 8928SOL     OW38419   1.429   2.849   7.355 -0.0649  0.4256  0.3169
 8928SOL    HW138420   1.345   2.870   7.396  0.0526 -0.6444  1.0928
 8928SOL    HW238421   1.475   2.932   7.357 -0.3984  0.6091  0.4178
 8929SOL     OW38422   3.791   4.277  13.392 -0.3169 -0.7074  0.2565
 8929SOL    HW138423   3.838   4.360  13.397 -0.1618 -0.8325  0.8217
 8929SOL    HW238424   3.709   4.287  13.441 -0.8996 -0.3617 -0.7839
 8930SOL     OW38425   0.680   2.514   9.322  0.2139  0.0767  0.0808
 8930SOL    HW138426   0.699   2.441   9.262 -2.9618  0.2383 -1.1084
 8930SOL    HW238427   0.603   2.472   9.359 -0.0869 -0.4853 -1.1934
 8931SOL     OW38428   2.532   1.100   6.954 -0.0879 -0.0355 -0.4359
 8931SOL    HW138429   2.603   1.163   6.953 -2.0946  2.2433  2.5962
 8931SOL    HW238430   2.487   1.148   7.023 -0.3110 -2.0030  0.7907
 8932SOL     OW38431   1.415   4.144  17.599 -0.5351 -0.8197 -0.9482
 8932SOL    HW138432   1.442   4.236  17.600 -0.1511 -0.9497  0.5945
 8932SOL    HW238433   1.341   4.149  17.659  0.3112  2.0545 -0.1777
 8933SOL     OW38434   3.587   2.640   9.351  0.5277 -0.6081 -0.2576
 8933SOL    HW138435   3.589   2.721   9.301  0.9153  0.6317  1.7556
 8933SOL    HW238436   3.523   2.654   9.421  0.5973  0.9172 -0.4942
 8934SOL     OW38437   1.191   3.361   1.983  0.1500 -0.2168 -0.3197
 8934SOL    HW138438   1.268   3.406   2.017  0.5271 -0.4825 -0.8183
 8934SOL    HW238439   1.143   3.335   2.061 -0.5482 -1.9777 -1.3479
 8935SOL     OW38440   3.751   2.678   7.462 -0.0915  0.4606 -0.8432
 8935SOL    HW138441   3.839   2.670   7.426 -0.1080  1.1254 -1.0201
 8935SOL    HW238442   3.713   2.723   7.386 -0.8875 -2.2859 -2.0674
 8936SOL     OW38443   2.755   2.923   1.109 -0.0057 -0.0588 -0.0157
 8936SOL    HW138444   2.844   2.938   1.142 -1.5283  0.2527  4.0315
 8936SOL    HW238445   2.742   2.992   1.044  0.1493 -0.4371 -0.4438
 8937SOL     OW38446   1.665   3.820   3.481 -0.2831 -0.9551 -0.0576
 8937SOL    HW138447   1.704   3.737   3.454 -1.0390 -1.2493 -0.2254
 8937SOL    HW238448   1.733   3.878   3.446  0.3828 -0.2997  2.2767
 8938SOL     OW38449   3.817   0.193   5.761 -0.1268  0.3465  0.1992
 8938SOL    HW138450   3.830   0.285   5.737 -2.6181  0.6074 -0.1807
 8938SOL    HW238451   3.846   0.200   5.852  0.9047 -2.1283  0.0398
 8939SOL     OW38452   3.647   1.526   1.242  0.1668  0.0843  0.0739
 8939SOL    HW138453   3.608   1.613   1.237 -0.4793 -0.2901 -1.3793
 8939SOL    HW238454   3.694   1.529   1.325 -1.9023 -0.1938  1.2383
 8940SOL     OW38455   0.644   4.485   9.266 -0.8320  0.2695  0.3129
 8940SOL    HW138456   0.629   4.579   9.269  0.2795  0.4368  0.8605
 8940SOL    HW238457   0.723   4.480   9.320 -0.6256  0.5485  0.0377
 8941SOL     OW38458   4.047   4.637  16.622 -0.2684 -0.1522 -0.1576
 8941SOL    HW138459   4.091   4.594  16.549 -0.5539 -2.4853  1.0389
 8941SOL    HW238460   4.119   4.634  16.685  0.3246 -1.0394 -0.8941
 8942SOL     OW38461   3.011   1.104   6.611 -0.1719 -0.1392 -0.4520
 8942SOL    HW138462   2.998   1.041   6.682  1.3865  0.5479  0.4431
 8942SOL    HW238463   3.055   1.049   6.546  1.9153  2.9193 -1.6581
 8943SOL     OW38464   3.259   0.475   3.182  0.0932  0.4351 -0.1548
 8943SOL    HW138465   3.173   0.493   3.143 -0.2847 -2.1124 -0.5100
 8943SOL    HW238466   3.261   0.535   3.256 -0.3463 -0.5195  0.6338
 8944SOL     OW38467   4.609   2.326  17.212 -0.3659 -0.7291  0.2470
 8944SOL    HW138468   4.542   2.374  17.260 -0.6711 -1.7353  0.8474
 8944SOL    HW238469   4.624   2.383  17.137 -2.4792  1.0951  1.2292
 8945SOL     OW38470   2.805   3.968  14.068 -0.5920 -0.8116  0.1519
 8945SOL    HW138471   2.766   4.041  14.117  0.6097 -0.9204  1.2893
 8945SOL    HW238472   2.897   3.995  14.059 -0.3348 -1.1630  1.5890
 8946SOL     OW38473   1.620   1.055   0.334  0.1925  0.2646 -0.0595
 8946SOL    HW138474   1.527   1.038   0.347  0.3429 -1.5878 -1.4184
 8946SOL    HW238475   1.627   1.078   0.242 -0.2750  0.3824 -0.0641
 8947SOL     OW38476   3.668   2.329  11.370  0.2404  0.2932  0.3811
 8947SOL    HW138477   3.638   2.239  11.374 -0.7023  0.6687  1.7503
 8947SOL    HW238478   3.672   2.343  11.465  0.5758  1.8467  0.1348
 8948SOL     OW38479   2.735   1.889   2.966  0.1895 -0.3628  0.2163
 8948SOL    HW138480   2.752   1.978   2.934  1.4274 -1.4475 -2.1466
 8948SOL    HW238481   2.640   1.894   2.955  0.3506 -0.1645 -1.0842
 8949SOL     OW38482   0.463   3.479   1.770  0.2641 -0.1715 -0.1259
 8949SOL    HW138483   0.534   3.482   1.706  0.0507 -1.2299 -0.4114
 8949SOL    HW238484   0.398   3.442   1.709  2.7594 -1.3984 -2.0559
 8950SOL     OW38485   3.051   0.314   3.492 -0.1638  0.4258 -0.0056
 8950SOL    HW138486   2.964   0.290   3.523  0.9672  0.4774  3.2702
 8950SOL    HW238487   3.070   0.263   3.413 -0.8272 -0.1413  0.2046
 8951SOL     OW38488   0.230   1.322   3.767  0.6678 -0.0814 -0.0153
 8951SOL    HW138489   0.139   1.339   3.790  1.0303  0.0583  1.3330
 8951SOL    HW238490   0.248   1.396   3.709 -3.8828  0.5031 -0.6168
 8952SOL     OW38491   0.968   4.620  17.156 -0.1117 -0.1254 -0.4679
 8952SOL    HW138492   1.031   4.568  17.206  0.5197  0.2154 -0.9105
 8952SOL    HW238493   1.006   4.605  17.070  1.2635 -2.8409  0.6016
 8953SOL     OW38494   2.671   3.267   0.704  0.0135 -0.0105 -0.0347
 8953SOL    HW138495   2.665   3.200   0.636  0.1354  0.5425 -0.5919
 8953SOL    HW238496   2.668   3.344   0.647  2.1753 -0.5971 -0.9480
 8954SOL     OW38497   3.792   2.308  11.089  0.1983  0.4063  0.4689
 8954SOL    HW138498   3.734   2.322  11.164 -0.3395  3.9051 -0.6133
 8954SOL    HW238499   3.793   2.394  11.048 -0.7037  0.0229 -0.3504
 8955SOL     OW38500   1.777   0.215   5.896 -0.4409 -0.0321 -0.0514
 8955SOL    HW138501   1.723   0.243   5.969 -1.2852  0.4623 -0.8616
 8955SOL    HW238502   1.812   0.300   5.870  1.5315 -0.3275  1.6198
 8956SOL     OW38503   2.622   0.467  17.277  0.0655 -0.3528 -0.0751
 8956SOL    HW138504   2.590   0.376  17.281 -1.1620  0.1416  1.4015
 8956SOL    HW238505   2.554   0.520  17.319 -1.0236 -0.4008 -1.7557
 8957SOL     OW38506   0.488   2.816   5.746 -0.2382  0.4256  0.4658
 8957SOL    HW138507   0.574   2.853   5.723 -0.0917 -0.5751 -0.5928
 8957SOL    HW238508   0.448   2.803   5.660  1.1266 -1.0678  0.0496
 8958SOL     OW38509   3.209   2.869   0.995 -0.1688 -0.3284  0.1998
 8958SOL    HW138510   3.196   2.901   1.084  0.8511 -0.3399  0.3588
 8958SOL    HW238511   3.159   2.788   0.998  1.7401 -1.5513 -0.5312
 8959SOL     OW38512   1.777   2.230   7.997 -0.1523 -0.0082  0.6932
 8959SOL    HW138513   1.728   2.312   7.994  0.2235  0.2030  0.2889
 8959SOL    HW238514   1.866   2.248   8.026 -0.1729  1.0774  0.0581
 8960SOL     OW38515   0.067   2.960   7.279 -0.4361  0.1931  0.2898
 8960SOL    HW138516   0.018   2.903   7.338  0.5896 -2.0871 -1.0448
 8960SOL    HW238517   0.131   2.905   7.234  0.3794  0.8313  0.6541
 8961SOL     OW38518   3.025   2.998   7.897 -0.0874  0.5442  0.4100
 8961SOL    HW138519   3.090   3.029   7.960 -0.4598  0.6313  0.7565
 8961SOL    HW238520   3.079   3.005   7.819 -0.2109  0.6479  0.3350
 8962SOL     OW38521   3.831   0.460   6.283 -0.1937 -0.3757  0.0281
 8962SOL    HW138522   3.853   0.450   6.190  0.0639  0.9292 -0.0486
 8962SOL    HW238523   3.916   0.444   6.324  0.7748  2.2513 -0.9479
 8963SOL     OW38524   4.408   1.620   9.239  0.1163 -0.2316 -0.4768
 8963SOL    HW138525   4.470   1.618   9.166 -1.3701  2.7173 -1.8504
 8963SOL    HW238526   4.460   1.674   9.299 -1.0887  0.7979 -0.3574
 8964SOL     OW38527   0.877   1.222   6.287  0.3013  0.1329 -0.5008
 8964SOL    HW138528   0.783   1.210   6.295  0.4430 -0.7121 -0.0715
 8964SOL    HW238529   0.914   1.150   6.338 -0.2193  1.7585  2.1607
 8965SOL     OW38530   1.444   3.987   7.042 -0.0947  0.2571 -0.0629
 8965SOL    HW138531   1.532   3.951   7.049 -0.1866 -0.3018 -1.7892
 8965SOL    HW238532   1.434   4.063   7.099  1.4119  0.3202  0.1108
 8966SOL     OW38533   2.374   1.573  10.747  0.0273 -0.3244 -0.1941
 8966SOL    HW138534   2.400   1.593  10.837 -1.5582 -2.0039  0.6309
 8966SOL    HW238535   2.433   1.633  10.701 -0.8899  0.6225 -0.1304
 8967SOL     OW38536   0.429   1.430   2.963 -0.5366 -0.2715 -0.3270
 8967SOL    HW138537   0.388   1.463   3.043  2.5513  0.2657  1.0456
 8967SOL    HW238538   0.491   1.499   2.941 -0.5242 -0.8887 -2.1934
 8968SOL     OW38539   3.336   1.662   9.129 -0.1805 -0.1565  0.0817
 8968SOL    HW138540   3.400   1.592   9.138 -3.3981 -2.6938  3.5022
 8968SOL    HW238541   3.318   1.676   9.223  0.1010  0.6486  0.0216
 8969SOL     OW38542   1.442   4.262   3.270 -0.7879 -0.4439  0.7106
 8969SOL    HW138543   1.367   4.202   3.265 -0.6694 -0.5346  0.0394
 8969SOL    HW238544   1.405   4.344   3.235  1.2340  0.2206  0.1543
 8970SOL     OW38545   0.634   1.000   5.038  0.3521 -0.2628 -0.4027
 8970SOL    HW138546   0.685   1.067   4.993 -0.4578 -0.1382 -1.1400
 8970SOL    HW238547   0.694   0.992   5.112  3.9815  1.6774 -3.1240
 8971SOL     OW38548   4.041   1.222   7.166 -0.5257  0.2430 -0.1311
 8971SOL    HW138549   3.959   1.234   7.118 -0.4258 -1.0296 -0.5962
 8971SOL    HW238550   4.045   1.127   7.165  1.2921  0.3569 -2.3946
 8972SOL     OW38551   4.716   1.519   6.270 -0.2961 -0.3368  0.4497
 8972SOL    HW138552   0.011   1.608   6.254  0.6046 -0.8366 -0.5682
 8972SOL    HW238553   4.699   1.535   6.362 -2.5303  2.9826 -0.5122
 8973SOL     OW38554   3.206   2.261  13.633 -0.5365 -0.1622  0.1092
 8973SOL    HW138555   3.257   2.248  13.712 -1.6497 -4.2913  0.1452
 8973SOL    HW238556   3.121   2.229  13.662 -0.8210  2.3877  2.0630
 8974SOL     OW38557   2.861   4.242   1.818  0.1912  0.4888  0.0616
 8974SOL    HW138558   2.806   4.293   1.878  1.5760  0.1504  1.6022
 8974SOL    HW238559   2.946   4.283   1.834  1.0124 -0.8882 -0.7724
 8975SOL     OW38560   3.582   2.473   7.778  0.0722  0.0752 -0.2234
 8975SOL    HW138561   3.661   2.426   7.752  1.5095  1.3542  1.8037
 8975SOL    HW238562   3.631   2.545   7.818 -0.2320  1.0883 -1.6690
 8976SOL     OW38563   4.000   2.734   2.264  0.2610  0.5830  0.1778
 8976SOL    HW138564   3.937   2.673   2.301 -0.5907  0.6400 -1.1875
 8976SOL    HW238565   4.018   2.786   2.342 -1.0893 -0.0106  0.8852
 8977SOL     OW38566   2.793   0.690   8.813  0.1635  0.0302 -0.4971
 8977SOL    HW138567   2.848   0.767   8.802 -0.1126  0.5480  1.8021
 8977SOL    HW238568   2.847   0.616   8.787 -0.1677  0.1753 -1.5793
 8978SOL     OW38569   1.004   3.294   1.522  0.1036  0.1953  0.0034
 8978SOL    HW138570   0.927   3.247   1.555 -0.4524 -0.6623 -2.4799
 8978SOL    HW238571   1.041   3.332   1.602  2.2565 -1.0392 -0.4009
 8979SOL     OW38572   3.742   4.323  16.647  0.5310 -0.2009 -0.1486
 8979SOL    HW138573   3.762   4.233  16.619  3.3022  0.2049  0.4652
 8979SOL    HW238574   3.777   4.322  16.736  1.1523  3.6761 -0.3517
 8980SOL     OW38575   4.083   1.791   8.305  0.4191 -0.6882  0.2621
 8980SOL    HW138576   3.989   1.797   8.324  0.3960 -2.1178  0.6021
 8980SOL    HW238577   4.081   1.697   8.287  0.7332 -0.4801 -0.8455
 8981SOL     OW38578   2.531   1.808   4.456  0.4452 -0.2381 -0.7475
 8981SOL    HW138579   2.585   1.729   4.468  1.7619  0.9150  0.8204
 8981SOL    HW238580   2.586   1.880   4.426 -0.3490  1.7471  2.6880
 8982SOL     OW38581   1.071   0.412   7.519  0.1733  0.5226  0.2064
 8982SOL    HW138582   1.036   0.433   7.606 -1.6715  3.6620 -1.3117
 8982SOL    HW238583   1.002   0.437   7.459 -0.3387 -1.1028  0.1013
 8983SOL     OW38584   2.347   0.950   7.906 -0.2150  0.6810 -0.3408
 8983SOL    HW138585   2.279   0.918   7.847 -0.0083 -0.5540  0.0957
 8983SOL    HW238586   2.290   0.967   7.981  0.5955  1.4141  0.1024
 8984SOL     OW38587   1.064   0.330   2.251 -0.1090 -0.1694 -0.4848
 8984SOL    HW138588   1.016   0.403   2.290  0.7438 -0.6213  1.3962
 8984SOL    HW238589   1.147   0.350   2.295 -0.1993  1.8766 -1.2822
 8985SOL     OW38590   4.631   3.852   4.332 -0.2404 -0.0307  0.4934
 8985SOL    HW138591   4.567   3.903   4.283  0.5620  1.4932  1.0509
 8985SOL    HW238592   4.710   3.847   4.278 -0.9225  0.8467 -0.5832
 8986SOL     OW38593   0.734   0.405  17.008  0.2132 -0.0849 -0.3846
 8986SOL    HW138594   0.756   0.382  16.918 -0.8768 -0.1744 -0.6210
 8986SOL    HW238595   0.639   0.399  17.000 -0.1968  0.8093  3.7902
 8987SOL     OW38596   1.636   2.742   6.349 -0.6060 -0.2774 -0.2430
 8987SOL    HW138597   1.715   2.738   6.403 -1.0698  4.3103  0.8290
 8987SOL    HW238598   1.666   2.711   6.264 -1.1463  1.6527 -1.1543
 8988SOL     OW38599   0.123   1.857   2.672 -0.3443 -0.1086  0.1515
 8988SOL    HW138600   0.029   1.863   2.689 -0.6672 -0.3932 -1.5746
 8988SOL    HW238601   0.144   1.950   2.660  0.6578 -0.4527 -0.7410
 8989SOL     OW38602   4.702   1.189   4.450 -0.2596 -0.2510 -0.4331
 8989SOL    HW138603   4.647   1.218   4.522  0.2364  2.1076 -1.0089
 8989SOL    HW238604   4.672   1.102   4.424 -0.6764 -0.0331 -0.6806
 8990SOL     OW38605   4.718   1.650   1.407 -0.2210  0.1745 -0.4444
 8990SOL    HW138606   0.072   1.676   1.393 -0.5418  1.8103  0.4484
 8990SOL    HW238607   4.689   1.713   1.473 -1.7688 -1.0088  0.0195
 8991SOL     OW38608   0.364   4.540   3.546 -0.3514 -0.3096  0.2631
 8991SOL    HW138609   0.415   4.591   3.483 -2.4008  0.8091 -0.4920
 8991SOL    HW238610   0.278   4.582   3.550 -0.5771 -0.7502  0.0917
 8992SOL     OW38611   1.166   4.579   5.592 -0.0048 -0.4267  0.2306
 8992SOL    HW138612   1.105   4.538   5.653 -3.0526  1.5866 -1.4856
 8992SOL    HW238613   1.234   4.514   5.612  0.5618  0.3967  0.9307
 8993SOL     OW38614   2.950   2.933   4.051  0.2808  0.3017 -0.1667
 8993SOL    HW138615   2.890   2.982   4.108 -1.8202 -1.2709 -0.9914
 8993SOL    HW238616   3.001   2.891   4.121 -0.7741 -0.5253  0.1136
 8994SOL     OW38617   1.367   0.007   5.854 -0.8277 -0.3654  0.1022
 8994SOL    HW138618   1.348   0.088   5.901 -2.8533 -1.2029  0.7318
 8994SOL    HW238619   1.401   0.047   5.774  1.0033 -0.9127  0.5991
 8995SOL     OW38620   1.060   1.839   0.759  0.1894 -0.2710 -0.4763
 8995SOL    HW138621   0.966   1.820   0.764  0.8334 -2.8446  1.5415
 8995SOL    HW238622   1.097   1.773   0.816  1.9345  0.7271 -0.4630
 8996SOL     OW38623   3.076   2.304   1.670  0.5425 -0.4185  0.7074
 8996SOL    HW138624   3.086   2.209   1.667  0.5165 -0.3910 -0.2241
 8996SOL    HW238625   3.036   2.318   1.756 -2.5429  0.8873 -0.9413
 8997SOL     OW38626   2.042   2.723   7.753 -0.3358  0.4217  0.2713
 8997SOL    HW138627   1.952   2.702   7.780 -0.1831  0.3410  0.7018
 8997SOL    HW238628   2.044   2.696   7.661  0.7809 -4.9629  1.8889
 8998SOL     OW38629   0.547   2.921   1.545 -0.2980 -0.6600 -0.3822
 8998SOL    HW138630   0.462   2.888   1.516 -0.8901  0.2767  0.2907
 8998SOL    HW238631   0.586   2.841   1.581 -0.1701 -0.6012 -0.3884
 8999SOL     OW38632   3.524   4.405  14.425 -0.3308 -0.1001 -0.2227
 8999SOL    HW138633   3.430   4.418  14.440 -0.0458 -0.8816  2.3372
 8999SOL    HW238634   3.550   4.473  14.488 -0.1415  0.6236 -1.0835
 9000SOL     OW38635   0.922   3.659   2.748  0.0733  0.2751  0.3584
 9000SOL    HW138636   0.874   3.710   2.683  1.5267  1.1337 -0.0396
 9000SOL    HW238637   0.849   3.653   2.810 -0.6341  1.5832 -0.3517
 9001SOL     OW38638   1.242   2.114   5.111  0.4310  0.0397  0.6720
 9001SOL    HW138639   1.256   2.029   5.069  1.8626  1.5021 -1.8309
 9001SOL    HW238640   1.325   2.158   5.092 -1.7594  3.6732 -0.7075
 9002SOL     OW38641   0.409   0.235   1.102 -0.1898 -0.0928  0.1077
 9002SOL    HW138642   0.452   0.316   1.072 -0.8992 -0.7348 -2.5668
 9002SOL    HW238643   0.378   0.210   1.016  1.1671  0.2651 -0.4858
 9003SOL     OW38644   0.410   0.463   6.178 -0.2214 -0.3561 -0.6089
 9003SOL    HW138645   0.422   0.539   6.235 -0.5613 -0.8541  0.1286
 9003SOL    HW238646   0.415   0.399   6.249  0.5704  0.4748  0.0653
 9004SOL     OW38647   2.807   0.831   3.281  0.0945 -0.4845  0.1419
 9004SOL    HW138648   2.749   0.810   3.208 -0.0522 -0.0718  0.1416
 9004SOL    HW238649   2.835   0.921   3.265  0.5602 -0.6964 -0.2406
 9005SOL     OW38650   0.650   0.590  15.628  0.1392 -0.1987  0.5184
 9005SOL    HW138651   0.588   0.518  15.614  0.7068 -1.5079  4.7433
 9005SOL    HW238652   0.627   0.655  15.561 -1.6705 -1.7281 -0.3726
 9006SOL     OW38653   4.213   0.729   4.858  0.9985 -0.3398 -0.7997
 9006SOL    HW138654   4.123   0.725   4.827  0.0028  1.4497  1.8704
 9006SOL    HW238655   4.242   0.786   4.787 -2.3618  1.3504 -0.7977
 9007SOL     OW38656   1.879   3.089  12.541  0.4008 -0.2949 -0.1540
 9007SOL    HW138657   1.878   3.014  12.601 -1.2821  0.5632  0.8982
 9007SOL    HW238658   1.822   3.149  12.590  1.3272 -0.0559  0.6341
 9008SOL     OW38659   2.145   1.966   7.441 -0.0715  0.2657  0.1208
 9008SOL    HW138660   2.052   1.986   7.432 -0.3001 -0.8800  0.0097
 9008SOL    HW238661   2.175   2.049   7.480 -0.2684  1.7677 -2.9419
 9009SOL     OW38662   3.184   3.183  14.508  0.0884 -0.4126 -0.3026
 9009SOL    HW138663   3.132   3.134  14.572  0.2536  0.2917  0.3674
 9009SOL    HW238664   3.207   3.117  14.442  0.9353 -0.2249 -0.1890
 9010SOL     OW38665   3.672   3.318   3.924  0.0275 -0.2343  0.2237
 9010SOL    HW138666   3.601   3.267   3.886 -1.0684 -0.4908  2.6089
 9010SOL    HW238667   3.745   3.263   3.893  0.2526  1.4601 -2.1510
 9011SOL     OW38668   2.497   2.267   1.293 -0.1124  0.2667 -0.7571
 9011SOL    HW138669   2.554   2.220   1.232 -0.3739 -1.0288 -0.0088
 9011SOL    HW238670   2.546   2.260   1.375  2.7518  0.1194 -2.4608
 9012SOL     OW38671   4.590   3.004  13.010  0.5340  0.1615  0.5284
 9012SOL    HW138672   4.673   2.960  12.990  0.9427  1.7192 -1.2064
 9012SOL    HW238673   4.559   3.012  12.920  2.7212 -0.9276 -0.3201
 9013SOL     OW38674   3.448   3.716   3.460 -0.0014  0.3956 -0.0449
 9013SOL    HW138675   3.393   3.640   3.442 -0.0725  0.5492 -0.4960
 9013SOL    HW238676   3.524   3.699   3.405 -0.8129  0.9779 -1.3548
 9014SOL     OW38677   0.974   2.381  16.910  0.3243 -0.3591 -0.0671
 9014SOL    HW138678   1.028   2.324  16.965  0.8020  1.0230  0.8747
 9014SOL    HW238679   0.965   2.322  16.835 -0.7517 -0.2302 -0.0458
 9015SOL     OW38680   3.319   2.359   6.479  0.2156  0.6863  0.1511
 9015SOL    HW138681   3.249   2.380   6.418  1.6182  3.3224 -0.5643
 9015SOL    HW238682   3.362   2.444   6.471 -2.2829  1.7577 -1.6352
 9016SOL     OW38683   1.510   2.359   9.012  0.0639 -0.3532 -0.7853
 9016SOL    HW138684   1.535   2.366   8.920  0.8710  2.6421 -0.3125
 9016SOL    HW238685   1.578   2.305   9.053 -0.2809 -0.7968 -0.7886
 9017SOL     OW38686   4.411   2.089   8.221  0.3395 -1.0447 -0.0174
 9017SOL    HW138687   4.350   2.045   8.280  1.7159 -0.8377  1.5487
 9017SOL    HW238688   4.351   2.130   8.159 -0.3164  0.3261  1.5492
 9018SOL     OW38689   3.324   0.256   5.700  0.1340 -0.4251 -0.2221
 9018SOL    HW138690   3.333   0.319   5.771 -0.1965 -0.7413  0.1020
 9018SOL    HW238691   3.390   0.192   5.724 -0.9716 -0.9829  1.2968
 9019SOL     OW38692   1.254   0.444   2.406 -0.1090 -0.4152 -0.0330
 9019SOL    HW138693   1.348   0.429   2.398 -0.3326 -1.7380 -0.1962
 9019SOL    HW238694   1.228   0.462   2.496 -2.5673 -1.5933 -0.4948
 9020SOL     OW38695   1.457   3.824   7.788 -0.2615  0.0274 -0.2166
 9020SOL    HW138696   1.491   3.899   7.739 -1.2124  0.7261  0.1938
 9020SOL    HW238697   1.535   3.792   7.834  2.0150  2.0725 -2.6993
 9021SOL     OW38698   1.576   2.108   0.908 -0.4853 -0.5583 -0.8410
 9021SOL    HW138699   1.487   2.132   0.935 -0.2390 -2.4054  1.5638
 9021SOL    HW238700   1.586   2.024   0.952 -0.9880  0.6074  1.5145
 9022SOL     OW38701   3.852   0.897   5.244 -0.0585  0.0742 -0.0801
 9022SOL    HW138702   3.848   0.935   5.156 -0.9296  0.4761  0.1314
 9022SOL    HW238703   3.947   0.909   5.250 -0.0434  0.0543 -0.2738
 9023SOL     OW38704   0.558   4.457   2.871 -0.1502 -0.1663 -0.1782
 9023SOL    HW138705   0.513   4.420   2.947 -1.5460  0.2147 -0.8136
 9023SOL    HW238706   0.648   4.459   2.904  0.0908  1.7512 -0.9179
 9024SOL     OW38707   3.379   3.805   4.114  0.2779  0.4542  0.6395
 9024SOL    HW138708   3.350   3.749   4.187 -2.8383  2.0861  0.6433
 9024SOL    HW238709   3.300   3.812   4.061  0.9747 -0.2411 -0.5092
 9025SOL     OW38710   1.869   1.691   8.824 -0.3986 -0.5215  0.3995
 9025SOL    HW138711   1.785   1.648   8.810 -2.0339  2.0919  2.0269
 9025SOL    HW238712   1.855   1.772   8.774 -2.0989 -0.9085  0.2459
 9026SOL     OW38713   0.279   3.566   2.713  0.1084 -0.0545 -0.7686
 9026SOL    HW138714   0.243   3.517   2.640 -0.6722  1.5579 -1.4558
 9026SOL    HW238715   0.215   3.637   2.708  0.6245  0.5074  0.3308
 9027SOL     OW38716   1.169   0.362  10.090  0.0003  0.0196 -0.6692
 9027SOL    HW138717   1.206   0.340  10.175 -2.4098  0.7212  0.5653
 9027SOL    HW238718   1.205   0.306  10.021  1.0015 -1.8183  1.3565
 9028SOL     OW38719   1.990   1.801  12.654  0.1937 -0.5509 -0.0894
 9028SOL    HW138720   2.076   1.779  12.620  0.5266 -1.1835  1.1778
 9028SOL    HW238721   2.000   1.791  12.749 -1.1587  0.1806  0.1225
 9029SOL     OW38722   3.461   4.349   4.465  0.2752  0.4706 -0.3821
 9029SOL    HW138723   3.486   4.427   4.416 -0.8987  1.4881  0.6378
 9029SOL    HW238724   3.463   4.283   4.396  0.3102  1.1763 -1.0486
 9030SOL     OW38725   3.495   2.620   1.383  0.8772  0.0580 -0.6620
 9030SOL    HW138726   3.495   2.542   1.328 -2.8416 -0.1807 -0.3022
 9030SOL    HW238727   3.514   2.575   1.466  0.1182  0.9055 -0.0194
 9031SOL     OW38728   1.275   0.413   6.474  0.1803  0.9545  0.0932
 9031SOL    HW138729   1.214   0.358   6.523 -0.5400  0.3230 -1.4888
 9031SOL    HW238730   1.217   0.480   6.437  0.0511  0.3509 -0.7906
 9032SOL     OW38731   4.049   0.817   7.909 -0.0480 -0.2165  0.2378
 9032SOL    HW138732   3.963   0.834   7.948 -0.6715 -1.5281 -0.5734
 9032SOL    HW238733   4.031   0.846   7.820 -0.7811  0.7970  0.7178
 9033SOL     OW38734   0.376   4.550   2.623 -0.4286 -0.2881 -0.3568
 9033SOL    HW138735   0.319   4.556   2.699 -0.3282 -0.4850 -0.2642
 9033SOL    HW238736   0.456   4.524   2.669 -0.4759  0.2823  0.0492
 9034SOL     OW38737   0.339   2.260   9.154  0.2127 -0.4999  0.3679
 9034SOL    HW138738   0.319   2.342   9.109 -3.6954 -0.0073  2.9913
 9034SOL    HW238739   0.250   2.248   9.187 -0.5458  1.5230 -0.9002
 9035SOL     OW38740   1.089   3.799   3.790 -0.5167  0.2509  0.1030
 9035SOL    HW138741   1.089   3.704   3.793 -1.3713  0.2353 -0.3440
 9035SOL    HW238742   1.113   3.804   3.697 -1.3848 -0.1359 -0.1395
 9036SOL     OW38743   0.097   1.015   8.187 -0.2093  0.1039  0.0741
 9036SOL    HW138744   0.151   1.064   8.250  0.9160 -0.8330 -0.1492
 9036SOL    HW238745   0.072   1.085   8.128 -0.5669  0.2333  0.3792
 9037SOL     OW38746   3.979   2.629  11.645  0.3781  0.3306  0.3791
 9037SOL    HW138747   4.016   2.637  11.557 -0.4801  0.5299  0.0296
 9037SOL    HW238748   4.055   2.660  11.694 -0.4127 -1.6764  2.8779
 9038SOL     OW38749   4.428   2.718  16.558 -0.3231  0.0113  0.0846
 9038SOL    HW138750   4.427   2.635  16.509 -1.0027  0.2440 -0.3031
 9038SOL    HW238751   4.367   2.771  16.506  0.8887  1.0276 -0.2933
 9039SOL     OW38752   3.230   1.773   2.037  0.2312  0.0865  0.0571
 9039SOL    HW138753   3.237   1.826   2.116 -1.0178  0.4767 -0.0842
 9039SOL    HW238754   3.246   1.846   1.977  0.6899 -0.7143 -0.7860
 9040SOL     OW38755   0.399   3.333   3.683 -0.1738 -0.4045 -0.5140
 9040SOL    HW138756   0.468   3.326   3.618 -0.3435  2.8422 -1.0061
 9040SOL    HW238757   0.328   3.274   3.656 -0.5734  0.3516 -1.0907
 9041SOL     OW38758   1.732   3.946  10.227  0.1698  0.3255  0.2942
 9041SOL    HW138759   1.701   3.871  10.277  1.3152 -0.6321 -0.4017
 9041SOL    HW238760   1.815   3.906  10.199 -1.9982 -2.5886 -1.9772
 9042SOL     OW38761   4.559   3.437   6.921 -0.3894 -0.6789  0.5742
 9042SOL    HW138762   4.529   3.390   6.843 -1.9390  1.7970 -0.3173
 9042SOL    HW238763   4.654   3.429   6.918 -0.1384  2.4175  0.5785
 9043SOL     OW38764   1.374   3.460   4.620 -0.0112 -0.0640 -0.0988
 9043SOL    HW138765   1.282   3.432   4.621 -0.1891  0.4842 -0.4011
 9043SOL    HW238766   1.367   3.535   4.560  0.1106 -0.9446 -1.2160
 9044SOL     OW38767   0.905   1.269   1.788  0.2632 -0.2407  1.0577
 9044SOL    HW138768   0.946   1.319   1.858  0.3324  1.0475  0.1097
 9044SOL    HW238769   0.901   1.182   1.827 -2.3021 -1.1458 -1.1992
 9045SOL     OW38770   1.887   1.428  12.692 -0.4188 -0.1112 -0.3310
 9045SOL    HW138771   1.796   1.401  12.679  0.0280 -1.4555 -0.7155
 9045SOL    HW238772   1.921   1.431  12.602  0.0494 -3.6916 -0.2700
 9046SOL     OW38773   2.439   1.844   6.000 -0.0015  0.7206  0.1578
 9046SOL    HW138774   2.411   1.885   5.918  2.8296  0.8889 -0.7362
 9046SOL    HW238775   2.531   1.824   5.981 -0.5804  0.6997 -2.5521
 9047SOL     OW38776   3.930   3.048   4.383  0.2177  0.7771  0.1435
 9047SOL    HW138777   3.886   3.011   4.459 -0.8243 -1.6862 -1.6524
 9047SOL    HW238778   4.011   2.999   4.398 -0.6431 -0.9356 -0.7390
 9048SOL     OW38779   2.140   3.411   4.144 -0.2224  0.1820  0.3852
 9048SOL    HW138780   2.138   3.478   4.076 -0.3792  1.0813  1.2762
 9048SOL    HW238781   2.155   3.463   4.223 -0.6592  1.5444 -0.4237
 9049SOL     OW38782   4.042   0.230   9.792  0.1763 -0.3053  0.5486
 9049SOL    HW138783   3.978   0.288   9.749  1.8209  0.0763 -1.3311
 9049SOL    HW238784   4.046   0.169   9.719 -1.6183  0.4797 -0.2122
 9050SOL     OW38785   2.112   2.641   2.482  0.6539 -0.0591 -0.1264
 9050SOL    HW138786   2.107   2.726   2.526  0.5339 -1.1189  1.8793
 9050SOL    HW238787   2.022   2.611   2.471  0.0899  0.7325  2.4274
 9051SOL     OW38788   2.694   1.886  16.574 -0.0353 -0.0191  0.2273
 9051SOL    HW138789   2.710   1.905  16.481 -0.9160  0.5253  0.1873
 9051SOL    HW238790   2.720   1.794  16.571 -1.5776 -0.4615  0.4556
 9052SOL     OW38791   2.910   2.188   9.724  0.1142 -0.0047 -0.4302
 9052SOL    HW138792   2.860   2.242   9.663  2.5345  2.3724 -0.2899
 9052SOL    HW238793   2.962   2.139   9.661 -2.2339 -1.8517 -0.9577
 9053SOL     OW38794   0.772   0.182   6.990  0.0725  0.4696  0.5149
 9053SOL    HW138795   0.760   0.273   7.019 -0.3154  0.8487 -0.8413
 9053SOL    HW238796   0.680   0.160   6.978 -0.6088  3.2977  0.4327
 9054SOL     OW38797   2.968   2.810   8.796 -0.2752  0.4587 -0.1242
 9054SOL    HW138798   2.931   2.894   8.767  1.6264  0.5423 -2.3454
 9054SOL    HW238799   2.931   2.800   8.884 -2.0531 -0.6522 -1.0056
 9055SOL     OW38800   0.881   0.054   4.410  0.0978 -0.4199  0.1653
 9055SOL    HW138801   0.881   4.732   4.334 -0.1754  2.9035 -2.4114
 9055SOL    HW238802   0.955   0.023   4.462 -0.6202  0.7268  1.8599
 9056SOL     OW38803   2.462   0.122   4.650  0.1699 -0.4389 -0.3866
 9056SOL    HW138804   2.547   0.152   4.684  0.8455 -0.0157 -2.4886
 9056SOL    HW238805   2.437   0.055   4.713 -0.2638  1.1058  1.1001
 9057SOL     OW38806   0.007   3.689   0.172 -0.0429 -0.2822  0.3942
 9057SOL    HW138807   0.094   3.711   0.206  0.0324 -2.4174  1.6561
 9057SOL    HW238808   4.707   3.627   0.236  1.6662  0.1687  1.8062
 9058SOL     OW38809   2.935   2.233   6.284  0.3807  0.1096  0.4655
 9058SOL    HW138810   2.969   2.322   6.272  0.7193 -0.4601 -2.9669
 9058SOL    HW238811   2.866   2.247   6.348  0.0934  3.2059 -0.5528
 9059SOL     OW38812   1.801   4.336   7.688 -0.0882  0.2058  0.1317
 9059SOL    HW138813   1.790   4.421   7.730  0.2391  0.3429 -0.0545
 9059SOL    HW238814   1.825   4.282   7.763 -1.7239 -0.5540  0.1164
 9060SOL     OW38815   4.134   2.993   8.342 -0.8502  0.1806 -0.5906
 9060SOL    HW138816   4.212   3.048   8.332 -1.1842  1.3346  3.2584
 9060SOL    HW238817   4.060   3.045   8.310 -0.5594 -0.1298 -1.7677
 9061SOL     OW38818   1.993   2.724   4.288 -0.4173  0.5651 -0.0479
 9061SOL    HW138819   2.011   2.709   4.380 -2.5548 -0.1479  0.2582
 9061SOL    HW238820   1.965   2.815   4.295 -0.4852  0.7716 -2.6987
 9062SOL     OW38821   4.330   3.127   7.603  0.8637 -0.4894 -0.0405
 9062SOL    HW138822   4.243   3.121   7.643  0.6362  1.1594 -0.2782
 9062SOL    HW238823   4.318   3.214   7.565 -1.4506 -1.1523 -0.7864
 9063SOL     OW38824   4.388   1.314   1.083 -0.0473 -0.6928  0.0261
 9063SOL    HW138825   4.396   1.230   1.129  1.7083 -0.7494 -0.3984
 9063SOL    HW238826   4.381   1.364   1.164  0.9434  2.2914 -1.7257
 9064SOL     OW38827   3.893   2.668   8.132 -0.0644  0.2632 -0.2490
 9064SOL    HW138828   3.842   2.643   8.210 -0.7296 -1.4221 -1.2275
 9064SOL    HW238829   3.982   2.655   8.163  0.5820  1.1514 -1.7743
 9065SOL     OW38830   2.804   3.572  16.959  0.2766 -0.2444  0.1589
 9065SOL    HW138831   2.883   3.610  16.999 -1.6948  3.6611  0.2988
 9065SOL    HW238832   2.839   3.538  16.877 -0.1121 -0.7366  0.2029
 9066SOL     OW38833   1.558   3.567   1.631  0.4607 -0.0573 -0.0774
 9066SOL    HW138834   1.638   3.611   1.602  1.0702  0.1585  1.8806
 9066SOL    HW238835   1.535   3.521   1.550 -0.7044 -0.2254  0.3402
 9067SOL     OW38836   2.639   4.493  17.563 -0.1908  0.4997  0.1461
 9067SOL    HW138837   2.631   4.491  17.468 -3.4712 -1.1830  0.4513
 9067SOL    HW238838   2.723   4.448  17.565 -0.0413  0.7707 -0.1251
 9068SOL     OW38839   3.006   3.336   2.389 -0.5744 -0.4436  0.0255
 9068SOL    HW138840   3.003   3.372   2.300 -0.8245  0.6140  0.4610
 9068SOL    HW238841   2.961   3.411   2.428 -0.7241  0.1039 -1.1814
 9069SOL     OW38842   3.720   1.175  15.613  0.3397  0.3853  0.2221
 9069SOL    HW138843   3.708   1.128  15.695  3.5204  0.1974  0.5904
 9069SOL    HW238844   3.698   1.115  15.541  0.0802  0.7761 -0.0276
 9070SOL     OW38845   1.231   0.712   7.397  0.3300 -0.8296 -0.1515
 9070SOL    HW138846   1.144   0.705   7.437 -0.0303  0.1797 -0.7419
 9070SOL    HW238847   1.214   0.720   7.303  0.1703 -1.4732 -0.1828
 9071SOL     OW38848   1.717   4.163  14.441 -0.4788  0.5545 -0.1934
 9071SOL    HW138849   1.753   4.190  14.356  0.5053  1.0246  0.3655
 9071SOL    HW238850   1.796   4.115  14.467 -0.4390 -0.0711 -1.4722
 9072SOL     OW38851   1.756   0.001  11.396  0.0277 -0.2919 -0.2360
 9072SOL    HW138852   1.694   4.667  11.379  2.9801 -3.0354  0.3219
 9072SOL    HW238853   1.835   4.706  11.352  1.0690 -0.9013  2.1177
 9073SOL     OW38854   3.100   0.531   9.057 -0.6657 -0.2640 -0.1149
 9073SOL    HW138855   3.098   0.578   8.974 -1.6697 -0.2336 -0.0725
 9073SOL    HW238856   3.193   0.538   9.079 -0.8683  1.1431  0.2600
 9074SOL     OW38857   1.539   0.704  11.553 -0.1715 -0.0907  0.1736
 9074SOL    HW138858   1.478   0.635  11.525 -0.1269 -0.1099  0.1231
 9074SOL    HW238859   1.485   0.781  11.570  1.4863  0.5608  2.4607
 9075SOL     OW38860   0.154   3.028   4.077  0.0626 -0.6618  0.3492
 9075SOL    HW138861   0.182   2.983   4.157 -2.3229  0.8870  2.0334
 9075SOL    HW238862   0.224   3.000   4.019  0.8450  2.1212 -0.0842
 9076SOL     OW38863   1.206   2.384   6.090  0.0554  0.0883  0.1343
 9076SOL    HW138864   1.203   2.298   6.049 -0.5133 -0.0299  0.4310
 9076SOL    HW238865   1.164   2.443   6.027 -0.6383 -0.7736 -0.2013
 9077SOL     OW38866   3.928   3.630  12.051 -0.0864 -0.1172  0.3841
 9077SOL    HW138867   3.938   3.535  12.046 -0.2476 -0.1981  1.5796
 9077SOL    HW238868   3.930   3.659  11.960 -0.5718 -3.2073 -0.6109
 9078SOL     OW38869   3.906   1.281   6.898  0.2259  0.5317  0.1890
 9078SOL    HW138870   3.830   1.308   6.949 -0.6178 -1.0613 -0.1993
 9078SOL    HW238871   3.859   1.216   6.845 -0.0256  0.1999  0.8207
 9079SOL     OW38872   3.368   3.409   2.020 -0.1096  0.6340 -0.1184
 9079SOL    HW138873   3.361   3.473   2.091 -0.3554 -1.0984  1.4264
 9079SOL    HW238874   3.306   3.339   2.041  1.6515 -0.3503  1.8000
 9080SOL     OW38875   3.913   3.336   7.652 -0.5661 -0.5613  0.5537
 9080SOL    HW138876   3.859   3.396   7.600 -2.3100 -1.3646  1.4201
 9080SOL    HW238877   3.972   3.304   7.584 -0.3215 -1.5968  1.2503
 9081SOL     OW38878   2.876   3.733  11.660  0.5000  0.2060  0.1887
 9081SOL    HW138879   2.805   3.744  11.723 -3.0683 -3.0558 -3.2727
 9081SOL    HW238880   2.914   3.653  11.695  1.8113  0.9328  0.4162
 9082SOL     OW38881   3.035   2.620   5.788  0.0462  0.2747 -0.5531
 9082SOL    HW138882   3.077   2.539   5.758 -0.0249 -0.1530  0.5042
 9082SOL    HW238883   3.065   2.620   5.879 -0.8429  0.4076 -0.2645
 9083SOL     OW38884   4.647   1.219   5.347  0.3127  0.0883  0.2657
 9083SOL    HW138885   4.668   1.253   5.260 -0.3303  0.8007  0.3888
 9083SOL    HW238886   4.552   1.215   5.360  0.3427  0.8251  0.7401
 9084SOL     OW38887   2.694   4.671  11.517 -0.4512  0.8869 -0.2339
 9084SOL    HW138888   2.660   4.586  11.492  1.5552  0.3224 -1.0559
 9084SOL    HW238889   2.682   4.668  11.612 -1.9209 -0.1064 -0.4600
 9085SOL     OW38890   3.883   3.378  12.449 -0.2346 -0.1211 -0.2321
 9085SOL    HW138891   3.794   3.409  12.431 -1.1819 -3.2350 -0.9006
 9085SOL    HW238892   3.896   3.323  12.372 -1.5866  0.3729 -0.8185
 9086SOL     OW38893   4.595   0.107   8.429 -0.3663  0.0151  0.7263
 9086SOL    HW138894   4.534   0.164   8.382 -2.1026 -1.1033  1.6362
 9086SOL    HW238895   4.586   0.033   8.369 -0.8927  0.3009  0.4497
 9087SOL     OW38896   2.572   3.477   8.549 -0.1404 -0.1827 -0.0976
 9087SOL    HW138897   2.573   3.391   8.507 -0.4230 -0.4825  0.5110
 9087SOL    HW238898   2.664   3.501   8.539 -0.2723  0.3857  0.0699
 9088SOL     OW38899   0.923   0.331  16.499 -0.1617  0.1967 -0.0769
 9088SOL    HW138900   0.921   0.421  16.530 -0.0373  0.6113 -1.2615
 9088SOL    HW238901   0.975   0.288  16.567 -0.2914  0.7127  0.3426
 9089SOL     OW38902   2.449   2.777   5.536 -0.4673  0.1539  0.0482
 9089SOL    HW138903   2.401   2.696   5.551  0.0313  0.0644  1.1762
 9089SOL    HW238904   2.527   2.765   5.591 -0.1505 -0.3836 -0.5114
 9090SOL     OW38905   4.509   0.281   9.444  0.7329 -0.3049 -0.7756
 9090SOL    HW138906   4.590   0.326   9.468  1.0272 -0.4928 -1.4144
 9090SOL    HW238907   4.526   0.257   9.353  1.8003  0.4139 -0.7753
 9091SOL     OW38908   0.342   0.483  11.217 -0.6546  0.1216 -0.2453
 9091SOL    HW138909   0.322   0.576  11.223  0.8991  0.5113 -1.0421
 9091SOL    HW238910   0.428   0.486  11.175  0.1881 -0.3172  1.4498
 9092SOL     OW38911   2.256   1.371   3.009  0.4097 -0.4342 -0.0535
 9092SOL    HW138912   2.238   1.463   3.028  1.5685 -0.4632  1.2798
 9092SOL    HW238913   2.166   1.344   2.994  0.7036  0.5263 -3.5173
 9093SOL     OW38914   1.559   0.308   3.046 -0.1200 -0.7518  0.4225
 9093SOL    HW138915   1.617   0.383   3.060  2.0024 -2.1501 -0.7759
 9093SOL    HW238916   1.587   0.247   3.113 -0.8500 -0.8534  0.6266
 9094SOL     OW38917   4.409   2.425   6.801 -0.2208  0.3501  0.5078
 9094SOL    HW138918   4.328   2.375   6.813  1.2433 -1.9668  0.7140
 9094SOL    HW238919   4.482   2.363   6.802  0.1134  0.7635  1.5163
 9095SOL     OW38920   3.212   1.291  11.104 -0.1216 -0.4455  0.1274
 9095SOL    HW138921   3.228   1.259  11.016 -0.8394 -1.5381  0.3914
 9095SOL    HW238922   3.301   1.318  11.128 -0.4087  1.6684 -1.1800
 9096SOL     OW38923   3.413   4.466   2.216  0.1682  0.0121 -0.2937
 9096SOL    HW138924   3.443   4.552   2.246  0.4576  0.4963 -1.9622
 9096SOL    HW238925   3.391   4.423   2.299 -3.0333  1.2171 -0.4927
 9097SOL     OW38926   0.219   0.663   6.274  0.0032  0.2384 -0.3588
 9097SOL    HW138927   0.157   0.733   6.295 -0.2888  0.7781 -3.0186
 9097SOL    HW238928   0.166   0.584   6.264 -0.5799  0.5791  0.0273
 9098SOL     OW38929   1.625   3.237   9.301  0.0342  0.1145  0.1778
 9098SOL    HW138930   1.562   3.235   9.229 -1.0475 -2.3616  1.1949
 9098SOL    HW238931   1.573   3.287   9.364  0.4730  0.8985 -0.0802
 9099SOL     OW38932   0.343   2.285   2.470 -0.2159 -0.3126  0.1161
 9099SOL    HW138933   0.415   2.300   2.409  0.0402 -0.9812  0.2576
 9099SOL    HW238934   0.284   2.248   2.406 -0.2843  0.2950 -0.1732
 9100SOL     OW38935   2.554   0.118   2.788 -0.6802  0.0485  0.4565
 9100SOL    HW138936   2.645   0.091   2.779 -0.2732  2.3513 -2.2901
 9100SOL    HW238937   2.543   0.137   2.881 -0.8155  1.0718  0.2396
 9101SOL     OW38938   4.636   2.951   4.052  0.5939 -0.2877 -0.3868
 9101SOL    HW138939   4.723   2.987   4.031  0.6349 -0.3952 -0.4019
 9101SOL    HW238940   4.607   2.904   3.974  1.4122  0.2888 -1.0410
 9102SOL     OW38941   4.153   0.658   6.360 -0.0711  0.3553  0.2359
 9102SOL    HW138942   4.121   0.569   6.347 -0.2987  0.4341  0.2583
 9102SOL    HW238943   4.085   0.700   6.412 -1.2681  0.0782 -1.1203
 9103SOL     OW38944   4.375   0.484   7.379 -0.1796  0.0047  0.1860
 9103SOL    HW138945   4.313   0.419   7.413 -0.0671 -0.0448  0.2995
 9103SOL    HW238946   4.443   0.479   7.446  0.4802 -2.2502 -0.6301
 9104SOL     OW38947   3.343   0.840  11.751  0.1158  0.5632 -0.0954
 9104SOL    HW138948   3.329   0.753  11.714 -2.6883  0.9841  0.0022
 9104SOL    HW238949   3.289   0.836  11.830 -1.4967  4.6349 -0.9593
 9105SOL     OW38950   1.607   2.059   8.250  0.2589  0.1507  0.0036
 9105SOL    HW138951   1.549   2.043   8.175 -0.9996 -1.2757  1.2791
 9105SOL    HW238952   1.608   2.155   8.246  1.3239  0.1733  0.7057
 9106SOL     OW38953   4.707   3.609   1.937  0.0941 -0.9274 -0.2629
 9106SOL    HW138954   4.684   3.697   1.907  1.5402 -0.7165 -0.7763
 9106SOL    HW238955   0.045   3.646   1.985 -1.4865 -0.4616  1.8353
 9107SOL     OW38956   2.707   3.978   1.310 -0.0745  0.0124 -0.4441
 9107SOL    HW138957   2.696   3.883   1.306 -0.1467  0.0065 -0.1005
 9107SOL    HW238958   2.622   4.003   1.346 -0.2243 -1.2024  0.0735
 9108SOL     OW38959   0.439   3.258   4.147 -0.0617  0.6879 -0.2044
 9108SOL    HW138960   0.348   3.274   4.174 -0.8215 -0.5870 -1.9964
 9108SOL    HW238961   0.427   3.205   4.068  0.9957 -0.9192  0.7069
 9109SOL     OW38962   3.965   1.573   3.428 -0.1814 -0.0364 -0.0770
 9109SOL    HW138963   3.992   1.563   3.336  0.0890  1.3352 -0.1467
 9109SOL    HW238964   3.899   1.640   3.410 -0.6034 -0.3968  0.1445
 9110SOL     OW38965   3.435   0.134   7.709 -0.3904  0.3450  0.1953
 9110SOL    HW138966   3.351   0.090   7.718 -0.6197  0.4994 -1.2541
 9110SOL    HW238967   3.432   0.147   7.615 -2.5412  1.6834  0.4552
 9111SOL     OW38968   0.100   3.236   7.787  0.1841  0.6024  0.7264
 9111SOL    HW138969   0.031   3.248   7.851 -1.0543 -0.6996 -0.3740
 9111SOL    HW238970   0.184   3.244   7.833  0.3149  0.1178  0.5672
 9112SOL     OW38971   0.293   0.739   3.926  0.0909  0.8551  0.4759
 9112SOL    HW138972   0.388   0.747   3.918 -0.0813  1.7281 -0.6198
 9112SOL    HW238973   0.280   0.811   3.988  2.8506  1.1563  0.7000
 9113SOL     OW38974   4.260   4.643   2.972 -0.2388 -0.1298 -0.0834
 9113SOL    HW138975   4.192   4.695   3.014 -0.7116 -1.5525  0.9274
 9113SOL    HW238976   4.299   4.712   2.918  0.3837  0.3554  0.9907
 9114SOL     OW38977   2.857   2.011   9.336 -0.4483 -0.0619 -0.4961
 9114SOL    HW138978   2.802   2.015   9.258 -0.8491 -1.0469 -0.2636
 9114SOL    HW238979   2.868   1.916   9.328  0.6009 -0.1124  1.5466
 9115SOL     OW38980   4.718   4.207   2.172  0.0998  0.1243 -0.4697
 9115SOL    HW138981   0.053   4.181   2.115 -0.4830 -2.1311 -0.1546
 9115SOL    HW238982   4.736   4.152   2.248  1.5919 -0.4462 -1.2398
 9116SOL     OW38983   0.833   3.537   3.524  0.1142 -0.2117  0.2873
 9116SOL    HW138984   0.904   3.599   3.503 -1.8947  0.9351 -3.2409
 9116SOL    HW238985   0.878   3.460   3.558 -0.8141 -0.5709  0.6880
 9117SOL     OW38986   3.552   1.416   9.485 -0.1658 -0.3336  0.2238
 9117SOL    HW138987   3.495   1.475   9.534 -0.2306  0.1282 -0.4152
 9117SOL    HW238988   3.543   1.334   9.533 -2.0017  1.5095  3.0063
 9118SOL     OW38989   0.966   4.062   1.384  0.1478  0.1017  0.4058
 9118SOL    HW138990   1.018   4.072   1.305  0.3058 -0.4538  0.4424
 9118SOL    HW238991   0.909   4.137   1.366  1.7239  1.1860 -0.1697
 9119SOL     OW38992   0.531   0.972   8.525  0.0823  0.1616  0.4023
 9119SOL    HW138993   0.458   1.018   8.485  1.1657  1.4059 -0.1361
 9119SOL    HW238994   0.487   0.946   8.606  0.2376 -2.9572 -0.5016
 9120SOL     OW38995   4.592   1.536   9.009 -0.2733 -0.3100 -0.0453
 9120SOL    HW138996   4.641   1.604   8.962 -1.2400 -0.6440 -1.5539
 9120SOL    HW238997   4.663   1.482   9.043  0.2674 -0.8596 -2.0606
 9121SOL     OW38998   2.335   4.519   5.609 -0.5922 -0.1900  0.2412
 9121SOL    HW138999   2.273   4.573   5.659  1.8173  3.0688 -0.2993
 9121SOL    HW239000   2.307   4.548   5.522 -2.9144 -1.3244  0.6185
 9122SOL     OW39001   1.354   1.255   3.686  0.3777 -0.1305 -0.6644
 9122SOL    HW139002   1.296   1.271   3.760 -0.2397  0.1237 -1.2024
 9122SOL    HW239003   1.290   1.240   3.617  0.2017 -0.7104 -0.3661
 9123SOL     OW39004   0.581   1.476   6.380 -0.3564  0.3641 -0.1413
 9123SOL    HW139005   0.497   1.507   6.346 -0.2624 -0.0359 -0.7321
 9123SOL    HW239006   0.573   1.387   6.345  1.9533  0.2854 -0.4670
 9124SOL     OW39007   0.030   2.289   9.069 -0.6182 -0.0797  0.6518
 9124SOL    HW139008   4.686   2.244   9.097 -1.0552  1.5433  1.9816
 9124SOL    HW239009   0.031   2.378   9.102 -0.9500  0.1377  0.0823
 9125SOL     OW39010   3.180   3.373  12.263  0.3097  0.0445  0.3407
 9125SOL    HW139011   3.229   3.409  12.337  2.1810 -1.3275 -0.2496
 9125SOL    HW239012   3.189   3.279  12.281  3.6378  0.3424  0.2104
 9126SOL     OW39013   3.989   3.659   2.998 -0.2924 -0.0246  0.1526
 9126SOL    HW139014   4.080   3.658   3.028  0.6961 -0.3258 -2.7933
 9126SOL    HW239015   3.948   3.644   3.083 -1.6596  0.6458 -0.3888
 9127SOL     OW39016   1.060   2.853   8.783  0.3184  0.1818 -0.3454
 9127SOL    HW139017   0.985   2.879   8.837 -1.2924 -1.9678 -1.5692
 9127SOL    HW239018   1.111   2.812   8.853  1.4076  0.1536 -1.1651
 9128SOL     OW39019   3.450   0.902  12.819 -0.3683  0.2547  0.1029
 9128SOL    HW139020   3.545   0.902  12.807 -0.1552 -0.7963  1.6309
 9128SOL    HW239021   3.450   0.902  12.915 -0.6771 -0.8812  0.1083
 9129SOL     OW39022   3.944   3.526  13.450 -0.0425  0.0577 -0.0779
 9129SOL    HW139023   3.970   3.476  13.526 -0.9802  0.6718  0.6505
 9129SOL    HW239024   3.900   3.600  13.493  1.9785  3.1778 -3.3400
 9130SOL     OW39025   2.749   2.787   1.603 -0.1907 -0.1139 -0.2282
 9130SOL    HW139026   2.783   2.875   1.584 -0.5342 -0.1310 -0.8979
 9130SOL    HW239027   2.805   2.737   1.544  0.5534  1.7695 -1.1068
 9131SOL     OW39028   2.349   3.706   9.095 -0.0025  0.2970  0.0911
 9131SOL    HW139029   2.266   3.728   9.137  0.1029 -1.4567  1.1968
 9131SOL    HW239030   2.382   3.785   9.052 -0.3942 -0.3859 -1.4503
 9132SOL     OW39031   4.539   0.462  16.246  0.3880 -0.5647 -0.0122
 9132SOL    HW139032   4.497   0.512  16.317  1.6855  3.1642 -1.8459
 9132SOL    HW239033   4.469   0.454  16.181  0.7376 -0.0689 -0.4501
 9133SOL     OW39034   3.200   0.999   1.504  0.2274  0.2078 -0.7091
 9133SOL    HW139035   3.141   1.059   1.458  0.9023 -0.4331 -2.4220
 9133SOL    HW239036   3.223   1.056   1.578 -2.5641 -2.0572  1.8875
 9134SOL     OW39037   4.400   2.814   7.427 -0.1815 -0.0233  0.4039
 9134SOL    HW139038   4.435   2.903   7.426  1.8879 -0.8417  0.0117
 9134SOL    HW239039   4.340   2.820   7.353 -1.2547 -3.2584  0.9985
 9135SOL     OW39040   1.002   1.472   6.321 -0.7256  0.1321  0.6531
 9135SOL    HW139041   0.966   1.541   6.266  1.9452  0.9271 -0.0941
 9135SOL    HW239042   0.952   1.392   6.303  1.2128 -1.1224  0.8991
 9136SOL     OW39043   0.372   4.510   4.094 -0.1691 -0.5315  0.4639
 9136SOL    HW139044   0.465   4.488   4.089  0.0627 -0.1097  3.1876
 9136SOL    HW239045   0.364   4.576   4.162 -0.0376  1.0231 -1.0173
 9137SOL     OW39046   1.460   0.553   2.126  0.4867 -0.5054 -0.5205
 9137SOL    HW139047   1.505   0.611   2.187 -0.0820 -1.0044  0.3743
 9137SOL    HW239048   1.454   0.476   2.182 -0.6403 -0.4192 -0.5107
 9138SOL     OW39049   3.548   4.401   7.312  0.1971  0.5845  0.4617
 9138SOL    HW139050   3.466   4.387   7.265 -0.6637  0.8347  1.8947
 9138SOL    HW239051   3.522   4.372   7.400 -1.4834 -0.1580 -0.2842
 9139SOL     OW39052   1.210   4.509  14.998 -0.3896 -0.5201  0.3211
 9139SOL    HW139053   1.287   4.566  15.002 -2.0346  1.5577  2.7863
 9139SOL    HW239054   1.178   4.535  15.085 -0.5924 -1.7016  0.5972
 9140SOL     OW39055   2.750   2.419   5.969 -0.1898 -0.0535  0.3204
 9140SOL    HW139056   2.687   2.386   6.033 -2.0618 -1.2180 -2.1330
 9140SOL    HW239057   2.764   2.334   5.928 -0.6739 -0.1146  0.2814
 9141SOL     OW39058   2.103   2.239  15.448  0.0582  0.6699  0.2081
 9141SOL    HW139059   2.194   2.265  15.436 -0.0237 -0.1418 -2.1259
 9141SOL    HW239060   2.110   2.145  15.463 -0.3473  0.6367  0.2067
 9142SOL     OW39061   1.600   2.006   5.536  0.2521 -0.2303  0.4031
 9142SOL    HW139062   1.556   1.946   5.596 -1.3297  1.1652  0.6214
 9142SOL    HW239063   1.685   2.019   5.577  1.3246 -1.2675 -1.4556
 9143SOL     OW39064   3.596   2.588   4.512  0.1925 -0.1301  0.1830
 9143SOL    HW139065   3.665   2.564   4.573 -0.3205 -0.2071  0.7327
 9143SOL    HW239066   3.642   2.577   4.429  1.2727 -2.2614  1.0761
 9144SOL     OW39067   4.306   1.817   3.450 -0.2142 -0.4448  0.0209
 9144SOL    HW139068   4.252   1.896   3.457  0.1308 -0.2434  0.4527
 9144SOL    HW239069   4.378   1.838   3.389  0.4481  2.0107  1.6496
 9145SOL     OW39070   1.295   4.124  16.734  0.5648  0.3277 -0.2173
 9145SOL    HW139071   1.256   4.200  16.689 -3.1400 -0.5695  1.4315
 9145SOL    HW239072   1.220   4.099  16.788 -0.2146 -0.6215 -1.7245
 9146SOL     OW39073   2.618   2.261   3.798  0.0581  0.1320 -0.1249
 9146SOL    HW139074   2.682   2.330   3.781  0.4592 -0.1761  0.1262
 9146SOL    HW239075   2.648   2.196   3.735  2.7563  0.7321  0.5008
 9147SOL     OW39076   0.898   1.579   2.822 -0.1846  0.5652  0.3792
 9147SOL    HW139077   0.809   1.558   2.851 -0.2699 -0.0152 -0.3159
 9147SOL    HW239078   0.912   1.515   2.752  0.9033 -0.1608  1.2592
 9148SOL     OW39079   3.335   1.502   6.389 -0.2203 -0.4893  0.1057
 9148SOL    HW139080   3.373   1.556   6.458  2.1417 -0.8743 -0.8966
 9148SOL    HW239081   3.285   1.439   6.442  1.9664 -1.8266  0.5577
 9149SOL     OW39082   0.537   2.397   7.204  0.1028 -0.2462  0.0127
 9149SOL    HW139083   0.446   2.394   7.173  0.0843 -0.5866  0.0946
 9149SOL    HW239084   0.556   2.484   7.239  0.8282 -0.7445  0.8285
 9150SOL     OW39085   3.478   3.358  15.773  0.0667  0.4282 -0.2101
 9150SOL    HW139086   3.527   3.397  15.845 -1.3362  0.4105  0.7569
 9150SOL    HW239087   3.548   3.353  15.708 -1.3585  0.7805 -1.7931
 9151SOL     OW39088   3.884   2.935   4.801 -0.2211  0.2798 -0.1908
 9151SOL    HW139089   3.890   3.014   4.855  0.6277 -0.5116  0.8828
 9151SOL    HW239090   3.825   2.954   4.729  1.6191  1.1682 -1.4445
 9152SOL     OW39091   0.174   1.551   7.847  0.7336  0.0204 -0.6399
 9152SOL    HW139092   0.176   1.577   7.755  0.0182  3.5470  0.3146
 9152SOL    HW239093   0.263   1.579   7.866  0.5546  0.6095 -0.6691
 9153SOL     OW39094   2.402   2.364   3.114 -0.3371  0.5855 -0.2866
 9153SOL    HW139095   2.388   2.285   3.166 -0.9489  1.1898  0.4801
 9153SOL    HW239096   2.445   2.426   3.172  1.4353 -0.4394 -0.5225
 9154SOL     OW39097   1.882   0.369  12.761 -0.1610 -0.0851 -0.4874
 9154SOL    HW139098   1.882   0.358  12.666 -2.7235  3.6108 -0.8648
 9154SOL    HW239099   1.816   0.437  12.766  0.2030  0.3636 -1.7616
 9155SOL     OW39100   4.228   0.946   9.135 -0.1738 -0.0296  0.3030
 9155SOL    HW139101   4.295   0.986   9.080  1.0545  0.3668  2.1142
 9155SOL    HW239102   4.162   1.015   9.142 -0.4375 -0.1370 -0.9618
 9156SOL     OW39103   1.886   0.010   5.689  0.1555 -0.2407  0.2427
 9156SOL    HW139104   1.947   0.079   5.661 -0.6748  1.2609  2.1034
 9156SOL    HW239105   1.820   0.049   5.746 -0.3315  0.5570 -0.8618
 9157SOL     OW39106   4.302   3.067  15.787  0.7118  0.3928  0.0551
 9157SOL    HW139107   4.260   2.995  15.739 -1.7780  2.6282 -1.1293
 9157SOL    HW239108   4.262   3.135  15.734  0.5070 -1.4116 -2.1037
 9158SOL     OW39109   1.272   2.299  17.210  0.1956  0.0930 -0.1766
 9158SOL    HW139110   1.321   2.371  17.171 -1.4079  0.5144 -1.3859
 9158SOL    HW239111   1.188   2.336  17.237 -0.0660 -0.4302 -0.2767
 9159SOL     OW39112   2.943   4.207   7.980  0.1585  0.0326  0.7848
 9159SOL    HW139113   2.949   4.229   8.073  0.2751 -3.6669  1.6751
 9159SOL    HW239114   2.868   4.147   7.979  1.6314 -1.7906  1.6364
 9160SOL     OW39115   2.782   4.192  17.548  0.2244  0.2263  0.5666
 9160SOL    HW139116   2.859   4.192  17.492 -0.1772 -0.7919  0.0198
 9160SOL    HW239117   2.712   4.164  17.489  0.5136 -0.5238  0.5789
 9161SOL     OW39118   2.480   2.881   2.757 -0.0705 -0.5215 -0.2782
 9161SOL    HW139119   2.556   2.846   2.803 -1.0437  0.2212  1.9045
 9161SOL    HW239120   2.409   2.828   2.794 -0.7561 -0.2373 -1.1895
 9162SOL     OW39121   0.835   3.968   2.910  0.2896  0.3677  0.1067
 9162SOL    HW139122   0.894   3.905   2.951  0.7895  0.2944 -0.7284
 9162SOL    HW239123   0.773   3.984   2.982 -3.2515  0.8354 -3.0366
 9163SOL     OW39124   3.439   4.385  13.718  0.4090 -0.2592 -0.0461
 9163SOL    HW139125   3.438   4.449  13.789  0.9123  1.9172 -2.0119
 9163SOL    HW239126   3.390   4.432  13.652 -0.5279  0.0111  0.8456
 9164SOL     OW39127   4.334   3.328   8.127 -0.3707  0.3100  0.3080
 9164SOL    HW139128   4.333   3.418   8.159  0.2876  0.1825  0.6821
 9164SOL    HW239129   4.240   3.312   8.137 -0.1690 -1.0441 -0.0525
 9165SOL     OW39130   3.070   2.959   1.518  0.1631 -0.7490  0.1665
 9165SOL    HW139131   3.077   3.054   1.525  1.2339 -0.7766 -0.5085
 9165SOL    HW239132   3.114   2.930   1.598  2.1441  2.3123  0.1963
 9166SOL     OW39133   3.591   0.873  15.653  0.0670 -0.1757  0.7929
 9166SOL    HW139134   3.525   0.930  15.691  1.0915 -0.0393  2.3425
 9166SOL    HW239135   3.586   0.907  15.563 -3.2530 -0.1119  0.9980
 9167SOL     OW39136   4.024   0.867   6.771  0.3356  0.0623 -0.1949
 9167SOL    HW139137   4.028   0.800   6.703  0.7835 -0.5012  0.3906
 9167SOL    HW239138   3.973   0.826   6.841 -1.6415 -0.6976 -2.0754
 9168SOL     OW39139   2.873   0.469   4.805 -0.0882  0.4639  0.3034
 9168SOL    HW139140   2.940   0.530   4.775 -1.6160  1.1834 -1.6454
 9168SOL    HW239141   2.914   0.442   4.888 -0.4813  1.2911  0.7691
 9169SOL     OW39142   0.504   0.642   4.375  0.4456  0.6908 -0.0577
 9169SOL    HW139143   0.483   0.719   4.427 -0.6319 -0.3935  1.1012
 9169SOL    HW239144   0.495   0.572   4.439  1.4901  0.8962  0.3133
 9170SOL     OW39145   3.631   3.590   3.830 -0.5441 -0.3099  0.3338
 9170SOL    HW139146   3.561   3.555   3.775  0.4093 -0.6367 -0.6719
 9170SOL    HW239147   3.649   3.512   3.883 -0.7302  0.8643  2.1404
 9171SOL     OW39148   2.094   2.787   3.869 -0.0879  0.5244 -0.3250
 9171SOL    HW139149   2.109   2.881   3.869 -0.8641  0.6563 -2.8370
 9171SOL    HW239150   2.038   2.789   3.946  1.2941 -1.4632  0.7399
 9172SOL     OW39151   1.708   4.127   7.211 -0.8932  0.6678  0.1073
 9172SOL    HW139152   1.663   4.194   7.159 -0.7158 -0.1986 -1.1628
 9172SOL    HW239153   1.754   4.180   7.277 -0.9378  0.7990  0.0337
 9173SOL     OW39154   2.674   0.176   5.831  0.3563  1.1298 -0.1108
 9173SOL    HW139155   2.637   0.127   5.758  2.7950  2.6202 -2.3276
 9173SOL    HW239156   2.623   0.143   5.906 -0.7053 -0.3733 -1.5123
 9174SOL     OW39157   4.572   1.312   1.458 -0.1395  0.1377 -0.2273
 9174SOL    HW139158   4.633   1.240   1.445  0.6357  0.6662  0.4881
 9174SOL    HW239159   4.506   1.253   1.494  0.0711  0.9566  1.5419
 9175SOL     OW39160   3.905   4.510   7.643 -0.0534  0.2154 -0.0979
 9175SOL    HW139161   3.887   4.416   7.644  1.4159 -0.0824 -0.5576
 9175SOL    HW239162   3.878   4.538   7.730  0.9276  1.3798 -0.1662
 9176SOL     OW39163   0.998   4.037   4.745  0.1557 -0.4500 -0.6658
 9176SOL    HW139164   0.908   4.017   4.720 -1.3839  2.4078  2.6488
 9176SOL    HW239165   1.020   4.082   4.663  0.8717 -0.7598 -0.6510
 9177SOL     OW39166   3.090   3.534   7.945  0.1362 -0.0555  0.1984
 9177SOL    HW139167   3.013   3.533   7.889  1.3166 -2.7211 -1.3862
 9177SOL    HW239168   3.050   3.480   8.014 -3.1091  1.5976 -0.4067
 9178SOL     OW39169   2.419   1.111   7.663 -0.4420 -0.3548 -0.1425
 9178SOL    HW139170   2.408   1.066   7.747 -0.0182 -2.8000 -1.4031
 9178SOL    HW239171   2.437   1.200   7.695 -0.5767 -0.3158 -0.1754
 9179SOL     OW39172   1.566   0.613   8.633 -0.6219  0.1043  0.7186
 9179SOL    HW139173   1.490   0.668   8.651 -0.2799  0.4507  1.1248
 9179SOL    HW239174   1.558   0.600   8.539 -1.6018  0.0348  0.8196
 9180SOL     OW39175   0.850   4.565  10.591 -0.0161  0.1240  0.0037
 9180SOL    HW139176   0.812   4.538  10.675 -0.5199 -0.8459 -0.5319
 9180SOL    HW239177   0.850   4.658  10.610 -0.1957 -0.1795  1.5173
 9181SOL     OW39178   2.635   2.399  17.181  0.5975 -0.3257  0.5722
 9181SOL    HW139179   2.577   2.372  17.111  1.3585  1.6955 -0.8674
 9181SOL    HW239180   2.716   2.355  17.155  1.4437  1.0938  0.7689
 9182SOL     OW39181   3.995   2.236   9.544  0.0464  0.5510 -1.3181
 9182SOL    HW139182   3.995   2.157   9.491  1.7018  0.4604 -1.2016
 9182SOL    HW239183   4.016   2.199   9.630 -0.0770  0.4974 -1.3116
 9183SOL     OW39184   3.430   0.750  11.323 -0.1354  0.5892 -1.0830
 9183SOL    HW139185   3.501   0.767  11.262  0.0961 -0.6532 -1.1531
 9183SOL    HW239186   3.391   0.837  11.325  1.8468  1.3916  2.9966
 9184SOL     OW39187   2.387   2.065   8.399  0.5268  0.2085 -0.0810
 9184SOL    HW139188   2.428   2.048   8.314  1.8874  0.9444  0.4261
 9184SOL    HW239189   2.296   2.039   8.389  1.4014 -1.6618 -3.2146
 9185SOL     OW39190   2.657   3.171   2.836  0.1051 -0.6303 -0.3849
 9185SOL    HW139191   2.609   3.222   2.901 -1.1988 -1.6945 -0.5012
 9185SOL    HW239192   2.582   3.138   2.786 -0.0552  1.1403 -1.3013
 9186SOL     OW39193   1.424   3.247   6.621 -0.1622 -0.2771 -0.5708
 9186SOL    HW139194   1.504   3.213   6.660  0.0915  0.8295 -0.1163
 9186SOL    HW239195   1.360   3.216   6.684  0.5374 -0.8150 -0.1263
 9187SOL     OW39196   0.213   1.670  11.767  0.2477 -0.1222  0.3740
 9187SOL    HW139197   0.305   1.675  11.741 -0.5026 -0.8281 -2.4248
 9187SOL    HW239198   0.219   1.600  11.831  1.3849  0.1741  0.5888
 9188SOL     OW39199   2.383   3.280   0.778  0.5061 -0.2065 -0.8455
 9188SOL    HW139200   2.303   3.300   0.728 -0.2892  0.2970  0.6095
 9188SOL    HW239201   2.433   3.244   0.705 -0.7994 -1.5364 -1.0999
 9189SOL     OW39202   1.298   1.329   0.478  0.0122 -0.2492  0.7007
 9189SOL    HW139203   1.388   1.343   0.451 -0.0258  0.4717  0.9642
 9189SOL    HW239204   1.268   1.419   0.474 -2.3831 -1.1500 -1.5356
 9190SOL     OW39205   2.560   3.397   6.256 -0.2926 -0.2439 -0.2720
 9190SOL    HW139206   2.523   3.411   6.169 -1.2697 -1.2881 -0.0273
 9190SOL    HW239207   2.510   3.469   6.296 -0.5775 -1.2825  1.2442
 9191SOL     OW39208   3.296   4.075   6.863  0.2841 -0.2024  0.3347
 9191SOL    HW139209   3.322   4.058   6.953 -0.8405  1.5098  0.9778
 9191SOL    HW239210   3.298   4.171   6.864  1.7173 -0.2194 -0.6613
 9192SOL     OW39211   2.976   3.295  11.002  0.6961 -0.4194  0.2408
 9192SOL    HW139212   3.050   3.334  11.050  1.3699 -2.8746  1.2252
 9192SOL    HW239213   2.963   3.214  11.052  0.9771 -0.6772 -0.0989
 9193SOL     OW39214   3.232   1.313   8.113 -0.1253 -0.1916  0.0279
 9193SOL    HW139215   3.268   1.253   8.048 -0.4729 -2.2521  1.7397
 9193SOL    HW239216   3.319   1.340   8.143 -0.6152 -2.5276  3.5765
 9194SOL     OW39217   1.216   3.116   6.417  0.2520 -0.1052  0.2052
 9194SOL    HW139218   1.267   3.035   6.423  1.6195  0.5686 -2.3474
 9194SOL    HW239219   1.250   3.158   6.496 -1.6283 -2.1391  2.0890
 9195SOL     OW39220   4.402   0.775   8.520  0.0408 -0.4311  0.1358
 9195SOL    HW139221   4.359   0.730   8.448 -0.6477 -2.3047  1.7109
 9195SOL    HW239222   4.487   0.732   8.526  1.1340  1.5026 -1.9274
 9196SOL     OW39223   1.949   4.235   3.396 -0.5307  0.1758  0.2078
 9196SOL    HW139224   1.933   4.312   3.342  0.1532  0.2512  0.1175
 9196SOL    HW239225   1.940   4.161   3.335 -2.3075  0.1774  0.4637
 9197SOL     OW39226   4.497   0.739   7.897 -0.0382  0.4362 -0.4626
 9197SOL    HW139227   4.439   0.701   7.832  0.6421 -1.7024  0.1792
 9197SOL    HW239228   4.456   0.824   7.912 -2.1516 -0.8019  0.6990
 9198SOL     OW39229   1.651   2.441   4.233  0.0194 -0.2176 -0.5617
 9198SOL    HW139230   1.644   2.500   4.307 -0.3619  1.6969 -2.1371
 9198SOL    HW239231   1.704   2.488   4.169 -0.4492  1.4153  0.2608
 9199SOL     OW39232   1.834   0.641   1.342  0.4687  0.0073 -0.1251
 9199SOL    HW139233   1.857   0.647   1.250  2.7908 -0.1103  0.4508
 9199SOL    HW239234   1.924   0.627   1.371  0.9098  0.5063 -1.2646
 9200SOL     OW39235   4.497   2.653   8.824 -0.0993 -0.3865  0.2565
 9200SOL    HW139236   4.434   2.614   8.885 -2.6308  1.9207 -0.9299
 9200SOL    HW239237   4.474   2.608   8.743 -1.1706 -2.2606  1.5932
 9201SOL     OW39238   1.432   2.633  14.381 -0.0502 -0.1331 -0.1472
 9201SOL    HW139239   1.475   2.552  14.352 -0.4130 -0.6713  0.7879
 9201SOL    HW239240   1.409   2.676  14.299  1.5228  0.5322 -0.2376
 9202SOL     OW39241   3.274   4.379   2.546  0.3770 -0.2953 -0.6068
 9202SOL    HW139242   3.368   4.393   2.536  0.5998 -1.6139 -0.2907
 9202SOL    HW239243   3.258   4.285   2.558  0.9892 -0.2351  0.7871
 9203SOL     OW39244   1.678   2.781  13.987 -0.1409 -0.1734  0.7936
 9203SOL    HW139245   1.711   2.727  13.915  1.5155 -2.7345  3.4619
 9203SOL    HW239246   1.703   2.740  14.070 -0.8675 -0.6525  0.7753
 9204SOL     OW39247   2.769   3.796  16.723 -0.3761 -0.2958  0.0548
 9204SOL    HW139248   2.742   3.741  16.650  0.8650 -1.7513  0.7060
 9204SOL    HW239249   2.696   3.777  16.782  0.2513 -0.7318  0.6826
 9205SOL     OW39250   0.458   1.793   6.511  0.3665  0.3058 -0.4409
 9205SOL    HW139251   0.381   1.784   6.455  0.5910  1.2628 -0.9031
 9205SOL    HW239252   0.423   1.805   6.599  1.9589  2.9053 -0.1522
 9206SOL     OW39253   2.228   4.323   5.136 -0.0549  0.4276  0.1260
 9206SOL    HW139254   2.302   4.287   5.185  0.1963  0.3377 -0.3145
 9206SOL    HW239255   2.158   4.278   5.182  1.4413 -1.9998  0.0691
 9207SOL     OW39256   2.993   3.962   4.246 -0.1737  0.1718  0.3730
 9207SOL    HW139257   2.927   4.019   4.206 -0.4874 -0.9354 -0.6634
 9207SOL    HW239258   3.074   4.012   4.230  1.1811 -2.5417 -1.2686
 9208SOL     OW39259   2.981   1.393  12.365 -0.1041 -0.5628  0.1871
 9208SOL    HW139260   2.915   1.455  12.333 -0.3441 -2.2139 -2.5018
 9208SOL    HW239261   2.999   1.414  12.457  2.9861 -3.1349  0.1563
 9209SOL     OW39262   4.447   4.020   3.170  0.4218  0.2588 -0.3180
 9209SOL    HW139263   4.427   3.979   3.254  1.2182  0.1590 -0.1723
 9209SOL    HW239264   4.398   4.102   3.175  1.2069  0.8469 -2.0625
 9210SOL     OW39265   3.706   1.292   3.806  0.1341  0.0249  0.0384
 9210SOL    HW139266   3.696   1.384   3.780  1.8285 -0.7157 -3.2391
 9210SOL    HW239267   3.790   1.264   3.769  1.2026  1.1615  1.5685
 9211SOL     OW39268   2.683   0.154   3.877  0.2320  0.2862  0.0074
 9211SOL    HW139269   2.635   0.074   3.852  2.6535 -1.1128 -0.1642
 9211SOL    HW239270   2.756   0.128   3.932  0.6229 -0.2404 -0.7541
 9212SOL     OW39271   1.586   2.677   1.164 -0.4495 -0.7291  0.4042
 9212SOL    HW139272   1.650   2.710   1.227  0.7516  0.7542 -1.6072
 9212SOL    HW239273   1.620   2.719   1.085  0.8380  1.1246  1.9608
 9213SOL     OW39274   1.903   3.802   7.449 -0.6284 -0.3125  0.0282
 9213SOL    HW139275   1.894   3.830   7.540 -0.7078  0.2764 -0.1651
 9213SOL    HW239276   1.945   3.877   7.408 -0.0952 -0.3167  0.5551
 9214SOL     OW39277   1.163   1.111   4.941  0.0563  0.4457  0.1882
 9214SOL    HW139278   1.222   1.182   4.967 -0.1811  1.6536 -2.5473
 9214SOL    HW239279   1.225   1.069   4.881 -0.2152  0.6797 -0.2615
 9215SOL     OW39280   3.946   1.302   2.199  0.0117 -0.2549 -0.5504
 9215SOL    HW139281   3.993   1.353   2.133 -0.5309 -0.3368 -0.9991
 9215SOL    HW239282   4.010   1.301   2.271  0.5418  1.3466 -0.9858
 9216SOL     OW39283   1.877   0.366   7.023  0.1648 -0.1685 -0.1177
 9216SOL    HW139284   1.802   0.414   6.987  0.0058 -0.5603 -0.3136
 9216SOL    HW239285   1.884   0.303   6.951  1.2458  1.0060 -1.0351
 9217SOL     OW39286   4.695   1.983   3.082  0.7098  0.1623  0.1907
 9217SOL    HW139287   4.665   1.916   3.021 -0.5949  0.6671  0.2686
 9217SOL    HW239288   0.051   1.966   3.099  0.6449 -1.7890 -1.3673
 9218SOL     OW39289   4.404   3.131   5.530 -0.0131 -0.1071 -0.5725
 9218SOL    HW139290   4.427   3.090   5.446 -1.2085  0.0211 -0.9675
 9218SOL    HW239291   4.465   3.085   5.587  0.8254  0.6990 -0.8244
 9219SOL     OW39292   0.480   0.047  17.061  0.2948  0.2701  0.5671
 9219SOL    HW139293   0.431   0.130  17.067 -0.2910 -0.0339 -0.0369
 9219SOL    HW239294   0.564   0.073  17.099 -0.3867  1.5093  1.2598
 9220SOL     OW39295   1.942   4.650   5.455  0.0348 -0.1283 -0.3656
 9220SOL    HW139296   1.901   4.727   5.416 -0.3166  0.4498  1.1319
 9220SOL    HW239297   1.913   4.668   5.545  3.7192 -3.7398  1.4999
 9221SOL     OW39298   2.005   1.394   6.296  0.1260  1.0112  0.1118
 9221SOL    HW139299   1.955   1.313   6.298  1.2662  0.3446  1.1539
 9221SOL    HW239300   1.964   1.446   6.365  1.3725 -0.1065  1.6835
 9222SOL     OW39301   1.638   0.724   1.940  0.2774  0.0812  0.0134
 9222SOL    HW139302   1.571   0.676   1.990 -0.6617  0.9063 -0.4577
 9222SOL    HW239303   1.620   0.686   1.855  1.6449 -2.0025  0.6520
 9223SOL     OW39304   2.135   4.307   8.297  0.0749  0.2479  0.5863
 9223SOL    HW139305   2.143   4.396   8.332  1.9006  0.4091 -0.2327
 9223SOL    HW239306   2.139   4.256   8.378 -1.1334  0.6325  0.8962
 9224SOL     OW39307   0.766   2.395   5.216  0.1146  0.1434  0.5290
 9224SOL    HW139308   0.684   2.352   5.191  0.5096  0.8132 -1.8776
 9224SOL    HW239309   0.831   2.342   5.169 -1.9819 -1.5442 -0.4575
 9225SOL     OW39310   4.422   3.389   2.435  0.0137 -0.3344 -0.1035
 9225SOL    HW139311   4.367   3.402   2.358  0.7483  0.4328 -0.5012
 9225SOL    HW239312   4.435   3.479   2.464 -0.1397  0.0511 -1.2411
 9226SOL     OW39313   1.637   0.471   1.469  0.5599  0.3534  0.2133
 9226SOL    HW139314   1.695   0.525   1.416  0.5650 -0.6706 -0.8480
 9226SOL    HW239315   1.577   0.445   1.398  1.3828  0.9941 -0.7135
 9227SOL     OW39316   0.104   3.042   9.002 -0.6337  0.0176 -0.2323
 9227SOL    HW139317   0.015   3.013   9.021 -0.9639  0.0396 -1.7317
 9227SOL    HW239318   0.095   3.136   9.017 -1.3070  0.1503 -1.5287
 9228SOL     OW39319   3.751   3.836  17.228  0.1175  0.3317 -0.1686
 9228SOL    HW139320   3.731   3.927  17.252  1.2091  1.1560 -2.4140
 9228SOL    HW239321   3.733   3.785  17.307  0.8039 -0.2955 -0.4277
 9229SOL     OW39322   0.051   0.704   2.332 -0.3011 -0.0694 -0.3385
 9229SOL    HW139323   0.082   0.677   2.419 -1.6762 -1.5564 -0.3075
 9229SOL    HW239324   0.063   0.799   2.338 -1.0480  0.0119 -0.0975
 9230SOL     OW39325   4.324   1.235   7.201  0.1096  0.0573  0.5770
 9230SOL    HW139326   4.231   1.246   7.180  0.2210 -1.1091 -0.5218
 9230SOL    HW239327   4.368   1.227   7.116  0.7741  2.7551  0.6682
 9231SOL     OW39328   3.862   0.900   6.207 -0.3502 -0.2793  0.4302
 9231SOL    HW139329   3.918   0.874   6.280 -1.0444 -0.8389  0.7694
 9231SOL    HW239330   3.828   0.813   6.182  0.8158 -0.5683 -0.1305
 9232SOL     OW39331   2.985   3.664   3.797 -0.1033 -0.1329 -0.2238
 9232SOL    HW139332   3.023   3.633   3.715  0.5043  1.5374 -0.5789
 9232SOL    HW239333   3.059   3.658   3.857 -0.5291 -1.4263  0.1539
 9233SOL     OW39334   1.129   3.978   3.493  0.2353  0.5211  0.1895
 9233SOL    HW139335   1.214   3.954   3.456 -0.8009  0.2226 -1.9986
 9233SOL    HW239336   1.159   4.037   3.563  1.0070  1.1411 -0.6565
 9234SOL     OW39337   3.859   4.305   9.133 -0.3586  0.0449  0.2853
 9234SOL    HW139338   3.887   4.389   9.168 -0.5184  0.0973  0.2864
 9234SOL    HW239339   3.836   4.312   9.040 -0.2192  0.2568  0.2688
 9235SOL     OW39340   0.301   0.038   6.671 -0.5357  0.2983 -0.1075
 9235SOL    HW139341   0.298   4.690   6.627 -1.5327  0.0409  0.4638
 9235SOL    HW239342   0.391   0.036   6.704 -0.5381  0.7783 -0.0689
 9236SOL     OW39343   4.291   3.340  16.662  0.0212 -0.7696  1.1095
 9236SOL    HW139344   4.317   3.359  16.753 -1.8078  0.3793  1.3752
 9236SOL    HW239345   4.236   3.416  16.645  0.8903 -0.8802 -2.1139
 9237SOL     OW39346   1.364   4.635   2.296  0.6287  0.0404  0.0401
 9237SOL    HW139347   1.410   4.579   2.233  2.5669  0.7030  0.8803
 9237SOL    HW239348   1.276   4.636   2.258  0.4966  1.8844  0.4236
 9238SOL     OW39349   0.903   3.064   8.130  0.0587  0.2703  0.2280
 9238SOL    HW139350   0.827   3.110   8.095 -0.8509  0.0660  1.9680
 9238SOL    HW239351   0.946   3.142   8.165  0.7782 -0.3872  0.8055
 9239SOL     OW39352   1.704   2.588   4.620 -0.4883 -0.3956  0.4750
 9239SOL    HW139353   1.673   2.644   4.691  2.1160  1.3563  0.2222
 9239SOL    HW239354   1.795   2.615   4.610 -0.1606 -2.0963 -1.0354
 9240SOL     OW39355   2.411   1.257  14.534 -0.4777  0.5902  0.5309
 9240SOL    HW139356   2.382   1.347  14.517 -0.5580  0.7576  1.5426
 9240SOL    HW239357   2.433   1.215  14.451 -1.6161  1.6735 -0.3145
 9241SOL     OW39358   0.336   4.214   3.982  0.1425  0.2263 -0.2192
 9241SOL    HW139359   0.282   4.289   4.006  0.1390  0.2830 -0.4008
 9241SOL    HW239360   0.424   4.238   4.012  0.0704 -0.6433  0.6953
 9242SOL     OW39361   1.925   1.096   2.949 -0.3578 -0.9835  0.4978
 9242SOL    HW139362   1.869   1.025   2.980 -2.0326 -0.2589 -0.8736
 9242SOL    HW239363   1.874   1.135   2.877  2.4022  2.9176  0.6866
 9243SOL     OW39364   0.408   2.098   4.773  0.1780  0.7084  0.1951
 9243SOL    HW139365   0.457   2.017   4.759  0.7210  0.6356  2.4464
 9243SOL    HW239366   0.364   2.078   4.855  1.6799  1.3563  1.1591
 9244SOL     OW39367   0.428   4.017   7.750 -0.4458 -0.1223 -0.5589
 9244SOL    HW139368   0.412   4.075   7.676 -0.2089  3.2323  1.9927
 9244SOL    HW239369   0.510   4.050   7.788 -0.4500 -0.6154 -0.1203
 9245SOL     OW39370   4.291   3.402   9.444  0.2358 -0.1164 -0.1267
 9245SOL    HW139371   4.200   3.421   9.467 -0.3834 -0.0501 -2.6407
 9245SOL    HW239372   4.285   3.447   9.359  0.0487  3.4638  1.7734
 9246SOL     OW39373   4.703   2.738   7.478 -0.0284 -0.0952  0.2997
 9246SOL    HW139374   4.722   2.804   7.546  2.0766 -0.3946  0.0139
 9246SOL    HW239375   4.668   2.660   7.520  0.3515 -0.7994 -0.7198
 9247SOL     OW39376   1.908   0.616   4.703  0.2824  1.0221 -0.0764
 9247SOL    HW139377   1.863   0.600   4.786  2.3063 -0.0620  0.8070
 9247SOL    HW239378   1.981   0.555   4.713 -1.3084 -0.7875  0.3237
 9248SOL     OW39379   1.702   0.554   3.456  0.2305 -0.5728 -0.0436
 9248SOL    HW139380   1.666   0.601   3.532  0.2747 -0.9124  0.1858
 9248SOL    HW239381   1.637   0.493   3.421 -0.2380  0.0896 -0.3283
 9249SOL     OW39382   4.718   4.652  17.416 -0.0822 -0.0086  0.1401
 9249SOL    HW139383   4.679   4.581  17.467 -0.3780 -0.9358 -1.3907
 9249SOL    HW239384   4.689   4.731  17.463  3.2003  0.8921  0.7097
 9250SOL     OW39385   2.780   0.737   6.578  0.3685  0.1473  0.3151
 9250SOL    HW139386   2.792   0.800   6.648 -3.1138  1.1764 -0.0034
 9250SOL    HW239387   2.711   0.782   6.530  0.9138 -1.4869 -2.0241
 9251SOL     OW39388   0.116   2.510   6.861 -0.1492  0.0105 -0.9101
 9251SOL    HW139389   0.040   2.452   6.848 -1.7882  2.8518 -3.8437
 9251SOL    HW239390   0.172   2.435   6.882 -2.1536 -1.1569  0.3738
 9252SOL     OW39391   2.087   0.012   6.072 -0.6061  0.3239  0.0846
 9252SOL    HW139392   2.141   4.731   6.149  0.1000 -0.7950 -0.6622
 9252SOL    HW239393   2.096   0.108   6.066 -1.5655  0.4358  0.4787
 9253SOL     OW39394   0.509   1.221   3.234  0.1231  1.3817  0.5899
 9253SOL    HW139395   0.509   1.298   3.177  1.4031  0.8301 -0.1578
 9253SOL    HW239396   0.518   1.270   3.316 -0.0559  1.4646  0.5610
 9254SOL     OW39397   0.892   2.020   2.890 -0.1218 -0.5984  0.6284
 9254SOL    HW139398   0.934   1.946   2.846  1.0093  1.1843 -1.2680
 9254SOL    HW239399   0.836   1.971   2.951 -0.1208 -0.3404  0.8365
 9255SOL     OW39400   4.514   4.188   7.490 -0.6117 -0.1659  0.5562
 9255SOL    HW139401   4.468   4.229   7.417 -0.1765  0.2780  0.5273
 9255SOL    HW239402   4.458   4.119   7.524 -0.8799 -1.1565 -1.9197
 9256SOL     OW39403   1.506   4.267   8.116  0.0915 -0.0487 -0.2161
 9256SOL    HW139404   1.488   4.323   8.041  0.0218 -3.1858 -2.5228
 9256SOL    HW239405   1.580   4.311   8.159 -1.2532  1.1202  0.8811
 9257SOL     OW39406   2.533   1.061   1.308 -0.1811 -0.4289  0.1739
 9257SOL    HW139407   2.466   1.060   1.376  0.4348  0.6476  0.7997
 9257SOL    HW239408   2.610   1.032   1.357  0.2299 -1.5707 -1.1619
 9258SOL     OW39409   1.716   3.067  13.986  0.6440 -0.2547 -0.2592
 9258SOL    HW139410   1.795   3.051  13.935 -0.9381 -2.0496 -2.1391
 9258SOL    HW239411   1.680   2.979  13.974 -0.0642  0.3156 -2.3534
 9259SOL     OW39412   3.629   1.747  12.572 -0.2238 -0.4027  0.3676
 9259SOL    HW139413   3.571   1.787  12.637  1.8570  1.4047  1.1070
 9259SOL    HW239414   3.572   1.725  12.498 -0.9377 -1.3484  1.2156
 9260SOL     OW39415   2.986   4.296   6.104  0.1736  0.3051  0.3611
 9260SOL    HW139416   2.925   4.350   6.053  2.1010  1.9333 -0.2250
 9260SOL    HW239417   2.935   4.216   6.095 -1.6083  1.2280  2.4519
 9261SOL     OW39418   2.963   0.362   3.095  0.3061  0.1044  0.3518
 9261SOL    HW139419   3.019   0.294   3.133 -2.2112 -0.8769  2.3488
 9261SOL    HW239420   2.942   0.418   3.170 -1.0125  1.9063 -1.3774
 9262SOL     OW39421   1.575   0.685   4.072  0.2016  0.4188 -0.4013
 9262SOL    HW139422   1.595   0.620   4.004 -0.9336 -1.9595  1.5010
 9262SOL    HW239423   1.542   0.759   4.022 -4.1440 -0.4613  1.1867
 9263SOL     OW39424   3.486   2.530   9.678  0.3929  0.2053 -0.1026
 9263SOL    HW139425   3.561   2.478   9.707  0.0097 -0.9354 -1.1203
 9263SOL    HW239426   3.406   2.483   9.698  0.5621 -0.4714 -0.9722
 9264SOL     OW39427   3.817   1.649   6.365 -0.4787 -0.2145 -0.1302
 9264SOL    HW139428   3.856   1.617   6.446  1.7494  0.2872 -1.0102
 9264SOL    HW239429   3.856   1.583   6.308 -2.1154 -0.6906 -0.6880
 9265SOL     OW39430   2.118   4.110  10.808  0.1370  0.1314 -0.2870
 9265SOL    HW139431   2.038   4.162  10.807  0.9806  1.4257 -1.1877
 9265SOL    HW239432   2.093   4.025  10.772 -0.3050  0.2806 -0.3216
 9266SOL     OW39433   0.466   0.836   6.074  0.7098  0.3719  0.2847
 9266SOL    HW139434   0.463   0.742   6.089 -1.2744  0.0094 -2.4171
 9266SOL    HW239435   0.505   0.865   6.157  2.4124 -0.7760 -0.1033
 9267SOL     OW39436   2.689   1.134   3.085  0.2207  0.2837 -0.2637
 9267SOL    HW139437   2.699   1.040   3.072  1.2533 -0.0411  2.8997
 9267SOL    HW239438   2.595   1.142   3.070  0.0065 -0.1306  0.8160
 9268SOL     OW39439   1.558   2.717   7.633  0.5260 -0.4729  0.0510
 9268SOL    HW139440   1.520   2.629   7.629 -0.8921  0.1732 -0.8069
 9268SOL    HW239441   1.505   2.770   7.574  1.1045  1.5493  1.3453
 9269SOL     OW39442   3.502   0.659   4.987  0.3952  0.1839  0.0265
 9269SOL    HW139443   3.459   0.659   4.902 -0.1302  1.4165  0.2973
 9269SOL    HW239444   3.468   0.580   5.029 -1.9605  0.7320 -0.8250
 9270SOL     OW39445   1.094   3.477   7.812 -0.3620 -0.3427 -0.5406
 9270SOL    HW139446   1.181   3.486   7.772  0.1993 -2.8341  0.1478
 9270SOL    HW239447   1.110   3.399   7.865 -1.5290  0.9051  1.6403
 9271SOL     OW39448   2.608   0.285   6.846  1.0801 -0.2041 -0.0876
 9271SOL    HW139449   2.671   0.258   6.780  1.1880  0.5081 -0.2784
 9271SOL    HW239450   2.603   0.377   6.820  0.6463 -0.2888 -0.3041
 9272SOL     OW39451   3.784   1.316   4.447 -0.9256 -0.2405 -0.4468
 9272SOL    HW139452   3.695   1.342   4.467 -0.2604  1.1285  0.6941
 9272SOL    HW239453   3.789   1.333   4.353 -0.3756  3.0746  0.1936
 9273SOL     OW39454   3.228   0.374   7.472 -0.1049  0.3757  0.2665
 9273SOL    HW139455   3.202   0.362   7.563 -1.3467 -1.2512 -0.3306
 9273SOL    HW239456   3.191   0.291   7.444 -0.8648 -0.0903  2.6268
 9274SOL     OW39457   2.219   1.951  15.492  0.0457 -0.3375  0.0755
 9274SOL    HW139458   2.307   1.988  15.492 -0.9021  1.8913  1.0149
 9274SOL    HW239459   2.197   1.967  15.584  2.0123  0.8360  0.3408
 9275SOL     OW39460   2.522   3.538   2.832 -0.3822 -0.6968  0.3296
 9275SOL    HW139461   2.484   3.463   2.787  1.5023 -1.7455  0.4719
 9275SOL    HW239462   2.457   3.607   2.823 -0.1078 -0.4272  0.3872
 9276SOL     OW39463   3.747   3.209   5.904  0.7167 -0.0275  0.1015
 9276SOL    HW139464   3.732   3.278   5.970  2.1469 -1.1041  1.5648
 9276SOL    HW239465   3.751   3.253   5.820  1.5535  1.2954  0.8285
 9277SOL     OW39466   3.146   0.904   9.672 -0.3723 -0.0547 -0.7144
 9277SOL    HW139467   3.186   0.967   9.611 -0.4406  0.1559 -0.5396
 9277SOL    HW239468   3.188   0.828   9.631  0.1578  1.1260 -2.3867
 9278SOL     OW39469   4.514   1.970   3.307  0.0585 -0.0584  0.1454
 9278SOL    HW139470   4.432   2.013   3.284 -0.5165 -0.5351  1.3506
 9278SOL    HW239471   4.562   1.979   3.224  0.9663  0.5461  0.7322
 9279SOL     OW39472   3.052   3.694   7.206 -0.0679  0.3477  0.4173
 9279SOL    HW139473   2.969   3.706   7.159 -0.1868  0.2077  0.5937
 9279SOL    HW239474   3.102   3.770   7.177  1.7602 -0.3673  1.6685
 9280SOL     OW39475   2.146   2.027  14.681  0.1100 -0.4865 -1.2439
 9280SOL    HW139476   2.233   2.064  14.696  1.5253 -4.2459 -0.0372
 9280SOL    HW239477   2.121   2.050  14.592 -0.7526  0.5391 -0.7371
 9281SOL     OW39478   1.480   3.323   9.977  0.0156 -0.8295  0.3332
 9281SOL    HW139479   1.393   3.296   9.948 -0.3081  1.2756 -0.7268
 9281SOL    HW239480   1.494   3.266  10.052  0.3434 -0.2825  0.6929
 9282SOL     OW39481   1.572   1.304  15.755 -0.5769 -0.1405 -0.2385
 9282SOL    HW139482   1.660   1.306  15.792 -0.7445 -1.3084  0.2066
 9282SOL    HW239483   1.561   1.210  15.743  1.5210 -0.8007  3.0813
 9283SOL     OW39484   0.363   4.149   1.852 -0.4057  0.1805  0.1476
 9283SOL    HW139485   0.387   4.132   1.943 -2.0340  0.6133  0.6722
 9283SOL    HW239486   0.443   4.121   1.809 -0.8320 -1.8112  0.6834
 9284SOL     OW39487   3.102   3.131   3.960  0.0796  0.1621 -0.1589
 9284SOL    HW139488   3.132   3.159   4.047 -1.9490 -0.1133  0.6463
 9284SOL    HW239489   3.052   3.053   3.986  2.0490  0.0446  3.2984
 9285SOL     OW39490   1.365   2.528  17.058  0.1040 -0.1547 -0.2757
 9285SOL    HW139491   1.428   2.596  17.034 -0.3195  0.1857 -0.4153
 9285SOL    HW239492   1.292   2.583  17.086 -1.0218 -0.8409 -1.8844
 9286SOL     OW39493   3.574   0.604  11.102 -0.0042 -0.2669  0.0701
 9286SOL    HW139494   3.648   0.601  11.162 -0.1039 -2.7929  0.0711
 9286SOL    HW239495   3.609   0.598  11.012 -1.4609 -1.0494 -0.4434
 9287SOL     OW39496   4.521   3.450   2.759 -0.0696 -0.6346  0.2613
 9287SOL    HW139497   4.501   3.540   2.784  2.2958  0.4552 -1.6984
 9287SOL    HW239498   4.574   3.457   2.679 -0.9508  1.9404 -0.1001
 9288SOL     OW39499   1.157   4.415   4.770  0.2595 -0.0421 -0.3590
 9288SOL    HW139500   1.107   4.429   4.690  1.0055 -2.1256 -1.1703
 9288SOL    HW239501   1.101   4.457   4.836  0.1986 -0.8121  0.0703
 9289SOL     OW39502   0.589   0.478   2.288  0.8532 -0.6607 -0.4790
 9289SOL    HW139503   0.603   0.489   2.382  0.9262  3.3257 -0.9603
 9289SOL    HW239504   0.634   0.552   2.248 -1.2771  0.1192 -1.4304
 9290SOL     OW39505   2.974   3.168   5.686  0.0397 -0.1873  0.3308
 9290SOL    HW139506   3.003   3.120   5.764 -0.8314  0.1278  0.8376
 9290SOL    HW239507   2.970   3.257   5.721 -0.2078  0.2105 -0.7334
 9291SOL     OW39508   2.820   0.924   6.785 -0.0846 -0.1072 -0.0006
 9291SOL    HW139509   2.817   0.865   6.860 -1.3114 -1.7696 -1.3227
 9291SOL    HW239510   2.898   0.974   6.808 -0.1498 -0.8012  1.7194
 9292SOL     OW39511   1.118   0.262   7.900  0.1803 -0.2598 -0.1756
 9292SOL    HW139512   1.116   0.168   7.881 -3.3587 -0.4407  1.0730
 9292SOL    HW239513   1.024   0.267   7.916  0.3587 -0.7881  1.0880
 9293SOL     OW39514   1.098   1.174  13.974 -0.0904  0.2019 -0.3092
 9293SOL    HW139515   1.191   1.157  13.989 -0.5092  0.5882  2.7530
 9293SOL    HW239516   1.068   1.090  13.939  0.0649  0.3266 -0.7408
 9294SOL     OW39517   2.413   0.471   1.261  0.0522  0.2690  0.0096
 9294SOL    HW139518   2.325   0.436   1.250  0.4049 -0.3789 -0.7353
 9294SOL    HW239519   2.405   0.501   1.352 -0.4897 -1.9091  0.6955
 9295SOL     OW39520   3.253   3.822   2.973  0.3751 -0.4996  0.2093
 9295SOL    HW139521   3.220   3.759   3.037  1.4900 -1.4114 -0.1123
 9295SOL    HW239522   3.319   3.771   2.925 -1.3901 -2.0424 -0.5909
 9296SOL     OW39523   3.813   1.194  16.432  0.6422  0.1964  0.5916
 9296SOL    HW139524   3.863   1.202  16.351 -1.5281  0.2850 -0.7060
 9296SOL    HW239525   3.806   1.100  16.447  1.0894  0.1356  0.4404
 9297SOL     OW39526   0.139   2.623   1.677 -0.7470 -0.1382  0.2165
 9297SOL    HW139527   0.210   2.589   1.731 -0.6712 -0.0435  0.1774
 9297SOL    HW239528   0.160   2.716   1.685  0.0960 -0.3675  0.6446
 9298SOL     OW39529   4.562   3.575  16.234  0.4103 -0.2724 -0.0962
 9298SOL    HW139530   4.584   3.546  16.322 -1.7517 -2.1843 -0.1864
 9298SOL    HW239531   4.497   3.642  16.251  1.6597  0.8173  0.4109
 9299SOL     OW39532   0.932   0.404   5.486 -0.3518  0.1320 -0.0542
 9299SOL    HW139533   0.944   0.351   5.565 -0.3341 -0.2152 -0.2882
 9299SOL    HW239534   0.903   0.346   5.415  1.4165 -1.4030  0.4525
 9300SOL     OW39535   1.454   1.350   7.269 -0.4523 -0.4628  0.4291
 9300SOL    HW139536   1.503   1.381   7.193 -1.2659 -1.7984 -0.6345
 9300SOL    HW239537   1.423   1.429   7.314  0.8512  0.9561 -1.1854
 9301SOL     OW39538   4.286   1.152  12.437 -0.3215 -0.1774  0.5668
 9301SOL    HW139539   4.196   1.121  12.426 -0.7422  0.6542  1.6048
 9301SOL    HW239540   4.287   1.224  12.375  3.6781 -0.3615  0.4577
 9302SOL     OW39541   4.682   0.808   7.123  0.7595 -0.6730  0.2104
 9302SOL    HW139542   4.681   0.713   7.140 -0.7253 -1.1906 -2.7144
 9302SOL    HW239543   0.032   0.825   7.159 -0.4048  0.5795  2.3629
 9303SOL     OW39544   4.290   1.022   2.493 -0.4055 -0.3491  0.0546
 9303SOL    HW139545   4.200   1.001   2.518 -0.7731  0.3891 -0.6562
 9303SOL    HW239546   4.337   0.952   2.539 -1.1833 -1.0180 -0.1747
 9304SOL     OW39547   3.630   2.592  14.446 -0.8159 -0.1086 -0.1741
 9304SOL    HW139548   3.537   2.603  14.426 -0.8263 -0.2345 -0.1935
 9304SOL    HW239549   3.637   2.677  14.490 -1.7730 -1.1736  2.0458
 9305SOL     OW39550   3.306   4.323  13.143  0.6922 -0.0057 -0.2500
 9305SOL    HW139551   3.360   4.290  13.215  1.7176 -0.8399 -1.4039
 9305SOL    HW239552   3.348   4.409  13.139  0.8047  0.0349  1.7196
 9306SOL     OW39553   1.034   0.977   8.397 -0.2522  0.0005 -0.5986
 9306SOL    HW139554   1.069   0.922   8.467 -1.9809  0.5495  0.6988
 9306SOL    HW239555   1.109   1.033   8.376  1.3833 -1.7138  0.7035
 9307SOL     OW39556   0.470   3.145   7.864 -0.4065  0.3298 -0.4920
 9307SOL    HW139557   0.412   3.180   7.932  0.2967 -2.7054  1.6950
 9307SOL    HW239558   0.545   3.196   7.895  0.8324 -1.0784 -1.1573
 9308SOL     OW39559   3.661   3.125   9.331  0.5580 -0.2989  0.0491
 9308SOL    HW139560   3.614   3.052   9.291  2.7551 -1.9819  0.5516
 9308SOL    HW239561   3.645   3.110   9.424  1.3595 -1.3173  0.0125
 9309SOL     OW39562   2.557   1.627   7.027  0.2833 -0.3096  0.2478
 9309SOL    HW139563   2.618   1.659   7.093  2.5739 -2.0653 -1.0537
 9309SOL    HW239564   2.582   1.535   7.021 -1.9145 -0.7096 -2.5743
 9310SOL     OW39565   4.367   2.281   8.706  0.3213 -0.0541  0.2052
 9310SOL    HW139566   4.346   2.197   8.665  0.4235 -0.2477  0.5436
 9310SOL    HW239567   4.380   2.250   8.796  1.2242  2.6211  0.9879
 9311SOL     OW39568   1.899   1.949  16.458 -0.0490  0.3372  0.4769
 9311SOL    HW139569   1.842   1.875  16.478 -0.0923  0.1429 -0.3450
 9311SOL    HW239570   1.835   2.009  16.418 -2.0190 -1.7028  0.5863
 9312SOL     OW39571   1.838   1.844  10.416 -0.2642  0.9046 -0.2471
 9312SOL    HW139572   1.812   1.757  10.447  0.2756  1.1967  1.0433
 9312SOL    HW239573   1.922   1.850  10.463 -0.8177 -0.3382  0.9022
 9313SOL     OW39574   0.551   2.887  11.997  0.0029  0.7599 -0.2421
 9313SOL    HW139575   0.646   2.890  12.001  0.0510  0.8704 -1.4821
 9313SOL    HW239576   0.545   2.915  12.088 -1.2329 -0.6036  0.0926
 9314SOL     OW39577   1.797   1.298   2.489  0.0062  0.3904 -0.5519
 9314SOL    HW139578   1.781   1.392   2.488 -0.7281  0.2891  1.7191
 9314SOL    HW239579   1.891   1.299   2.507 -0.4523 -0.9222  1.9745
 9315SOL     OW39580   0.736   2.337   9.134  0.3497 -0.3389  0.3838
 9315SOL    HW139581   0.699   2.378   9.056 -0.2387  0.7806  1.2491
 9315SOL    HW239582   0.688   2.255   9.150 -1.0595  0.1186 -1.4728
 9316SOL     OW39583   0.007   0.630  17.627 -0.8236  0.1090 -0.0478
 9316SOL    HW139584   0.022   0.622  17.721  0.8030 -2.2830 -0.5035
 9316SOL    HW239585   0.098   0.638  17.601 -0.9166 -3.2575 -1.3547
 9317SOL     OW39586   2.071   3.050   3.895 -0.6723  0.3103  0.2453
 9317SOL    HW139587   2.132   3.119   3.922  0.8895 -1.0823  0.3035
 9317SOL    HW239588   2.014   3.104   3.841 -1.1664 -2.0937 -1.6349
 9318SOL     OW39589   3.344   2.134   3.993  0.2918  0.6600 -0.5327
 9318SOL    HW139590   3.268   2.119   4.049  0.0531 -3.5976 -1.9898
 9318SOL    HW239591   3.399   2.170   4.063 -0.3208 -0.8926  0.7357
 9319SOL     OW39592   0.088   2.893   7.675 -0.2563 -0.2655 -0.1232
 9319SOL    HW139593   0.118   2.892   7.766 -1.7690 -2.7523  0.3513
 9319SOL    HW239594   0.143   2.957   7.629 -1.9922  0.9496 -0.5033
 9320SOL     OW39595   1.786   0.830   3.715 -0.2276 -0.3203 -0.4712
 9320SOL    HW139596   1.771   0.862   3.804 -0.0662  1.4177 -1.0679
 9320SOL    HW239597   1.704   0.784   3.697 -0.4544 -0.9426  2.1758
 9321SOL     OW39598   1.846   1.089   0.472  0.1395  0.0690 -0.3853
 9321SOL    HW139599   1.755   1.085   0.442  0.5012 -0.0664 -1.4438
 9321SOL    HW239600   1.881   1.139   0.398 -0.3220 -1.1636 -1.4452
 9322SOL     OW39601   1.813   3.874  12.293 -0.2437 -0.1303 -0.0300
 9322SOL    HW139602   1.866   3.795  12.296 -2.1935 -1.4657 -1.0404
 9322SOL    HW239603   1.774   3.869  12.381  1.8730 -0.7192  0.8588
 9323SOL     OW39604   1.807   3.744  16.672 -0.0270  0.0507  0.1347
 9323SOL    HW139605   1.726   3.701  16.700  0.4597 -1.2447 -0.4607
 9323SOL    HW239606   1.785   3.767  16.581 -0.9131 -1.9132 -0.1452
 9324SOL     OW39607   2.736   3.978   4.682  0.3374 -0.0065  0.1121
 9324SOL    HW139608   2.827   3.984   4.711  1.3270 -1.6997 -2.6596
 9324SOL    HW239609   2.743   4.047   4.615  0.4039 -0.0296  0.0954
 9325SOL     OW39610   1.352   3.253   7.246  0.1531  0.3686  0.6305
 9325SOL    HW139611   1.390   3.188   7.305 -1.2570 -0.1830  0.9307
 9325SOL    HW239612   1.300   3.200   7.185  1.8618 -0.5979  0.0148
 9326SOL     OW39613   2.245   2.964   0.696 -0.6071 -0.3785  0.5665
 9326SOL    HW139614   2.296   2.918   0.763 -2.1963  0.7251  2.5231
 9326SOL    HW239615   2.316   3.018   0.662  0.1806  0.0786  2.9639
 9327SOL     OW39616   3.889   2.305   4.871  0.3114  0.5579  0.0330
 9327SOL    HW139617   3.836   2.226   4.858  3.2925 -1.7787  1.9977
 9327SOL    HW239618   3.884   2.331   4.963  0.8029 -0.9435  0.4856
 9328SOL     OW39619   1.916   0.753   6.529  1.0306 -0.2355 -0.1922
 9328SOL    HW139620   1.955   0.812   6.593 -0.8679  0.6419  0.1652
 9328SOL    HW239621   1.940   0.809   6.455 -2.9240 -1.1698 -2.1900
 9329SOL     OW39622   4.021   2.159  11.249 -0.1901 -0.6582  0.3025
 9329SOL    HW139623   4.003   2.253  11.251  0.1104 -0.5819 -0.7505
 9329SOL    HW239624   3.973   2.132  11.171  0.1412  0.1609 -0.1797
 9330SOL     OW39625   4.556   1.746  14.460 -0.0429 -0.3227  0.1043
 9330SOL    HW139626   4.546   1.764  14.553 -0.0463 -0.6240  0.1617
 9330SOL    HW239627   4.560   1.835  14.425 -0.3687 -0.9779 -1.5783
 9331SOL     OW39628   0.094   4.287  12.263  0.2880  0.1029  0.2257
 9331SOL    HW139629   0.066   4.198  12.285 -0.7810  0.7221  1.3561
 9331SOL    HW239630   0.169   4.262  12.209 -0.5273 -1.9148  0.0344
 9332SOL     OW39631   1.790   3.651   9.623 -0.1469  0.5255 -0.2421
 9332SOL    HW139632   1.732   3.683   9.554 -1.1461 -0.8738 -0.0547
 9332SOL    HW239633   1.837   3.585   9.572 -1.7826 -0.2218 -0.7746
 9333SOL     OW39634   2.486   0.941   8.331  0.0125 -0.3742  0.3530
 9333SOL    HW139635   2.494   0.935   8.427 -2.4837  0.5203  0.6224
 9333SOL    HW239636   2.573   0.915   8.302 -1.4197 -3.7857 -0.9547
 9334SOL     OW39637   3.668   2.841  14.622  0.1257 -0.3387 -0.2124
 9334SOL    HW139638   3.588   2.886  14.650  0.4523  0.8844 -1.2749
 9334SOL    HW239639   3.711   2.922  14.595 -0.5239  0.2135  0.4111
 9335SOL     OW39640   4.471   2.619  10.813  0.0748  0.5371 -0.5813
 9335SOL    HW139641   4.496   2.544  10.760 -0.4149 -0.7565  1.0200
 9335SOL    HW239642   4.481   2.688  10.747 -0.6985  1.9883  0.8000
 9336SOL     OW39643   0.884   2.981  12.742  1.0235  0.5731 -0.3166
 9336SOL    HW139644   0.944   3.044  12.702  0.5345  0.2202 -1.6030
 9336SOL    HW239645   0.808   3.026  12.781  1.0864  2.0948 -1.9402
 9337SOL     OW39646   0.787   2.313  16.237  0.2330  0.4848 -0.2698
 9337SOL    HW139647   0.739   2.233  16.258  0.2223  0.3865 -0.6622
 9337SOL    HW239648   0.865   2.266  16.206  0.3398  0.3597  0.1859
 9338SOL     OW39649   2.245   4.568  10.765  0.0685 -0.3985 -0.0855
 9338SOL    HW139650   2.281   4.656  10.768  0.4591 -0.5433 -0.5307
 9338SOL    HW239651   2.310   4.517  10.814  0.4068 -1.8124 -2.0030
 9339SOL     OW39652   4.373   1.612  14.158 -0.0128 -0.4146  0.2247
 9339SOL    HW139653   4.364   1.674  14.086  1.3370 -0.3831  0.0993
 9339SOL    HW239654   4.466   1.594  14.160  0.2523  0.9888  0.5714
 9340SOL     OW39655   4.619   3.224   4.798  0.0511 -0.0486  0.3622
 9340SOL    HW139656   4.546   3.284   4.811 -0.7170 -0.8813 -0.1033
 9340SOL    HW239657   4.599   3.152   4.858 -2.3602  1.3556  1.2011
 9341SOL     OW39658   0.715   1.160   8.446 -0.0833 -0.1023 -0.0279
 9341SOL    HW139659   0.655   1.226   8.480 -0.6176 -0.0416 -1.0843
 9341SOL    HW239660   0.653   1.087   8.451  0.6314 -0.7415 -0.5069
 9342SOL     OW39661   1.967   1.530  15.074  0.6474 -0.0450  0.4212
 9342SOL    HW139662   1.971   1.448  15.122 -0.0575 -1.1507 -1.3870
 9342SOL    HW239663   1.996   1.507  14.986 -0.6286  0.9250 -0.2627
 9343SOL     OW39664   4.098   2.489   3.245 -0.0610 -0.6557 -0.0169
 9343SOL    HW139665   4.142   2.571   3.263  0.1483 -0.5059 -1.1896
 9343SOL    HW239666   4.006   2.516   3.247  0.0117 -0.4975  1.0532
 9344SOL     OW39667   0.146   0.209  17.689 -0.7105  0.6438  0.2663
 9344SOL    HW139668   0.093   0.145  17.641  1.0283 -0.6093  0.0348
 9344SOL    HW239669   0.084   0.265  17.736 -1.0664 -0.7336  1.4298
 9345SOL     OW39670   3.272   1.669  13.336  0.1722 -0.3391 -0.0376
 9345SOL    HW139671   3.356   1.715  13.333  0.1929 -0.2522  1.7463
 9345SOL    HW239672   3.212   1.721  13.389  1.8645  1.6921 -0.1183
 9346SOL     OW39673   3.046   0.310   5.967 -0.3625  0.0194 -0.4874
 9346SOL    HW139674   3.010   0.317   5.879 -1.3921 -2.7423 -0.2985
 9346SOL    HW239675   3.054   0.402   5.989  0.4584 -0.3933  0.9599
 9347SOL     OW39676   1.499   4.485   2.512  0.3918  0.2520  0.0108
 9347SOL    HW139677   1.456   4.529   2.439 -0.8533 -0.2704  0.4242
 9347SOL    HW239678   1.558   4.422   2.470  1.8833  1.1959  0.6650
 9348SOL     OW39679   0.804   0.429   8.456 -0.3311  0.2012  1.0653
 9348SOL    HW139680   0.744   0.365   8.496 -0.2573  0.1315  1.0635
 9348SOL    HW239681   0.837   0.486   8.525 -0.4286  3.3368 -1.4904
 9349SOL     OW39682   0.155   0.233   9.091  0.5876  0.5324 -0.1778
 9349SOL    HW139683   0.126   0.183   9.015  0.5055  2.0567 -1.1494
 9349SOL    HW239684   0.163   0.160   9.152  1.4320 -0.9323 -2.0435
 9350SOL     OW39685   3.199   4.583   7.654  0.0593  0.9917  0.9515
 9350SOL    HW139686   3.207   4.644   7.727 -0.0298  0.3187  1.5241
 9350SOL    HW239687   3.230   4.636   7.580  0.1403 -1.7466 -0.9924
 9351SOL     OW39688   4.726   2.872   0.780  0.2927 -0.1003  0.3716
 9351SOL    HW139689   4.633   2.893   0.791  0.0459 -0.6168 -0.7049
 9351SOL    HW239690   0.009   2.904   0.692  1.2562 -1.0406  0.2500
 9352SOL     OW39691   2.524   3.172   7.543  0.3414  0.5532  0.4917
 9352SOL    HW139692   2.605   3.171   7.595  2.0560 -0.2243 -2.1938
 9352SOL    HW239693   2.556   3.239   7.483  0.3536  1.8023  1.8723
 9353SOL     OW39694   3.301   4.431  11.087 -0.2904 -0.3841 -0.7484
 9353SOL    HW139695   3.318   4.474  11.171  1.4941  0.8563 -1.7357
 9353SOL    HW239696   3.207   4.413  11.096 -0.5649  0.4336 -2.0994
 9354SOL     OW39697   1.106   0.003   6.486 -0.5515  0.4974 -0.0890
 9354SOL    HW139698   1.130   4.650   6.464  0.1771  0.9792 -1.2627
 9354SOL    HW239699   1.063   0.028   6.404 -0.3989  0.7972 -0.0773
 9355SOL     OW39700   2.634   0.961   8.981  0.0422 -0.0153 -0.3523
 9355SOL    HW139701   2.578   0.966   8.904  0.2115  0.3588 -0.4539
 9355SOL    HW239702   2.613   1.045   9.022  1.7213  0.6116 -0.7572
 9356SOL     OW39703   4.606   1.017   7.296  0.1763 -0.3925  0.0994
 9356SOL    HW139704   4.607   0.950   7.228  0.9478 -0.0032 -0.2754
 9356SOL    HW239705   4.671   1.076   7.257 -2.0853  1.8259 -0.2945
 9357SOL     OW39706   1.088   3.338   4.534 -0.0939  0.2546  0.3948
 9357SOL    HW139707   1.007   3.359   4.580 -1.2596 -1.4720 -0.8687
 9357SOL    HW239708   1.079   3.397   4.459  1.7433 -0.5468 -0.4603
 9358SOL     OW39709   0.718   3.688   7.672 -0.1134  0.0743  0.4385
 9358SOL    HW139710   0.705   3.712   7.764  1.3378  1.7874  0.1972
 9358SOL    HW239711   0.812   3.695   7.657 -0.4257  1.4969 -0.8471
 9359SOL     OW39712   3.859   2.001   7.501 -0.5198 -0.2241 -0.1124
 9359SOL    HW139713   3.822   1.992   7.588  0.2638 -3.3111 -0.0827
 9359SOL    HW239714   3.834   1.920   7.458  0.5753 -0.6134 -0.0141
 9360SOL     OW39715   1.037   4.594   5.871 -0.0503  0.2853 -0.4706
 9360SOL    HW139716   1.075   4.560   5.952  0.9323 -1.7363 -1.7996
 9360SOL    HW239717   0.965   4.535   5.853  0.6885 -0.5890 -0.5832
 9361SOL     OW39718   0.357   0.366   3.297 -0.3706  0.0985 -0.5238
 9361SOL    HW139719   0.280   0.360   3.354 -0.4671  2.3233 -0.4478
 9361SOL    HW239720   0.422   0.385   3.364 -1.6822 -2.3634  1.4911
 9362SOL     OW39721   3.544   1.718   0.891 -0.3644  0.0635  0.3576
 9362SOL    HW139722   3.602   1.733   0.965 -1.3129  0.5575  1.0115
 9362SOL    HW239723   3.605   1.670   0.836 -0.6746  1.1285 -0.9428
 9363SOL     OW39724   3.170   2.961   2.027 -0.1851 -0.2028 -0.1446
 9363SOL    HW139725   3.116   2.950   2.105 -0.5745 -1.1521 -0.5532
 9363SOL    HW239726   3.199   3.052   2.032  1.4270 -0.6961 -0.2365
 9364SOL     OW39727   2.250   3.555   2.644 -0.7779  0.2884  0.1270
 9364SOL    HW139728   2.260   3.626   2.707  0.3836 -2.3647  2.9103
 9364SOL    HW239729   2.159   3.574   2.622 -0.5143  1.7577  0.2865
 9365SOL     OW39730   2.430   3.667   5.887  0.3300  0.3601 -0.0365
 9365SOL    HW139731   2.415   3.597   5.950 -1.4492 -0.2652 -1.1458
 9365SOL    HW239732   2.344   3.660   5.845  1.0125 -2.7619 -0.9051
 9366SOL     OW39733   1.726   0.371   7.373 -0.0414  0.2712  0.1843
 9366SOL    HW139734   1.692   0.372   7.284 -1.0535  1.0722  0.5946
 9366SOL    HW239735   1.726   0.461   7.405 -0.0662 -0.0063  0.9771
 9367SOL     OW39736   3.456   2.312   9.430 -0.1863  0.2793 -0.0569
 9367SOL    HW139737   3.453   2.383   9.493  0.3420 -1.6977  2.1880
 9367SOL    HW239738   3.552   2.307   9.422 -0.2072  0.7305 -0.6239
 9368SOL     OW39739   2.369   1.244   7.125 -0.0190 -0.0292  0.5079
 9368SOL    HW139740   2.277   1.238   7.100  0.0486 -1.3316  0.5523
 9368SOL    HW239741   2.367   1.318   7.185 -0.4860  1.2296 -1.0679
 9369SOL     OW39742   3.913   1.102   7.592 -0.2823 -0.7059 -0.2726
 9369SOL    HW139743   3.864   1.162   7.649  1.0478  1.0638 -0.9577
 9369SOL    HW239744   4.000   1.139   7.609 -1.1826  1.7756 -1.0810
 9370SOL     OW39745   4.557   4.541  17.621  0.2211 -0.5402  0.1882
 9370SOL    HW139746   4.546   4.446  17.625  0.5843 -0.4647  2.6406
 9370SOL    HW239747   4.555   4.555  17.715  0.5042 -0.5447  0.1943
 9371SOL     OW39748   2.498   4.252   1.428  1.1655  0.0975  0.0460
 9371SOL    HW139749   2.560   4.274   1.498  1.2904  0.2425 -0.1085
 9371SOL    HW239750   2.421   4.229   1.480  1.3352  0.9621  0.6861
 9372SOL     OW39751   3.179   1.686   2.737 -0.1837 -0.0956  0.4413
 9372SOL    HW139752   3.151   1.642   2.817  0.8980 -1.9022 -0.1632
 9372SOL    HW239753   3.262   1.723   2.764 -1.8944  2.3965  2.2491
 9373SOL     OW39754   0.647   2.801   0.567  0.4336  0.6299 -0.4549
 9373SOL    HW139755   0.606   2.886   0.580 -0.1649  0.0796  1.2579
 9373SOL    HW239756   0.600   2.780   0.487  1.6506  2.1244 -1.5598
 9374SOL     OW39757   2.603   2.510   4.880 -0.0669  0.1552  0.3510
 9374SOL    HW139758   2.673   2.535   4.941 -1.0303  0.3401  1.3761
 9374SOL    HW239759   2.654   2.484   4.803 -2.0282 -0.8709 -0.6030
 9375SOL     OW39760   0.504   0.052   2.858  0.5573  0.1701  0.0684
 9375SOL    HW139761   0.443   0.126   2.865 -0.7474 -0.7608 -1.3712
 9375SOL    HW239762   0.449   4.714   2.883 -0.7935  1.0667 -0.2401
 9376SOL     OW39763   1.102   4.124   6.463  0.4405 -0.3403 -0.2111
 9376SOL    HW139764   1.124   4.078   6.544 -0.3724 -2.0973 -0.9863
 9376SOL    HW239765   1.143   4.067   6.398  1.3944  0.4686 -0.3197
 9377SOL     OW39766   3.868   0.883   8.767 -0.0663  0.1681 -0.3436
 9377SOL    HW139767   3.855   0.792   8.792  0.1718 -0.0073 -0.8621
 9377SOL    HW239768   3.906   0.920   8.846 -1.0191 -0.8849  0.6074
 9378SOL     OW39769   0.841   1.494  14.744  0.3544 -0.3736 -0.0604
 9378SOL    HW139770   0.935   1.497  14.761  0.3537 -1.2908  0.0950
 9378SOL    HW239771   0.808   1.575  14.784  1.9409  0.7444 -0.9882
 9379SOL     OW39772   2.074   2.465  11.893  0.1319  0.7820 -0.0092
 9379SOL    HW139773   2.086   2.440  11.984 -2.0399  0.4557  0.2025
 9379SOL    HW239774   1.986   2.501  11.903 -0.0754  0.1184  0.6048
 9380SOL     OW39775   4.247   2.038   3.265 -0.0130  0.8635  0.3486
 9380SOL    HW139776   4.203   2.054   3.182 -1.2864 -0.7559  0.6986
 9380SOL    HW239777   4.221   2.118   3.311 -2.1256  0.8621 -0.8555
 9381SOL     OW39778   2.815   2.498   8.909 -0.2403  0.2908  0.0058
 9381SOL    HW139779   2.853   2.476   8.824  0.5883  1.8451 -0.0383
 9381SOL    HW239780   2.888   2.477   8.966 -0.8445 -1.4284  0.1230
 9382SOL     OW39781   2.761   3.385   6.683  0.4192  0.0170 -0.5053
 9382SOL    HW139782   2.681   3.343   6.715  0.1461  1.6222  0.8484
 9382SOL    HW239783   2.755   3.347   6.595  1.9939  3.1867 -1.9718
 9383SOL     OW39784   1.043   1.702  14.848 -0.1010 -0.2370  0.0033
 9383SOL    HW139785   0.982   1.763  14.807 -0.7712  0.8941  2.6935
 9383SOL    HW239786   1.130   1.736  14.825 -0.2007 -0.6725 -1.0026
 9384SOL     OW39787   3.689   3.310   8.022  0.3130  0.1403  0.1291
 9384SOL    HW139788   3.754   3.258   7.975  0.6331  0.2552  0.4487
 9384SOL    HW239789   3.640   3.245   8.072  2.1377 -1.0213  0.4109
 9385SOL     OW39790   1.201   0.835  15.572 -0.1794  0.4744 -0.0697
 9385SOL    HW139791   1.115   0.847  15.531  0.4968 -2.6609 -2.3816
 9385SOL    HW239792   1.257   0.822  15.496  0.7099 -1.1535  0.8565
 9386SOL     OW39793   0.491   3.664   6.635  0.0549 -0.2422  0.3155
 9386SOL    HW139794   0.483   3.652   6.729 -3.8149 -2.7877 -0.3115
 9386SOL    HW239795   0.573   3.624   6.605 -0.9716 -1.4421 -0.9402
 9387SOL     OW39796   4.087   0.963   2.703  0.2607  0.3625  0.2953
 9387SOL    HW139797   4.025   1.002   2.764  0.1918 -1.4650  1.4142
 9387SOL    HW239798   4.158   0.958   2.767 -0.1945 -2.2327  0.5997
 9388SOL     OW39799   4.137   3.458   4.982 -0.0851  0.0191 -0.2785
 9388SOL    HW139800   4.159   3.517   4.911 -1.6631 -0.5359 -1.2274
 9388SOL    HW239801   4.133   3.525   5.050 -2.2541 -0.4743  0.0996
 9389SOL     OW39802   4.124   1.342   8.016  0.2446 -0.1226  0.1335
 9389SOL    HW139803   4.058   1.273   8.011  0.4771 -0.3293 -0.0678
 9389SOL    HW239804   4.198   1.301   7.971  1.3415  0.3024  1.5389
 9390SOL     OW39805   1.816   0.499   2.611 -0.2524  0.0424 -0.4691
 9390SOL    HW139806   1.857   0.540   2.687 -0.0336  1.0850 -1.1516
 9390SOL    HW239807   1.888   0.513   2.549 -0.6231  1.5412 -0.5548
 9391SOL     OW39808   0.795   1.078  15.629  0.3486  0.1341  0.1066
 9391SOL    HW139809   0.777   1.132  15.705 -0.7399  1.2589 -0.9537
 9391SOL    HW239810   0.754   1.130  15.560 -1.0764 -1.0301  0.0717
 9392SOL     OW39811   3.753   3.279   5.636 -0.0707  0.2805  0.5759
 9392SOL    HW139812   3.731   3.226   5.560 -0.4595 -0.6716  1.3557
 9392SOL    HW239813   3.849   3.279   5.634 -0.1353  2.5822 -2.1005
 9393SOL     OW39814   0.971   1.636   8.325  0.3599 -0.1481  0.2290
 9393SOL    HW139815   1.043   1.623   8.388  1.4576  2.2872 -0.5468
 9393SOL    HW239816   0.906   1.575   8.359 -0.0334 -0.9526 -1.9813
 9394SOL     OW39817   3.691   2.942   6.964  0.0730 -0.2105  0.1301
 9394SOL    HW139818   3.623   2.880   6.935 -0.0896  0.3244 -0.6252
 9394SOL    HW239819   3.748   2.882   7.013 -2.0382 -1.1608  1.4255
 9395SOL     OW39820   2.096   4.442   4.081  0.3489  0.1243 -0.1919
 9395SOL    HW139821   2.073   4.522   4.033 -0.8746  0.7719  1.4906
 9395SOL    HW239822   2.182   4.420   4.046  0.5082  0.9513 -0.3309
 9396SOL     OW39823   3.019   1.387  13.686 -0.2048  0.1876 -0.2230
 9396SOL    HW139824   3.079   1.461  13.694  2.0280 -1.6859  0.4705
 9396SOL    HW239825   3.073   1.311  13.711  1.2122  0.9044 -1.1365
 9397SOL     OW39826   4.516   3.556   3.634 -0.2659 -0.3320 -0.6777
 9397SOL    HW139827   4.490   3.534   3.545  0.5481  0.8692 -1.2141
 9397SOL    HW239828   4.580   3.486   3.642 -0.1078 -0.4953 -3.3414
 9398SOL     OW39829   4.623   1.891   7.180  0.1603 -0.6168  0.1001
 9398SOL    HW139830   4.547   1.836   7.164  0.0589 -0.5873  0.4779
 9398SOL    HW239831   4.670   1.836   7.242  0.3110 -0.5680  0.0283
 9399SOL     OW39832   3.628   2.401   9.851 -0.4215  0.1498 -0.2633
 9399SOL    HW139833   3.641   2.428   9.942  0.9903 -0.5732 -0.2524
 9399SOL    HW239834   3.718   2.389   9.823 -0.3854 -1.0761  0.3876
 9400SOL     OW39835   2.565   3.971  16.710 -0.7206 -0.2157 -0.2396
 9400SOL    HW139836   2.655   3.964  16.741 -0.3025  0.9559 -1.1696
 9400SOL    HW239837   2.530   4.048  16.753 -1.5186 -1.0058  0.5173
 9401SOL     OW39838   0.452   1.713  16.831  0.8164  0.1359  0.0665
 9401SOL    HW139839   0.358   1.722  16.818  1.1230  3.6628  0.0780
 9401SOL    HW239840   0.458   1.735  16.924  1.4764 -1.8382  0.4746
 9402SOL     OW39841   2.701   3.055   1.493  0.4269  0.0342  0.3371
 9402SOL    HW139842   2.682   3.092   1.579 -1.5604  0.0596 -0.1198
 9402SOL    HW239843   2.756   3.127   1.463  0.1806 -0.7751 -2.0401
 9403SOL     OW39844   0.337   3.596   7.936  0.8552 -0.2453  0.3162
 9403SOL    HW139845   0.334   3.662   7.867  0.6217 -0.2981  0.2755
 9403SOL    HW239846   0.403   3.540   7.895 -0.1814 -0.5503 -0.9313
 9404SOL     OW39847   1.713   4.291   0.840  0.2400 -0.1031  0.0660
 9404SOL    HW139848   1.732   4.199   0.827 -0.3303 -0.4999  2.0458
 9404SOL    HW239849   1.713   4.285   0.935  0.5202  3.1281  0.2713
 9405SOL     OW39850   4.125   1.015   2.094  0.3469 -0.2899 -0.4655
 9405SOL    HW139851   4.077   1.022   2.011  0.7035  0.3343 -0.6205
 9405SOL    HW239852   4.191   0.947   2.078 -0.1772 -0.9026 -0.0189
 9406SOL     OW39853   2.808   3.689   7.112  0.2816 -0.4159  0.3273
 9406SOL    HW139854   2.748   3.616   7.122  0.7979 -0.4841  3.0557
 9406SOL    HW239855   2.765   3.740   7.043  2.7977  1.0311 -0.1836
 9407SOL     OW39856   1.880   0.566   5.303  0.3089  0.2443 -0.1369
 9407SOL    HW139857   1.936   0.607   5.236 -0.2291 -0.8617 -1.2721
 9407SOL    HW239858   1.920   0.479   5.303 -0.3145 -0.0367  0.2078
 9408SOL     OW39859   1.242   2.923   5.926  0.0013  0.0611 -0.4286
 9408SOL    HW139860   1.325   2.962   5.953 -0.4410  0.9637 -0.4031
 9408SOL    HW239861   1.224   2.867   6.001 -1.4096  1.9513  0.6139
 9409SOL     OW39862   0.547   4.447  11.045  0.2617  0.1748 -0.4272
 9409SOL    HW139863   0.622   4.496  11.080 -0.6356  2.7280 -2.0951
 9409SOL    HW239864   0.487   4.453  11.119  0.4934  0.3857 -0.2571
 9410SOL     OW39865   1.323   1.946  12.030 -0.1814  0.2467  0.2651
 9410SOL    HW139866   1.328   1.933  11.935 -2.1051 -0.7226  0.2951
 9410SOL    HW239867   1.245   2.001  12.038  0.3823  1.0682  0.1003
 9411SOL     OW39868   2.259   4.445   6.621  0.1019  0.5000  0.0693
 9411SOL    HW139869   2.192   4.497   6.576  1.0768  1.7776  0.1077
 9411SOL    HW239870   2.308   4.510   6.670  1.1628  0.2099 -0.6077
 9412SOL     OW39871   2.026   3.189   6.110 -0.1541 -0.7049 -0.1298
 9412SOL    HW139872   2.096   3.126   6.091 -0.0528 -0.9614  1.0642
 9412SOL    HW239873   1.996   3.154   6.194  0.4650  0.3950  0.5544
 9413SOL     OW39874   4.550   0.479   7.596 -0.0777  0.2221  0.7783
 9413SOL    HW139875   4.571   0.572   7.589 -3.0153  0.8105 -0.4835
 9413SOL    HW239876   4.636   0.457   7.631 -0.1274 -0.4461  0.4823
 9414SOL     OW39877   2.109   3.229   7.813  0.2644  0.1897  0.1720
 9414SOL    HW139878   2.038   3.245   7.751  0.0524  1.1463  0.6589
 9414SOL    HW239879   2.093   3.295   7.881 -0.5390 -1.3424  1.4876
 9415SOL     OW39880   1.607   3.188   6.372 -0.3381  0.0946  0.3121
 9415SOL    HW139881   1.594   3.282   6.383  0.9860  0.3067  0.0946
 9415SOL    HW239882   1.550   3.159   6.444 -2.0449  3.3920  0.2555
 9416SOL     OW39883   3.309   2.188   2.358 -0.5363  0.8015  0.7658
 9416SOL    HW139884   3.257   2.267   2.374 -0.8416  0.9203 -0.8345
 9416SOL    HW239885   3.373   2.231   2.301 -0.5718  0.8915  0.7933
 9417SOL     OW39886   3.573   0.145   6.791 -0.3128 -0.3189  0.4908
 9417SOL    HW139887   3.559   0.215   6.854 -0.9950 -0.1558  0.1516
 9417SOL    HW239888   3.612   0.076   6.845  1.3382 -1.1906 -1.7953
 9418SOL     OW39889   4.209   0.570  17.730  0.2986 -0.6238  0.5988
 9418SOL    HW139890   4.117   0.587   0.004  0.7767  0.9247  1.5654
 9418SOL    HW239891   4.240   0.654  17.698 -1.6572  0.4345  1.5009
 9419SOL     OW39892   1.998   0.994   4.025 -0.4070 -0.0225 -0.0788
 9419SOL    HW139893   2.034   0.972   3.938 -0.3726  0.7767 -0.2620
 9419SOL    HW239894   1.987   0.907   4.063 -0.4717  0.0618  0.0919
 9420SOL     OW39895   2.068   3.308  17.009 -0.3954 -0.3049  0.0673
 9420SOL    HW139896   2.071   3.303  17.104 -3.2117 -1.1052  0.1213
 9420SOL    HW239897   2.117   3.389  16.991  0.1391 -0.7613 -0.5372
 9421SOL     OW39898   3.618   4.065   2.055  0.5396 -0.4170 -0.0187
 9421SOL    HW139899   3.693   4.040   2.002 -0.1330 -1.1147 -0.6351
 9421SOL    HW239900   3.613   4.160   2.041 -0.0093 -0.1184  2.1617
 9422SOL     OW39901   1.092   3.549   8.983 -0.0080 -0.2226 -0.8267
 9422SOL    HW139902   1.126   3.545   8.894 -1.0899 -1.7493 -1.1685
 9422SOL    HW239903   1.069   3.459   9.005 -2.8852  0.7657  0.2292
 9423SOL     OW39904   1.928   3.719   7.000  0.2910 -0.3042 -0.3421
 9423SOL    HW139905   1.995   3.788   7.003 -1.0938  0.9991  0.1223
 9423SOL    HW239906   1.901   3.709   7.091 -0.0135  2.0705 -0.1760
 9424SOL     OW39907   1.258   1.671   6.364  0.1858  0.6345 -0.5018
 9424SOL    HW139908   1.248   1.579   6.340 -0.9911  0.2477  1.4452
 9424SOL    HW239909   1.330   1.704   6.310  1.5341  0.1569  1.0041
 9425SOL     OW39910   2.783   2.029   3.342  0.0295 -0.1647  0.5205
 9425SOL    HW139911   2.873   2.039   3.373  0.1243 -0.2450  0.2688
 9425SOL    HW239912   2.776   1.933   3.345  0.2804 -0.2220 -0.6299
 9426SOL     OW39913   0.562   2.582   5.366 -0.6010 -0.1581  0.1442
 9426SOL    HW139914   0.639   2.527   5.380  1.0383  1.6873 -1.7298
 9426SOL    HW239915   0.588   2.653   5.308 -1.4251  0.0104 -0.0142
 9427SOL     OW39916   3.145   2.542  10.723  0.0058  0.5643 -0.4182
 9427SOL    HW139917   3.071   2.524  10.780  0.9166  1.1180  0.9360
 9427SOL    HW239918   3.156   2.637  10.722  0.6762  0.4828 -1.4098
 9428SOL     OW39919   1.695   1.327   3.144 -0.2286 -0.9515 -0.3957
 9428SOL    HW139920   1.776   1.297   3.186 -2.1953 -0.3024  3.8577
 9428SOL    HW239921   1.636   1.252   3.154  0.2268 -0.8511  3.2432
 9429SOL     OW39922   4.256   1.281   2.657  0.1417 -0.2751  0.1740
 9429SOL    HW139923   4.334   1.314   2.701  0.4208 -0.3897 -0.2362
 9429SOL    HW239924   4.287   1.202   2.612  0.1735 -0.0226 -0.2484
 9430SOL     OW39925   3.139   0.122  12.967 -0.2723  0.1523 -0.7454
 9430SOL    HW139926   3.216   0.070  12.943  1.2145  1.5012  1.1227
 9430SOL    HW239927   3.119   0.150  12.878 -0.2853  1.4403 -0.3339
 9431SOL     OW39928   4.341   4.160  14.390  0.1706  0.2227  0.3845
 9431SOL    HW139929   4.387   4.119  14.464  2.1827  2.5516  0.4024
 9431SOL    HW239930   4.334   4.084  14.333 -0.0916  0.1283  0.5391
 9432SOL     OW39931   4.105   0.064  12.772 -0.4153  0.7829  0.3837
 9432SOL    HW139932   4.159   0.121  12.717  0.7426  0.7496  1.5026
 9432SOL    HW239933   4.125   4.714  12.738 -0.1170  1.7671 -1.9454
 9433SOL     OW39934   0.678   4.347  14.579 -0.4819  0.5560  0.3050
 9433SOL    HW139935   0.754   4.321  14.528 -1.6159 -0.9592 -0.5971
 9433SOL    HW239936   0.635   4.423  14.541 -0.6237  0.6384  0.6269
 9434SOL     OW39937   2.017   2.527   1.847 -0.4127 -0.3250  0.0447
 9434SOL    HW139938   2.050   2.542   1.759  0.7413 -3.5227 -0.0549
 9434SOL    HW239939   2.099   2.500   1.889  0.0184  1.6957  0.5095
 9435SOL     OW39940   0.148   2.519   8.473 -0.0856 -0.0377  0.0885
 9435SOL    HW139941   0.116   2.584   8.535  0.5888  0.0259  0.3646
 9435SOL    HW239942   0.100   2.544   8.394  1.0327 -1.4649 -1.0438
 9436SOL     OW39943   3.372   0.347   2.664  0.1010  0.5144  0.3088
 9436SOL    HW139944   3.467   0.349   2.677  0.2886 -0.7573 -0.8381
 9436SOL    HW239945   3.354   0.411   2.595 -0.8010  0.2132  0.2668
 9437SOL     OW39946   0.939   0.345   0.300  0.1260  0.2473  0.4741
 9437SOL    HW139947   0.939   0.301   0.215  0.2780  2.1601 -0.5346
 9437SOL    HW239948   0.860   0.319   0.347 -1.4130  0.3711 -2.0027
 9438SOL     OW39949   3.634   1.009  15.424 -0.2263 -0.3577  0.0968
 9438SOL    HW139950   3.707   1.023  15.363  0.5264  0.3264  1.1463
 9438SOL    HW239951   3.561   0.999  15.363 -1.9003  2.7947  1.5802
 9439SOL     OW39952   1.111   0.884   1.481 -0.3769  0.0474 -0.0407
 9439SOL    HW139953   1.204   0.885   1.459 -0.7063 -1.2868 -1.5292
 9439SOL    HW239954   1.115   0.922   1.569  1.9289 -0.7170  0.2079
 9440SOL     OW39955   4.547   2.469  14.263  0.3615  0.5700  0.9788
 9440SOL    HW139956   4.500   2.529  14.321  1.1786  2.1608 -0.0095
 9440SOL    HW239957   4.586   2.533  14.203  3.1155 -0.3995  1.7144
 9441SOL     OW39958   3.614   0.338  14.041  0.4021  0.3096  0.1139
 9441SOL    HW139959   3.638   0.269  14.102 -0.2465  0.5817  0.6789
 9441SOL    HW239960   3.698   0.384  14.040  0.9451 -0.7318 -1.2898
 9442SOL     OW39961   2.269   2.981   4.782  0.3200 -0.1483 -0.2855
 9442SOL    HW139962   2.362   3.002   4.791  0.7265 -1.6376 -1.0862
 9442SOL    HW239963   2.261   2.899   4.831  0.5672 -0.4461 -0.7466
 9443SOL     OW39964   3.427   1.904   9.596  0.1664  0.2553 -0.1116
 9443SOL    HW139965   3.347   1.902   9.542 -0.1519 -1.2412  0.4148
 9443SOL    HW239966   3.387   1.888   9.682 -1.6655  3.5743 -0.3414
 9444SOL     OW39967   2.857   4.200  11.956  0.5035  0.6330 -0.2172
 9444SOL    HW139968   2.815   4.283  11.934 -0.6792  0.7741  2.5592
 9444SOL    HW239969   2.876   4.182  11.864 -2.5196 -1.4564 -0.4400
 9445SOL     OW39970   1.395   0.908   1.485  0.3390  0.3915  0.7052
 9445SOL    HW139971   1.464   0.861   1.438 -1.2855 -2.1349  0.8384
 9445SOL    HW239972   1.443   0.930   1.564  2.5974 -1.7251 -0.0767
 9446SOL     OW39973   2.955   0.165  16.008  0.3665  0.1430 -0.0115
 9446SOL    HW139974   2.906   0.104  15.954 -2.3750  3.1697 -0.8920
 9446SOL    HW239975   2.897   0.240  16.015 -0.0335  0.0551 -2.4605
 9447SOL     OW39976   1.081   4.118   7.112 -0.3544 -0.3164  0.2308
 9447SOL    HW139977   1.024   4.126   7.189  1.3824  2.0072  1.2690
 9447SOL    HW239978   1.044   4.176   7.046  0.6430  0.2320  0.1592
 9448SOL     OW39979   1.565   0.734  16.148  0.3312 -0.5493  0.1995
 9448SOL    HW139980   1.639   0.793  16.136  0.2704 -0.5807 -0.3204
 9448SOL    HW239981   1.493   0.792  16.124 -1.9064 -4.0497 -1.5816
 9449SOL     OW39982   1.586   4.171  13.879  0.2755  0.3367  0.0504
 9449SOL    HW139983   1.617   4.081  13.879 -0.2329  0.1749 -2.3236
 9449SOL    HW239984   1.591   4.197  13.787 -0.4207  1.1697  0.2422
 9450SOL     OW39985   0.546   4.172   4.253 -0.0412  0.1921  0.0351
 9450SOL    HW139986   0.583   4.095   4.211  1.6549  0.5015  0.9680
 9450SOL    HW239987   0.589   4.242   4.204  0.3390  0.0095  0.1052
 9451SOL     OW39988   2.461   0.478  11.109 -0.0447  0.1984  0.0428
 9451SOL    HW139989   2.374   0.504  11.077 -0.3640 -0.9694 -0.0247
 9451SOL    HW239990   2.460   0.384  11.091 -1.1733  0.3683 -0.8195
 9452SOL     OW39991   3.148   3.103  16.872 -0.3214 -0.1258  0.0482
 9452SOL    HW139992   3.226   3.054  16.846 -0.3540 -0.7612  1.1534
 9452SOL    HW239993   3.153   3.138  16.960  1.2817 -0.2918  0.0307
 9453SOL     OW39994   0.346   3.983   2.909 -0.1526  0.0982 -0.0715
 9453SOL    HW139995   0.415   4.014   2.850 -0.3488 -3.6312 -2.2978
 9453SOL    HW239996   0.268   3.997   2.856 -0.8732 -1.0257  0.6919
 9454SOL     OW39997   2.701   1.725   7.862 -0.7863 -0.0102 -0.1349
 9454SOL    HW139998   2.709   1.807   7.814 -0.3020  0.5149  0.8510
 9454SOL    HW239999   2.610   1.707   7.840 -1.1794  2.4556 -0.5058
 9455SOL     OW40000   3.968   4.201   5.743  0.0284 -0.2166  0.0352
 9455SOL    HW140001   3.886   4.185   5.695  0.3796  2.3434 -1.3824
 9455SOL    HW240002   4.040   4.220   5.683  1.2878 -0.4068  1.4813
 9456SOL     OW40003   1.015   1.714   9.076  0.0482  0.0058  0.6313
 9456SOL    HW140004   0.938   1.685   9.125 -0.0077 -1.0742 -0.0991
 9456SOL    HW240005   1.075   1.729   9.149 -0.7018 -0.0574  1.2646
 9457SOL     OW40006   3.070   2.111   3.379 -0.0631 -0.3501  0.3026
 9457SOL    HW140007   3.135   2.041   3.383  0.0976 -0.3241 -1.5421
 9457SOL    HW240008   3.092   2.156   3.298 -0.7820  0.7006  0.6914
 9458SOL     OW40009   0.996   2.119  15.063 -0.1745  0.2629  0.3731
 9458SOL    HW140010   0.997   2.125  15.159  0.9563 -2.4652  0.5266
 9458SOL    HW240011   0.914   2.166  15.045  0.4586  0.2874 -2.3789
 9459SOL     OW40012   3.361   3.766  10.922 -0.2524 -0.2725 -0.1339
 9459SOL    HW140013   3.322   3.748  10.836  0.2974 -2.0065 -0.0220
 9459SOL    HW240014   3.353   3.680  10.963 -0.9196 -0.2690 -0.2463
 9460SOL     OW40015   1.861   4.316  10.684 -0.1110  0.0969 -0.0501
 9460SOL    HW140016   1.904   4.387  10.731  0.0968 -0.4888  0.6480
 9460SOL    HW240017   1.860   4.247  10.751 -0.3317  1.2899  1.1748
 9461SOL     OW40018   1.047   0.734   7.136  0.0471 -0.4485 -0.7380
 9461SOL    HW140019   0.978   0.679   7.173 -1.5263  2.9675  1.5056
 9461SOL    HW240020   1.112   0.673   7.102  0.4331 -0.9126  0.8675
 9462SOL     OW40021   4.370   1.184   3.783 -0.3458 -0.3496  0.0515
 9462SOL    HW140022   4.390   1.277   3.781  0.6754 -0.5414  1.8396
 9462SOL    HW240023   4.440   1.139   3.735 -0.2286 -1.9807  1.7829
 9463SOL     OW40024   4.401   3.852   5.172 -0.1314  0.3723 -0.0913
 9463SOL    HW140025   4.349   3.775   5.195  0.3775  0.7015  2.2400
 9463SOL    HW240026   4.426   3.831   5.083 -2.9462  1.0765 -1.0581
 9464SOL     OW40027   1.577   3.025   1.354  0.1124  0.3924  0.4423
 9464SOL    HW140028   1.659   3.003   1.308  0.2837  0.4129  0.7350
 9464SOL    HW240029   1.582   2.964   1.427  1.9055 -1.4659 -1.2166
 9465SOL     OW40030   1.289   3.708   3.585 -0.1232 -0.2415  0.0962
 9465SOL    HW140031   1.352   3.777   3.605 -1.0403 -0.3009  3.1152
 9465SOL    HW240032   1.312   3.641   3.648  0.4118  0.9365  1.1519
 9466SOL     OW40033   4.444   4.475   3.748  0.0065 -0.2285 -0.3330
 9466SOL    HW140034   4.382   4.415   3.706  3.0599 -1.9351 -2.4410
 9466SOL    HW240035   4.505   4.509   3.683 -0.5305  1.8051  0.2365
 9467SOL     OW40036   4.286   0.681  13.129  0.1005  0.1460  0.0489
 9467SOL    HW140037   4.357   0.738  13.099  0.5543 -0.0281  0.8025
 9467SOL    HW240038   4.206   0.729  13.108 -0.3959 -0.7408 -0.0937
 9468SOL     OW40039   3.764   1.859  11.955 -0.4300  0.2719 -0.4233
 9468SOL    HW140040   3.683   1.853  11.904  0.3852  1.2188 -1.8360
 9468SOL    HW240041   3.822   1.881  11.883  2.1938 -1.6883  1.1210
 9469SOL     OW40042   3.368   0.780   8.997 -0.4438  0.0702  0.4368
 9469SOL    HW140043   3.443   0.744   8.950 -0.7778 -1.9327  1.4116
 9469SOL    HW240044   3.410   0.857   9.036  2.6017 -0.9719 -0.7923
 9470SOL     OW40045   3.409   2.951  10.873  0.0177  0.1869 -0.0122
 9470SOL    HW140046   3.317   2.979  10.868  0.0745  0.4386  0.3216
 9470SOL    HW240047   3.454   3.033  10.893  1.8294 -0.8688  0.2162
 9471SOL     OW40048   3.394   4.197  11.808 -0.1198  0.0447 -0.0538
 9471SOL    HW140049   3.486   4.224  11.802  0.2000 -0.6496  1.6018
 9471SOL    HW240050   3.353   4.262  11.751 -1.3668  0.0652  0.8603
 9472SOL     OW40051   0.586   0.695  14.624  0.1036  0.0431  0.3328
 9472SOL    HW140052   0.569   0.778  14.579 -2.2288 -1.1661 -1.0272
 9472SOL    HW240053   0.521   0.697  14.694 -1.0133  0.2190 -0.6958
 9473SOL     OW40054   0.454   1.895   8.652 -0.0660 -0.1372 -0.2742
 9473SOL    HW140055   0.440   1.949   8.574 -3.8700 -0.9707 -0.1583
 9473SOL    HW240056   0.378   1.919   8.705  1.1247 -0.1288  1.4023
 9474SOL     OW40057   1.232   0.755  14.060  0.3556 -0.2008  0.1900
 9474SOL    HW140058   1.144   0.791  14.073  0.6583  0.0862  1.4841
 9474SOL    HW240059   1.217   0.669  14.099 -0.3367 -0.7788 -1.3890
 9475SOL     OW40060   3.830   2.483   6.091 -0.0470  0.1197 -0.1985
 9475SOL    HW140061   3.907   2.480   6.148  1.0200  0.0175 -1.6333
 9475SOL    HW240062   3.799   2.574   6.098 -0.6832 -0.2171  1.2779
 9476SOL     OW40063   1.969   3.855   5.930 -0.1185  0.4172 -0.2382
 9476SOL    HW140064   1.935   3.867   6.018 -0.1262 -1.3141  0.0048
 9476SOL    HW240065   1.886   3.817   5.900 -0.2344  1.0799 -0.7530
 9477SOL     OW40066   1.534   4.322   5.578  0.6963  0.2408 -0.6251
 9477SOL    HW140067   1.486   4.244   5.550 -0.1615  1.1659 -1.7049
 9477SOL    HW240068   1.484   4.340   5.657 -0.0904  2.8092 -1.7278
 9478SOL     OW40069   4.278   2.248  11.688 -0.1894 -0.4312  0.3929
 9478SOL    HW140070   4.331   2.299  11.627 -0.0654 -1.6707 -0.5223
 9478SOL    HW240071   4.343   2.198  11.737 -1.8085 -3.5139 -0.5932
 9479SOL     OW40072   3.603   3.122   1.386  0.2231  0.0817  0.0363
 9479SOL    HW140073   3.692   3.153   1.371 -1.5497  4.7279 -0.8957
 9479SOL    HW240074   3.555   3.205   1.375 -0.1057 -0.1144 -0.0113
 9480SOL     OW40075   2.957   3.954  15.921 -0.1248 -1.0036 -0.0278
 9480SOL    HW140076   2.963   3.944  16.016 -0.1966 -2.9205 -0.2251
 9480SOL    HW240077   2.909   3.876  15.894 -0.2563 -1.5020  1.6468
 9481SOL     OW40078   3.388   0.265  13.551 -0.4037 -0.0507  0.1140
 9481SOL    HW140079   3.343   0.301  13.627 -1.5438  0.8787 -1.0016
 9481SOL    HW240080   3.342   0.298  13.474  2.6025  0.5529 -1.4174
 9482SOL     OW40081   3.125   0.174   7.316 -0.1056  1.1956 -0.0708
 9482SOL    HW140082   3.033   0.195   7.300  0.0819  0.0623 -2.5504
 9482SOL    HW240083   3.182   0.188   7.241 -0.1998  0.1993 -0.3326
 9483SOL     OW40084   2.740   4.115  16.050 -0.3971  0.2703 -0.4101
 9483SOL    HW140085   2.686   4.144  15.977  1.7002  0.2256 -1.9553
 9483SOL    HW240086   2.807   4.066  16.003  0.2409 -0.6443  1.4360
 9484SOL     OW40087   3.552   0.989  16.541  0.1942  0.2447  0.3440
 9484SOL    HW140088   3.526   1.080  16.531 -0.2706 -0.0681 -1.2498
 9484SOL    HW240089   3.609   0.981  16.465 -0.3920 -0.9970  0.0342
 9485SOL     OW40090   3.860   1.365   6.075  0.1112  0.5616  0.0212
 9485SOL    HW140091   3.819   1.283   6.103  1.7558 -0.3737 -0.2719
 9485SOL    HW240092   3.782   1.409   6.043  0.5601 -0.6171 -2.6989
 9486SOL     OW40093   1.352   2.267   7.865 -0.4045  0.3749  0.0274
 9486SOL    HW140094   1.256   2.267   7.862 -0.2657  0.5076 -4.1642
 9486SOL    HW240095   1.369   2.336   7.929  0.9017 -0.8393  1.0085
 9487SOL     OW40096   0.713   4.232   3.575 -0.2783 -0.1743  0.2800
 9487SOL    HW140097   0.770   4.306   3.596 -0.1241 -0.8124  2.1465
 9487SOL    HW240098   0.782   4.180   3.535 -0.1896 -1.2232  1.7691
 9488SOL     OW40099   3.968   0.321   7.356  0.1482  0.3439  0.1526
 9488SOL    HW140100   3.991   0.411   7.378  0.1472  0.1093  1.1253
 9488SOL    HW240101   3.931   0.331   7.269  0.4023 -0.4153 -0.0428
 9489SOL     OW40102   3.116   3.606   0.255  0.1486  0.0076 -0.3044
 9489SOL    HW140103   3.157   3.539   0.309  1.4805  1.2594  0.2633
 9489SOL    HW240104   3.130   3.580   0.165 -2.1193 -2.8008  0.1495
 9490SOL     OW40105   1.688   2.098  14.674  0.0002  0.2528 -0.4849
 9490SOL    HW140106   1.685   2.192  14.694  2.5816  0.4314 -0.8904
 9490SOL    HW240107   1.740   2.068  14.748  0.8709 -3.2641 -2.5196
 9491SOL     OW40108   2.704   0.664   9.452 -0.8752 -0.3020  0.1139
 9491SOL    HW140109   2.788   0.645   9.411 -0.0319  0.3984  1.5195
 9491SOL    HW240110   2.719   0.635   9.542  0.5968  1.5638  0.4690
 9492SOL     OW40111   1.764   4.374   4.395  0.1239 -0.2945 -0.4288
 9492SOL    HW140112   1.823   4.437   4.354 -0.9829  0.4086 -0.9475
 9492SOL    HW240113   1.679   4.391   4.355  0.3507 -0.1510 -0.8472
 9493SOL     OW40114   4.673   0.551   4.050 -0.3359  0.4249  0.0887
 9493SOL    HW140115   4.589   0.597   4.043  0.4307  1.3242 -3.2838
 9493SOL    HW240116   4.650   0.465   4.085  1.5138  0.2872  0.9427
 9494SOL     OW40117   2.609   2.967  16.072  0.4554  0.3039 -0.7609
 9494SOL    HW140118   2.676   2.921  16.122 -0.1739 -0.8515 -0.9812
 9494SOL    HW240119   2.622   2.926  15.987  0.4368 -1.8836  0.3057
 9495SOL     OW40120   0.388   2.738   6.398  0.5169  0.3326  0.4006
 9495SOL    HW140121   0.414   2.662   6.347 -0.8926 -0.0789  0.3266
 9495SOL    HW240122   0.324   2.691   6.452 -1.2265  1.3367 -0.8062
 9496SOL     OW40123   4.275   1.632   4.468 -0.0430 -0.0463  0.2783
 9496SOL    HW140124   4.265   1.546   4.510  0.8198 -0.7119 -0.8702
 9496SOL    HW240125   4.252   1.614   4.377  1.2514 -3.8812  0.7030
 9497SOL     OW40126   2.644   2.807   9.189 -0.7025 -0.0857  0.5863
 9497SOL    HW140127   2.562   2.758   9.182 -0.2689 -0.6997 -0.1341
 9497SOL    HW240128   2.622   2.887   9.237 -0.3318  1.1109 -1.2745
 9498SOL     OW40129   3.674   3.183   6.806  0.1338  0.4155  0.9904
 9498SOL    HW140130   3.761   3.186   6.846  1.4255 -1.4498 -1.6370
 9498SOL    HW240131   3.657   3.093   6.835 -0.0591  0.6266  1.5341
 9499SOL     OW40132   4.657   2.645  11.272 -0.2426  0.0391  0.1368
 9499SOL    HW140133   4.607   2.597  11.205 -0.5174  1.1710 -0.4600
 9499SOL    HW240134   4.696   2.572  11.320  0.1017  1.2431  1.6648
 9500SOL     OW40135   0.456   1.940   7.196 -0.6143 -0.2728 -0.4335
 9500SOL    HW140136   0.527   1.987   7.239  1.4449 -1.1068 -2.8731
 9500SOL    HW240137   0.418   1.887   7.265 -1.0095 -0.6372 -0.9262
 9501SOL     OW40138   0.698   4.069   3.803 -0.5508 -0.2001 -0.3860
 9501SOL    HW140139   0.676   4.123   3.727  0.9800  1.2952  0.2225
 9501SOL    HW240140   0.664   3.989   3.765  3.5814 -1.0988 -2.1746
 9502SOL     OW40141   3.018   2.325   1.333  0.1320  0.3133  0.9762
 9502SOL    HW140142   2.971   2.398   1.292  1.5065  0.2371 -0.7020
 9502SOL    HW240143   3.069   2.372   1.400 -1.0686  2.8204  0.1546
 9503SOL     OW40144   4.205   1.708   5.150  0.3004 -0.6999 -0.1086
 9503SOL    HW140145   4.286   1.756   5.168 -0.2973  0.6240 -0.9266
 9503SOL    HW240146   4.146   1.749   5.214 -2.6266 -2.7324 -1.5327
 9504SOL     OW40147   2.971   3.945   8.241 -0.5755  0.0171 -0.2924
 9504SOL    HW140148   3.035   3.934   8.311  1.9194 -0.8671 -2.6790
 9504SOL    HW240149   2.961   4.040   8.236 -3.5989 -0.3030 -0.4773
 9505SOL     OW40150   4.334   3.331   5.981 -0.3151 -0.4607  0.5303
 9505SOL    HW140151   4.412   3.323   5.926  0.3989  2.2123  1.1358
 9505SOL    HW240152   4.381   3.344   6.064  1.4902  2.5469 -0.9568
 9506SOL     OW40153   0.016   4.626   4.888 -0.3033  0.4648 -0.6345
 9506SOL    HW140154   4.696   4.662   4.820  0.5544  2.0135 -0.5402
 9506SOL    HW240155   0.018   4.707   4.939  1.3448 -0.7445  1.2177
 9507SOL     OW40156   3.260   1.650   4.636 -0.7457 -0.0395 -0.1738
 9507SOL    HW140157   3.287   1.558   4.645  0.9514  0.5002  0.2632
 9507SOL    HW240158   3.176   1.628   4.595 -0.6602  0.8540 -0.8110
 9508SOL     OW40159   4.075   3.492  11.757  0.3872 -0.4761 -0.3050
 9508SOL    HW140160   4.004   3.551  11.784  0.1498 -1.2979  0.8345
 9508SOL    HW240161   4.149   3.531  11.804 -0.9289  1.3575  0.2767
 9509SOL     OW40162   3.707   3.950  12.772  0.3436 -0.0437 -0.3698
 9509SOL    HW140163   3.613   3.930  12.768 -0.0430  1.3344  1.5883
 9509SOL    HW240164   3.735   3.859  12.779 -2.0709 -0.8693 -1.3478
 9510SOL     OW40165   3.504   3.702   9.318 -0.2832  0.2133  0.0100
 9510SOL    HW140166   3.501   3.616   9.276 -1.5448  0.7296 -0.9664
 9510SOL    HW240167   3.588   3.699   9.363 -0.0552 -0.0008 -0.4234
 9511SOL     OW40168   0.659   2.567   2.586  0.2078  0.1298  0.4742
 9511SOL    HW140169   0.649   2.658   2.614 -0.9401  0.2766 -0.4275
 9511SOL    HW240170   0.611   2.509   2.646  3.2046 -1.5189  1.2901
 9512SOL     OW40171   3.415   1.257  10.665 -0.1325 -0.6360  0.7159
 9512SOL    HW140172   3.473   1.210  10.725  0.3359 -0.5672  0.3131
 9512SOL    HW240173   3.337   1.256  10.721 -0.4148  0.5972  0.3452
 9513SOL     OW40174   1.607   3.053   5.202  0.2366  0.3481  0.6174
 9513SOL    HW140175   1.570   2.991   5.265  2.5391 -1.0672  0.5502
 9513SOL    HW240176   1.602   3.134   5.253  2.9636  1.0242 -0.1785
 9514SOL     OW40177   1.009   4.329  17.106  0.1790 -0.0096  0.0200
 9514SOL    HW140178   1.050   4.368  17.183  0.4383  0.9644 -0.6172
 9514SOL    HW240179   1.049   4.378  17.034 -0.1238  1.0851  0.5977
 9515SOL     OW40180   4.458   3.078   1.114 -0.5797 -0.5902  0.0274
 9515SOL    HW140181   4.500   3.144   1.170 -0.4332  1.3966 -2.4197
 9515SOL    HW240182   4.495   3.004   1.162 -2.8053 -2.2745 -0.8729
 9516SOL     OW40183   0.579   0.250   9.030 -0.1121  0.2582  0.0359
 9516SOL    HW140184   0.487   0.225   9.021 -0.1712  0.7303 -0.6333
 9516SOL    HW240185   0.592   0.216   9.118 -1.6298  1.5232  0.7520
 9517SOL     OW40186   2.154   2.253   7.574 -0.2334 -0.2879  0.1687
 9517SOL    HW140187   2.068   2.229   7.607 -0.3752  0.4796  0.3526
 9517SOL    HW240188   2.169   2.314   7.646 -2.3067 -1.6181  1.7047
 9518SOL     OW40189   3.600   1.085  10.767 -0.0616 -0.2573 -0.6027
 9518SOL    HW140190   3.626   1.157  10.825  2.2287 -0.0487 -1.8826
 9518SOL    HW240191   3.687   1.049  10.749  0.7444  1.2332  0.3159
 9519SOL     OW40192   0.799   1.105   1.102  0.3969 -0.1940  0.3041
 9519SOL    HW140193   0.764   1.041   1.164  3.3117 -0.0630  2.1016
 9519SOL    HW240194   0.724   1.138   1.053  0.6554  0.1534  0.1350
 9520SOL     OW40195   0.861   1.456   5.102 -0.0131  0.0506  0.1246
 9520SOL    HW140196   0.841   1.535   5.051  1.6836  0.3575 -0.0522
 9520SOL    HW240197   0.956   1.457   5.091  0.3183  1.6232  3.3687
 9521SOL     OW40198   1.403   3.107   1.596  0.8497  0.2044 -0.0691
 9521SOL    HW140199   1.384   3.192   1.635 -0.0749  0.6865 -1.5758
 9521SOL    HW240200   1.484   3.119   1.546  1.2110 -2.4585 -0.0961
 9522SOL     OW40201   3.966   0.255   5.234 -0.2201 -0.4413 -0.4460
 9522SOL    HW140202   3.892   0.253   5.295 -1.1805 -0.1831 -1.6077
 9522SOL    HW240203   3.916   0.277   5.156 -0.8348 -0.6472 -0.1128
 9523SOL     OW40204   2.136   4.076   8.160  0.7026  0.1611  0.1802
 9523SOL    HW140205   2.046   4.055   8.187  0.5593  0.4119 -0.1058
 9523SOL    HW240206   2.140   4.155   8.215  1.3824 -0.9797  1.7806
 9524SOL     OW40207   3.466   1.122   1.929  0.1366 -0.4269  0.0701
 9524SOL    HW140208   3.558   1.140   1.909 -0.2259  1.9275  0.5480
 9524SOL    HW240209   3.413   1.148   1.854  2.1227  1.0479 -0.8143
 9525SOL     OW40210   3.137   2.315   0.450  0.0976 -0.3467  0.1190
 9525SOL    HW140211   3.162   2.315   0.542  1.0684 -0.3134 -0.1441
 9525SOL    HW240212   3.210   2.265   0.413  0.4241  1.2466 -1.4088
 9526SOL     OW40213   0.863   2.742   1.244  0.1704 -0.3236 -0.7607
 9526SOL    HW140214   0.804   2.808   1.282 -0.3059 -0.9687 -0.3641
 9526SOL    HW240215   0.938   2.731   1.302  0.1446 -0.4508 -0.7520
 9527SOL     OW40216   3.872   3.646   4.852 -0.0455 -0.2759 -0.2427
 9527SOL    HW140217   3.946   3.702   4.830  0.1921 -0.9539 -1.1846
 9527SOL    HW240218   3.906   3.557   4.837 -1.7029 -0.8191 -0.8067
 9528SOL     OW40219   0.838   0.031   8.103  0.1872  0.2600  0.8082
 9528SOL    HW140220   0.859   0.073   8.187  0.1662 -0.9297  1.4210
 9528SOL    HW240221   0.842   0.108   8.047  1.4795 -0.3031  0.1185
 9529SOL     OW40222   0.990   3.818   5.866  0.1548 -0.6296  0.0352
 9529SOL    HW140223   1.001   3.815   5.771  0.1749 -2.3277  0.0957
 9529SOL    HW240224   0.921   3.753   5.875 -0.0028 -0.2458  1.6192
 9530SOL     OW40225   2.612   3.200  17.341  0.3410  0.1171  0.4591
 9530SOL    HW140226   2.544   3.164  17.398  0.1095  0.2059  0.2410
 9530SOL    HW240227   2.694   3.186  17.388  1.2714 -1.3269 -1.6054
 9531SOL     OW40228   4.521   4.575   2.295  0.2697 -0.1031 -0.1700
 9531SOL    HW140229   4.515   4.563   2.200  3.6751 -1.1647 -0.2604
 9531SOL    HW240230   4.438   4.612   2.324  1.5488  1.4848  1.4621
 9532SOL     OW40231   1.476   2.063   9.306  0.3366  0.0113 -0.1523
 9532SOL    HW140232   1.393   2.112   9.307  1.1498  1.4007 -1.1609
 9532SOL    HW240233   1.523   2.095   9.229  4.5321 -2.2756  1.4773
 9533SOL     OW40234   0.494   0.529   3.452  0.2872  0.1826  0.0720
 9533SOL    HW140235   0.427   0.558   3.515 -0.6861  0.3441 -1.0315
 9533SOL    HW240236   0.566   0.556   3.508 -0.1168  1.3881  0.0082
 9534SOL     OW40237   4.354   2.537   4.972  0.5126  0.3097 -0.4386
 9534SOL    HW140238   4.313   2.453   4.956  2.6672 -0.7330 -0.5656
 9534SOL    HW240239   4.345   2.568   4.882 -2.3571  0.8142  0.0356
 9535SOL     OW40240   0.986   0.302   5.777 -0.0821  0.0443  0.3646
 9535SOL    HW140241   0.923   0.260   5.835  0.7151  0.0725  1.2543
 9535SOL    HW240242   1.052   0.234   5.769  0.6740  1.1178 -2.5980
 9536SOL     OW40243   0.530   4.509   0.775 -0.5012  0.2595 -0.0540
 9536SOL    HW140244   0.556   4.522   0.866 -0.5434 -0.5429  0.0776
 9536SOL    HW240245   0.613   4.542   0.741  1.0319 -1.1318  2.3571
 9537SOL     OW40246   1.447   1.705   3.468  0.1791  0.1317  0.7293
 9537SOL    HW140247   1.499   1.717   3.548 -0.9138  0.4891  1.3933
 9537SOL    HW240248   1.472   1.615   3.450  1.9446  0.9436 -0.7513
 9538SOL     OW40249   0.631   1.311   1.783  0.2084  0.3910 -0.4404
 9538SOL    HW140250   0.576   1.249   1.734  0.4573 -1.6466  1.8606
 9538SOL    HW240251   0.718   1.287   1.751  0.8088  2.5918 -0.4406
 9539SOL     OW40252   3.612   3.421   6.686  0.2007 -0.3020  0.0380
 9539SOL    HW140253   3.622   3.487   6.755 -0.8140 -0.6016  0.4715
 9539SOL    HW240254   3.629   3.338   6.732 -2.6809  0.7514  3.0688
 9540SOL     OW40255   2.806   0.480   2.916  1.3901  0.1750 -0.4316
 9540SOL    HW140256   2.866   0.439   2.978 -0.5353  0.8096  1.8475
 9540SOL    HW240257   2.719   0.460   2.950  1.2172 -0.1135 -1.0258
 9541SOL     OW40258   4.549   2.922   6.735 -0.2533 -0.0148 -0.6335
 9541SOL    HW140259   4.572   2.993   6.795  0.6243 -1.3462  0.5780
 9541SOL    HW240260   4.605   2.848   6.754  0.5204  0.4375 -1.1500
 9542SOL     OW40261   1.412   2.752   0.122 -0.6592  0.5360  0.4593
 9542SOL    HW140262   1.394   2.832   0.171 -1.0836 -1.4561  3.5527
 9542SOL    HW240263   1.337   2.765   0.064 -0.3441 -1.1767 -0.3148
 9543SOL     OW40264   2.445   3.120   0.559  0.2558  0.4358 -0.0311
 9543SOL    HW140265   2.375   3.089   0.502 -0.8978  3.8271 -0.4755
 9543SOL    HW240266   2.500   3.148   0.486  1.5635 -1.1909  0.3331
 9544SOL     OW40267   1.978   1.599   3.339 -0.1385 -0.2935  0.1076
 9544SOL    HW140268   2.014   1.515   3.312  0.6601 -0.5630  2.0015
 9544SOL    HW240269   2.007   1.622   3.428 -1.4033  2.3907 -0.1635
 9545SOL     OW40270   0.803   3.169  13.358  0.2001 -0.0753 -0.6445
 9545SOL    HW140271   0.857   3.178  13.436  0.7090 -1.3041 -0.8590
 9545SOL    HW240272   0.738   3.103  13.379 -0.6464  1.4974  1.6782
 9546SOL     OW40273   0.678   0.650   6.974  0.1323  0.3551  0.0757
 9546SOL    HW140274   0.718   0.563   6.964  1.2292  0.7205  1.1844
 9546SOL    HW240275   0.600   0.619   7.019  0.6176  1.0510  1.3980
 9547SOL     OW40276   1.545   4.302  14.682  0.3076  0.4793 -0.0070
 9547SOL    HW140277   1.504   4.233  14.629  0.2458  0.4081  0.1344
 9547SOL    HW240278   1.634   4.267  14.683 -0.4241 -1.5710 -3.6708
 9548SOL     OW40279   3.816   4.067  16.605  0.0392 -0.2756 -0.0082
 9548SOL    HW140280   3.824   3.984  16.653 -2.9097 -1.2203 -1.1634
 9548SOL    HW240281   3.803   4.041  16.514  1.4550 -0.8363 -0.0509
 9549SOL     OW40282   4.022   4.071   8.273 -0.7198  0.1606 -0.3887
 9549SOL    HW140283   4.060   4.044   8.189  3.4801 -0.2073  1.6791
 9549SOL    HW240284   4.053   4.002   8.331  0.3666  0.8957 -0.1001
 9550SOL     OW40285   3.719   3.115   3.633  0.2988 -0.0870 -0.7210
 9550SOL    HW140286   3.776   3.083   3.564  1.5763 -0.9846  0.7527
 9550SOL    HW240287   3.767   3.085   3.710 -1.1792  1.0694  0.6494
 9551SOL     OW40288   1.142   0.902   5.111  0.5687  0.3217 -0.3889
 9551SOL    HW140289   1.123   0.989   5.076 -0.4247  0.1404 -0.3026
 9551SOL    HW240290   1.235   0.887   5.095  0.3334 -2.3265  0.7870
 9552SOL     OW40291   2.775   1.419   1.985 -0.1612  0.5657  0.7257
 9552SOL    HW140292   2.843   1.467   1.936  1.3810 -2.3540 -0.0111
 9552SOL    HW240293   2.827   1.356   2.035 -1.1045 -1.1447 -0.4273
 9553SOL     OW40294   2.555   2.287  16.931  0.0594  0.3629 -0.2428
 9553SOL    HW140295   2.510   2.354  16.880  0.8393  0.4822 -0.7703
 9553SOL    HW240296   2.595   2.239  16.859  0.0924  0.9494 -0.6172
 9554SOL     OW40297   1.813   0.085   0.937  0.0992  1.1420  0.4815
 9554SOL    HW140298   1.864   0.036   1.001  0.1353  0.4569 -0.0828
 9554SOL    HW240299   1.876   0.158   0.937  1.7615 -0.3411 -3.6923
 9555SOL     OW40300   2.968   1.339  17.478 -0.2331  0.6688  0.8591
 9555SOL    HW140301   3.047   1.393  17.477  1.0454 -1.1982  1.0869
 9555SOL    HW240302   2.951   1.338  17.384  1.5727  0.5501  0.5366
 9556SOL     OW40303   3.997   1.935  13.959  0.2110  0.1014 -0.0565
 9556SOL    HW140304   4.035   1.854  13.927  0.0943 -0.4206  1.1263
 9556SOL    HW240305   3.959   1.902  14.040 -0.0780  1.3966  0.3398
 9557SOL     OW40306   1.104   4.169  16.228 -0.0384 -0.2520  0.4464
 9557SOL    HW140307   1.167   4.118  16.280  1.9298 -0.0437 -1.7178
 9557SOL    HW240308   1.042   4.107  16.191  1.0452  0.0723 -1.9435
 9558SOL     OW40309   4.157   4.109   7.779 -0.2081  0.0720 -0.5271
 9558SOL    HW140310   4.073   4.063   7.782 -0.3634  0.2959 -1.5290
 9558SOL    HW240311   4.183   4.086   7.690  0.2669 -1.2164 -0.0419
 9559SOL     OW40312   3.074   0.507   8.395 -0.2296 -0.5886  0.1707
 9559SOL    HW140313   2.983   0.478   8.394 -0.1769 -0.7575 -0.0415
 9559SOL    HW240314   3.063   0.602   8.390 -1.0993 -0.6207  1.7409
 9560SOL     OW40315   1.443   3.004   3.723 -0.4999 -0.1884  0.2694
 9560SOL    HW140316   1.482   3.080   3.767 -0.2379 -0.2078  0.0684
 9560SOL    HW240317   1.518   2.946   3.729 -0.8852 -0.0856  5.9437
 9561SOL     OW40318   1.017   0.160   3.004 -0.2841  0.7597 -0.8164
 9561SOL    HW140319   0.951   0.109   2.957  1.1063  0.1297 -2.0567
 9561SOL    HW240320   1.098   0.120   2.973 -1.0102 -1.5046  0.2224
 9562SOL     OW40321   0.208   4.253   4.552 -0.4190  0.3767 -0.1061
 9562SOL    HW140322   0.143   4.306   4.598 -1.5808 -1.1087 -0.0190
 9562SOL    HW240323   0.248   4.207   4.626 -0.3751  0.1355 -0.2763
 9563SOL     OW40324   2.439   0.117   7.450  0.2348  0.0951  0.2258
 9563SOL    HW140325   2.389   0.187   7.410 -1.8120 -1.5021 -0.0224
 9563SOL    HW240326   2.529   0.149   7.448  0.2222  0.1568  0.5945
 9564SOL     OW40327   0.894   1.977   9.023  0.2590  0.6365  0.2566
 9564SOL    HW140328   0.875   2.020   9.107 -1.9101  0.4428 -0.1414
 9564SOL    HW240329   0.812   1.986   8.975  0.4457  1.4778  0.0933
 9565SOL     OW40330   4.124   4.459   8.911  0.3336  0.3887  0.2070
 9565SOL    HW140331   4.190   4.528   8.906 -0.7277  1.0903 -4.4264
 9565SOL    HW240332   4.155   4.429   8.996 -1.4760 -0.9556  0.4168
 9566SOL     OW40333   2.799   3.826   3.569 -0.6621  0.4566  0.7971
 9566SOL    HW140334   2.867   3.765   3.540 -1.4879 -0.4444  0.7766
 9566SOL    HW240335   2.815   3.831   3.664  0.3164 -2.0072  0.7594
 9567SOL     OW40336   1.153   2.472  11.017  0.2873  0.4345 -0.7361
 9567SOL    HW140337   1.241   2.440  11.038  0.0279 -0.3473 -0.8167
 9567SOL    HW240338   1.170   2.527  10.941  3.2511  1.0838  0.4237
 9568SOL     OW40339   3.090   2.536  15.130 -0.0430  0.4790 -0.4655
 9568SOL    HW140340   3.101   2.485  15.050  0.2463  0.3935 -0.3733
 9568SOL    HW240341   3.181   2.549  15.158  0.1688  1.0627 -1.4357
 9569SOL     OW40342   0.084   4.002  10.374  0.2296  0.1409  0.0375
 9569SOL    HW140343   0.155   4.057  10.342 -0.3737  1.3748  0.8165
 9569SOL    HW240344   0.051   4.058  10.444 -0.0374  1.4964 -1.1584
   4.73662   4.73662  17.74493
