Membrane in water
40344
    1TMC1    C1    1   2.644   1.352  11.308  0.2594 -0.1457 -0.4487
    1TMC1    C2    2   2.590   1.313  11.193  0.1750  0.0276 -0.2364
    1TMC1    C3    3   2.675   1.316  11.084 -0.4615 -0.5392  0.1371
    1TMC1    C4    4   2.773   1.377  11.326  0.3705 -0.2383  0.1512
    1TMC1    C5    5   2.859   1.379  11.216 -0.5535 -0.0010 -0.4993
    1TMC1    C6    6   2.808   1.351  11.093  0.2162 -0.3904 -0.1664
    1TMC1     C    7   2.563   1.341  11.427  0.1619 -0.3192  0.0787
    1TMC1     O    8   2.590   1.402  11.529  0.2818  0.3955 -0.2332
    1TMC1     H    9   2.489   1.274  11.188  0.8207 -1.8085  1.0091
    1TMC1    H1   10   2.805   1.394  11.428 -1.9132  0.5827  0.7287
    1TMC1    H2   11   2.872   1.355  11.005  0.6920  1.3501  0.2716
    1TMC1    C7   12   3.001   1.355  11.225 -0.1019  0.0692  0.5248
    1TMC1    C8   13   2.621   1.276  10.955 -0.0614  0.1730 -0.6052
    1TMC1    O1   14   3.049   1.268  11.150  0.0476  0.0896  0.2183
    1TMC1    O2   15   2.531   1.195  10.952 -0.1937  0.4468  0.0155
    1TMC1    O3   16   3.052   1.475  11.241  0.2948 -0.1773  0.2203
    1TMC1    H3   17   2.988   1.536  11.284 -0.0791 -1.6285  1.7045
    1TMC1    O5   18   2.681   1.335  10.849 -0.2149  0.1304 -0.7459
    1TMC1    H5   19   2.733   1.414  10.875  1.0235 -0.6706 -0.8267
    2MPD2     C   20   2.286   1.007  11.719  0.1197  0.0401  0.1895
    2MPD2    C1   21   2.341   1.129  11.753  0.6231  0.4503  0.0978
    2MPD2    C2   22   2.397   1.205  11.655 -0.1057 -0.9067 -0.1644
    2MPD2    C3   23   2.413   1.160  11.524  0.0221  0.4502 -0.5907
    2MPD2    C4   24   2.368   1.034  11.489  0.1518  0.1527 -0.6099
    2MPD2    C5   25   2.305   0.963  11.590 -0.7627  0.1652 -1.2588
    2MPD2     H   26   2.448   1.296  11.685  1.2108 -1.9379  0.7286
    2MPD2    H1   27   2.363   0.994  11.388  4.1229 -1.6037 -0.0906
    2MPD2    H2   28   2.234   0.941  11.787  0.2010 -1.9237 -1.6666
    2MPD2    H3   29   2.264   0.865  11.566 -1.5574  0.6668 -1.9791
    2MPD2     N   30   2.482   1.227  11.420 -0.6743  0.2746  0.4582
    2MPD2    H5   31   2.480   1.179  11.331 -0.1747  1.1761 -0.0487
    2MPD2    N1   32   2.336   1.177  11.880  0.1336  0.0559  0.5226
    2MPD2    H7   33   2.369   1.273  11.888  0.1065 -0.0584  2.0392
    3TMC1    C1   34   1.234   2.148  11.210 -0.2359  0.8314 -0.1842
    3TMC1    C2   35   1.202   2.025  11.157  0.2374  0.1845  0.3467
    3TMC1    C3   36   1.273   1.983  11.054  0.3293  0.0243  1.2979
    3TMC1    C4   37   1.330   2.220  11.146  0.1410 -0.4099  0.0785
    3TMC1    C5   38   1.401   2.178  11.044 -0.5740 -0.4618  0.5348
    3TMC1    C6   39   1.381   2.048  11.004 -0.7718 -0.2642  0.3165
    3TMC1     C   40   1.184   2.181  11.345  0.6863 -0.2788  0.4132
    3TMC1     O   41   1.127   2.097  11.409  0.0617  0.3429  0.3091
    3TMC1     H   42   1.127   1.963  11.207 -0.2412  0.7219  0.2908
    3TMC1    H1   43   1.357   2.315  11.191  0.1972  0.8466 -2.5355
    3TMC1    H2   44   1.428   2.004  10.916 -0.9130 -0.8686  0.5462
    3TMC1    C7   45   1.490   2.272  10.978 -0.0692  0.2872  1.0185
    3TMC1    C8   46   1.228   1.868  10.981  0.1476  0.4126  0.2798
    3TMC1    O1   47   1.485   2.389  11.010  0.4361  0.3842 -0.3412
    3TMC1    O2   48   1.306   1.798  10.918 -0.2914 -0.0651  0.4199
    3TMC1    O3   49   1.540   2.222  10.865 -0.0403 -0.5201  0.1106
    3TMC1    H3   50   1.528   2.125  10.852  1.9387 -1.1770  3.2038
    3TMC1    O5   51   1.107   1.894  10.943 -0.6626 -0.9193 -0.4239
    3TMC1    H5   52   1.064   1.963  10.998 -0.5204 -0.1828 -1.2285
    4MPD2     C   53   1.005   2.516  11.687 -0.3590  0.2995  0.4054
    4MPD2    C1   54   1.042   2.590  11.581 -0.0598 -0.3474 -0.3165
    4MPD2    C2   55   1.112   2.520  11.481 -0.1948  0.0508  0.1809
    4MPD2    C3   56   1.139   2.383  11.485  0.1210 -0.1117  0.0299
    4MPD2    C4   57   1.099   2.316  11.598 -0.5168  0.0830  0.4115
    4MPD2    C5   58   1.041   2.383  11.704  0.4383  0.0070  0.4654
    4MPD2     H   59   1.130   2.580  11.393 -0.8946  1.2257  0.8384
    4MPD2    H1   60   1.130   2.214  11.618  0.9185  0.7597  1.6182
    4MPD2    H2   61   0.944   2.556  11.767  0.8114 -1.1101  1.9836
    4MPD2    H3   62   1.019   2.325  11.793  1.1018 -0.2668  0.4535
    4MPD2     N   63   1.188   2.318  11.369 -0.1597  0.8227 -0.4008
    4MPD2    H5   64   1.214   2.379  11.292 -3.2916  2.9561  0.2682
    4MPD2    N1   65   1.011   2.727  11.568 -0.7097  0.1931  0.3629
    4MPD2    H7   66   1.048   2.759  11.479 -2.1616  2.6631  0.6669
    5TCq1    O1   67   1.504   4.650  11.292 -0.5473  0.4876 -0.7216
    5TCq1    C1   68   1.434   4.614  11.404 -0.4704 -0.8104  0.5285
    5TCq1    O2   69   1.346   4.675  11.460  0.8731  0.2051 -0.5425
    5TCq1    C2   70   1.504   4.508  11.470  0.1062  0.9155 -0.2037
    5TCq1    C3   71   1.471   4.492  11.599 -0.5864 -0.1486  0.2961
    5TCq1    C4   72   1.489   4.369  11.661  0.3217 -0.1190 -0.3391
    5TCq1    C5   73   1.531   4.264  11.589 -0.1765 -0.3845  0.3696
    5TCq1    C6   74   1.545   4.282  11.453  0.3257 -0.0607 -0.4797
    5TCq1    C7   75   1.526   4.404  11.394 -0.0031 -0.2948 -0.1498
    5TCq1    C8   76   1.594   4.166  11.378  0.2113 -0.3633 -0.0264
    5TCq1    O4   77   1.600   4.059  11.441 -0.3526  0.3362  0.3736
    5TCq1    C9   78   1.471   4.359  11.807  0.5232  0.0713  0.2744
    5TCq1    O5   79   1.496   4.246  11.854 -0.5134 -0.2389 -0.1905
    5TCq1    O6   80   1.455   4.468  11.864  0.4709  0.2950  0.4025
    5TCq1    H1   81   1.588   4.601  11.281 -1.1750 -0.8892  0.5525
    5TCq1    H2   82   1.438   4.576  11.660  1.8769  1.2582 -0.3262
    5TCq1    H3   83   1.559   4.169  11.632 -1.7828 -1.1993 -0.3803
    5TCq1    H4   84   1.530   4.415  11.286 -0.2988 -1.4368 -0.2869
    6MPD2     C   85   1.707   4.165  11.023  0.6122  0.5391  0.4182
    6MPD2    C1   86   1.673   4.114  11.147  0.0157 -0.0565 -0.6461
    6MPD2    C2   87   1.682   3.976  11.165  0.2420 -0.6008 -0.1907
    6MPD2    C3   88   1.721   3.893  11.070 -0.1136  0.0626 -0.2963
    6MPD2    C4   89   1.764   3.943  10.947  0.4707 -0.1419 -1.5632
    6MPD2    C5   90   1.756   4.079  10.927  0.1724 -0.0726  0.2362
    6MPD2     H   91   1.652   3.924  11.255 -0.1123 -1.1544 -0.6238
    6MPD2    H1   92   1.803   3.883  10.866  2.8275  0.3189 -0.7769
    6MPD2    H2   93   1.681   4.267  10.997  2.6772  0.8046 -0.5864
    6MPD2    H3   94   1.783   4.106  10.826 -1.0228  1.4437  0.3318
    6MPD2     N   95   1.743   3.757  11.108 -0.2806  0.1111 -0.2684
    6MPD2    H5   96   1.733   3.726  11.204 -1.2949 -0.8455 -0.6924
    6MPD2    N1   97   1.614   4.195  11.247 -0.2161  0.4594  0.0909
    6MPD2    H7   98   1.589   4.289  11.218  0.3993  1.2709  2.2579
    7TCq1    O1   99   0.829   3.341  13.627  0.2636 -0.3978  0.0459
    7TCq1    C1  100   0.710   3.402  13.597  0.5584  0.0003 -0.6497
    7TCq1    O2  101   0.684   3.456  13.491  0.2387  0.6129  0.6074
    7TCq1    C2  102   0.619   3.318  13.663 -0.0449  0.1909 -0.1647
    7TCq1    C3  103   0.619   3.295  13.795  0.0835 -0.1381  0.0096
    7TCq1    C4  104   0.532   3.212  13.850 -1.1607 -1.4693 -0.8191
    7TCq1    C5  105   0.429   3.164  13.769 -0.2710  0.6086  0.8361
    7TCq1    C6  106   0.425   3.201  13.636  0.3386  0.0382  0.0467
    7TCq1    C7  107   0.518   3.282  13.581 -0.3868 -0.0172 -0.9040
    7TCq1    C8  108   0.299   3.171  13.571  0.7486 -0.2803 -0.2366
    7TCq1    O4  109   0.225   3.083  13.619 -0.3197 -0.0192 -0.0270
    7TCq1    C9  110   0.536   3.186  13.989 -0.6261 -0.2152  0.5912
    7TCq1    O5  111   0.623   3.240  14.056  0.2572 -0.2219  0.4446
    7TCq1    O6  112   0.441   3.141  14.050 -0.2319  0.1480  0.1621
    7TCq1    H1  113   0.835   3.299  13.715  0.4948 -2.8897 -1.1623
    7TCq1    H2  114   0.698   3.331  13.860 -0.2595  0.9658 -0.1856
    7TCq1    H3  115   0.357   3.101  13.820 -1.3059 -0.1051 -1.4984
    7TCq1    H4  116   0.513   3.319  13.479  2.8834  3.2800  0.1281
    8MPD2     C  117   4.723   3.206  13.159 -0.4831  0.1490 -1.1235
    8MPD2    C1  118   4.726   3.112  13.263 -0.2715 -0.8788  0.2626
    8MPD2    C2  119   0.079   3.126  13.359  0.0923  0.6326  0.3648
    8MPD2    C3  120   0.171   3.228  13.354 -0.2021 -0.8777  0.7123
    8MPD2    C4  121   0.167   3.319  13.252  0.4108  0.0439  0.1586
    8MPD2    C5  122   0.080   3.299  13.151 -0.5616 -0.4796  0.0807
    8MPD2     H  123   0.085   3.056  13.441  0.1828  0.1869 -0.0197
    8MPD2    H1  124   0.240   3.399  13.246 -0.3892  0.7103 -0.8296
    8MPD2    H2  125   4.644   3.195  13.086  0.2108 -1.2584 -1.6801
    8MPD2    H3  126   0.080   3.372  13.072  0.7600 -0.9140 -0.3286
    8MPD2     N  127   0.270   3.250  13.455 -0.2336 -0.1355  0.2761
    8MPD2    H5  128   0.326   3.333  13.443 -0.7183 -0.0613 -1.3988
    8MPD2    N1  129   4.630   3.004  13.263 -0.6018  0.4786  0.0055
    8MPD2    H7  130   4.576   3.008  13.177 -0.8270  0.7602  0.1620
    9TMC1    C1  131   2.238   1.413  10.894  0.9702  0.4822 -0.6991
    9TMC1    C2  132   2.302   1.527  10.861  0.5273  0.0222  0.4957
    9TMC1    C3  133   2.411   1.531  10.770  0.4440  0.2862 -0.4582
    9TMC1    C4  134   2.271   1.302  10.819  1.2733 -0.4706 -0.3900
    9TMC1    C5  135   2.368   1.309  10.717  0.4103 -0.3285  0.1777
    9TMC1    C6  136   2.438   1.419  10.688  0.0971 -1.1306 -0.5616
    9TMC1     C  137   2.100   1.419  10.931 -0.8972 -0.2007  0.5756
    9TMC1     O  138   2.030   1.324  10.890 -0.3182 -0.3210  1.0948
    9TMC1     H  139   2.253   1.616  10.901 -0.7992 -0.8748  0.8605
    9TMC1    H1  140   2.226   1.205  10.837  0.5428 -0.2857 -1.1857
    9TMC1    H2  141   2.505   1.426  10.603  0.1406  0.1989 -0.4219
    9TMC1    C7  142   2.402   1.191  10.648 -0.5516 -0.7007 -0.1313
    9TMC1    C8  143   2.438   1.659  10.708 -0.1212  0.2507 -0.1480
    9TMC1    O1  144   2.336   1.090  10.625  0.4905  0.3025  0.7462
    9TMC1    O2  145   2.418   1.690  10.591  0.4232 -0.2534 -0.1637
    9TMC1    O3  146   2.541   1.182  10.652  0.0216  0.0944 -0.6222
    9TMC1    H3  147   2.584   1.261  10.691  1.1068  0.5295 -2.6873
    9TMC1    O5  148   2.448   1.756  10.809  0.0960 -0.3773  0.0451
    9TMC1    H5  149   2.472   1.728  10.899 -0.0550 -1.4241 -0.2433
   10MPD2     C  150   1.823   1.475  11.008 -0.4150  0.4675  0.2387
   10MPD2    C1  151   1.937   1.533  11.064 -0.8064 -0.2490  0.3985
   10MPD2    C2  152   1.921   1.622  11.170 -0.2118 -0.0756  0.1196
   10MPD2    C3  153   1.793   1.651  11.227  0.1874 -0.2096  0.2576
   10MPD2    C4  154   1.687   1.583  11.169  0.3393 -0.1959  0.0447
   10MPD2    C5  155   1.700   1.512  11.054 -0.5957 -0.1182  0.1306
   10MPD2     H  156   2.010   1.651  11.225  0.5361  0.4737 -1.3946
   10MPD2    H1  157   1.585   1.593  11.206  0.7169  0.3387  0.9442
   10MPD2    H2  158   1.834   1.416  10.917  1.9657 -1.3320  1.7023
   10MPD2    H3  159   1.614   1.460  11.012 -0.8119  1.0767 -0.9149
   10MPD2     N  160   1.774   1.733  11.339  0.0138  0.2936 -0.3183
   10MPD2    H5  161   1.681   1.723  11.378  0.8136 -1.9794  1.0511
   10MPD2    N1  162   2.068   1.514  11.027  0.2981 -0.1071 -0.8394
   10MPD2    H7  163   2.142   1.534  11.093 -0.2914  0.3818 -0.3309
   11TCq1    O1  164   2.464   2.107  14.682 -0.2557  0.2943  0.3713
   11TCq1    C1  165   2.590   2.085  14.683  0.2275  0.0206  0.4900
   11TCq1    O2  166   2.676   2.144  14.747  0.3947 -0.2196 -0.9551
   11TCq1    C2  167   2.627   1.992  14.573  0.0515  0.2640 -0.1479
   11TCq1    C3  168   2.757   1.999  14.528  0.2217 -0.0120 -0.1802
   11TCq1    C4  169   2.813   1.913  14.441 -0.1558  0.3898  0.6374
   11TCq1    C5  170   2.731   1.813  14.401 -0.1574  0.2720  0.2033
   11TCq1    C6  171   2.601   1.803  14.446 -0.3827 -0.7712 -0.2587
   11TCq1    C7  172   2.549   1.890  14.537  0.6734  0.0312  0.0195
   11TCq1    C8  173   2.530   1.679  14.420 -0.0925  0.5084 -0.3585
   11TCq1    O4  174   2.442   1.662  14.501  0.1365 -0.2677 -0.1058
   11TCq1    C9  175   2.955   1.919  14.409  0.1568  0.4124 -0.5812
   11TCq1    O5  176   3.016   1.820  14.361 -0.2008  0.0140 -0.9059
   11TCq1    O6  177   3.012   2.017  14.465 -0.4568 -0.7271 -0.2436
   11TCq1    H1  178   2.417   2.080  14.600  1.2854 -2.1030  0.2546
   11TCq1    H2  179   2.815   2.083  14.565  0.1706  0.6929 -1.6978
   11TCq1    H3  180   2.776   1.735  14.340 -0.6593  0.2172 -0.0934
   11TCq1    H4  181   2.456   1.877  14.590 -0.8511  1.2887 -2.4023
   12MPD2     C  182   2.452   1.393  14.388  0.6051  0.2517  0.3945
   12MPD2    C1  183   2.527   1.464  14.296 -0.7855  0.1472 -0.2429
   12MPD2    C2  184   2.575   1.401  14.192  0.4725 -0.7777 -0.0341
   12MPD2    C3  185   2.552   1.266  14.169  0.4773 -0.1815  0.8315
   12MPD2    C4  186   2.482   1.193  14.261 -0.1328 -0.5027  0.2808
   12MPD2    C5  187   2.440   1.256  14.376 -0.3277  0.2343  0.1911
   12MPD2     H  188   2.645   1.463  14.137  1.0405 -1.2020  0.1976
   12MPD2    H1  189   2.463   1.087  14.245 -0.6977 -0.3317 -0.1344
   12MPD2    H2  190   2.416   1.437  14.481  0.3037 -0.1406  0.4599
   12MPD2    H3  191   2.381   1.204  14.451  0.5690 -2.0333 -0.6952
   12MPD2     N  192   2.589   1.208  14.047 -0.8095 -0.2763 -0.3487
   12MPD2    H5  193   2.571   1.109  14.042  2.5292 -0.9144  0.2621
   12MPD2    N1  194   2.570   1.599  14.314  0.0581 -0.7887 -0.0073
   12MPD2    H7  195   2.626   1.641  14.240  1.0322 -2.1267 -0.0190
   13TCq1    O1  196   2.391   1.744  11.812  0.3348  0.2652 -0.4910
   13TCq1    C1  197   2.268   1.780  11.767  0.2343 -0.0773 -0.0988
   13TCq1    O2  198   2.181   1.843  11.825 -0.3101 -0.2095  0.1368
   13TCq1    C2  199   2.242   1.662  11.692 -0.0565 -0.3314 -0.0622
   13TCq1    C3  200   2.299   1.667  11.566  1.0425 -0.3250 -0.7060
   13TCq1    C4  201   2.249   1.598  11.462  0.3665  0.0010 -0.0570
   13TCq1    C5  202   2.131   1.527  11.477 -0.5061 -0.1869  1.0989
   13TCq1    C6  203   2.068   1.538  11.598 -0.6795 -0.0977  0.6321
   13TCq1    C7  204   2.121   1.601  11.702 -0.0452  0.3439  0.0571
   13TCq1    C8  205   1.925   1.511  11.612  0.2890 -0.3508 -0.9119
   13TCq1    O4  206   1.869   1.555  11.711  0.2688  0.3416 -0.2768
   13TCq1    C9  207   2.314   1.593  11.333 -0.7055  0.1081 -0.3672
   13TCq1    O5  208   2.255   1.529  11.243 -0.2479 -0.0569  0.1692
   13TCq1    O6  209   2.419   1.666  11.325  0.4167  0.2736  0.3326
   13TCq1    H1  210   2.427   1.659  11.778  0.4537 -0.7818  2.2888
   13TCq1    H2  211   2.394   1.718  11.554 -0.0964  2.0774  0.6088
   13TCq1    H3  212   2.098   1.457  11.401  0.1216  0.8619 -0.1237
   13TCq1    H4  213   2.071   1.602  11.798  1.5370  0.1143  0.8897
   14MPD2     C  214   1.710   1.294  11.420 -0.2308 -0.5620  0.2184
   14MPD2    C1  215   1.735   1.397  11.512  0.4159 -0.5371  0.5364
   14MPD2    C2  216   1.633   1.456  11.587  0.3515  0.2034 -0.2411
   14MPD2    C3  217   1.505   1.410  11.569  0.6919  0.5145 -0.6615
   14MPD2    C4  218   1.485   1.307  11.478 -0.7318 -0.0749 -0.7062
   14MPD2    C5  219   1.585   1.250  11.407 -0.4875 -0.2063 -0.0708
   14MPD2     H  220   1.649   1.545  11.646 -0.2689  1.4543 -1.9700
   14MPD2    H1  221   1.383   1.277  11.457 -0.3133 -2.9754  1.4271
   14MPD2    H2  222   1.787   1.248  11.359 -1.1582  0.1669 -1.5213
   14MPD2    H3  223   1.578   1.166  11.340  0.0680  0.2517 -0.6965
   14MPD2     N  224   1.388   1.466  11.628 -0.0102 -0.2670  0.4414
   14MPD2    H5  225   1.406   1.552  11.680  1.8252  0.7153 -1.8286
   14MPD2    N1  226   1.871   1.425  11.518 -0.3964 -0.5542  0.0792
   14MPD2    H7  227   1.934   1.388  11.447 -0.5782 -0.1835 -0.2766
   15TCq1    O1  228   0.332   2.217   2.178  0.1010 -0.0692 -0.2979
   15TCq1    C1  229   0.218   2.217   2.112  0.2930 -0.3295 -1.1169
   15TCq1    O2  230   0.116   2.183   2.173 -0.2911 -0.1589  0.4878
   15TCq1    C2  231   0.246   2.146   1.987 -0.2980 -0.5096 -0.5242
   15TCq1    C3  232   0.360   2.172   1.918 -0.5389 -0.7177 -0.4549
   15TCq1    C4  233   0.389   2.117   1.797  0.2706  0.1549  0.0121
   15TCq1    C5  234   0.300   2.028   1.741  0.2126  0.8585 -0.0802
   15TCq1    C6  235   0.181   2.008   1.809 -0.2414  0.4193 -0.1019
   15TCq1    C7  236   0.155   2.062   1.937 -0.0026  0.8685  0.0578
   15TCq1    C8  237   0.106   1.892   1.766  0.0802  0.2649  0.2659
   15TCq1    O4  238   0.170   1.809   1.698  0.0263 -0.4577 -0.3596
   15TCq1    C9  239   0.516   2.135   1.740 -0.7364 -0.5963 -1.0400
   15TCq1    O5  240   0.582   2.237   1.773 -0.1024 -0.5073  0.3499
   15TCq1    O6  241   0.549   2.048   1.649 -0.0911 -0.2418 -0.6170
   15TCq1    H1  242   0.413   2.240   2.127  1.4304 -0.4296  1.6636
   15TCq1    H2  243   0.432   2.249   1.944 -0.4519 -1.3377  1.1627
   15TCq1    H3  244   0.317   1.983   1.644 -0.5447  1.6326 -0.5645
   15TCq1    H4  245   0.062   2.043   1.989  0.4294  1.5318  1.0764
   16MPD2     C  246   4.512   1.784   1.850 -0.0604  1.1197  0.3223
   16MPD2    C1  247   4.646   1.762   1.819  0.2832 -0.5315 -0.0975
   16MPD2    C2  248   4.686   1.641   1.765  0.2847 -0.1230  0.1653
   16MPD2    C3  249   4.590   1.541   1.746  0.5834 -0.0511 -0.1552
   16MPD2    C4  250   4.460   1.561   1.785  0.3771  0.6104 -0.8212
   16MPD2    C5  251   4.425   1.679   1.842 -0.3691  0.0399  0.2971
   16MPD2     H  252   0.053   1.621   1.757  0.5804  0.9319  1.3841
   16MPD2    H1  253   4.380   1.489   1.771  0.0353  0.5261  1.7159
   16MPD2    H2  254   4.474   1.881   1.881 -1.4509  1.6397 -3.0505
   16MPD2    H3  255   4.322   1.699   1.869 -0.1564  1.4480  0.0669
   16MPD2     N  256   4.632   1.425   1.679  0.3575  0.2192 -0.4414
   16MPD2    H5  257   4.727   1.417   1.646  0.7746  0.7705  0.6464
   16MPD2    N1  258   4.730   1.871   1.833 -0.0433  0.6162  0.8470
   16MPD2    H7  259   4.690   1.957   1.867 -0.4169  0.5058  0.6899
   17TMC1    C1  260   2.262   4.105  10.456  0.0204  0.1588  0.1673
   17TMC1    C2  261   2.255   4.070  10.324 -0.3807  0.1798  0.7076
   17TMC1    C3  262   2.296   3.941  10.285 -0.5503 -0.0876 -0.0505
   17TMC1    C4  263   2.290   4.014  10.550 -0.1629 -0.6425 -0.0519
   17TMC1    C5  264   2.337   3.893  10.509 -0.3830  0.1412 -0.3870
   17TMC1    C6  265   2.333   3.850  10.380 -0.2299 -0.2859  0.2877
   17TMC1     C  266   2.229   4.234  10.510 -0.5359 -1.3660  0.0616
   17TMC1     O  267   2.180   4.238  10.623 -0.4487 -0.8005 -0.2162
   17TMC1     H  268   2.214   4.135  10.248  0.8207  0.3582  0.2207
   17TMC1    H1  269   2.309   4.051  10.650 -1.9388  1.3751 -0.4727
   17TMC1    H2  270   2.364   3.751  10.348 -1.0539 -0.8076  1.1299
   17TMC1    C7  271   2.360   3.791  10.614 -0.5050  0.0752 -0.7590
   17TMC1    C8  272   2.225   3.897  10.163 -0.1447 -0.2457 -0.1819
   17TMC1    O1  273   2.295   3.787  10.718  0.3293 -0.0116  0.1297
   17TMC1    O2  274   2.197   3.986  10.083 -0.2049  0.4650 -0.0922
   17TMC1    O3  275   2.479   3.732  10.580  0.6441 -0.4200  0.9905
   17TMC1    H3  276   2.510   3.756  10.490 -0.4188 -0.6755  0.5620
   17TMC1    O5  277   2.138   3.806  10.211  0.1878  0.3092  0.4043
   17TMC1    H5  278   2.181   3.734  10.262  0.0450 -1.3030 -1.7452
   18MPD2     C  279   2.153   4.529  10.555  0.2750 -0.0437  0.2029
   18MPD2    C1  280   2.236   4.480  10.455 -0.5559 -0.5979 -0.5174
   18MPD2    C2  281   2.297   4.571  10.364  0.6853  0.2409 -0.7009
   18MPD2    C3  282   2.272   4.708  10.370  0.3212 -0.4685 -0.3957
   18MPD2    C4  283   2.176   0.010  10.463  0.1380 -0.1724  0.0261
   18MPD2    C5  284   2.122   4.660  10.554  0.6050  0.6488  0.0994
   18MPD2     H  285   2.370   4.528  10.297  0.0823 -1.1883 -0.4296
   18MPD2    H1  286   2.142   0.113  10.465 -0.1801 -0.2681 -0.4074
   18MPD2    H2  287   2.117   4.467  10.636  1.7780  1.9512  2.3901
   18MPD2    H3  288   2.042   4.699  10.615  0.5992  0.7601  0.0198
   18MPD2     N  289   2.337   0.069  10.291 -0.3138  0.1131 -0.1133
   18MPD2    H5  290   2.305   0.162  10.314  3.1083  0.7154  2.2343
   18MPD2    N1  291   2.255   4.344  10.429 -0.3793  0.4892  0.1925
   18MPD2    H7  292   2.309   4.318  10.347  0.7456  0.8545  0.8111
   19TMC2    C1  293   3.515   1.926  14.166  0.3221  0.0323  0.2092
   19TMC2    C2  294   3.417   1.969  14.077  0.0079 -0.3871 -0.2544
   19TMC2    C3  295   3.287   1.934  14.100 -0.3711  0.6084  0.7191
   19TMC2    C4  296   3.486   1.848  14.272 -0.0041 -0.9323 -0.9081
   19TMC2    C5  297   3.358   1.798  14.285  0.3713  0.0601 -0.5031
   19TMC2    C6  298   3.261   1.845  14.201 -0.3997  0.6233  0.1732
   19TMC2     C  299   3.657   1.957  14.132  1.2582  0.3138  0.9944
   19TMC2     O  300   3.659   2.044  14.045  0.3902  0.0907  0.1416
   19TMC2     H  301   3.444   2.028  13.990  2.7634 -0.2256  0.7274
   19TMC2    H1  302   3.561   1.824  14.346  1.1024  0.7562 -1.4836
   19TMC2    H2  303   3.166   1.794  14.201 -0.0927  0.0627 -1.3247
   19TMC2    C7  304   3.345   1.671  14.348  0.1600 -0.0828  0.1831
   19TMC2    C8  305   3.186   1.956  13.998 -0.0025  0.2537  0.5798
   19TMC2    O1  306   3.445   1.622  14.400  0.0711  0.7693  0.5244
   19TMC2    O2  307   3.089   1.885  14.010  0.6648 -0.6218  0.0695
   19TMC2    O5  308   3.258   1.963  13.882  0.0974 -0.0368  0.1230
   19TMC2    H5  309   3.331   2.029  13.890 -0.4330  0.7171 -1.1738
   20MPD2     C  310   3.946   2.016  14.148 -0.5585  0.4614 -0.7465
   20MPD2    C1  311   3.890   1.902  14.207 -0.2177  0.0266 -0.0982
   20MPD2    C2  312   3.966   1.809  14.283 -0.1077  0.2874  0.0385
   20MPD2    C3  313   4.103   1.834  14.302  0.4062 -0.2378 -0.0322
   20MPD2    C4  314   4.157   1.939  14.232  0.3754  0.0659  0.6039
   20MPD2    C5  315   4.085   2.036  14.159 -0.1576 -1.2455 -0.2615
   20MPD2     H  316   3.924   1.717  14.323  0.1549  0.9888  1.9550
   20MPD2    H1  317   4.264   1.951  14.225  0.4491 -0.4837  0.7936
   20MPD2    H2  318   3.901   2.080  14.073 -1.8993  0.3115 -0.0852
   20MPD2    H3  319   4.141   2.107  14.100 -0.4852  1.3847  2.5835
   20MPD2     N  320   4.190   1.753  14.379  0.3439  0.0921  0.5009
   20MPD2    H5  321   4.289   1.771  14.367  0.3883  0.6080  1.6835
   20MPD2    N1  322   3.748   1.882  14.204  0.2858 -0.3230 -0.5505
   20MPD2    H7  323   3.711   1.804  14.257 -0.3834 -0.8081 -1.7164
   21TMC2    C1  324   1.446   2.376  14.308  0.4585  0.8249  0.1708
   21TMC2    C2  325   1.489   2.361  14.181 -0.3049  0.0873  0.8178
   21TMC2    C3  326   1.395   2.309  14.097 -0.3241 -0.4854  0.2919
   21TMC2    C4  327   1.314   2.363  14.349 -0.2611  1.0454  0.2345
   21TMC2    C5  328   1.228   2.300  14.257  0.2611  0.2154  0.2483
   21TMC2    C6  329   1.271   2.269  14.132 -0.4432 -0.0627 -0.4506
   21TMC2     C  330   1.559   2.386  14.402  0.2621  0.5480  0.7829
   21TMC2     O  331   1.657   2.322  14.371 -0.0447  0.9535 -0.4223
   21TMC2     H  332   1.591   2.369  14.146 -0.5104 -0.3117  0.1295
   21TMC2    H1  333   1.286   2.386  14.451  1.6790  2.9931  0.3393
   21TMC2    H2  334   1.208   2.208  14.068 -1.1236 -1.3851  1.4932
   21TMC2    C7  335   1.102   2.256  14.304  0.5338 -0.2009 -0.3978
   21TMC2    C8  336   1.449   2.252  13.978  0.6387 -0.0541  0.3444
   21TMC2    O1  337   1.050   2.159  14.255 -0.5400 -0.5081  0.0739
   21TMC2    O2  338   1.567   2.225  13.969  0.5213  0.0271 -0.1325
   21TMC2    O5  339   1.351   2.203  13.891 -0.1005  0.4847 -0.1164
   21TMC2    H5  340   1.266   2.250  13.888 -0.3854 -0.1205 -1.7183
   22MPD2     C  341   1.775   2.456  14.871  0.2623 -0.4406 -0.3693
   22MPD2    C1  342   1.779   2.343  14.789 -0.2845  0.0428  0.1333
   22MPD2    C2  343   1.701   2.340  14.669 -1.2587  0.2764 -0.0840
   22MPD2    C3  344   1.622   2.447  14.631  0.5010  0.5848 -0.0899
   22MPD2    C4  345   1.613   2.557  14.719  0.1673  0.6576 -0.3706
   22MPD2    C5  346   1.694   2.562  14.832 -0.2143 -0.9389  0.9181
   22MPD2     H  347   1.689   2.248  14.613  0.0755  0.3087 -0.4064
   22MPD2    H1  348   1.546   2.639  14.697  0.4465  1.3542  1.3445
   22MPD2    H2  349   1.836   2.465  14.960 -2.1934  2.6700  1.0071
   22MPD2    H3  350   1.693   2.649  14.895  2.3843 -1.4024  1.6286
   22MPD2     N  351   1.543   2.464  14.509 -0.0382  0.2654  0.3418
   22MPD2    H5  352   1.479   2.542  14.501  2.9719  2.6663 -0.5446
   22MPD2    N1  353   1.849   2.220  14.821 -0.5486 -0.0012 -1.1687
   22MPD2    H7  354   1.844   2.150  14.748  0.1411 -0.9198 -0.3426
   23TMC2    C1  355   2.733   3.178  14.831 -0.3458  0.0624 -0.2917
   23TMC2    C2  356   2.690   3.310  14.813  0.6850 -0.8107  0.3747
   23TMC2    C3  357   2.573   3.338  14.749 -0.8286 -0.1648 -0.2059
   23TMC2    C4  358   2.660   3.076  14.775  0.3427 -1.0732  0.3363
   23TMC2    C5  359   2.550   3.102  14.698  0.1889  0.0985  0.2617
   23TMC2    C6  360   2.506   3.232  14.695  0.5338  0.6599  0.5942
   23TMC2     C  361   2.835   3.141  14.934  0.5908  0.0859  0.6291
   23TMC2     O  362   2.829   3.026  14.979 -0.5749 -0.6110  0.3380
   23TMC2     H  363   2.727   3.376  14.890 -1.4709  1.3662 -0.4614
   23TMC2    H1  364   2.695   2.974  14.774  1.3825 -0.7242  1.4893
   23TMC2    H2  365   2.414   3.264  14.648  1.4836  1.3393 -0.8166
   23TMC2    C7  366   2.455   2.996  14.648 -0.0313 -0.7422 -0.5562
   23TMC2    C8  367   2.540   3.465  14.706 -0.1025  0.2581  0.3559
   23TMC2    O1  368   2.481   2.883  14.681 -0.1012 -0.0042  0.0538
   23TMC2    O2  369   2.435   3.489  14.645  0.0371 -0.0182 -0.1725
   23TMC2    O5  370   2.665   3.525  14.682 -0.8942 -0.0991 -0.5021
   23TMC2    H5  371   2.732   3.468  14.726 -2.5244 -0.2983  1.7457
   24MPD2     C  372   3.265   3.225  15.197  0.9636 -0.1172  0.2797
   24MPD2    C1  373   3.163   3.138  15.229  0.6693  0.1227  0.0834
   24MPD2    C2  374   3.055   3.128  15.140  0.1896 -0.2464  0.2210
   24MPD2    C3  375   3.041   3.221  15.032  0.0270  0.9443  0.1545
   24MPD2    C4  376   3.149   3.306  15.010  0.2812 -0.9714 -0.4391
   24MPD2    C5  377   3.261   3.311  15.087 -0.2151 -0.1682 -0.9407
   24MPD2     H  378   2.974   3.059  15.164  0.2240 -0.7708 -1.1336
   24MPD2    H1  379   3.151   3.375  14.927 -0.5357 -1.4826 -0.8787
   24MPD2    H2  380   3.355   3.232  15.258  1.4969  0.6008 -0.6031
   24MPD2    H3  381   3.343   3.375  15.056 -0.8002  0.8490 -0.3925
   24MPD2     N  382   2.929   3.232  14.945  0.6299 -0.0471 -0.2593
   24MPD2    H5  383   2.922   3.320  14.894  0.8328  0.0188 -0.1758
   24MPD2    N1  384   3.164   3.056  15.346 -0.6239 -0.6357  0.2195
   24MPD2    H7  385   3.093   2.985  15.354 -1.2214 -0.3258 -2.5203
   25TMC2    C1  386   1.050   0.879  11.637 -0.1310  0.1445 -0.1710
   25TMC2    C2  387   1.017   0.990  11.586 -0.0407 -0.1118  0.6510
   25TMC2    C3  388   0.968   1.088  11.663  0.1208  0.0630 -0.2997
   25TMC2    C4  389   1.051   0.855  11.768  1.2708  0.2274  0.2891
   25TMC2    C5  390   1.003   0.959  11.851 -0.1223  0.5875  0.0485
   25TMC2    C6  391   0.956   1.077  11.800  0.2860  0.1098 -0.0955
   25TMC2     C  392   1.123   0.785  11.551  0.2532 -0.8896 -0.1996
   25TMC2     O  393   1.125   0.819  11.435 -0.2926  0.8722 -0.1867
   25TMC2     H  394   1.031   1.009  11.480 -2.6324 -0.3733  0.2641
   25TMC2    H1  395   1.067   0.761  11.820  1.5277  1.1745  1.9251
   25TMC2    H2  396   0.898   1.145  11.861 -0.7156 -0.3044 -0.5782
   25TMC2    C7  397   0.969   0.924  11.989 -0.2262  0.1646 -0.6632
   25TMC2    C8  398   0.914   1.211  11.609 -0.4876 -0.3709  0.1960
   25TMC2    O1  399   1.022   0.822  12.036 -0.3270 -0.0784  0.0720
   25TMC2    O2  400   0.891   1.320  11.666 -0.1338 -0.4527 -0.1770
   25TMC2    O5  401   0.836   1.151  11.508 -0.2305  0.8363  0.1785
   25TMC2    H5  402   0.836   1.054  11.516  0.3687  0.8334  0.1751
   26MPD2     C  403   1.303   0.336  11.387 -0.3153 -0.1745  0.0112
   26MPD2    C1  404   1.204   0.313  11.482  0.9992  1.0609  0.2491
   26MPD2    C2  405   1.136   0.425  11.528 -0.2064 -0.3262 -0.3345
   26MPD2    C3  406   1.183   0.552  11.506 -0.3588  0.1417  0.5188
   26MPD2    C4  407   1.286   0.579  11.417  0.4508 -0.0692  0.2085
   26MPD2    C5  408   1.340   0.469  11.358 -0.4346  0.0565 -0.4548
   26MPD2     H  409   1.051   0.413  11.595 -1.4578 -0.0390 -1.8594
   26MPD2    H1  410   1.337   0.675  11.413  1.9573 -0.9519 -1.4287
   26MPD2    H2  411   1.344   0.255  11.329  0.2154 -0.3851  0.6777
   26MPD2    H3  412   1.429   0.483  11.298  0.0004  1.1796  0.4557
   26MPD2     N  413   1.124   0.656  11.592  0.5208  0.1937 -0.1659
   26MPD2    H5  414   1.076   0.626  11.676 -0.6138 -0.1031 -0.9089
   26MPD2    N1  415   1.154   0.178  11.485 -0.4246  0.8434  0.6708
   26MPD2    H7  416   1.218   0.104  11.457 -2.6258 -0.4859 -0.8131
   27TMC2    C1  417   4.688   2.940  12.012 -0.3053 -0.4078  0.1431
   27TMC2    C2  418   4.611   3.054  12.004  0.5290  0.6613  0.3789
   27TMC2    C3  419   4.664   3.168  11.958 -0.2782  0.1217  0.2479
   27TMC2    C4  420   0.082   2.946  11.987  0.2369  0.1255  0.1434
   27TMC2    C5  421   0.131   3.063  11.946  0.4195  0.3276 -0.0726
   27TMC2    C6  422   0.058   3.178  11.932 -0.2335 -0.3321  0.0740
   27TMC2     C  423   4.624   2.810  12.035 -0.1488 -0.3050  0.1231
   27TMC2     O  424   4.679   2.712  11.991  0.2240  0.6584 -0.0605
   27TMC2     H  425   4.504   3.052  12.021  0.2588 -0.2523 -1.5082
   27TMC2    H1  426   0.150   2.864  12.003 -1.1818 -0.7362  1.7021
   27TMC2    H2  427   0.103   3.277  11.927 -0.1928 -0.5026 -2.8178
   27TMC2    C7  428   0.281   3.090  11.963 -0.2044  0.0959 -0.2561
   27TMC2    C8  429   4.579   3.285  11.988 -0.4388 -0.4520  0.0547
   27TMC2    O1  430   0.331   3.186  11.911 -0.3132  0.1637  0.0173
   27TMC2    O2  431   4.476   3.278  12.056  0.2089 -0.0103  0.0351
   27TMC2    O5  432   4.580   3.382  11.898  0.3396  0.1098 -0.6076
   27TMC2    H5  433   4.662   3.371  11.846  0.4601 -0.4263 -0.3114
   28MPD2     C  434   4.272   2.558  12.285  0.1715 -0.0558  0.0986
   28MPD2    C1  435   4.266   2.685  12.336 -0.7255 -0.0050  0.5982
   28MPD2    C2  436   4.357   2.771  12.289 -0.7236 -0.4375 -0.5688
   28MPD2    C3  437   4.445   2.725  12.188  0.5418 -0.1278  0.0152
   28MPD2    C4  438   4.448   2.599  12.139  0.0087 -0.0959 -0.9146
   28MPD2    C5  439   4.364   2.513  12.197  0.0258 -0.3332  0.4226
   28MPD2     H  440   4.355   2.877  12.313  2.7757 -0.6747  0.7154
   28MPD2    H1  441   4.510   2.559  12.059  0.6302  0.7951 -0.8805
   28MPD2    H2  442   4.206   2.481  12.322 -0.4498  0.1607 -0.5547
   28MPD2    H3  443   4.363   2.406  12.179  1.6090 -0.0746 -1.1991
   28MPD2     N  444   4.522   2.826  12.123 -0.3025 -0.0481 -0.5293
   28MPD2    H5  445   4.523   2.915  12.170  2.3710  0.0462 -0.7428
   28MPD2    N1  446   4.177   2.704  12.445 -0.1167  0.2759 -0.3846
   28MPD2    H7  447   4.126   2.625  12.482  1.6841 -0.7995 -0.2105
   29TMC2    C1  448   0.338   0.302  14.475 -0.6665 -0.2263  0.0863
   29TMC2    C2  449   0.215   0.338  14.525  0.1056 -0.3811  0.1917
   29TMC2    C3  450   0.179   0.469  14.510 -0.7998 -0.5850  0.1709
   29TMC2    C4  451   0.417   0.397  14.422 -0.0593 -0.5345 -0.7145
   29TMC2    C5  452   0.383   0.531  14.432 -0.1308 -0.7924  0.6755
   29TMC2    C6  453   0.261   0.562  14.463 -0.5203 -0.3649 -0.4954
   29TMC2     C  454   0.356   0.163  14.442 -0.5336  0.2377  0.3062
   29TMC2     O  455   0.314   0.071  14.519  0.4683  0.0098 -0.1243
   29TMC2     H  456   0.143   0.265  14.560  0.2854  0.0282  1.4123
   29TMC2    H1  457   0.513   0.383  14.373  0.9287 -1.6044  1.5042
   29TMC2    H2  458   0.212   0.653  14.428  2.2617  1.6426  0.8182
   29TMC2    C7  459   0.454   0.621  14.345 -0.7801  0.4172 -0.1648
   29TMC2    C8  460   0.047   0.519  14.553  0.9791  0.3836  0.1575
   29TMC2    O1  461   0.504   0.583  14.240  0.3056  0.2384  0.7295
   29TMC2    O2  462   4.684   0.468  14.524 -0.1110 -0.2149  0.4745
   29TMC2    O5  463   0.060   0.647  14.594 -0.3439 -0.2924  0.6724
   29TMC2    H5  464   0.150   0.683  14.609 -1.5243  2.8380  0.2412
   30MPD2     C  465   0.427   4.548  14.091  0.3044 -0.3051 -0.2294
   30MPD2    C1  466   0.394   4.533  14.223 -0.0603 -0.0500  0.7339
   30MPD2    C2  467   0.408   4.640  14.308 -0.0124  0.4722  0.1438
   30MPD2    C3  468   0.446   0.025  14.262 -0.5160  0.5080  0.6866
   30MPD2    C4  469   0.487   0.033  14.132  0.5280 -0.1352  0.4807
   30MPD2    C5  470   0.481   4.667  14.039  0.2631 -0.2591  0.3277
   30MPD2     H  471   0.372   4.627  14.410  1.0014 -0.2463  0.4067
   30MPD2    H1  472   0.511   0.128  14.085  1.0416 -1.9207 -2.8910
   30MPD2    H2  473   0.428   4.461  14.026 -1.9059  0.2900 -1.0832
   30MPD2    H3  474   0.513   4.681  13.936  0.1695 -0.9717  0.2048
   30MPD2     N  475   0.421   0.147  14.322  0.1903 -0.1015 -0.2394
   30MPD2    H5  476   0.432   0.224  14.256 -1.6214 -0.4009 -0.8979
   30MPD2    N1  477   0.363   4.398  14.261  0.2576 -0.0178 -0.5348
   30MPD2    H7  478   0.362   4.334  14.183  0.9120  0.2094 -0.7262
   31TMC2    C1  479   2.663   3.824  15.623  0.3302 -1.0458  0.0045
   31TMC2    C2  480   2.531   3.836  15.637 -0.2845 -0.2607 -0.5002
   31TMC2    C3  481   2.478   3.780  15.750 -0.0005  0.2726  0.1047
   31TMC2    C4  482   2.745   3.764  15.718 -0.0979  0.0872  0.1290
   31TMC2    C5  483   2.686   3.712  15.833  0.0524 -0.1455 -0.7443
   31TMC2    C6  484   2.556   3.715  15.848 -0.5174  0.0680  0.0678
   31TMC2     C  485   2.726   3.861  15.497  0.4584  0.4813 -0.6710
   31TMC2     O  486   2.675   3.940  15.419 -0.3234 -0.3326  0.1090
   31TMC2     H  487   2.473   3.879  15.556 -0.0033  0.0572 -0.5306
   31TMC2    H1  488   2.852   3.757  15.702 -0.7537 -2.5847 -3.0276
   31TMC2    H2  489   2.509   3.684  15.941 -0.3530  0.5370  0.3018
   31TMC2    C7  490   2.773   3.671  15.941  0.6852 -0.3002 -0.0328
   31TMC2    C8  491   2.332   3.764  15.764 -0.6834  0.2033 -1.1544
   31TMC2    O1  492   2.756   3.561  15.996 -0.7494 -0.0927 -0.2507
   31TMC2    O2  493   2.277   3.681  15.834  0.0302 -0.5163 -0.0489
   31TMC2    O5  494   2.273   3.878  15.717  0.5114  0.5879 -0.2628
   31TMC2    H5  495   2.333   3.950  15.688  0.2844  1.4269  1.3468
   32MPD2     C  496   2.999   3.692  15.078  0.0113 -0.5828  1.0692
   32MPD2    C1  497   2.943   3.814  15.106  0.3687 -0.1377  0.1737
   32MPD2    C2  498   2.879   3.839  15.228 -0.5335 -0.1998 -0.0303
   32MPD2    C3  499   2.878   3.745  15.330 -0.6884 -0.2899 -0.2755
   32MPD2    C4  500   2.939   3.624  15.303  0.4911 -0.5907 -0.1137
   32MPD2    C5  501   3.004   3.599  15.183  0.4275 -0.3127 -0.2682
   32MPD2     H  502   2.825   3.933  15.239  0.4073  0.2123  1.0655
   32MPD2    H1  503   2.939   3.542  15.373 -0.7326 -1.3330 -0.9912
   32MPD2    H2  504   3.049   3.676  14.983 -0.9863 -4.0781  1.1281
   32MPD2    H3  505   3.041   3.500  15.159  1.7503  0.2073 -0.3632
   32MPD2     N  506   2.810   3.760  15.457  0.2271 -0.2620 -0.2339
   32MPD2    H5  507   2.833   3.687  15.524 -0.4152 -1.6026 -1.4693
   32MPD2    N1  508   2.935   3.909  15.007  0.0087 -0.3067 -0.5320
   32MPD2    H7  509   2.925   4.002  15.046 -0.6717  0.0322 -1.5204
   33TMC2    C1  510   2.147   1.065  10.338  0.3896  0.0712 -0.0078
   33TMC2    C2  511   2.028   0.995  10.356 -0.6560 -0.0474  0.2681
   33TMC2    C3  512   1.925   1.073  10.399 -0.3564  0.4335  0.1355
   33TMC2    C4  513   2.170   1.196  10.353  0.0987  0.3450 -0.1809
   33TMC2    C5  514   2.060   1.268  10.391 -0.1334 -0.0026  0.5095
   33TMC2    C6  515   1.939   1.208  10.407  0.3919  0.7519 -0.4019
   33TMC2     C  516   2.252   0.981  10.276  0.0505  0.1989  0.2355
   33TMC2     O  517   2.218   0.869  10.237 -0.0968 -0.6228  0.5796
   33TMC2     H  518   2.027   0.888  10.372  0.3787  0.1413  1.6679
   33TMC2    H1  519   2.267   1.242  10.340  1.0903 -1.2350  1.6961
   33TMC2    H2  520   1.849   1.268  10.405 -0.6665 -0.8013  0.8651
   33TMC2    C7  521   2.070   1.410  10.413 -0.2978  0.0937 -0.5583
   33TMC2    C8  522   1.806   1.005  10.433  0.4706  0.1324 -0.1007
   33TMC2    O1  523   2.149   1.466  10.338 -0.2598  0.6803  0.2905
   33TMC2    O2  524   1.710   1.061  10.484 -0.2276 -0.4457  0.0470
   33TMC2    O5  525   1.803   0.918  10.327  0.5200  0.3788  0.2414
   33TMC2    H5  526   1.887   0.907  10.277  0.3988 -0.3954  0.2068
   34MPD2     C  527   2.736   0.801  10.273  0.1155  0.0221 -0.0907
   34MPD2    C1  528   2.619   0.731  10.262  0.0875  0.1153  0.0967
   34MPD2    C2  529   2.498   0.800  10.288 -0.0453 -0.4324 -0.6508
   34MPD2    C3  530   2.494   0.938  10.314  0.4608 -0.5442  0.6999
   34MPD2    C4  531   2.615   0.996  10.350 -0.2563  0.3743 -0.1152
   34MPD2    C5  532   2.734   0.931  10.316 -0.2733 -0.4689  0.1815
   34MPD2     H  533   2.410   0.747  10.254 -0.5269 -0.6145  0.8828
   34MPD2    H1  534   2.621   1.101  10.376 -0.8304  0.5661 -0.7692
   34MPD2    H2  535   2.829   0.758  10.236  0.0514 -0.9951  0.9314
   34MPD2    H3  536   2.823   0.993  10.318 -0.2703 -0.3784 -2.5667
   34MPD2     N  537   2.378   1.018  10.314 -0.1684  0.2654  0.3689
   34MPD2    H5  538   2.386   1.117  10.335  1.7490  0.2144 -0.0929
   34MPD2    N1  539   2.632   0.592  10.235  0.8996  0.1097 -0.6400
   34MPD2    H7  540   2.722   0.550  10.216  0.2382 -2.1160  1.1874
   35TMC2    C1  541   3.297   2.649  11.245 -0.0783  0.5093  0.3785
   35TMC2    C2  542   3.256   2.692  11.121  0.5474 -0.2861  0.4281
   35TMC2    C3  543   3.119   2.701  11.098  0.3339  0.0037  0.5634
   35TMC2    C4  544   3.213   2.612  11.341  0.4490 -0.0086 -1.0439
   35TMC2    C5  545   3.077   2.619  11.310  0.1169  0.1222  0.4008
   35TMC2    C6  546   3.027   2.663  11.194 -0.6241  0.1451 -1.0057
   35TMC2     C  547   3.432   2.702  11.283  0.0203 -0.5495  0.5309
   35TMC2     O  548   3.475   2.785  11.204 -0.0844  0.2232  0.1561
   35TMC2     H  549   3.322   2.701  11.035  0.8035  1.4809  0.8091
   35TMC2    H1  550   3.247   2.584  11.439 -1.7987 -0.5150 -0.4116
   35TMC2    H2  551   2.925   2.650  11.157 -0.0301 -1.6730 -1.9614
   35TMC2    C7  552   3.025   2.497  11.366  0.2653  0.7398  0.1004
   35TMC2    C8  553   3.074   2.684  10.959 -0.0723  0.6354  0.5979
   35TMC2    O1  554   3.103   2.411  11.403 -0.1199  0.1336  0.2670
   35TMC2    O2  555   2.970   2.624  10.930 -0.0669  0.3414 -0.1849
   35TMC2    O5  556   3.104   2.803  10.904  0.1327 -0.0086 -0.1185
   35TMC2    H5  557   3.161   2.862  10.957 -0.6917  0.9802 -0.3191
   36MPD2     C  558   3.738   2.896  11.637 -0.1356  0.5482 -0.4375
   36MPD2    C1  559   3.694   2.777  11.690 -0.1660 -0.2115  0.7785
   36MPD2    C2  560   3.620   2.691  11.604 -0.0604 -0.0937  1.0053
   36MPD2    C3  561   3.577   2.739  11.477  0.8300 -0.1271 -0.0580
   36MPD2    C4  562   3.628   2.861  11.433 -0.5887 -0.2756 -1.1697
   36MPD2    C5  563   3.707   2.935  11.510 -0.7751  0.0850 -0.2761
   36MPD2     H  564   3.579   2.597  11.639 -3.5394  0.4050 -1.7262
   36MPD2    H1  565   3.605   2.907  11.338  0.2942  1.6303 -0.4423
   36MPD2    H2  566   3.801   2.961  11.697 -2.4778  0.7352  1.8204
   36MPD2    H3  567   3.756   3.020  11.465  0.1479 -1.2546 -1.8032
   36MPD2     N  568   3.480   2.660  11.404 -0.6054  0.5070 -0.3094
   36MPD2    H5  569   3.437   2.584  11.455  0.1769  0.2996  0.0352
   36MPD2    N1  570   3.739   2.741  11.817  0.3214 -0.1117  0.4780
   36MPD2    H7  571   3.797   2.809  11.864 -0.5362 -1.2211  3.1461
   37TMC2    C1  572   0.422   3.330  12.221  0.0736 -0.2016 -0.1852
   37TMC2    C2  573   0.308   3.392  12.177  0.2004  0.1940  0.6959
   37TMC2    C3  574   0.316   3.475  12.067  0.2540 -0.1503  0.0921
   37TMC2    C4  575   0.534   3.342  12.148 -0.0943 -0.7342  0.9392
   37TMC2    C5  576   0.538   3.411  12.036  0.2311 -0.9089  0.2711
   37TMC2    C6  577   0.429   3.479  11.982 -0.0455 -1.0445 -0.1157
   37TMC2     C  578   0.430   3.262  12.357 -0.3406  0.3397 -0.1743
   37TMC2     O  579   0.322   3.232  12.405  0.3449 -0.7295  0.1824
   37TMC2     H  580   0.221   3.395  12.241  0.5143 -0.7463  1.1555
   37TMC2    H1  581   0.623   3.287  12.176  1.8207  1.4636 -0.8676
   37TMC2    H2  582   0.429   3.530  11.887  0.9190 -2.6764 -1.0038
   37TMC2    C7  583   0.664   3.409  11.965 -0.0867  0.1033 -0.0012
   37TMC2    C8  584   0.197   3.547  12.021  0.6594 -0.5317  0.1913
   37TMC2    O1  585   0.767   3.377  12.028  0.2012 -0.4383 -0.2644
   37TMC2    O2  586   0.115   3.594  12.096  0.2386 -0.0857  0.0122
   37TMC2    O5  587   0.200   3.554  11.890 -0.5943 -0.2704  0.0270
   37TMC2    H5  588   0.266   3.490  11.857  1.1018  0.5995  1.7149
   38MPD2     C  589   0.696   3.159  12.791 -0.3997  0.0700  0.0349
   38MPD2    C1  590   0.777   3.232  12.706 -0.0513  0.7214  0.0505
   38MPD2    C2  591   0.730   3.258  12.580 -0.3011  0.0987  0.4398
   38MPD2    C3  592   0.604   3.229  12.540  0.2127  0.0332 -1.4367
   38MPD2    C4  593   0.521   3.155  12.626  0.6697  0.1868  0.1299
   38MPD2    C5  594   0.570   3.123  12.750 -0.1358  0.2638  0.0572
   38MPD2     H  595   0.785   3.318  12.507 -0.4883 -1.0318 -0.6317
   38MPD2    H1  596   0.421   3.123  12.598  0.6830 -0.1722  0.4921
   38MPD2    H2  597   0.729   3.128  12.889 -2.4020  0.9794  0.9914
   38MPD2    H3  598   0.509   3.050  12.802 -1.6156  1.1357 -0.4473
   38MPD2     N  599   0.558   3.269  12.412  0.0687  0.1278 -0.4177
   38MPD2    H5  600   0.628   3.309  12.352 -1.2362  1.5976 -0.9545
   38MPD2    N1  601   0.907   3.281  12.740 -0.4361  0.3634  0.2956
   38MPD2    H7  602   0.963   3.317  12.664 -0.8743 -1.0618 -0.7012
   39TMC2    C1  603   4.647   0.685   1.894  0.2722 -0.3988  0.4916
   39TMC2    C2  604   0.043   0.671   1.877  0.4236  0.7469 -1.0849
   39TMC2    C3  605   0.130   0.765   1.920  0.6499  0.4685  0.1409
   39TMC2    C4  606   4.607   0.803   1.949 -0.1866 -0.0407 -0.8874
   39TMC2    C5  607   4.701   0.897   1.983  0.0379  0.0736  0.1570
   39TMC2    C6  608   0.094   0.881   1.975 -0.1922 -0.5584 -0.5911
   39TMC2     C  609   4.545   0.610   1.817  0.2550 -0.4653 -0.8018
   39TMC2     O  610   4.437   0.660   1.801  0.0177 -1.0785  0.3223
   39TMC2     H  611   0.077   0.579   1.831  0.4610 -0.2989  1.0511
   39TMC2    H1  612   4.505   0.834   1.964 -0.2030 -0.1651 -0.7317
   39TMC2    H2  613   0.161   0.961   2.001  0.9470 -2.0166  0.9441
   39TMC2    C7  614   4.651   1.034   2.015  0.0866  1.1295 -0.5567
   39TMC2    C8  615   0.242   0.713   1.986 -0.2043  0.3590 -0.7307
   39TMC2    O1  616   4.530   1.052   2.010  0.2505  0.4986 -0.3217
   39TMC2    O2  617   0.270   0.760   2.098  0.1467 -0.2483 -0.3739
   39TMC2    O5  618   0.311   0.625   1.906 -0.6183 -0.3505 -0.3402
   39TMC2    H5  619   0.265   0.623   1.820 -2.0452 -1.2352  0.4389
   40MPD2     C  620   4.557   0.260   1.698 -0.1755 -0.5477  0.0139
   40MPD2    C1  621   4.512   0.394   1.704 -0.2831  1.1332 -0.4391
   40MPD2    C2  622   4.404   0.428   1.628  0.1568 -0.0762  0.4103
   40MPD2    C3  623   4.339   0.341   1.539  0.3784  0.4431 -0.6051
   40MPD2    C4  624   4.373   0.205   1.546 -0.5272 -0.3146 -0.5148
   40MPD2    C5  625   4.487   0.176   1.623  0.3797  0.8199 -0.3304
   40MPD2     H  626   4.370   0.531   1.625  0.5372  0.0263 -0.3150
   40MPD2    H1  627   4.333   0.136   1.473 -0.8647  1.2617 -1.8101
   40MPD2    H2  628   4.633   0.225   1.767  2.0355  1.3119 -1.4851
   40MPD2    H3  629   4.514   0.071   1.614  0.3661  0.8176 -0.3442
   40MPD2     N  630   4.230   0.389   1.460  0.4097  0.3418 -0.1909
   40MPD2    H5  631   4.204   0.487   1.464 -1.8188 -0.3016  0.9292
   40MPD2    N1  632   4.579   0.480   1.794  0.0670  0.5052 -0.5433
   40MPD2    H7  633   4.669   0.446   1.827  0.1085 -0.4924 -1.6903
   41TMC2    C1  634   3.833   3.257  13.519 -0.2960  0.1053  0.2514
   41TMC2    C2  635   3.701   3.294  13.527  0.0520  0.6043 -0.6089
   41TMC2    C3  636   3.635   3.318  13.405  0.2218 -0.7469 -0.1094
   41TMC2    C4  637   3.894   3.252  13.402 -0.1548 -0.1876  0.2216
   41TMC2    C5  638   3.823   3.252  13.292 -0.1612  0.3882  1.3113
   41TMC2    C6  639   3.688   3.285  13.284  0.2435 -0.0283  0.2405
   41TMC2     C  640   3.910   3.263  13.641 -0.4383 -0.0183  0.2826
   41TMC2     O  641   4.028   3.294  13.637  0.1059 -0.0907 -0.1377
   41TMC2     H  642   3.648   3.322  13.617  1.5708 -3.1139  1.4449
   41TMC2    H1  643   3.999   3.226  13.402 -0.2592 -0.5933  0.6214
   41TMC2    H2  644   3.638   3.302  13.189  1.1122 -0.0137 -0.2190
   41TMC2    C7  645   3.896   3.254  13.165 -0.2411  0.2463  0.8255
   41TMC2    C8  646   3.494   3.347  13.410  0.3783  0.3040  0.4704
   41TMC2    O1  647   3.981   3.335  13.143 -0.1992 -0.3612  0.0939
   41TMC2    O2  648   3.427   3.311  13.509 -0.4612  0.1952 -0.1149
   41TMC2    O5  649   3.440   3.346  13.282  0.4604 -0.7877  0.3296
   41TMC2    H5  650   3.495   3.398  13.220 -1.2830 -1.2763 -1.6215
   42MPD2     C  651   3.993   3.261  13.924  0.5333 -0.4346 -1.0436
   42MPD2    C1  652   3.866   3.255  13.887 -0.1844  0.4445  0.5617
   42MPD2    C2  653   3.764   3.271  13.979  0.3695 -0.0082  0.5517
   42MPD2    C3  654   3.791   3.288  14.116  0.5248 -1.5121  0.7803
   42MPD2    C4  655   3.922   3.305  14.146  0.1273 -0.6150  0.0362
   42MPD2    C5  656   4.018   3.293  14.056 -0.3342 -0.0048 -0.1221
   42MPD2     H  657   3.665   3.273  13.933 -0.6824 -2.5602  2.6755
   42MPD2    H1  658   3.947   3.335  14.247 -1.0768 -1.7491  0.6717
   42MPD2    H2  659   4.081   3.265  13.860  0.4868  2.5968 -0.9402
   42MPD2    H3  660   4.120   3.320  14.080  0.0598 -0.8318 -0.8587
   42MPD2     N  661   3.693   3.305  14.219 -0.0368 -0.5662  0.3854
   42MPD2    H5  662   3.710   3.298  14.319  0.0207 -2.6848  0.2266
   42MPD2    N1  663   3.827   3.242  13.750 -0.3433  0.4476 -0.4046
   42MPD2    H7  664   3.734   3.209  13.728 -0.3376  0.1375  0.0447
   43TMC2    C1  665   0.399   1.880   0.894 -0.2534 -0.0486 -0.2287
   43TMC2    C2  666   0.358   1.797   0.995  0.9046  0.8119 -0.0353
   43TMC2    C3  667   0.394   1.822   1.123 -0.0036  0.0841 -0.0135
   43TMC2    C4  668   0.483   1.980   0.914 -0.0074 -0.3696  0.1167
   43TMC2    C5  669   0.523   1.998   1.044 -0.0701 -0.1419  0.0624
   43TMC2    C6  670   0.480   1.923   1.149 -0.9174 -0.6833  0.1473
   43TMC2     C  671   0.391   1.822   0.767 -0.2827  0.5677 -0.1389
   43TMC2     O  672   0.497   1.803   0.709  0.0443 -0.0582  0.1532
   43TMC2     H  673   0.304   1.709   0.961 -0.1883  1.6877 -0.5598
   43TMC2    H1  674   0.513   2.047   0.835  1.3902  0.3588  1.2516
   43TMC2    H2  675   0.536   1.926   1.242 -0.5779  2.3970 -0.1320
   43TMC2    C7  676   0.608   2.113   1.068 -0.2178  0.3355 -0.0395
   43TMC2    C8  677   0.358   1.724   1.220 -0.6103  0.2442  0.3287
   43TMC2    O1  678   0.653   2.166   0.971 -0.6312 -0.1512  0.4600
   43TMC2    O2  679   0.301   1.621   1.189  0.0961 -0.1231 -0.3081
   43TMC2    O5  680   0.306   1.812   1.316  0.0973 -0.4494  0.8943
   43TMC2    H5  681   0.349   1.899   1.332 -0.9946  0.0462  1.0931
   44MPD2     C  682   0.139   1.585   0.394 -0.2449 -0.1836 -0.0391
   44MPD2    C1  683   0.267   1.570   0.430 -0.4595  0.1910 -0.7902
   44MPD2    C2  684   0.317   1.635   0.542 -0.0921 -0.8226  0.3559
   44MPD2    C3  685   0.229   1.715   0.618 -0.3969  0.2483 -0.0743
   44MPD2    C4  686   0.097   1.720   0.584  0.4297 -0.1663  1.0039
   44MPD2    C5  687   0.051   1.653   0.473  0.5075 -0.7802  0.1136
   44MPD2     H  688   0.423   1.624   0.561  0.1568  2.3942  0.8733
   44MPD2    H1  689   0.021   1.770   0.643  0.2905  0.5391  0.2160
   44MPD2    H2  690   0.095   1.539   0.305 -1.0285  1.2260 -0.3880
   44MPD2    H3  691   4.689   1.671   0.439  0.3601  2.1816  2.0369
   44MPD2     N  692   0.268   1.791   0.735 -0.1603  0.0084 -0.0223
   44MPD2    H5  693   0.196   1.836   0.791  1.2208  0.0527  1.7046
   44MPD2    N1  694   0.354   1.490   0.359  0.2119  0.1317  0.3904
   44MPD2    H7  695   0.444   1.476   0.403 -0.6626  0.5011  2.2966
   45TMC2    C1  696   0.621   2.593  10.647 -0.3712 -0.0070  0.1319
   45TMC2    C2  697   0.570   2.587  10.778 -0.6420 -0.1122 -0.7429
   45TMC2    C3  698   0.634   2.645  10.880  0.1424 -0.6401  0.0131
   45TMC2    C4  699   0.735   2.667  10.613 -0.2162 -0.0800 -0.1534
   45TMC2    C5  700   0.799   2.715  10.726 -0.5031 -0.1739 -0.0812
   45TMC2    C6  701   0.745   2.719  10.853  0.8768  1.2285  0.2201
   45TMC2     C  702   0.561   2.500  10.542  0.8162  0.0563  0.5368
   45TMC2     O  703   0.472   2.423  10.581 -0.1907  0.1294 -0.0372
   45TMC2     H  704   0.490   2.517  10.797 -0.7733 -0.0181 -0.9535
   45TMC2    H1  705   0.791   2.656  10.521  1.0288 -0.9910  0.7033
   45TMC2    H2  706   0.791   2.770  10.936 -1.5488  1.3116  1.5201
   45TMC2    C7  707   0.878   2.832  10.710 -0.7554  0.0631 -0.8499
   45TMC2    C8  708   0.565   2.661  11.007 -0.1541  0.3620  0.2070
   45TMC2    O1  709   0.945   2.880  10.805  0.7286 -0.2605 -0.4437
   45TMC2    O2  710   0.575   2.764  11.078 -0.1863 -0.0035 -0.3442
   45TMC2    O5  711   0.513   2.543  11.045  0.0899 -0.7004 -0.0020
   45TMC2    H5  712   0.524   2.463  10.988 -2.4981  0.0285 -1.5596
   46MPD2     C  713   0.451   2.332  10.318  0.0032 -0.2111  0.0633
   46MPD2    C1  714   0.533   2.446  10.308  0.8424 -0.2989  0.1636
   46MPD2    C2  715   0.555   2.498  10.181  0.3008  0.7644 -0.4761
   46MPD2    C3  716   0.485   2.454  10.070  0.0544  0.2094  0.2447
   46MPD2    C4  717   0.404   2.348  10.083  0.6831  0.0462 -0.3047
   46MPD2    C5  718   0.387   2.289  10.205  0.5022 -0.2448  0.5128
   46MPD2     H  719   0.620   2.583  10.164  0.9395  0.6038  1.1492
   46MPD2    H1  720   0.349   2.299  10.003 -1.3067  0.5880  0.7273
   46MPD2    H2  721   0.434   2.280  10.411 -0.2632  1.1523  0.7822
   46MPD2    H3  722   0.311   2.213  10.218  1.5850 -1.7239 -1.6824
   46MPD2     N  723   0.479   2.546   9.969  0.3832  0.7044 -0.2323
   46MPD2    H5  724   0.542   2.626   9.965  1.0293  0.2818  1.6262
   46MPD2    N1  725   0.590   2.525  10.414 -0.4964 -0.1873  0.3791
   46MPD2    H7  726   0.642   2.609  10.390  1.4148 -2.0586 -1.9899
   47TMC2    C1  727   2.154   3.574   9.471  0.1208  0.0899 -0.5683
   47TMC2    C2  728   2.100   3.459   9.525  0.6123  0.3589 -0.6866
   47TMC2    C3  729   1.966   3.425   9.504  0.4668 -0.5128 -0.4809
   47TMC2    C4  730   2.080   3.661   9.405  0.2277  0.0942 -0.3632
   47TMC2    C5  731   1.945   3.633   9.384  0.9273  0.5218 -0.9597
   47TMC2    C6  732   1.888   3.511   9.425  0.3847  0.3590  0.1923
   47TMC2     C  733   2.298   3.584   9.454  1.0002 -0.7971  0.2871
   47TMC2     O  734   2.336   3.690   9.402 -0.9564 -0.3282 -0.1827
   47TMC2     H  735   2.158   3.390   9.586 -0.2841 -0.2441 -0.5169
   47TMC2    H1  736   2.122   3.759   9.386  1.8348 -0.1250  2.1411
   47TMC2    H2  737   1.783   3.497   9.401  0.5724  1.2843 -1.1695
   47TMC2    C7  738   1.844   3.723   9.322 -0.1922  0.1852  0.2412
   47TMC2    C8  739   1.905   3.310   9.571  0.5866 -0.4671  0.1905
   47TMC2    O1  740   1.738   3.685   9.274 -0.2536 -0.0144  0.6977
   47TMC2    O2  741   1.958   3.244   9.661  0.2098 -0.1922 -0.1637
   47TMC2    O5  742   1.791   3.271   9.508  0.7046  0.3351 -0.4167
   47TMC2    H5  743   1.764   3.315   9.425  3.5451 -0.3373 -1.7066
   48MPD2     C  744   2.590   3.529   9.446 -0.6601 -0.3176 -0.2407
   48MPD2    C1  745   2.493   3.437   9.493  0.1625 -0.2050 -0.3338
   48MPD2    C2  746   2.537   3.324   9.554 -0.5389 -0.0916 -0.6817
   48MPD2    C3  747   2.669   3.294   9.573 -0.2677 -0.6688  0.5532
   48MPD2    C4  748   2.757   3.382   9.516  0.2414  1.4508  0.0738
   48MPD2    C5  749   2.721   3.502   9.462 -0.2173  0.4245  0.6230
   48MPD2     H  750   2.455   3.267   9.595  0.1767  0.4242  1.4819
   48MPD2    H1  751   2.864   3.370   9.525 -0.4196 -2.9286  1.9821
   48MPD2    H2  752   2.561   3.627   9.410  1.4794 -0.2071 -1.6900
   48MPD2    H3  753   2.801   3.568   9.432  1.0913 -0.9997  0.9680
   48MPD2     N  754   2.699   3.175   9.650 -0.4616 -0.0220 -0.3606
   48MPD2    H5  755   2.620   3.123   9.688 -1.2710 -0.9668 -3.3567
   48MPD2    N1  756   2.356   3.463   9.484 -0.2583  0.1901 -1.4192
   48MPD2    H7  757   2.302   3.390   9.528  1.4178  0.0103  0.3581
   49TMC2    C1  758   1.313   0.586  10.518 -0.4848 -0.2943  0.2749
   49TMC2    C2  759   1.291   0.452  10.551  0.1364 -0.0295  0.1618
   49TMC2    C3  760   1.253   0.366  10.455  0.9489 -0.7180  0.7756
   49TMC2    C4  761   1.294   0.634  10.389 -0.3275 -0.2546 -0.5353
   49TMC2    C5  762   1.273   0.539  10.292  0.5383  0.2831  0.0368
   49TMC2    C6  763   1.257   0.409  10.325  0.3557 -0.2911 -0.1867
   49TMC2     C  764   1.302   0.688  10.617 -0.2321  0.7038 -0.0887
   49TMC2     O  765   1.321   0.803  10.582 -0.3783  0.3297 -0.2681
   49TMC2     H  766   1.316   0.414  10.649 -1.7866  1.0907  1.0776
   49TMC2    H1  767   1.328   0.733  10.361 -1.2483  0.3202  0.3739
   49TMC2    H2  768   1.255   0.329  10.252  0.3301  1.6471 -2.2816
   49TMC2    C7  769   1.287   0.561  10.144  0.3512 -0.7393 -0.7014
   49TMC2    C8  770   1.272   0.228  10.483  0.0183 -0.1808  0.4455
   49TMC2    O1  771   1.231   0.473  10.078 -0.6294 -0.1090  0.2274
   49TMC2    O2  772   1.352   0.159  10.420 -0.1010 -0.3888  0.0966
   49TMC2    O5  773   1.229   0.195  10.605 -0.2228 -0.4654 -0.1966
   49TMC2    H5  774   1.154   0.250  10.636  0.5525  0.8039 -0.5921
   50MPD2     C  775   1.267   0.866  10.860 -0.0398 -0.1046  0.4856
   50MPD2    C1  776   1.232   0.732  10.854  0.3010 -0.4027 -0.6183
   50MPD2    C2  777   1.164   0.676  10.963 -0.3779 -0.0688  0.0626
   50MPD2    C3  778   1.131   0.753  11.074 -0.3436 -0.2526 -0.0993
   50MPD2    C4  779   1.169   0.886  11.079 -0.3449 -0.4504 -0.0023
   50MPD2    C5  780   1.230   0.941  10.965  0.6903  0.3207 -0.7467
   50MPD2     H  781   1.128   0.574  10.956  2.6457 -0.9841 -1.8958
   50MPD2    H1  782   1.143   0.955  11.159  0.1938  0.0218 -0.2329
   50MPD2    H2  783   1.318   0.919  10.781  0.6278 -0.7897  0.4624
   50MPD2    H3  784   1.248   1.047  10.970  1.2804  0.1788  0.1997
   50MPD2     N  785   1.060   0.698  11.184 -0.4750  0.1577  0.9845
   50MPD2    H5  786   1.052   0.758  11.266  0.3827  0.2257  1.0190
   50MPD2    N1  787   1.261   0.645  10.745  0.2925  0.1532 -0.7698
   50MPD2    H7  788   1.250   0.544  10.748 -0.9941  0.2684 -1.9041
   51TMC2    C1  789   3.061   0.282   2.014  0.3044  0.7503 -0.2192
   51TMC2    C2  790   2.935   0.340   2.031  0.1780 -0.3334  0.3189
   51TMC2    C3  791   2.932   0.464   2.089  0.3095 -0.0617 -0.2798
   51TMC2    C4  792   3.176   0.328   2.072 -0.5238 -0.5353  0.5083
   51TMC2    C5  793   3.157   0.448   2.137 -0.1162  0.5087  0.4136
   51TMC2    C6  794   3.045   0.519   2.147  0.2669  0.1439 -0.2769
   51TMC2     C  795   3.082   0.185   1.913 -0.3279 -1.2038 -0.3815
   51TMC2     O  796   2.994   0.175   1.831  0.1787  0.2389 -0.0249
   51TMC2     H  797   2.845   0.299   1.987 -0.7838  0.6650  1.3691
   51TMC2    H1  798   3.278   0.300   2.048 -0.8081 -0.1835 -1.1148
   51TMC2    H2  799   3.046   0.610   2.207  1.9888 -1.0092  1.4433
   51TMC2    C7  800   3.278   0.514   2.153 -0.0302  0.0213 -0.2574
   51TMC2    C8  801   2.799   0.531   2.075 -0.1055  0.7498 -0.5140
   51TMC2    O1  802   3.267   0.634   2.177 -0.0498  0.0714  0.8983
   51TMC2    O2  803   2.696   0.463   2.060 -0.0966 -0.2966  0.0434
   51TMC2    O5  804   2.816   0.660   2.076  0.6933  0.3512  0.7543
   51TMC2    H5  805   2.906   0.697   2.064 -0.1043  1.8033 -0.7596
   52MPD2     C  806   3.360   4.541   1.726  0.0313 -0.3859  0.7409
   52MPD2    C1  807   3.272   4.616   1.660 -0.4041 -0.6118  0.6633
   52MPD2    C2  808   3.223   4.729   1.728  0.6401 -0.3272 -0.1613
   52MPD2    C3  809   3.268   0.016   1.856 -0.2131 -0.3557  0.2504
   52MPD2    C4  810   3.367   4.681   1.917 -0.4602 -0.3502  0.3282
   52MPD2    C5  811   3.408   4.574   1.851  0.4200  0.9047  0.2764
   52MPD2     H  812   3.136   0.035   1.681 -0.0198  0.2198  1.5636
   52MPD2    H1  813   3.398   4.699   2.019 -1.0503 -1.4339  0.7010
   52MPD2    H2  814   3.402   4.453   1.680  1.0635  0.5914 -0.2076
   52MPD2    H3  815   3.483   4.503   1.884 -0.1062  0.1913 -0.0776
   52MPD2     N  816   3.200   0.114   1.933  0.3969  0.4099 -0.1170
   52MPD2    H5  817   3.233   0.129   2.028  1.5374  1.3345 -0.6638
   52MPD2    N1  818   3.220   4.583   1.532  0.0086  0.0229  0.3283
   52MPD2    H7  819   3.177   4.657   1.476 -0.6680 -0.4331  0.2504
   53TMC2    C1  820   1.281   3.186  11.589  0.6029  0.5545 -0.9910
   53TMC2    C2  821   1.362   3.099  11.517 -1.0309  0.1792  0.3494
   53TMC2    C3  822   1.476   3.060  11.574  0.3294 -0.0606  0.1428
   53TMC2    C4  823   1.322   3.235  11.710  0.4997  0.4756 -0.3999
   53TMC2    C5  824   1.450   3.203  11.752 -0.6121 -0.3665 -0.1187
   53TMC2    C6  825   1.522   3.110  11.690 -0.2883 -0.0729  0.3317
   53TMC2     C  826   1.152   3.216  11.539 -0.4753  0.5957  0.0275
   53TMC2     O  827   1.129   3.192  11.421 -0.3583 -0.0149 -0.0541
   53TMC2     H  828   1.338   3.052  11.422 -0.3051  1.1585 -0.3313
   53TMC2    H1  829   1.258   3.308  11.757 -0.1147 -0.1694 -0.2348
   53TMC2    H2  830   1.629   3.114  11.706 -0.1111 -2.0391 -0.4937
   53TMC2    C7  831   1.478   3.257  11.886 -0.2192 -0.7382  0.4569
   53TMC2    C8  832   1.570   2.990  11.485  0.6412 -0.7644  0.8090
   53TMC2    O1  833   1.432   3.368  11.906  0.1712 -0.0530 -0.1349
   53TMC2    O2  834   1.541   2.968  11.369  0.2554  0.1376  0.2388
   53TMC2    O5  835   1.656   2.906  11.552  0.3031 -0.1045 -0.5446
   53TMC2    H5  836   1.675   2.932  11.645  2.9587  0.9439 -1.3781
   54MPD2     C  837   0.881   3.329  11.488 -0.0195  0.7351  1.5849
   54MPD2    C1  838   0.932   3.301  11.618 -0.5790  0.2825 -0.0322
   54MPD2    C2  839   0.860   3.338  11.732 -0.3699  0.7740  0.5990
   54MPD2    C3  840   0.723   3.370  11.718 -0.4036  0.2075 -0.4679
   54MPD2    C4  841   0.670   3.383  11.593  0.0535  0.6835  0.3845
   54MPD2    C5  842   0.746   3.366  11.478 -0.2097  0.5782  0.2068
   54MPD2     H  843   0.887   3.324  11.836 -1.3721  3.2009  1.1832
   54MPD2    H1  844   0.566   3.413  11.587  0.0922  0.4404 -1.3911
   54MPD2    H2  845   0.941   3.303  11.402  0.0818  4.2960  0.5922
   54MPD2    H3  846   0.701   3.380  11.381  0.8744 -2.1737 -0.6977
   54MPD2     N  847   0.635   3.395  11.830 -0.2787  1.0524 -0.3071
   54MPD2    H5  848   0.540   3.418  11.803 -0.5708  0.8913  0.5913
   54MPD2    N1  849   1.063   3.253  11.638 -0.1564 -0.9488 -0.4121
   54MPD2    H7  850   1.090   3.236  11.735 -2.7169 -0.7579  0.3308
   55TMC2    C1  851   3.422   2.315   0.179 -0.0126 -0.0760 -0.1812
   55TMC2    C2  852   3.458   2.326   0.052 -0.5988 -0.5801  0.3132
   55TMC2    C3  853   3.530   2.222  17.752  0.1705 -0.6266 -0.4268
   55TMC2    C4  854   3.432   2.201   0.251  1.0219  0.4884  1.0694
   55TMC2    C5  855   3.505   2.102   0.190 -0.2073  0.9140  0.1117
   55TMC2    C6  856   3.563   2.109   0.064 -0.3523 -0.2211  0.1092
   55TMC2     C  857   3.317   2.402   0.237 -0.2528 -0.1417  0.5345
   55TMC2     O  858   3.275   2.388   0.354 -0.4793 -0.0269  0.1361
   55TMC2     H  859   3.424   2.401  17.738  0.6512  0.6007  0.9715
   55TMC2    H1  860   3.382   2.184   0.346 -1.2228  0.9129 -0.0204
   55TMC2    H2  861   3.600   2.021   0.014 -0.4725 -0.5019  0.5121
   55TMC2    C7  862   3.483   1.967   0.226 -0.1998 -1.2545  0.5148
   55TMC2    C8  863   3.576   2.234  17.618  0.2393 -0.6696  0.1527
   55TMC2    O1  864   3.490   1.887   0.132  0.0041  0.3519 -0.6747
   55TMC2    O2  865   3.507   2.186  17.525  0.1681 -0.4334  0.1148
   55TMC2    O5  866   3.706   2.207  17.633  0.2953 -0.0742 -0.0135
   55TMC2    H5  867   3.733   2.232  17.724  0.1327 -0.6547  0.1952
   56MPD2     C  868   3.223   2.736   0.132  0.2047 -0.0383  0.2545
   56MPD2    C1  869   3.204   2.613   0.191  0.3031 -0.4191  0.5520
   56MPD2    C2  870   3.091   2.582   0.263 -0.1545  0.1379  0.4991
   56MPD2    C3  871   3.001   2.688   0.290  0.2232  0.2941 -0.2158
   56MPD2    C4  872   3.023   2.811   0.229  0.3702 -0.8944 -0.0930
   56MPD2    C5  873   3.132   2.836   0.146  0.0490  0.3911  0.5454
   56MPD2     H  874   3.061   2.487   0.307 -0.1029 -0.6757 -1.2224
   56MPD2    H1  875   2.945   2.886   0.234  0.3921 -0.8419 -0.5214
   56MPD2    H2  876   3.310   2.754   0.070  0.8416 -0.5150  1.0134
   56MPD2    H3  877   3.143   2.935   0.102  0.2219  0.7665  1.4231
   56MPD2     N  878   2.889   2.660   0.369 -0.2466  0.4441  0.0513
   56MPD2    H5  879   2.880   2.564   0.402 -2.5484  0.9073  0.7555
   56MPD2    N1  880   3.308   2.518   0.165 -0.3398 -0.0286  0.6100
   56MPD2    H7  881   3.381   2.541   0.098 -0.1616  0.4374  0.9627
   57TMC2    C1  882   2.372   2.112  13.882 -0.1562 -0.0947 -0.3684
   57TMC2    C2  883   2.388   2.023  13.990  0.4225 -0.6179  0.3670
   57TMC2    C3  884   2.466   1.915  13.959  0.2956 -0.4763  0.0895
   57TMC2    C4  885   2.422   2.087  13.753  0.4408  0.6851 -0.4342
   57TMC2    C5  886   2.501   1.977  13.735 -0.7721 -0.5531 -0.7405
   57TMC2    C6  887   2.527   1.895  13.837 -0.7727 -0.3608  0.3401
   57TMC2     C  888   2.287   2.229  13.899 -0.4548  0.1449 -0.0386
   57TMC2     O  889   2.218   2.268  13.805 -0.8027 -0.4679 -0.6552
   57TMC2     H  890   2.321   2.029  14.075  0.1132  0.0204  0.0786
   57TMC2    H1  891   2.406   2.154  13.669  3.0712  1.9490  0.0624
   57TMC2    H2  892   2.590   1.808  13.826 -0.6263 -0.1993 -0.1070
   57TMC2    C7  893   2.551   1.941  13.599  0.3619  0.0921  0.3444
   57TMC2    C8  894   2.496   1.828  14.068 -0.0275  0.0342  0.2394
   57TMC2    O1  895   2.557   2.038  13.523  0.0077  0.0597  0.3731
   57TMC2    O2  896   2.549   1.722  14.050  0.6494  0.0216 -0.1909
   57TMC2    O5  897   2.496   1.901  14.182 -0.0413  0.2657 -0.0504
   57TMC2    H5  898   2.471   1.995  14.174  0.8224  0.5600  0.8490
   58MPD2     C  899   2.164   2.663  14.135 -0.1436 -0.2125 -0.1178
   58MPD2    C1  900   2.097   2.595  14.032  0.4881  0.0956  0.2834
   58MPD2    C2  901   2.149   2.475  13.990  0.4044 -0.2994 -0.3875
   58MPD2    C3  902   2.244   2.411  14.067  0.9549 -0.1661 -0.6848
   58MPD2    C4  903   2.290   2.470  14.180  0.1865  0.5247 -0.6350
   58MPD2    C5  904   2.260   2.601  14.205 -0.0785 -0.3063 -0.0863
   58MPD2     H  905   2.105   2.437  13.898 -0.3728 -1.5489  0.5041
   58MPD2    H1  906   2.352   2.414  14.249 -0.2405  1.2394  0.3271
   58MPD2    H2  907   2.128   2.761  14.164  0.3625  0.0810 -0.4698
   58MPD2    H3  908   2.312   2.649  14.287 -0.7893 -0.1101  0.2434
   58MPD2     N  909   2.303   2.284  14.026 -0.3697 -0.1812 -0.0067
   58MPD2    H5  910   2.372   2.245  14.089  0.7653  1.8983  0.0277
   58MPD2    N1  911   1.991   2.663  13.964 -0.4881 -0.2236  0.0537
   58MPD2    H7  912   1.980   2.762  13.985 -0.1577 -0.0792 -0.4498
   59TMC2    C1  913   4.350   2.201  12.963 -0.1890 -0.1392 -0.6058
   59TMC2    C2  914   4.338   2.123  13.082 -0.5389  0.0192 -0.3962
   59TMC2    C3  915   4.259   2.009  13.061  0.3872 -0.1439  0.2019
   59TMC2    C4  916   4.270   2.180  12.857 -0.5654 -0.0594 -0.1555
   59TMC2    C5  917   4.183   2.072  12.853 -0.3508 -0.3698 -0.7945
   59TMC2    C6  918   4.176   1.985  12.956 -0.7366  0.1927  0.4108
   59TMC2     C  919   4.480   2.257  12.934  0.1112  0.4326  0.0983
   59TMC2     O  920   4.519   2.248  12.817 -0.8229  0.2048 -0.6273
   59TMC2     H  921   4.391   2.137  13.176  3.3413  1.5906 -2.8348
   59TMC2    H1  922   4.290   2.222  12.759  0.0398  0.4330  0.1759
   59TMC2    H2  923   4.102   1.905  12.945  1.0701 -1.2264 -1.4917
   59TMC2    C7  924   4.165   2.025  12.719 -0.6390 -0.2390  0.7489
   59TMC2    C8  925   4.240   1.932  13.182  0.1204  0.0303 -0.6730
   59TMC2    O1  926   4.181   1.905  12.698  0.2358 -0.2087 -0.2474
   59TMC2    O2  927   4.172   1.982  13.266  0.0475  0.7674 -0.3679
   59TMC2    O5  928   4.363   1.890  13.191 -0.1979  0.3380 -0.1768
   59TMC2    H5  929   4.395   1.869  13.101  2.6822  1.3450  0.6212
   60MPD2     C  930   4.716   2.451  12.934  0.1502  0.0120 -0.1649
   60MPD2    C1  931   4.642   2.413  13.045  0.0033  0.4607 -0.1899
   60MPD2    C2  932   4.682   2.467  13.169  0.2696 -1.2174 -0.1804
   60MPD2    C3  933   0.043   2.562  13.176 -0.0925  0.9406  0.6847
   60MPD2    C4  934   0.102   2.598  13.060  0.8084 -0.0801  0.4052
   60MPD2    C5  935   0.077   2.538  12.942 -0.3565 -0.3681 -0.1712
   60MPD2     H  936   4.639   2.419  13.256 -1.4124  0.1364 -0.2563
   60MPD2    H1  937   0.177   2.676  13.062 -0.1233  0.8429 -0.7782
   60MPD2    H2  938   4.693   2.413  12.835 -0.3403  0.9840 -0.4270
   60MPD2    H3  939   0.137   2.560  12.854 -1.2883 -0.1321 -0.7501
   60MPD2     N  940   0.086   2.626  13.296 -0.0358  0.3807  0.1978
   60MPD2    H5  941   0.147   2.705  13.278 -1.0177  1.3109  1.0155
   60MPD2    N1  942   4.525   2.327  13.045  0.4280  0.2892 -0.8876
   60MPD2    H7  943   4.475   2.323  13.134  1.3985 -0.9667 -0.4027
   61TMC2    C1  944   4.051   3.575  14.948  0.6248 -0.0291  0.1736
   61TMC2    C2  945   4.028   3.470  15.031  0.2685  0.0862  0.1143
   61TMC2    C3  946   4.067   3.476  15.159  0.1965  0.3113  0.0192
   61TMC2    C4  947   4.119   3.684  15.000 -0.1181  0.3150  0.1034
   61TMC2    C5  948   4.162   3.687  15.129 -0.1518  0.1829 -0.3873
   61TMC2    C6  949   4.125   3.587  15.216  0.2674  0.6629  0.2851
   61TMC2     C  950   4.002   3.555  14.811  0.6630  0.0353  0.6920
   61TMC2     O  951   3.916   3.467  14.794  0.8832 -0.7420 -0.7847
   61TMC2     H  952   3.972   3.385  14.994  0.0467  0.1179  0.3836
   61TMC2    H1  953   4.152   3.767  14.939  1.1535  0.8423  1.4988
   61TMC2    H2  954   4.140   3.583  15.323  0.8978  1.7206  0.2299
   61TMC2    C7  955   4.209   3.816  15.182  0.1043  0.3449 -0.0913
   61TMC2    C8  956   4.024   3.363  15.242 -0.0830 -0.6146 -0.2008
   61TMC2    O1  957   4.257   3.897  15.100  0.7228  0.5181  0.2035
   61TMC2    O2  958   3.929   3.286  15.209 -0.1052  0.1402  0.0483
   61TMC2    O5  959   4.148   3.312  15.268  0.3314  0.3246  0.4379
   61TMC2    H5  960   4.222   3.376  15.276 -2.3897  3.5761 -0.7442
   62MPD2     C  961   3.936   3.563  14.520  0.0276 -0.4124  0.6898
   62MPD2    C1  962   4.030   3.646  14.578  0.0835 -0.9060 -0.3816
   62MPD2    C2  963   4.106   3.735  14.513  0.1442 -0.4207  0.0154
   62MPD2    C3  964   4.067   3.777  14.390  0.1272  0.1074  0.1322
   62MPD2    C4  965   3.979   3.695  14.328 -0.5889 -0.4118 -0.3439
   62MPD2    C5  966   3.919   3.590  14.385  0.2107 -0.6601  0.0546
   62MPD2     H  967   4.182   3.790  14.568 -0.7072  0.6656  0.1176
   62MPD2    H1  968   3.944   3.705  14.226 -0.6744 -0.8272 -0.3549
   62MPD2    H2  969   3.877   3.486  14.568 -0.8206  1.1536  2.1762
   62MPD2    H3  970   3.841   3.543  14.327  0.0845  1.1809 -1.2771
   62MPD2     N  971   4.115   3.890  14.318  0.5405  0.3828  0.0216
   62MPD2    H5  972   4.109   3.887  14.217  2.1641 -0.8232 -0.0358
   62MPD2    N1  973   4.069   3.636  14.715  0.5379 -0.6441 -0.0072
   62MPD2    H7  974   4.148   3.694  14.738 -0.9020  1.7790 -1.1880
   63TMC2    C1  975   3.082   3.289  11.208 -0.2077  0.2028  0.0104
   63TMC2    C2  976   3.142   3.357  11.311 -0.3617 -0.2600  0.3888
   63TMC2    C3  977   3.245   3.443  11.278  0.2824 -0.1150 -0.0512
   63TMC2    C4  978   3.108   3.310  11.077  0.4363 -0.1452  0.5441
   63TMC2    C5  979   3.199   3.405  11.047 -1.0052  0.8143 -0.1807
   63TMC2    C6  980   3.278   3.462  11.143 -0.0348 -0.0609  0.5182
   63TMC2     C  981   2.978   3.199  11.243  0.1631 -0.3094  0.6427
   63TMC2     O  982   2.923   3.217  11.349 -0.6756 -0.5584 -0.0480
   63TMC2     H  983   3.115   3.340  11.415 -2.6008  0.1069 -0.1405
   63TMC2    H1  984   3.045   3.287  10.992 -1.1331 -1.7995  2.1626
   63TMC2    H2  985   3.366   3.520  11.118  0.6706 -0.4682  1.9884
   63TMC2    C7  986   3.205   3.450  10.910  0.0827 -0.6227  1.6350
   63TMC2    C8  987   3.290   3.545  11.371 -0.5814 -0.2645  0.1904
   63TMC2    O1  988   3.108   3.441  10.836  0.3377 -0.3775  0.1167
   63TMC2    O2  989   3.409   3.565  11.382  0.1382 -0.0574 -0.3429
   63TMC2    O5  990   3.196   3.567  11.464 -0.4839 -0.3908  0.4426
   63TMC2    H5  991   3.104   3.539  11.446 -1.4791  1.8359  2.0462
   64MPD2     C  992   2.573   2.937  11.055  0.4164 -0.5966 -0.2787
   64MPD2    C1  993   2.692   2.893  10.997  0.2512 -0.4301 -0.9457
   64MPD2    C2  994   2.814   2.947  11.035  0.1782  0.0955  0.7507
   64MPD2    C3  995   2.824   3.046  11.126 -0.0718 -0.7438 -0.6510
   64MPD2    C4  996   2.706   3.093  11.183 -0.0051  0.2440  0.0915
   64MPD2    C5  997   2.586   3.035  11.149  0.1387  1.0722  0.0971
   64MPD2     H  998   2.906   2.909  10.993 -0.6135 -0.3133 -0.6405
   64MPD2    H1  999   2.708   3.179  11.250 -0.4604 -1.2631  2.0437
   64MPD2    H2 1000   2.472   2.912  11.027  0.3305 -0.2089 -0.3083
   64MPD2    H3 1001   2.496   3.071  11.198 -1.0324 -1.0833 -0.4600
   64MPD2     N 1002   2.950   3.101  11.150 -0.2460 -0.0392 -0.3094
   64MPD2    H5 1003   3.019   3.091  11.077  1.5192 -0.1843  1.3599
   64MPD2    N1 1004   2.706   2.786  10.905 -0.0135  0.0047 -0.3193
   64MPD2    H7 1005   2.802   2.767  10.877  0.2087 -1.1054  1.1617
   65TMC2    C1 1006   0.459   3.011  15.806 -0.1909  0.1807 -0.1241
   65TMC2    C2 1007   0.579   3.056  15.851  0.9129  0.6981  0.5033
   65TMC2    C3 1008   0.604   3.193  15.828  0.6552 -0.6263 -0.4708
   65TMC2    C4 1009   0.376   3.092  15.733 -0.0251 -0.1255  0.2957
   65TMC2    C5 1010   0.405   3.224  15.717 -0.2507  0.1412 -0.4455
   65TMC2    C6 1011   0.521   3.278  15.766 -0.1811  0.0500 -0.3307
   65TMC2     C 1012   0.408   2.895  15.873 -1.0516  0.4829  0.3124
   65TMC2     O 1013   0.457   2.867  15.982  0.0144 -0.0560  0.1192
   65TMC2     H 1014   0.652   2.995  15.903  0.3553 -1.3334 -1.1135
   65TMC2    H1 1015   0.284   3.058  15.687  0.7182  0.2581 -1.4988
   65TMC2    H2 1016   0.536   3.386  15.768  0.2834 -0.1221  4.6331
   65TMC2    C7 1017   0.296   3.318  15.680 -0.3046 -0.2234  0.3251
   65TMC2    C8 1018   0.706   3.238  15.925  0.1644 -0.0289 -0.6102
   65TMC2    O1 1019   0.220   3.296  15.587 -0.2680 -0.6338 -0.1431
   65TMC2    O2 1020   0.713   3.187  16.036  0.3926 -0.4554  0.6710
   65TMC2    O5 1021   0.757   3.355  15.897  0.5381 -0.0728  0.1526
   65TMC2    H5 1022   0.756   3.367  15.799  1.5033  3.4445  0.5537
   66MPD2     C 1023   0.241   2.664  15.981 -0.3217 -0.5962 -0.4410
   66MPD2    C1 1024   0.250   2.701  15.848 -0.2417 -0.9112 -0.2578
   66MPD2    C2 1025   0.186   2.626  15.754  0.3868  0.1113 -0.0336
   66MPD2    C3 1026   0.114   2.510  15.783 -0.4079  0.9609  0.1537
   66MPD2    C4 1027   0.109   2.469  15.915  0.4896 -0.1809  0.7021
   66MPD2    C5 1028   0.179   2.547  16.009 -0.2768  0.1699  0.4597
   66MPD2     H 1029   0.188   2.665  15.653  0.6400  1.1218  0.3637
   66MPD2    H1 1030   0.049   2.385  15.948 -0.6869  0.1387 -0.6014
   66MPD2    H2 1031   0.287   2.712  16.066  0.6305  0.7281 -1.6941
   66MPD2    H3 1032   0.182   2.516  16.113  0.7161 -0.4904  0.2347
   66MPD2     N 1033   0.045   2.437  15.677 -0.3221  0.0716 -0.2451
   66MPD2    H5 1034   0.008   2.346  15.702  0.4228  0.4986  2.3500
   66MPD2    N1 1035   0.318   2.818  15.801 -0.2395  0.4673 -0.1033
   66MPD2    H7 1036   0.303   2.841  15.704 -3.5499 -0.0741  0.2555
   67TMC2    C1 1037   4.618   2.545  14.217 -0.4717  0.5617 -0.8058
   67TMC2    C2 1038   4.529   2.615  14.293  1.4785  0.2433  0.4225
   67TMC2    C3 1039   4.555   2.629  14.426  0.5986 -0.1204  0.3281
   67TMC2    C4 1040   4.735   2.503  14.268  0.6140 -0.4144  0.1224
   67TMC2    C5 1041   0.024   2.522  14.405  0.5256  0.8551 -0.1815
   67TMC2    C6 1042   4.670   2.584  14.478  0.4174  0.1971 -0.0674
   67TMC2     C 1043   4.575   2.493  14.085 -0.4325 -0.3805 -0.6649
   67TMC2     O 1044   4.657   2.458  14.005 -0.0643 -0.3813  0.3435
   67TMC2     H 1045   4.442   2.655  14.242  1.3064  0.7506  1.1088
   67TMC2    H1 1046   0.070   2.459  14.202  1.4385 -0.4468  1.0746
   67TMC2    H2 1047   4.682   2.595  14.585  0.5249 -0.4191 -0.0159
   67TMC2    C7 1048   0.162   2.498  14.458 -0.4585  0.9008  0.0920
   67TMC2    C8 1049   4.492   2.725  14.512 -0.8074  0.2341 -0.6697
   67TMC2    O1 1050   0.255   2.481  14.382  0.2631  0.0111  0.4307
   67TMC2    O2 1051   4.536   2.759  14.623  0.5645 -0.2795 -0.0296
   67TMC2    O5 1052   4.367   2.754  14.470  0.3503  0.2552 -0.0229
   67TMC2    H5 1053   4.334   2.693  14.400  0.0803 -0.2758  0.5531
   68MPD2     C 1054   4.398   2.372  13.863  0.4954 -0.2736 -0.1442
   68MPD2    C1 1055   4.357   2.406  13.987  0.5518 -0.1880 -0.3561
   68MPD2    C2 1056   4.220   2.387  14.018 -0.0367 -0.1084 -0.5945
   68MPD2    C3 1057   4.132   2.352  13.917  0.3510 -1.0004 -0.3075
   68MPD2    C4 1058   4.178   2.311  13.797 -0.2981 -0.6953  0.3401
   68MPD2    C5 1059   4.311   2.328  13.767  0.9313 -0.6068 -0.6255
   68MPD2     H 1060   4.185   2.407  14.119  1.4215  0.1703 -0.1441
   68MPD2    H1 1061   4.101   2.282  13.726  0.2553 -2.3845  0.4112
   68MPD2    H2 1062   4.497   2.388  13.822  0.4382  0.4343 -0.0094
   68MPD2    H3 1063   4.358   2.309  13.671  2.7140  0.5343  0.0336
   68MPD2     N 1064   3.994   2.366  13.931 -0.5095 -0.9087 -0.0172
   68MPD2    H5 1065   3.943   2.326  13.853 -0.6106  0.5279 -0.6992
   68MPD2    N1 1066   4.438   2.471  14.087 -0.3861  0.3649 -0.1995
   68MPD2    H7 1067   4.386   2.496  14.171 -0.3463  3.6354 -1.1736
   69TMC2    C1 1068   1.906   3.985  12.990  0.5509 -0.5074 -0.2161
   69TMC2    C2 1069   1.836   4.094  13.028  0.2511 -0.2486 -0.4607
   69TMC2    C3 1070   1.867   4.209  12.961 -0.0351  1.2356 -0.5126
   69TMC2    C4 1071   2.006   3.982  12.893 -0.1305  0.2341  0.5350
   69TMC2    C5 1072   2.028   4.100  12.827  0.6829 -0.2168 -0.8570
   69TMC2    C6 1073   1.957   4.214  12.859  0.0239  0.0560 -0.0891
   69TMC2     C 1074   1.853   3.862  13.021 -0.0677 -0.0006  0.8138
   69TMC2     O 1075   1.793   3.837  13.125 -0.4098 -0.2906  0.1633
   69TMC2     H 1076   1.754   4.081  13.098  0.9189  0.0194  0.3739
   69TMC2    H1 1077   2.069   3.895  12.877  0.5434  0.8362 -0.1119
   69TMC2    H2 1078   1.964   4.304  12.798  0.7172 -0.3219 -0.5673
   69TMC2    C7 1079   2.110   4.107  12.709  0.0730 -0.0163 -0.0877
   69TMC2    C8 1080   1.790   4.337  12.974  0.0707 -0.5792  0.4476
   69TMC2    O1 1081   2.168   4.003  12.687  0.1780  0.3098  0.0575
   69TMC2    O2 1082   1.685   4.339  13.036  0.3381  0.0043  0.7294
   69TMC2    O5 1083   1.884   4.435  12.985 -0.1911  0.1775 -0.0511
   69TMC2    H5 1084   1.980   4.424  12.964 -0.4528 -2.1933 -0.0804
   70MPD2     C 1085   1.892   3.565  12.798  0.9363  0.3784  0.2773
   70MPD2    C1 1086   1.851   3.633  12.911  0.7638  0.4196  0.8622
   70MPD2    C2 1087   1.813   3.552  13.017  0.2494 -0.1903  0.3282
   70MPD2    C3 1088   1.833   3.411  13.005  0.7426 -0.1552  0.2735
   70MPD2    C4 1089   1.888   3.353  12.890  0.4820 -0.5566  0.7303
   70MPD2    C5 1090   1.914   3.434  12.783 -0.1539  0.3763  0.2496
   70MPD2     H 1091   1.772   3.591  13.110  1.4836 -1.2151  1.2986
   70MPD2    H1 1092   1.920   3.249  12.891  1.5987 -0.2100  0.8702
   70MPD2    H2 1093   1.928   3.625  12.716  1.5975 -1.5952 -0.8763
   70MPD2    H3 1094   1.954   3.399  12.689 -0.0431 -0.5517  0.6505
   70MPD2     N 1095   1.807   3.326  13.106  0.0856 -0.2324  0.0475
   70MPD2    H5 1096   1.827   3.228  13.086 -1.1439 -0.4146 -0.3155
   70MPD2    N1 1097   1.867   3.775  12.916  0.1189 -0.5831 -0.2703
   70MPD2    H7 1098   1.908   3.820  12.834 -2.6344  1.1364 -0.7022
   71TMC2    C1 1099   4.727   3.944   1.647  0.3298 -0.4029 -0.2824
   71TMC2    C2 1100   0.083   3.849   1.608 -0.1267  1.0703 -0.0212
   71TMC2    C3 1101   0.061   3.723   1.651  0.3324  0.4688  0.1126
   71TMC2    C4 1102   4.606   3.913   1.705 -0.5697  0.1046  0.8915
   71TMC2    C5 1103   4.595   3.780   1.745  0.2187 -0.2008  0.0955
   71TMC2    C6 1104   4.689   3.683   1.721  0.8772  0.1888 -0.5105
   71TMC2     C 1105   4.731   4.082   1.596 -0.2333  0.5449  0.1375
   71TMC2     O 1106   4.626   4.140   1.570 -0.0469  0.0695 -0.1227
   71TMC2     H 1107   0.174   3.880   1.559  0.5761 -0.1469  0.5165
   71TMC2    H1 1108   4.534   3.986   1.740  2.1874  1.3226  3.9799
   71TMC2    H2 1109   4.670   3.582   1.756 -2.0655  0.7517 -0.4308
   71TMC2    C7 1110   4.464   3.724   1.773 -0.0384 -0.3162 -0.2541
   71TMC2    C8 1111   0.170   3.634   1.632 -0.8834 -0.3301 -0.3856
   71TMC2    O1 1112   4.456   3.614   1.832 -0.4883  0.0695  0.1472
   71TMC2    O2 1113   0.238   3.605   1.536 -0.3991  0.1482  0.4170
   71TMC2    O5 1114   0.195   3.593   1.759 -0.0021  0.5808 -0.2501
   71TMC2    H5 1115   0.167   3.649   1.834 -0.3614  0.4752 -0.3030
   72MPD2     C 1116   0.243   4.494   1.409  0.0843  0.7809  0.0955
   72MPD2    C1 1117   0.109   4.466   1.406 -0.1142 -0.4190  0.0690
   72MPD2    C2 1118   0.067   4.341   1.447 -0.2074 -0.1294  0.4644
   72MPD2    C3 1119   0.158   4.252   1.510  0.4511 -0.7923 -0.3060
   72MPD2    C4 1120   0.295   4.287   1.513 -0.0619  1.0709 -0.3290
   72MPD2    C5 1121   0.337   4.401   1.456  0.1140 -0.4768 -0.2453
   72MPD2     H 1122   4.706   4.306   1.431  0.0697 -0.9512  0.5378
   72MPD2    H1 1123   0.372   4.228   1.561  0.1795  2.1548  0.6112
   72MPD2    H2 1124   0.287   4.590   1.384  1.6008  0.4371  1.4188
   72MPD2    H3 1125   0.441   4.426   1.472 -0.0882 -0.5422  1.1185
   72MPD2     N 1126   0.119   4.129   1.568 -0.0518 -0.1435 -0.4051
   72MPD2    H5 1127   0.192   4.068   1.604  3.6167  3.9657 -0.8573
   72MPD2    N1 1128   0.008   4.558   1.361  0.1824  0.6793 -0.3269
   72MPD2    H7 1129   4.653   4.521   1.366  1.4272 -2.0660  2.6294
   73TMC2    C1 1130   3.868   1.311  14.231 -0.3643  0.6597 -0.5829
   73TMC2    C2 1131   3.828   1.340  14.358  0.2904  0.3538 -0.3737
   73TMC2    C3 1132   3.922   1.340  14.456 -0.3441  0.8005  0.1015
   73TMC2    C4 1133   4.001   1.289  14.202  0.0321  0.0820 -0.2158
   73TMC2    C5 1134   4.091   1.282  14.302  0.7296 -0.3645 -0.3928
   73TMC2    C6 1135   4.051   1.314  14.427 -0.3523  0.6773  0.6595
   73TMC2     C 1136   3.812   1.389  14.125 -0.3901  0.4633  0.2918
   73TMC2     O 1137   3.894   1.437  14.045  0.1426  0.3517 -0.1505
   73TMC2     H 1138   3.722   1.350  14.379 -0.3196 -2.7097 -2.0595
   73TMC2    H1 1139   4.038   1.253  14.107  0.5445  0.2101 -0.0672
   73TMC2    H2 1140   4.129   1.339  14.498  1.3252  0.4091 -1.0758
   73TMC2    C7 1141   4.209   1.347  14.264 -0.1958  0.0921 -0.1022
   73TMC2    C8 1142   3.894   1.369  14.595  0.3027  0.0428  0.2341
   73TMC2    O1 1143   4.307   1.343  14.340 -0.1536 -0.2306  0.0417
   73TMC2    O2 1144   3.956   1.321  14.688 -0.8708  0.3874 -0.2312
   73TMC2    O5 1145   3.786   1.445  14.620 -0.5077  0.3410  0.5948
   73TMC2    H5 1146   3.761   1.495  14.539 -0.9099 -1.4754 -0.4037
   74MPD2     C 1147   3.470   1.691  13.905 -0.0776  0.4104  0.5598
   74MPD2    C1 1148   3.609   1.691  13.902 -0.4060 -0.4109 -0.2867
   74MPD2    C2 1149   3.674   1.597  13.978  0.0750  0.1004  0.3124
   74MPD2    C3 1150   3.606   1.512  14.063 -0.2854  0.3500 -0.9617
   74MPD2    C4 1151   3.468   1.518  14.078 -0.2736 -0.1165 -0.1314
   74MPD2    C5 1152   3.404   1.606  13.994  0.1754 -0.1346  0.2508
   74MPD2     H 1153   3.781   1.609  13.990 -0.0607  2.1068 -0.3394
   74MPD2    H1 1154   3.409   1.444  14.130  1.2677 -0.6789  0.8156
   74MPD2    H2 1155   3.411   1.769  13.859 -1.0358 -0.1520  0.8371
   74MPD2    H3 1156   3.296   1.607  13.997  0.1476 -0.1791 -0.7985
   74MPD2     N 1157   3.680   1.419  14.144 -0.2356 -0.7372  0.1929
   74MPD2    H5 1158   3.626   1.373  14.217 -0.2424 -1.4293 -0.2469
   74MPD2    N1 1159   3.680   1.787  13.824 -0.3498 -0.3059  0.6412
   74MPD2    H7 1160   3.620   1.837  13.759 -0.1717  0.5805  1.1711
   75TMC2    C1 1161   3.793   2.393  14.029 -0.0170  0.4234 -0.1442
   75TMC2    C2 1162   3.722   2.360  14.148  0.1575  0.2903  0.1663
   75TMC2    C3 1163   3.586   2.381  14.150 -0.3224 -0.5204 -1.0477
   75TMC2    C4 1164   3.731   2.466  13.932 -0.3519 -0.9491  0.3886
   75TMC2    C5 1165   3.591   2.484  13.938 -0.8333  0.1700  0.1036
   75TMC2    C6 1166   3.514   2.432  14.041 -0.5809  0.2442  0.0318
   75TMC2     C 1167   3.933   2.412  14.042 -0.1261 -0.7856  0.6121
   75TMC2     O 1168   3.970   2.465  14.148 -0.1684 -0.3423 -0.2376
   75TMC2     H 1169   3.762   2.333  14.245  0.3285  2.3237  0.6669
   75TMC2    H1 1170   3.791   2.513  13.854  0.6191 -0.7760  1.2410
   75TMC2    H2 1171   3.405   2.432  14.032 -0.4967  1.5319 -1.0787
   75TMC2    C7 1172   3.526   2.541  13.817  0.3140 -0.3262 -0.0629
   75TMC2    C8 1173   3.512   2.312  14.253 -0.6063  0.3980 -0.0388
   75TMC2    O1 1174   3.587   2.539  13.706  0.4420  0.2935  0.7110
   75TMC2    O2 1175   3.562   2.267  14.358 -0.6833 -0.3426  0.6238
   75TMC2    O5 1176   3.385   2.295  14.215  0.1563 -0.4297  0.2155
   75TMC2    H5 1177   3.339   2.244  14.285 -2.7064  0.9184 -0.7008
   76TMC2    C1 1178   3.031   3.053  11.730  0.4048 -0.0039  0.0802
   76TMC2    C2 1179   2.926   3.044  11.646  0.7249 -0.1302 -0.1574
   76TMC2    C3 1180   2.912   2.921  11.585 -0.1734  0.0011  0.6970
   76TMC2    C4 1181   3.115   2.952  11.768 -0.7919  0.2776  0.3581
   76TMC2    C5 1182   3.099   2.831  11.705  0.1008  0.3104 -0.2601
   76TMC2    C6 1183   2.999   2.817  11.610 -0.7586 -0.4067  0.5849
   76TMC2     C 1184   3.056   3.184  11.787 -0.4325 -0.5633 -0.3732
   76TMC2     O 1185   3.172   3.212  11.817 -0.3950 -0.1866 -0.2933
   76TMC2     H 1186   2.869   3.133  11.620 -0.4249  0.2117  3.5777
   76TMC2    H1 1187   3.192   2.972  11.841 -0.0940 -2.1397  0.2822
   76TMC2    H2 1188   2.980   2.721  11.562 -2.6757 -0.9349  2.3930
   76TMC2    C7 1189   3.156   2.702  11.747 -0.0821  1.0539 -0.6834
   76TMC2    C8 1190   2.811   2.912  11.478 -0.3115  0.3025 -0.7775
   76TMC2    O1 1191   3.146   2.599  11.680  0.2193 -0.2283 -0.7347
   76TMC2    O2 1192   2.824   2.814  11.408  0.2806 -0.3369 -0.5983
   76TMC2    O5 1193   2.697   2.932  11.552  0.1869  0.0531 -0.0555
   76TMC2    H5 1194   2.680   3.028  11.553 -2.3386 -0.3882 -0.5832
   77MPD2     C 1195   2.902   3.647  11.943 -0.0218 -0.1881 -0.3753
   77MPD2    C1 1196   2.794   3.564  11.939  0.4431 -0.0415 -0.3431
   77MPD2    C2 1197   2.808   3.436  11.903  0.3526 -0.5711  0.1051
   77MPD2    C3 1198   2.934   3.385  11.865 -0.2699 -0.1040 -0.4424
   77MPD2    C4 1199   3.041   3.467  11.861 -0.2069 -0.3367  0.9718
   77MPD2    C5 1200   3.025   3.593  11.901  0.4857 -0.0998  0.1002
   77MPD2     H 1201   2.715   3.381  11.908 -0.3668  0.5091 -1.1550
   77MPD2    H1 1202   3.146   3.450  11.838 -0.1384  0.2751  0.8361
   77MPD2    H2 1203   2.898   3.748  11.982  2.2501 -0.0350 -0.5493
   77MPD2    H3 1204   3.107   3.663  11.889  0.0965  0.2401 -0.5827
   77MPD2     N 1205   2.936   3.250  11.819  0.1504 -0.2430 -0.1443
   77MPD2    H5 1206   2.850   3.197  11.818 -0.4217  0.6946 -0.4653
   77MPD2    N1 1207   2.660   3.614  11.966  0.3268 -0.1843 -0.0863
   77MPD2    H7 1208   2.584   3.553  11.939 -1.0208  1.9567 -1.1847
   78TMC2    C1 1209   4.007   4.554   0.503 -0.4146  0.4911 -0.0433
   78TMC2    C2 1210   3.971   4.681   0.458 -0.1979  0.4916  0.2724
   78TMC2    C3 1211   4.070   0.038   0.452  0.3214  0.8139  0.2181
   78TMC2    C4 1212   4.144   4.528   0.535  0.1873  0.4383 -0.0318
   78TMC2    C5 1213   4.229   4.635   0.529  0.0582  0.0732 -0.4318
   78TMC2    C6 1214   4.202   0.019   0.488 -0.5406  0.6224  0.6379
   78TMC2     C 1215   3.915   4.448   0.486  0.1342 -0.1587  0.0429
   78TMC2     O 1216   3.805   4.474   0.441  0.0532  0.1063 -0.7110
   78TMC2     H 1217   3.867   4.705   0.439 -0.3256 -0.8626 -0.7708
   78TMC2    H1 1218   4.185   4.428   0.541  0.0115  0.2859 -1.3258
   78TMC2    H2 1219   4.275   0.099   0.497  0.5227 -0.2709 -0.2467
   78TMC2    C7 1220   4.353   4.620   0.600  0.2149 -0.1229 -0.3267
   78TMC2    C8 1221   4.034   0.175   0.436 -0.8408  0.2844  0.0761
   78TMC2    O1 1222   4.450   4.693   0.577 -0.5183 -0.0378  0.1287
   78TMC2    O2 1223   4.111   0.272   0.461 -0.0651  0.0291  0.0167
   78TMC2    O5 1224   3.948   0.176   0.336  0.0729 -0.5265  0.3844
   78TMC2    H5 1225   3.906   0.091   0.310 -0.2895  0.0886 -1.0596
   79MPD1     C 1226   3.726   3.986   0.565 -0.0335  0.1380  0.0943
   79MPD1    C1 1227   3.724   4.069   0.450  0.6382 -0.7212 -0.1665
   79MPD1    C2 1228   3.798   4.188   0.452 -0.7503  1.1810 -0.1235
   79MPD1    C3 1229   3.867   4.227   0.571  0.0211 -1.1521  0.4994
   79MPD1    C4 1230   3.872   4.140   0.681 -0.2082 -0.7385  0.4803
   79MPD1    C5 1231   3.799   4.027   0.669 -0.2271 -0.2768 -0.0189
   79MPD1     H 1232   3.800   4.245   0.360  3.0952 -0.1024 -0.8199
   79MPD1    H1 1233   3.930   4.172   0.768  1.2260 -0.1671 -0.6919
   79MPD1    H2 1234   3.673   3.892   0.577  1.4287 -0.9565 -1.8520
   79MPD1    H3 1235   3.806   3.955   0.751 -0.2285  0.4347  0.6060
   79MPD1     N 1236   3.939   4.345   0.573  0.0123 -0.2360 -0.6665
   79MPD1    H5 1237   4.010   4.358   0.644  0.0911  0.6906 -0.9096
   79MPD1    N1 1238   3.665   4.019   0.337  0.5726  0.0071  0.1715
   79MPD1    H6 1239   3.586   3.957   0.354  0.5752  0.4724  1.8639
   79MPD1    H7 1240   3.632   4.100   0.285  0.2717  1.2576  2.3050
   80TMC2    C1 1241   1.139   2.928  12.007  0.0848  0.1160  0.7882
   80TMC2    C2 1242   1.180   2.882  11.886  0.2470 -0.3217  0.3311
   80TMC2    C3 1243   1.175   2.745  11.862  0.1660  0.7786  0.7782
   80TMC2    C4 1244   1.096   2.844  12.111  0.2732 -0.1285 -1.0276
   80TMC2    C5 1245   1.099   2.709  12.082  0.2196 -0.3700  0.3137
   80TMC2    C6 1246   1.133   2.662  11.959 -0.1736 -0.3665 -0.5866
   80TMC2     C 1247   1.133   3.070  12.014  0.3591  0.0082 -0.0839
   80TMC2     O 1248   1.104   3.129  11.909 -0.2269 -0.0458 -0.0760
   80TMC2     H 1249   1.214   2.945  11.804 -0.5898  1.9994  1.7631
   80TMC2    H1 1250   1.073   2.887  12.208  2.2587 -1.4570  0.0475
   80TMC2    H2 1251   1.114   2.559  11.931  0.0946  0.1042 -2.4611
   80TMC2    C7 1252   1.025   2.609  12.167  0.0837 -0.0113  0.3410
   80TMC2    C8 1253   1.276   2.688  11.783 -0.2766 -0.0854 -0.3222
   80TMC2    O1 1254   0.964   2.526  12.102  0.2697 -0.1791  0.0006
   80TMC2    O2 1255   1.316   2.746  11.684 -0.3299  0.3828  0.1549
   80TMC2    O5 1256   1.363   2.638  11.873  0.2497 -0.4624  0.2823
   80TMC2    H5 1257   1.335   2.605  11.961  0.7090  0.9876  0.9838
   81MPD2     C 1258   1.145   3.357  12.102  0.1133  0.8594  0.2643
   81MPD2    C1 1259   1.176   3.250  12.189  0.2553 -1.1995 -0.0973
   81MPD2    C2 1260   1.217   3.281  12.320  0.7122  0.2041 -0.9708
   81MPD2    C3 1261   1.229   3.417  12.363 -0.1040 -0.0761 -0.1680
   81MPD2    C4 1262   1.194   3.513  12.273 -0.2056 -0.2173  0.0656
   81MPD2    C5 1263   1.150   3.481  12.147 -0.3682 -0.6733 -0.3388
   81MPD2     H 1264   1.229   3.202  12.394 -1.1833 -0.2085 -1.0826
   81MPD2    H1 1265   1.203   3.617  12.301  4.0928 -0.0866 -1.8550
   81MPD2    H2 1266   1.124   3.345  11.997  2.3744 -0.4272 -0.0510
   81MPD2    H3 1267   1.134   3.565  12.080 -0.0817  1.7529  2.6329
   81MPD2     N 1268   1.262   3.447  12.496 -0.1079 -0.1524 -0.1136
   81MPD2    H5 1269   1.239   3.542  12.522  2.7931  1.1331 -2.2862
   81MPD2    N1 1270   1.175   3.114  12.139  0.0053  0.1642  0.2533
   81MPD2    H7 1271   1.200   3.041  12.205  0.5087  0.1597  0.0534
   82TMC2    C1 1272   4.028   2.084  11.252 -0.8162  0.5129 -0.4946
   82TMC2    C2 1273   4.022   2.155  11.362 -0.3815  0.4461 -0.9462
   82TMC2    C3 1274   4.077   2.112  11.476  0.6435 -0.2218  0.0324
   82TMC2    C4 1275   4.068   1.950  11.258 -0.9027 -0.8077 -0.2210
   82TMC2    C5 1276   4.114   1.902  11.383  0.1253 -0.0274 -0.3632
   82TMC2    C6 1277   4.118   1.983  11.493 -0.0590  0.8637 -0.2413
   82TMC2     C 1278   3.994   2.140  11.126  0.1263 -0.3076  0.1734
   82TMC2     O 1279   3.974   2.065  11.035  0.1828  0.6267 -0.0214
   82TMC2     H 1280   3.991   2.259  11.362  1.2767  0.9089  4.0354
   82TMC2    H1 1281   4.062   1.877  11.179 -1.0493  0.7924 -1.6727
   82TMC2    H2 1282   4.150   1.942  11.588  2.7064  0.7335 -1.2579
   82TMC2    C7 1283   4.114   1.769  11.412  0.0459 -0.2057 -0.2656
   82TMC2    C8 1284   4.133   2.224  11.561  0.8768 -0.2957 -0.4025
   82TMC2    O1 1285   4.104   1.736  11.531 -0.1134  0.0914  0.1353
   82TMC2    O2 1286   4.169   2.334  11.525  0.5309  0.4853  0.5563
   82TMC2    O5 1287   4.117   2.187  11.690  0.4575 -0.4067 -0.2705
   82TMC2    H5 1288   4.069   2.101  11.701  0.8617 -0.7611 -1.3413
   83MPD2     C 1289   3.986   2.518  10.788 -0.2694 -0.0405  0.0602
   83MPD2    C1 1290   3.941   2.392  10.775 -0.1979 -1.1039 -0.3909
   83MPD2    C2 1291   3.944   2.306  10.886 -0.2013 -0.2531  0.0510
   83MPD2    C3 1292   4.001   2.355  11.007 -0.0108 -0.3286  0.5566
   83MPD2    C4 1293   4.039   2.487  11.012 -1.2174 -0.0915  0.0515
   83MPD2    C5 1294   4.027   2.570  10.907 -0.5911  0.4258 -0.2228
   83MPD2     H 1295   3.921   2.202  10.869 -0.5684 -0.2142  0.3034
   83MPD2    H1 1296   4.087   2.515  11.105 -0.0432 -2.9069  0.2891
   83MPD2    H2 1297   3.995   2.572  10.694  1.4119 -1.7868 -0.7832
   83MPD2    H3 1298   4.059   2.672  10.927 -0.9539  0.6515 -0.7742
   83MPD2     N 1299   4.028   2.272  11.120 -0.3063  0.2693 -0.8927
   83MPD2    H5 1300   4.073   2.320  11.197  0.1466  1.3604 -1.8320
   83MPD2    N1 1301   3.907   2.352  10.647 -0.3584  0.3378 -0.0737
   83MPD2    H7 1302   3.943   2.403  10.567 -1.2681 -1.5370 -1.6767
   84TMC2    C1 1303   0.787   0.628  11.462  0.1945  0.0185  0.1214
   84TMC2    C2 1304   0.733   0.504  11.492 -0.1537  0.2679  0.0445
   84TMC2    C3 1305   0.792   0.398  11.426  0.1342 -0.0012  0.0235
   84TMC2    C4 1306   0.872   0.653  11.356 -0.9334 -0.9187  0.1670
   84TMC2    C5 1307   0.921   0.543  11.294  0.0066  0.6692  0.2791
   84TMC2    C6 1308   0.884   0.411  11.326 -0.4550 -0.6548 -0.5140
   84TMC2     C 1309   0.749   0.744  11.539  0.7202  0.3789  0.2870
   84TMC2     O 1310   0.791   0.851  11.497 -0.0109 -0.1046  0.4619
   84TMC2     H 1311   0.659   0.487  11.569 -0.9384  1.2031 -0.4876
   84TMC2    H1 1312   0.879   0.756  11.323  1.7994 -1.4114 -0.8359
   84TMC2    H2 1313   0.947   0.329  11.296 -2.5881 -2.0610 -1.1537
   84TMC2    C7 1314   1.023   0.563  11.193 -0.0223  0.5543 -0.4409
   84TMC2    C8 1315   0.726   0.267  11.451  0.3407  0.2212 -0.5183
   84TMC2    O1 1316   1.049   0.464  11.124  0.1919 -0.2412  0.8545
   84TMC2    O2 1317   0.642   0.265  11.539 -0.0222 -0.5167  0.3964
   84TMC2    O5 1318   0.713   0.216  11.329 -0.4860 -0.4169  0.6807
   84TMC2    H5 1319   0.788   0.228  11.268 -1.2363 -0.7780 -0.3235
   85TMC2    C1 1320   2.513   4.366  15.864 -0.2869 -0.0219 -1.0891
   85TMC2    C2 1321   2.391   4.431  15.888 -0.2778 -0.5895 -0.2198
   85TMC2    C3 1322   2.395   4.558  15.904 -0.0050 -0.4077 -0.2945
   85TMC2    C4 1323   2.629   4.438  15.851  0.0595  0.0928 -0.2982
   85TMC2    C5 1324   2.624   4.573  15.867 -0.1489 -0.2418 -0.1291
   85TMC2    C6 1325   2.506   4.638  15.886 -0.6554  0.3486  0.2688
   85TMC2     C 1326   2.529   4.234  15.930  0.6101 -0.4341 -0.6478
   85TMC2     O 1327   2.628   4.235  15.994  0.6089 -0.1159  0.2850
   85TMC2     H 1328   2.294   4.385  15.877 -0.2497 -0.6189 -0.3554
   85TMC2    H1 1329   2.723   4.385  15.838 -0.6376 -1.2036 -0.0654
   85TMC2    H2 1330   2.507   0.004  15.908  1.2728  0.4536 -0.3358
   85TMC2    C7 1331   2.741   4.637  15.807 -0.1791  0.1324  0.2361
   85TMC2    C8 1332   2.276   4.634  15.935 -0.0483  0.1001 -0.0901
   85TMC2    O1 1333   2.847   4.577  15.796  0.0860 -0.2360  0.2653
   85TMC2    O2 1334   2.192   4.669  15.850 -0.2932 -0.8118  0.5192
   85TMC2    O5 1335   2.240   4.573  16.054 -0.3197 -0.8914 -0.3429
   85TMC2    H5 1336   2.316   4.542  16.108  1.6999  1.3814 -1.8767
   86MPD2     C 1337   2.385   3.829  16.211  0.4440 -1.0847  0.3737
   86MPD2    C1 1338   2.271   3.866  16.138  0.3900 -0.6926  0.7684
   86MPD2    C2 1339   2.291   3.964  16.046  0.1030 -0.2733  0.1965
   86MPD2    C3 1340   2.419   4.027  16.022  0.3899 -0.3142  1.0347
   86MPD2    C4 1341   2.527   3.981  16.087 -0.1871  0.0740 -0.6252
   86MPD2    C5 1342   2.504   3.887  16.186  0.0574  0.1646  0.2357
   86MPD2     H 1343   2.205   3.995  15.988  1.5222  0.8970 -1.2598
   86MPD2    H1 1344   2.629   4.018  16.082 -0.8956  2.0208 -0.6594
   86MPD2    H2 1345   2.382   3.762  16.296  0.5613 -0.2543  1.0340
   86MPD2    H3 1346   2.583   3.857  16.255 -2.7823 -0.6496  3.1363
   86MPD2     N 1347   2.418   4.147  15.944  0.4334 -0.2111  0.6097
   86MPD2    H5 1348   2.323   4.172  15.919  0.3424  0.3182  1.4599
   86MPD2    N1 1349   2.152   3.790  16.144  0.1378  0.1335  0.2023
   86MPD2    H7 1350   2.096   3.783  16.060  1.6669 -0.2592 -0.7885
   87TMC2    C1 1351   0.214   3.104   1.408 -0.1032 -0.0225  0.9069
   87TMC2    C2 1352   0.330   3.151   1.458  0.2587  0.3099 -0.1356
   87TMC2    C3 1353   0.320   3.226   1.576 -0.0999  0.4438  0.4315
   87TMC2    C4 1354   0.093   3.119   1.472  0.2653  0.1009 -0.2095
   87TMC2    C5 1355   0.087   3.191   1.584  0.3482 -0.0008 -0.1249
   87TMC2    C6 1356   0.195   3.261   1.634 -0.2485  0.4004  0.2390
   87TMC2     C 1357   0.222   3.030   1.285  0.5468 -0.0627 -0.2201
   87TMC2     O 1358   0.133   2.951   1.259  0.1993  0.0734 -0.6288
   87TMC2     H 1359   0.432   3.134   1.425 -0.1217  0.4037 -1.3400
   87TMC2    H1 1360   0.001   3.073   1.438  0.7200  0.4288 -1.9239
   87TMC2    H2 1361   0.182   3.333   1.714 -2.2273  0.2909  0.0151
   87TMC2    C7 1362   4.695   3.239   1.628  0.6565 -0.5402  0.1021
   87TMC2    C8 1363   0.447   3.277   1.627  0.1858 -0.4519  0.8166
   87TMC2    O1 1364   4.671   3.353   1.661  0.7074  0.3158 -0.2679
   87TMC2    O2 1365   0.551   3.270   1.555 -0.1763  0.2919 -0.2061
   87TMC2    O5 1366   0.426   3.355   1.734  1.0844  0.4396 -0.3923
   87TMC2    H5 1367   0.345   3.328   1.783  0.6854  3.0495  0.3772
   88MPD2     C 1368   4.379   3.040   1.604  0.2399 -0.1653  0.9266
   88MPD2    C1 1369   4.463   3.153   1.589  0.5834 -0.1126  0.0900
   88MPD2    C2 1370   4.408   3.270   1.531 -0.2901  0.0414 -0.7466
   88MPD2    C3 1371   4.277   3.282   1.491 -0.1952  0.5643  0.5029
   88MPD2    C4 1372   4.202   3.168   1.514  0.4138  0.0543 -0.2595
   88MPD2    C5 1373   4.245   3.056   1.582 -0.1797 -0.2098 -0.5429
   88MPD2     H 1374   4.484   3.344   1.509  1.8559 -2.2357 -0.8714
   88MPD2    H1 1375   4.095   3.167   1.496  0.1596  0.9279  1.1742
   88MPD2    H2 1376   4.419   2.960   1.667 -1.9141 -1.6129  0.4524
   88MPD2    H3 1377   4.169   2.984   1.610  1.7132 -1.4233  1.4464
   88MPD2     N 1378   4.214   3.407   1.464  0.6767 -0.1898 -0.8034
   88MPD2    H5 1379   4.114   3.407   1.450  0.6061 -1.5167 -0.2875
   88MPD2    N1 1380   4.601   3.140   1.616 -0.6554 -0.1537  0.4700
   88MPD2    H7 1381   4.636   3.046   1.633 -0.9526 -0.3148  0.1968
   89TMC2    C1 1382   0.342   1.748   1.986  0.4804 -0.6545  0.4221
   89TMC2    C2 1383   0.420   1.825   2.060  0.9368  0.3013  0.3220
   89TMC2    C3 1384   0.540   1.857   2.005 -0.0463  0.2554  0.2785
   89TMC2    C4 1385   0.379   1.692   1.865 -0.6159  0.2099 -0.0531
   89TMC2    C5 1386   0.491   1.750   1.804  0.0893 -0.2307  0.4149
   89TMC2    C6 1387   0.583   1.824   1.876 -0.3824  0.3967  0.3806
   89TMC2     C 1388   0.227   1.693   2.046 -0.6495 -0.1483  0.3628
   89TMC2     O 1389   0.164   1.769   2.120 -0.3296  0.0229 -0.3025
   89TMC2     H 1390   0.377   1.874   2.146 -0.8835 -1.1093  0.2031
   89TMC2    H1 1391   0.308   1.645   1.797  0.4318 -0.2436 -0.8244
   89TMC2    H2 1392   0.684   1.845   1.843 -1.1091  1.6418 -1.0331
   89TMC2    C7 1393   0.520   1.680   1.676  0.1669 -0.2173  0.7890
   89TMC2    C8 1394   0.620   1.952   2.079 -0.5374 -0.7234 -0.4956
   89TMC2    O1 1395   0.480   1.564   1.665  0.3055 -0.3734  0.0548
   89TMC2    O2 1396   0.694   2.031   2.023 -0.1488 -0.0725 -0.0889
   89TMC2    O5 1397   0.620   1.907   2.211  0.0718 -0.3598  0.5127
   89TMC2    H5 1398   0.594   1.813   2.215  0.1602 -0.4122 -0.2583
   90MPD2     C 1399   4.624   1.317   2.101 -0.6353  0.4813 -0.0446
   90MPD2    C1 1400   4.736   1.267   2.046 -0.5577  0.1297  0.6911
   90MPD2    C2 1401   0.104   1.346   2.012  0.0095 -0.3013 -0.6051
   90MPD2    C3 1402   0.101   1.482   2.033 -0.5195  0.1058  0.2673
   90MPD2    C4 1403   4.727   1.534   2.085  0.3303  0.5201 -0.0891
   90MPD2    C5 1404   4.617   1.448   2.119  0.3219  0.2134 -0.0541
   90MPD2     H 1405   0.195   1.295   1.983 -1.0306 -1.7728 -1.3061
   90MPD2    H1 1406   4.710   1.639   2.105  2.2143  0.8635 -0.2331
   90MPD2    H2 1407   4.533   1.263   2.126 -0.6860  0.0860 -1.0856
   90MPD2    H3 1408   4.536   1.494   2.174  1.7350  1.7078  0.7789
   90MPD2     N 1409   0.214   1.558   2.010  0.4002  0.7801  0.0668
   90MPD2    H5 1410   0.290   1.520   1.955 -0.1757  0.9408 -0.8383
   90MPD2    N1 1411   0.013   1.126   2.021 -0.6353 -0.1759 -0.3106
   90MPD2    H7 1412   0.109   1.097   2.010 -1.0582 -1.6109 -0.1870
   91TMC2    C1 1413   2.194   0.153  16.207  1.0974 -0.2895 -0.0979
   91TMC2    C2 1414   2.280   0.114  16.304  0.9615  0.6207  0.2224
   91TMC2    C3 1415   2.241   0.016  16.390  0.2431  0.9573 -0.8411
   91TMC2    C4 1416   2.068   0.104  16.207 -0.3742  0.0132  0.1251
   91TMC2    C5 1417   2.028   0.008  16.298  0.4688 -0.3752 -0.6422
   91TMC2    C6 1418   2.115   4.706  16.399  0.1234  0.2928  0.6016
   91TMC2     C 1419   2.231   0.235  16.094  0.9006 -0.3152 -0.5854
   91TMC2     O 1420   2.141   0.269  16.014  0.0973 -0.2497 -0.1897
   91TMC2     H 1421   2.381   0.151  16.315  0.5729  1.6811  0.1728
   91TMC2    H1 1422   2.001   0.153  16.138 -1.3901 -0.7569  0.5694
   91TMC2    H2 1423   2.089   4.629  16.470 -1.6689 -0.1887 -0.5738
   91TMC2    C7 1424   1.896   4.684  16.299  0.2465 -0.3658  0.2273
   91TMC2    C8 1425   2.345   4.696  16.470  0.6648 -0.1491 -0.3230
   91TMC2    O1 1426   1.846   4.666  16.409 -0.7294  0.0344  0.1287
   91TMC2    O2 1427   2.463   4.684  16.434 -0.2756  0.3419 -0.6437
   91TMC2    O5 1428   2.287   4.690  16.595 -0.1973 -0.3483  0.0053
   91TMC2    H5 1429   2.192   4.708  16.610 -0.4325 -2.0109  0.4785
   92MPD2     C 1430   2.333   0.488  16.006  0.0325 -0.4139  0.6437
   92MPD2    C1 1431   2.414   0.380  16.029 -1.1897  0.5971  0.1235
   92MPD2    C2 1432   2.548   0.392  16.002  0.6097  0.0265  0.4537
   92MPD2    C3 1433   2.611   0.505  15.946 -0.1343  0.5669  0.3002
   92MPD2    C4 1434   2.521   0.607  15.916 -0.0565 -0.1504  0.9791
   92MPD2    C5 1435   2.383   0.597  15.942  0.9383  0.4956 -0.6006
   92MPD2     H 1436   2.615   0.310  16.024  1.6877  0.5775 -0.7528
   92MPD2    H1 1437   2.553   0.699  15.870 -1.3338  0.3083  1.0004
   92MPD2    H2 1438   2.228   0.489  16.032  0.4956  1.1904  2.4618
   92MPD2    H3 1439   2.317   0.683  15.931 -0.4007 -0.2155  1.9695
   92MPD2     N 1440   2.753   0.520  15.958  0.2067 -0.7634  0.3934
   92MPD2    H5 1441   2.813   0.454  16.007  0.4607 -1.8662 -1.4065
   92MPD2    N1 1442   2.362   0.264  16.095  0.6791 -0.3124 -0.0773
   92MPD2    H7 1443   2.435   0.203  16.131  0.2744 -0.6830  0.1163
   93TMC2    C1 1444   4.294   0.249  14.224 -0.3748  0.0309  0.7982
   93TMC2    C2 1445   4.217   0.344  14.288  0.4254  0.4558 -0.5161
   93TMC2    C3 1446   4.284   0.440  14.357 -0.7001 -0.0171  0.0191
   93TMC2    C4 1447   4.429   0.252  14.229  1.6700 -1.0354  0.1723
   93TMC2    C5 1448   4.488   0.353  14.294  0.1475  0.6713  0.8529
   93TMC2    C6 1449   4.419   0.452  14.359  0.9549  0.2462 -0.3429
   93TMC2     C 1450   4.232   0.179  14.116  0.4656 -0.0979 -0.0580
   93TMC2     O 1451   4.306   0.155  14.021 -0.4599 -0.6646  0.3913
   93TMC2     H 1452   4.109   0.334  14.291  0.5421  0.2058  2.9437
   93TMC2    H1 1453   4.488   0.172  14.186  0.5074 -1.9692  0.2966
   93TMC2    H2 1454   4.464   0.540  14.402 -1.5051  1.4233 -0.2045
   93TMC2    C7 1455   4.594   0.406  14.212 -0.8723  0.0145  0.2991
   93TMC2    C8 1456   4.212   0.551  14.419 -0.6734  0.3714  0.3376
   93TMC2    O1 1457   4.627   0.349  14.112  0.3835 -0.2503 -0.6712
   93TMC2    O2 1458   4.270   0.619  14.502  0.1530 -0.4632 -0.1541
   93TMC2    O5 1459   4.129   0.606  14.323 -0.3196 -0.2999 -0.4297
   93TMC2    H5 1460   4.115   0.564  14.235  1.8426  1.9786 -1.8757
   94MPD2     C 1461   4.058   0.049  13.921 -0.3864 -0.4581  0.2581
   94MPD2    C1 1462   4.023   0.065  14.047 -0.2613  0.2172  0.7125
   94MPD2    C2 1463   3.901   0.008  14.094 -0.1318  0.1707  0.1492
   94MPD2    C3 1464   3.813   4.689  14.006  0.1031  0.1951 -0.0176
   94MPD2    C4 1465   3.846   4.674  13.873  0.2243  0.1870  0.3938
   94MPD2    C5 1466   3.966   4.726  13.834 -0.2423  0.4872  0.1979
   94MPD2     H 1467   3.872   0.043  14.192 -2.4288 -0.7449 -0.2012
   94MPD2    H1 1468   3.771   4.638  13.804 -1.5807  1.8109  1.5360
   94MPD2    H2 1469   4.149   0.085  13.875 -0.7630  0.9194  0.5907
   94MPD2    H3 1470   3.997   4.727  13.730  1.0423 -2.6557  0.5364
   94MPD2     N 1471   3.682   4.647  14.040  0.1254  0.1201 -0.3359
   94MPD2    H5 1472   3.616   4.633  13.964  0.4251  0.6476 -0.6935
   94MPD2    N1 1473   4.103   0.134  14.141  0.1498  0.5338 -0.6868
   94MPD2    H7 1474   4.058   0.144  14.231 -0.6910 -1.2403 -0.9148
   95TMC2    C1 1475   3.735   2.340  15.803  0.0965 -0.2545 -0.1775
   95TMC2    C2 1476   3.616   2.275  15.775 -0.0534  0.0817  0.2994
   95TMC2    C3 1477   3.503   2.344  15.808  0.7218  0.0014  0.0363
   95TMC2    C4 1478   3.743   2.464  15.862 -0.0854  0.0249 -0.4718
   95TMC2    C5 1479   3.626   2.530  15.882  0.5419  0.0938  0.6563
   95TMC2    C6 1480   3.501   2.470  15.866  0.3882  0.1644  0.2959
   95TMC2     C 1481   3.859   2.299  15.737 -0.1356  0.5062  0.7306
   95TMC2     O 1482   3.961   2.346  15.771  0.4282  0.0627 -0.7162
   95TMC2     H 1483   3.610   2.174  15.738 -0.0476  1.1332 -2.5135
   95TMC2    H1 1484   3.840   2.508  15.878  0.5099 -0.6839 -2.1028
   95TMC2    H2 1485   3.418   2.531  15.897  0.7178 -0.1448  1.7917
   95TMC2    C7 1486   3.629   2.665  15.907 -0.2271  0.3424 -0.0517
   95TMC2    C8 1487   3.388   2.259  15.812 -0.0798 -0.3070 -0.7911
   95TMC2    O1 1488   3.534   2.736  15.874  0.1496 -0.0259 -0.2557
   95TMC2    O2 1489   3.407   2.138  15.823 -0.2082  0.0032 -0.9821
   95TMC2    O5 1490   3.282   2.337  15.847  0.1941  0.3371  0.4525
   95TMC2    H5 1491   3.293   2.432  15.826 -0.8581  0.3091 -0.1800
   96MPD2     C 1492   4.082   2.031  15.352  0.4001  0.2150 -0.7978
   96MPD2    C1 1493   4.137   2.118  15.448  0.0763 -0.1687 -0.1672
   96MPD2    C2 1494   4.057   2.166  15.546 -0.3641  0.3373  0.3169
   96MPD2    C3 1495   3.922   2.149  15.544  0.6042  0.9491  0.1032
   96MPD2    C4 1496   3.870   2.066  15.450  0.4999 -0.4097 -0.1387
   96MPD2    C5 1497   3.948   2.009  15.357  0.1345  0.3068  0.1121
   96MPD2     H 1498   4.096   2.233  15.622  1.9256  0.2447 -0.7874
   96MPD2    H1 1499   3.763   2.051  15.444  0.4732 -0.0054 -0.6520
   96MPD2    H2 1500   4.133   1.996  15.264 -0.1128  2.0507 -1.8243
   96MPD2    H3 1501   3.913   1.945  15.277 -0.7124  1.4468 -0.4299
   96MPD2     N 1502   3.833   2.212  15.637  0.3338 -0.6027  0.6951
   96MPD2    H5 1503   3.734   2.206  15.613  0.5197  1.0272 -0.4820
   96MPD2    N1 1504   4.273   2.145  15.438 -0.0299  0.3388  0.1672
   96MPD2    H7 1505   4.316   2.111  15.352  1.0770  1.8335  0.1271
   97TMC2    C1 1506   1.613   0.582   0.245  0.2372 -0.5216 -0.1624
   97TMC2    C2 1507   1.495   0.587   0.171 -0.0909  0.2041 -0.3436
   97TMC2    C3 1508   1.476   0.701   0.091 -0.7146 -0.1863 -0.0180
   97TMC2    C4 1509   1.702   0.686   0.248  0.3231 -0.0853 -0.7233
   97TMC2    C5 1510   1.666   0.801   0.183  0.3746 -0.5549 -0.5579
   97TMC2    C6 1511   1.556   0.807   0.101  0.6502 -0.0611  0.0204
   97TMC2     C 1512   1.646   0.461   0.319  0.0103  0.1993  0.2424
   97TMC2     O 1513   1.557   0.390   0.352 -0.0205  0.5405 -0.1380
   97TMC2     H 1514   1.414   0.519   0.193  0.9720 -0.9888 -0.1254
   97TMC2    H1 1515   1.783   0.688   0.321  1.3496  2.1076 -1.9113
   97TMC2    H2 1516   1.548   0.896   0.039  0.0191  0.7115  1.2078
   97TMC2    C7 1517   1.732   0.924   0.231 -0.1811  0.0108 -0.4259
   97TMC2    C8 1518   1.378   0.709  17.742 -0.4665 -0.7562 -0.2093
   97TMC2    O1 1519   1.845   0.913   0.281 -0.0308 -0.0626  0.3171
   97TMC2    O2 1520   1.340   0.814  17.691  0.3910  0.0720  0.2314
   97TMC2    O5 1521   1.316   0.589  17.731 -0.2951  0.3642 -0.2636
   97TMC2    H5 1522   1.358   0.502  17.750 -0.5859  0.3675  0.3700
   98MPD2     C 1523   1.972   0.115   0.504  0.5819  0.5492 -0.1287
   98MPD2    C1 1524   1.841   0.129   0.515  0.0807  0.1048 -0.7985
   98MPD2    C2 1525   1.770   0.235   0.459 -0.2237 -0.9778  0.1374
   98MPD2    C3 1526   1.838   0.334   0.395 -0.3113  0.3756 -0.7570
   98MPD2    C4 1527   1.978   0.331   0.396  0.6356  0.1764 -0.3761
   98MPD2    C5 1528   2.043   0.214   0.435  0.0980 -0.6927 -0.3212
   98MPD2     H 1529   1.663   0.224   0.467 -0.4052  0.6249 -0.0381
   98MPD2    H1 1530   2.042   0.405   0.350 -0.5116  2.2536  1.3867
   98MPD2    H2 1531   2.019   0.031   0.554 -1.4292 -0.2091  0.4806
   98MPD2    H3 1532   2.151   0.215   0.439  0.1601 -0.5882 -2.0087
   98MPD2     N 1533   1.781   0.447   0.332 -0.1812  0.3344 -0.2628
   98MPD2    H5 1534   1.845   0.510   0.285 -0.8951  0.5298 -0.9700
   98MPD2    N1 1535   1.770   0.031   0.587 -0.3097  0.1529 -0.3248
   98MPD2    H7 1536   1.828   4.689   0.601  0.7623  1.3091  1.9578
   99TMC2    C1 1537   0.713   2.561   1.766 -0.5013 -0.0326 -0.2585
   99TMC2    C2 1538   0.774   2.662   1.841 -0.8588  0.4095 -0.2360
   99TMC2    C3 1539   0.694   2.723   1.941 -0.5274  0.3948  0.4602
   99TMC2    C4 1540   0.577   2.531   1.780 -0.0820 -0.9258 -0.6530
   99TMC2    C5 1541   0.500   2.591   1.871  0.1641 -0.4869  0.5108
   99TMC2    C6 1542   0.560   2.684   1.956 -0.3837  0.0518  0.3494
   99TMC2     C 1543   0.793   2.519   1.654  0.2641  0.0574 -0.2609
   99TMC2     O 1544   0.888   2.583   1.615  0.0111  0.2059  0.4109
   99TMC2     H 1545   0.873   2.694   1.810 -0.5876 -2.3513 -2.2793
   99TMC2    H1 1546   0.532   2.455   1.717  1.2164 -1.4782 -0.8982
   99TMC2    H2 1547   0.509   2.727   2.042  0.0487  0.7102  0.2769
   99TMC2    C7 1548   0.354   2.574   1.874  0.3502  0.0547 -0.7144
   99TMC2    C8 1549   0.730   2.856   1.989 -0.3538 -0.2237  0.3681
   99TMC2    O1 1550   0.289   2.603   1.974 -0.1855 -0.8705 -0.8528
   99TMC2    O2 1551   0.642   2.941   1.985 -0.0912  0.3486  0.2554
   99TMC2    O5 1552   0.853   2.878   1.935 -0.5104  0.0586  0.0237
   99TMC2    H5 1553   0.920   2.813   1.964 -3.0551 -2.3003  0.5382
  100MPD2     C 1554   0.867   2.441   1.375 -0.1010 -0.8196  0.1105
  100MPD2    C1 1555   0.764   2.379   1.449 -0.2233 -0.4316 -0.7658
  100MPD2    C2 1556   0.683   2.282   1.393 -0.6333 -1.1321  0.1065
  100MPD2    C3 1557   0.707   2.249   1.260 -0.0738  0.2827 -0.3666
  100MPD2    C4 1558   0.799   2.315   1.184 -0.7811 -0.2135  0.4666
  100MPD2    C5 1559   0.876   2.405   1.243  0.4157 -0.0850 -0.2395
  100MPD2     H 1560   0.602   2.241   1.453  0.1617  0.3894  2.2300
  100MPD2    H1 1561   0.820   2.283   1.082  0.3026 -1.0615  0.9580
  100MPD2    H2 1562   0.937   2.518   1.406 -0.5360 -0.8916  1.2703
  100MPD2    H3 1563   0.954   2.447   1.181 -0.4806  0.6757 -0.8579
  100MPD2     N 1564   0.615   2.157   1.200 -0.3627 -0.6161 -0.1571
  100MPD2    H5 1565   0.551   2.107   1.261 -0.3491 -2.3326 -1.5634
  100MPD2    N1 1566   0.728   2.424   1.580 -0.7297  0.1391 -0.2975
  100MPD2    H7 1567   0.650   2.374   1.621 -0.1456  0.1214  0.7881
  101TMC2    C1 1568   0.644   3.397  13.085 -0.2850 -0.3216 -0.4108
  101TMC2    C2 1569   0.542   3.472  13.032 -0.5010  0.5959 -0.4724
  101TMC2    C3 1570   0.567   3.599  12.988 -0.1757 -0.1917 -0.0400
  101TMC2    C4 1571   0.768   3.458  13.096  0.9235 -0.4892  0.4736
  101TMC2    C5 1572   0.793   3.582  13.062 -0.4874  0.4436  0.7684
  101TMC2    C6 1573   0.689   3.657  13.008 -0.2882  0.0314  0.0180
  101TMC2     C 1574   0.618   3.280  13.166  0.6614  1.1968  0.0895
  101TMC2     O 1575   0.505   3.272  13.214  0.0230  0.6087 -0.3390
  101TMC2     H 1576   0.441   3.431  13.029 -1.3955  2.8527 -0.8140
  101TMC2    H1 1577   0.854   3.405  13.134  0.3097 -1.9719 -0.1964
  101TMC2    H2 1578   0.709   3.759  12.977  4.5184 -0.5694  1.0660
  101TMC2    C7 1579   0.932   3.627  13.036 -0.6734 -0.0005 -0.9666
  101TMC2    C8 1580   0.445   3.680  12.983 -0.5611 -0.4818 -0.3274
  101TMC2    O1 1581   0.943   3.697  12.937 -0.3498 -0.4616  0.1489
  101TMC2    O2 1582   0.357   3.634  12.919  0.3726  0.3945 -0.0608
  101TMC2    O5 1583   0.439   3.716  13.111 -0.2501  0.5779  0.2128
  101TMC2    H5 1584   0.529   3.718  13.151 -0.2279 -2.2668  0.3330
  102MPD2     C 1585   0.834   2.978  13.209 -0.1719 -0.5065 -0.1867
  102MPD2    C1 1586   0.722   3.056  13.213  0.2752 -0.0541 -0.2852
  102MPD2    C2 1587   0.614   3.007  13.281 -0.2058 -0.5625  0.2548
  102MPD2    C3 1588   0.615   2.887  13.355 -0.5565 -0.2459 -0.5983
  102MPD2    C4 1589   0.726   2.811  13.344  0.1613  0.5617 -0.3884
  102MPD2    C5 1590   0.830   2.857  13.276  0.3951 -0.4845  0.4241
  102MPD2     H 1591   0.519   3.057  13.295  1.3186  2.6964 -0.7512
  102MPD2    H1 1592   0.727   2.712  13.388 -0.8501  1.3101  1.3266
  102MPD2    H2 1593   0.928   3.014  13.168 -1.7124  2.3987 -1.2417
  102MPD2    H3 1594   0.920   2.796  13.273  1.2574  0.7778  0.3151
  102MPD2     N 1595   0.504   2.847  13.431  0.0457  0.2310 -0.2875
  102MPD2    H5 1596   0.422   2.905  13.417  0.3532  1.1440  1.7514
  102MPD2    N1 1597   0.719   3.185  13.154  0.2650 -0.0408 -0.1800
  102MPD2    H7 1598   0.797   3.219  13.099  0.1252 -0.7211 -0.7988
  103TMC2    C1 1599   3.556   2.621  12.436 -0.7371 -0.4856 -0.1517
  103TMC2    C2 1600   3.544   2.493  12.492  0.0711  0.5051 -0.7130
  103TMC2    C3 1601   3.564   2.474  12.622 -0.4301 -0.2837  0.1209
  103TMC2    C4 1602   3.608   2.733  12.510  0.0412 -0.4820 -0.2793
  103TMC2    C5 1603   3.631   2.703  12.641 -0.1365  0.0733  0.4889
  103TMC2    C6 1604   3.619   2.577  12.693  0.3250 -0.1268 -0.0706
  103TMC2     C 1605   3.478   2.651  12.321 -0.1359 -0.4589 -0.0816
  103TMC2     O 1606   3.492   2.761  12.278 -0.1864  0.2318  0.3384
  103TMC2     H 1607   3.511   2.408  12.433  2.6218 -0.9322 -0.0990
  103TMC2    H1 1608   3.610   2.836  12.476 -1.4137 -0.2464  0.3756
  103TMC2    H2 1609   3.625   2.567  12.801 -0.7276 -1.0683 -0.1010
  103TMC2    C7 1610   3.671   2.805  12.741 -0.8266 -0.1997 -0.1269
  103TMC2    C8 1611   3.571   2.344  12.679 -1.0262  0.2506 -0.0819
  103TMC2    O1 1612   3.653   2.771  12.856 -0.2356 -0.2625  0.2796
  103TMC2    O2 1613   3.620   2.248  12.625  0.2473 -0.7827  0.0832
  103TMC2    O5 1614   3.458   2.333  12.750  0.1769 -0.0752 -0.1882
  103TMC2    H5 1615   3.411   2.418  12.765  1.5437  0.5335  0.5645
  104MPD2     C 1616   3.413   2.401  12.063  0.3269 -0.0931  0.1739
  104MPD2    C1 1617   3.391   2.524  12.127  0.1971  0.5123  0.2027
  104MPD2    C2 1618   3.340   2.628  12.052 -0.1384 -0.5532  0.4582
  104MPD2    C3 1619   3.306   2.611  11.920 -0.6563  0.0956 -0.1323
  104MPD2    C4 1620   3.348   2.494  11.854  0.5414  0.5185  0.0264
  104MPD2    C5 1621   3.397   2.387  11.923 -0.0173 -0.1480 -0.4061
  104MPD2     H 1622   3.325   2.725  12.100  0.5901  0.6998 -1.8492
  104MPD2    H1 1623   3.326   2.478  11.749 -1.4842  0.5473  0.4568
  104MPD2    H2 1624   3.441   2.323  12.132 -1.4895  0.9115  2.0719
  104MPD2    H3 1625   3.408   2.289  11.878  2.6159  0.1283 -0.3575
  104MPD2     N 1626   3.222   2.713  11.868 -0.2489 -0.1261 -0.0515
  104MPD2    H5 1627   3.204   2.802  11.913 -1.0907 -1.2397  1.8184
  104MPD2    N1 1628   3.433   2.538  12.264 -0.3060 -0.1508 -0.3567
  104MPD2    H7 1629   3.432   2.453  12.319  2.4058 -0.0514 -0.1773
  105TMC2    C1 1630   0.233   2.267   0.682  0.3337 -0.3503  0.8180
  105TMC2    C2 1631   0.186   2.201   0.798 -0.1312  0.6533 -0.3618
  105TMC2    C3 1632   0.191   2.271   0.919 -0.5588 -0.4227  0.0020
  105TMC2    C4 1633   0.284   2.392   0.671  0.2798  0.8995 -0.3388
  105TMC2    C5 1634   0.265   2.458   0.792  0.1242  0.5835  0.1107
  105TMC2    C6 1635   0.227   2.398   0.913  0.4027  0.6289 -0.2229
  105TMC2     C 1636   0.233   2.174   0.569 -0.2574 -0.1875  0.1171
  105TMC2     O 1637   0.162   2.073   0.568 -0.0642  0.3098 -0.0311
  105TMC2     H 1638   0.173   2.094   0.794 -1.6568  0.9329 -2.7949
  105TMC2    H1 1639   0.322   2.442   0.583  1.8888 -0.2774 -0.3159
  105TMC2    H2 1640   0.220   2.461   1.001 -0.3874  2.0492 -1.3054
  105TMC2    C7 1641   0.312   2.601   0.789 -1.0224  0.1145  0.3023
  105TMC2    C8 1642   0.153   2.215   1.049  0.0732  0.3251  0.3023
  105TMC2    O1 1643   0.347   2.652   0.686 -0.2408  0.1588 -0.2809
  105TMC2    O2 1644   0.084   2.114   1.057  0.4162  0.0115  0.5091
  105TMC2    O5 1645   0.269   2.225   1.115 -0.0908  0.3107 -0.2222
  105TMC2    H5 1646   0.329   2.299   1.090  0.2210 -0.0614 -0.5641
  106MPD2     C 1647   0.420   2.013   0.110  0.3924  0.3526 -0.1560
  106MPD2    C1 1648   0.456   2.151   0.126  0.3086  0.0460 -0.5616
  106MPD2    C2 1649   0.416   2.211   0.246 -0.3918 -0.2033 -0.3600
  106MPD2    C3 1650   0.348   2.144   0.345  0.2494 -0.1423  0.5294
  106MPD2    C4 1651   0.321   2.010   0.326 -0.9810  0.3019  0.3684
  106MPD2    C5 1652   0.376   1.945   0.217 -0.5286 -0.3739 -0.6806
  106MPD2     H 1653   0.445   2.314   0.266  3.1274 -0.9272 -1.7510
  106MPD2    H1 1654   0.268   1.949   0.398 -2.3253 -0.4156 -1.2175
  106MPD2    H2 1655   0.460   1.952   0.031  0.1164 -0.6060  0.4493
  106MPD2    H3 1656   0.350   1.840   0.206 -0.7338 -0.3565 -0.3720
  106MPD2     N 1657   0.300   2.221   0.458 -0.6240  0.0474  0.3426
  106MPD2    H5 1658   0.337   2.315   0.458 -1.3120  0.3225 -1.6151
  106MPD2    N1 1659   0.516   2.235   0.032 -0.8374  0.2716 -0.1698
  106MPD2    H7 1660   0.528   2.333   0.057  0.5209 -0.2508  1.1577
  107TMC2    C1 1661   0.486   1.640  11.854 -0.2327  0.1629  0.0377
  107TMC2    C2 1662   0.542   1.671  11.735 -0.5728 -0.5905 -0.5006
  107TMC2    C3 1663   0.589   1.568  11.663  0.5359 -0.2048 -1.1427
  107TMC2    C4 1664   0.473   1.510  11.887  0.2767  0.0397  0.4997
  107TMC2    C5 1665   0.531   1.411  11.820  0.2278  0.5653  0.0250
  107TMC2    C6 1666   0.591   1.433  11.699 -0.1685 -0.6202  0.0836
  107TMC2     C 1667   0.389   1.730  11.912  0.4849 -0.2374 -0.0763
  107TMC2     O 1668   0.352   1.712  12.026 -0.7802  0.1307 -0.1478
  107TMC2     H 1669   0.526   1.771  11.697 -0.9892  0.1719  1.6440
  107TMC2    H1 1670   0.433   1.490  11.986 -0.7482  1.0530  0.2934
  107TMC2    H2 1671   0.643   1.360  11.638 -2.4360  0.2813 -2.9655
  107TMC2    C7 1672   0.532   1.276  11.883  0.0737  0.0129  0.0674
  107TMC2    C8 1673   0.608   1.591  11.521 -0.6820 -0.6315  0.1992
  107TMC2    O1 1674   0.496   1.268  11.997 -1.2966 -0.2957  0.0370
  107TMC2    O2 1675   0.626   1.701  11.469 -0.1911  0.2762 -0.4092
  107TMC2    O5 1676   0.578   1.478  11.450  0.5426 -0.2698  0.2265
  107TMC2    H5 1677   0.542   1.405  11.505 -0.4558 -0.3726 -0.5720
  108MPD2     C 1678   0.126   1.912  11.727 -0.6532  0.3657 -0.0689
  108MPD2    C1 1679   0.184   1.860  11.840  0.6908 -0.9492 -0.5933
  108MPD2    C2 1680   0.124   1.872  11.962 -0.7755 -0.1257  0.1652
  108MPD2    C3 1681   0.001   1.942  11.966  0.8786  0.0463 -0.1859
  108MPD2    C4 1682   4.684   2.008  11.854  0.1325  0.1171  0.4721
  108MPD2    C5 1683   0.009   1.981  11.735  0.0918 -0.2712  0.0759
  108MPD2     H 1684   0.168   1.827  12.051  2.0080 -0.0119 -1.1440
  108MPD2    H1 1685   4.593   2.064  11.867 -0.7270 -1.3833  0.9236
  108MPD2    H2 1686   0.173   1.909  11.630  0.5539 -0.4686  0.5393
  108MPD2    H3 1687   4.709   2.006  11.637 -2.2567 -2.3807  0.4850
  108MPD2     N 1688   4.673   1.969  12.086 -0.0312  0.8673  0.0231
  108MPD2    H5 1689   4.580   2.006  12.067 -0.2463  0.5222  0.4108
  108MPD2    N1 1690   0.311   1.799  11.821 -0.4902  0.7712  0.0422
  108MPD2    H7 1691   0.350   1.808  11.728  0.0182  0.7000  0.2443
  109TMC2    C1 1692   0.954   4.084  17.687 -0.4789  0.6272  0.6892
  109TMC2    C2 1693   1.009   4.019  17.581 -0.8353  0.6347  0.6606
  109TMC2    C3 1694   1.144   4.011  17.587  0.4766 -0.7691 -0.2366
  109TMC2    C4 1695   1.027   4.127   0.040 -0.0811  0.6971  0.7615
  109TMC2    C5 1696   1.162   4.104   0.038  0.8147 -0.9020  0.5861
  109TMC2    C6 1697   1.222   4.051  17.687  0.1338  0.0141 -0.4604
  109TMC2     C 1698   0.815   4.048  17.714  0.4161  0.0638  0.2105
  109TMC2     O 1699   0.759   3.975  17.634 -0.1566  0.1490 -0.0778
  109TMC2     H 1700   0.949   3.976  17.502  1.1037  0.5253 -0.7642
  109TMC2    H1 1701   0.993   4.185   0.125 -0.5374  3.3376 -1.2119
  109TMC2    H2 1702   1.329   4.061  17.677  0.4368 -0.8260  1.9739
  109TMC2    C7 1703   1.225   4.128   0.169  0.2520  0.1623  0.8434
  109TMC2    C8 1704   1.198   3.934  17.476  0.2944  0.0181 -0.0257
  109TMC2    O1 1705   1.179   4.218   0.238 -0.2282 -0.3262 -0.4181
  109TMC2    O2 1706   1.143   3.938  17.368  0.3621 -0.2955 -0.3381
  109TMC2    O5 1707   1.301   3.862  17.518 -0.1817  1.1400  0.4964
  109TMC2    H5 1708   1.342   3.883  17.605  3.3817  0.0548 -0.9158
  110MPD2     C 1709   0.370   4.134   0.216 -0.3814  0.1235 -0.3837
  110MPD2    C1 1710   0.461   4.229   0.254 -0.1358 -0.3590 -0.4033
  110MPD2    C2 1711   0.592   4.212   0.210  0.1250 -0.3702 -0.1661
  110MPD2    C3 1712   0.628   4.121   0.113 -0.5031 -0.1283  0.0270
  110MPD2    C4 1713   0.537   4.030   0.073  0.2053  0.3702 -0.0229
  110MPD2    C5 1714   0.409   4.038   0.126  0.0590 -0.2437 -0.9114
  110MPD2     H 1715   0.666   4.290   0.226 -1.2528  0.6127  1.2915
  110MPD2    H1 1716   0.558   3.954  17.754 -1.0054  0.2842 -0.2812
  110MPD2    H2 1717   0.269   4.138   0.256  0.2052  1.5321  0.9549
  110MPD2    H3 1718   0.336   3.965   0.094  0.1450  0.3136 -2.3980
  110MPD2     N 1719   0.757   4.122   0.062 -0.3851  0.5318  0.0731
  110MPD2    H5 1720   0.816   4.198   0.094  1.1465 -1.7721  2.7475
  110MPD2    N1 1721   0.420   4.334   0.347 -0.0044  0.1902 -0.0776
  110MPD2    H7 1722   0.333   4.307   0.392  0.4337 -1.3069 -0.1371
  111TMC2    C1 1723   0.511   3.779  12.231 -0.5013  0.9457 -0.2130
  111TMC2    C2 1724   0.464   3.726  12.346  0.2645 -0.3876  0.2581
  111TMC2    C3 1725   0.552   3.674  12.431  0.5791  0.6400 -0.3401
  111TMC2    C4 1726   0.644   3.778  12.194 -1.0571  0.2458 -0.0974
  111TMC2    C5 1727   0.726   3.732  12.286  0.8674  0.1537  0.0177
  111TMC2    C6 1728   0.686   3.681  12.403  0.3003 -0.1060 -0.2940
  111TMC2     C 1729   0.431   3.855  12.140 -0.0009 -0.3106  0.3260
  111TMC2     O 1730   0.478   3.875  12.027  0.3201  0.0807 -0.5549
  111TMC2     H 1731   0.357   3.715  12.357  0.3912 -0.0772  1.8697
  111TMC2    H1 1732   0.672   3.834  12.105  0.0051 -0.3334 -0.1290
  111TMC2    H2 1733   0.762   3.651  12.475 -1.3842 -4.6709 -0.4604
  111TMC2    C7 1734   0.861   3.784  12.276 -0.1415  0.4872 -0.3012
  111TMC2    C8 1735   0.502   3.582  12.542 -0.0695 -0.1678 -0.5518
  111TMC2    O1 1736   0.927   3.808  12.373  0.5889  0.0093  0.3703
  111TMC2    O2 1737   0.384   3.548  12.549 -0.4395 -0.4126  0.5071
  111TMC2    O5 1738   0.583   3.583  12.649  0.1157 -0.0461 -0.0973
  111TMC2    H5 1739   0.674   3.611  12.625  0.2841  1.4137  2.2432
  112MPD2     C 1740   4.713   3.994  11.973  0.2487 -0.1544 -0.0742
  112MPD2    C1 1741   0.070   3.920  11.910 -0.0011 -0.1357 -0.3596
  112MPD2    C2 1742   0.183   3.902  11.985 -0.0121 -0.4000  0.7543
  112MPD2    C3 1743   0.204   3.945  12.115  0.4394  0.0859 -0.7901
  112MPD2    C4 1744   0.098   4.009  12.176  1.4674  0.1457  0.0675
  112MPD2    C5 1745   4.728   4.044  12.100 -0.3102 -0.8669  0.0835
  112MPD2     H 1746   0.255   3.833  11.942  0.6141 -0.1126  1.3412
  112MPD2    H1 1747   0.111   4.033  12.281  0.9393  0.6208  0.0196
  112MPD2    H2 1748   4.622   4.020  11.920 -0.8955 -0.4612  1.7365
  112MPD2    H3 1749   4.646   4.096  12.150  0.7300  0.7884  0.0635
  112MPD2     N 1750   0.314   3.901  12.190  1.0811 -0.0840 -0.0662
  112MPD2    H5 1751   0.299   3.897  12.290  2.1784  2.1373  0.1815
  112MPD2    N1 1752   0.069   3.867  11.783  0.0166 -0.0088  0.1374
  112MPD2    H7 1753   0.149   3.810  11.757  0.4933  0.3341  0.8447
  113TMC2    C1 1754   3.983   2.434   0.680  0.6368 -0.0744  0.2745
  113TMC2    C2 1755   3.874   2.523   0.682 -0.0220  0.1897  0.2800
  113TMC2    C3 1756   3.767   2.496   0.602  0.4301  0.2751 -0.3305
  113TMC2    C4 1757   3.981   2.318   0.601  0.2483  0.4213  0.1517
  113TMC2    C5 1758   3.871   2.288   0.524 -0.1992 -0.0629  0.1050
  113TMC2    C6 1759   3.766   2.376   0.526 -0.1621 -0.4520 -0.2861
  113TMC2     C 1760   4.085   2.456   0.780  0.2943  0.6917  0.5831
  113TMC2     O 1761   4.063   2.533   0.871 -0.3595 -0.0221  0.6255
  113TMC2     H 1762   3.872   2.616   0.738 -0.3254 -0.1859  0.8948
  113TMC2    H1 1763   4.055   2.240   0.604 -0.5997 -0.4065 -0.5854
  113TMC2    H2 1764   3.679   2.343   0.470 -0.3804 -0.2153 -0.0827
  113TMC2    C7 1765   3.843   2.160   0.461 -0.0797  0.3692  0.2508
  113TMC2    C8 1766   3.650   2.571   0.630 -0.3927 -0.0894  0.3614
  113TMC2    O1 1767   3.768   2.154   0.360 -0.2213 -0.1862  0.3013
  113TMC2    O2 1768   3.628   2.642   0.728  0.0121  0.3765  0.5183
  113TMC2    O5 1769   3.565   2.554   0.520  0.2420 -0.0162  0.1416
  113TMC2    H5 1770   3.616   2.529   0.440 -1.4913 -4.9417  0.5501
  114MPD2     C 1771   4.517   2.301   1.008 -0.1492  0.7191 -0.0122
  114MPD2    C1 1772   4.429   2.402   1.045 -0.3563  0.0512 -0.3493
  114MPD2    C2 1773   4.324   2.428   0.965 -0.3583 -0.0372 -0.6152
  114MPD2    C3 1774   4.313   2.371   0.839 -0.1440 -0.1452  0.3554
  114MPD2    C4 1775   4.396   2.266   0.811 -0.1855 -0.4560 -0.9463
  114MPD2    C5 1776   4.485   2.220   0.902 -0.3130  0.5585 -0.0912
  114MPD2     H 1777   4.244   2.493   0.997  0.8190 -0.2729  2.9322
  114MPD2    H1 1778   4.393   2.203   0.722 -2.7817  0.6348 -1.6236
  114MPD2    H2 1779   4.615   2.287   1.053 -0.6400 -0.2042  0.7769
  114MPD2    H3 1780   4.541   2.130   0.880  1.9684  1.2967  2.7869
  114MPD2     N 1781   4.202   2.384   0.750 -0.5660  0.0231  0.0708
  114MPD2    H5 1782   4.217   2.338   0.661  2.5961  1.8310 -0.3323
  114MPD2    N1 1783   4.447   2.475   1.163 -0.4305 -0.3955  0.8079
  114MPD2    H7 1784   4.376   2.546   1.175  0.7045  1.0299 -0.9777
  115TMC2    C1 1785   0.172   4.471   0.029  0.2283  0.1344  0.6990
  115TMC2    C2 1786   0.295   4.414   0.011  0.5147 -0.4906 -0.5029
  115TMC2    C3 1787   0.381   4.488  17.690  0.4303 -0.9953 -0.0404
  115TMC2    C4 1788   0.145   4.601  17.737 -0.4094 -0.3302  0.2974
  115TMC2    C5 1789   0.244   4.668  17.679 -0.4812 -0.0193 -0.6863
  115TMC2    C6 1790   0.363   4.614  17.640 -0.2295  0.5709 -0.2332
  115TMC2     C 1791   0.069   4.370   0.024 -0.2821 -0.4082  0.1949
  115TMC2     O 1792   0.101   4.251   0.018  0.0770 -0.8954  0.2674
  115TMC2     H 1793   0.320   4.311   0.033  0.0475 -0.5945 -0.4661
  115TMC2    H1 1794   0.052   4.653  17.754 -1.6077 -0.9900 -4.4482
  115TMC2    H2 1795   0.440   4.678  17.599 -0.2592  0.0984 -1.0138
  115TMC2    C7 1796   0.205   0.063  17.620 -0.4543 -0.3989  0.7101
  115TMC2    C8 1797   0.512   4.439  17.695 -0.0517  0.3539  0.7516
  115TMC2    O1 1798   0.097   0.104  17.662  0.1651 -0.1484  0.2632
  115TMC2    O2 1799   0.612   4.507  17.708  0.3308 -0.4563  0.2701
  115TMC2    O5 1800   0.516   4.323  17.634 -0.0225 -0.2601 -0.3187
  115TMC2    H5 1801   0.426   4.300  17.603 -0.1501 -1.2327  0.7640
  116MPD2     C 1802   4.323   4.218  17.706  0.1985  0.1817  0.1242
  116MPD2    C1 1803   4.441   4.145  17.686 -0.6349  0.5523  0.1162
  116MPD2    C2 1804   4.561   4.210  17.712  0.0313  0.6482 -0.1304
  116MPD2    C3 1805   4.567   4.353  17.742 -0.3654 -0.1241  0.3648
  116MPD2    C4 1806   4.448   4.424  17.741 -0.2125  0.1901  0.1114
  116MPD2    C5 1807   4.331   4.353  17.720 -0.0020  0.9038  0.1215
  116MPD2     H 1808   4.658   4.163  17.696  0.8281  2.4205 -0.5740
  116MPD2    H1 1809   4.447   4.532  17.751 -2.1690  0.2524 -0.7238
  116MPD2    H2 1810   4.221   4.185  17.688  0.0521  1.5474 -1.5263
  116MPD2    H3 1811   4.238   4.408  17.730 -0.1453  0.5813  0.5352
  116MPD2     N 1812   4.686   4.425  17.752 -0.4510 -0.5070 -0.1183
  116MPD2    H5 1813   4.676   4.526  17.749 -0.8754 -0.5263  0.7661
  116MPD2    N1 1814   4.427   4.019  17.622  0.0603 -0.0454  0.2024
  116MPD2    H7 1815   4.336   3.997  17.583 -0.3509  0.1715  1.0386
  117TMC2    C1 1816   3.501   0.793  14.265 -0.0512  0.0368  0.1443
  117TMC2    C2 1817   3.633   0.798  14.230  0.1694  0.3924  0.3656
  117TMC2    C3 1818   3.708   0.913  14.250 -0.2817 -0.0901  0.1541
  117TMC2    C4 1819   3.441   0.903  14.327 -0.8540 -0.1569  0.2774
  117TMC2    C5 1820   3.512   1.022  14.331  0.0509 -0.0840 -0.1691
  117TMC2    C6 1821   3.644   1.022  14.306 -0.1345  0.4906  0.2371
  117TMC2     C 1822   3.432   0.721  14.165 -0.3375 -0.4526  0.0982
  117TMC2     O 1823   3.497   0.643  14.096 -0.3173  0.0018  0.7142
  117TMC2     H 1824   3.687   0.717  14.182  1.1503  0.5248  1.2382
  117TMC2    H1 1825   3.339   0.893  14.363 -0.4029 -1.0468  1.2937
  117TMC2    H2 1826   3.703   1.113  14.314  0.2557  0.4055 -1.6559
  117TMC2    C7 1827   3.449   1.148  14.353  0.4276  0.0138  0.3538
  117TMC2    C8 1828   3.845   0.918  14.193 -0.4232  0.5541 -0.7754
  117TMC2    O1 1829   3.516   1.241  14.317  0.2178 -0.0286  0.3740
  117TMC2    O2 1830   3.858   0.897  14.074  0.9383 -0.4208  0.3923
  117TMC2    O5 1831   3.927   0.985  14.271 -1.0988  0.6166  0.4116
  117TMC2    H5 1832   3.895   0.982  14.363 -2.7385 -1.8917 -0.2572
  118MPD2     C 1833   3.095   1.231  14.407 -0.1250 -0.3063 -0.8148
  118MPD2    C1 1834   3.230   1.259  14.395 -0.8140 -0.2084 -0.5436
  118MPD2    C2 1835   3.279   1.387  14.377  0.7973  0.5660  0.5882
  118MPD2    C3 1836   3.183   1.486  14.368  0.0241 -0.2073  0.3454
  118MPD2    C4 1837   3.045   1.452  14.369  0.2664  0.2624 -0.2630
  118MPD2    C5 1838   2.992   1.325  14.392  0.7174  0.1279 -0.4433
  118MPD2     H 1839   3.385   1.409  14.381  0.6914  1.2370 -0.3784
  118MPD2    H1 1840   2.983   1.540  14.368 -0.3422 -0.1618  1.7134
  118MPD2    H2 1841   3.057   1.133  14.432  1.6965 -1.2232 -1.6176
  118MPD2    H3 1842   2.889   1.306  14.418  1.4427 -2.7161  0.2711
  118MPD2     N 1843   3.219   1.621  14.354 -0.2923  0.8867 -0.0615
  118MPD2    H5 1844   3.142   1.685  14.339 -1.1317 -0.6835 -2.5972
  118MPD2    N1 1845   3.317   1.145  14.390  0.2395  0.3122 -0.2010
  118MPD2    H7 1846   3.274   1.054  14.398  2.2644 -0.7474 -1.5152
  119TMC2    C1 1847   1.708   2.403  13.523 -0.3878 -0.6907  0.3635
  119TMC2    C2 1848   1.793   2.321  13.599  0.1916 -0.1598 -0.2075
  119TMC2    C3 1849   1.744   2.203  13.649 -0.4901 -0.2320  0.4442
  119TMC2    C4 1850   1.573   2.368  13.498 -0.4831  0.4566  0.6771
  119TMC2    C5 1851   1.533   2.239  13.542  0.4030 -0.4886  0.3960
  119TMC2    C6 1852   1.626   2.160  13.604 -0.0056 -0.5202  0.1146
  119TMC2     C 1853   1.740   2.539  13.496 -0.0108 -0.0612 -0.0814
  119TMC2     O 1854   1.653   2.609  13.444  0.4216 -0.5001 -0.6555
  119TMC2     H 1855   1.893   2.353  13.622 -0.5602  0.8724  1.5772
  119TMC2    H1 1856   1.502   2.430  13.444  0.7971 -0.0761 -1.6524
  119TMC2    H2 1857   1.601   2.063  13.645  0.9112 -0.3273  1.1265
  119TMC2    C7 1858   1.396   2.206  13.514 -0.1478  0.2436  0.0048
  119TMC2    C8 1859   1.823   2.127  13.739 -0.2535  1.3284  0.2355
  119TMC2    O1 1860   1.345   2.247  13.408 -0.1899  0.8451 -0.4598
  119TMC2    O2 1861   1.796   2.010  13.756  0.0493  0.3852  0.3116
  119TMC2    O5 1862   1.846   2.205  13.845  0.2653  0.2054 -0.1852
  119TMC2    H5 1863   1.839   2.298  13.817  0.3076  0.8937  2.0667
  120MPD2     C 1864   2.043   2.945  13.546 -0.0714 -0.3652 -0.2848
  120MPD2    C1 1865   1.913   2.921  13.578  0.7142 -0.2564  0.0601
  120MPD2    C2 1866   1.856   2.798  13.548  0.5431  0.3945 -0.4387
  120MPD2    C3 1867   1.933   2.692  13.511  0.1346  0.1994  0.2332
  120MPD2    C4 1868   2.069   2.716  13.499  0.8319 -0.2859  0.1441
  120MPD2    C5 1869   2.121   2.843  13.516 -0.9544  0.8727 -0.3420
  120MPD2     H 1870   1.749   2.782  13.553  0.8227 -1.2518  0.5095
  120MPD2    H1 1871   2.139   2.639  13.469 -0.0692 -1.1835  0.3331
  120MPD2    H2 1872   2.084   3.044  13.561 -1.3738  0.1316 -0.0045
  120MPD2    H3 1873   2.229   2.852  13.507 -0.7167 -0.3582  1.2799
  120MPD2     N 1874   1.882   2.562  13.491 -0.1086  0.7772 -0.1893
  120MPD2    H5 1875   1.954   2.492  13.477 -0.9262  0.0251 -0.6289
  120MPD2    N1 1876   1.840   3.031  13.640  0.1069 -0.4135  0.3230
  120MPD2    H7 1877   1.882   3.123  13.632  0.3691 -0.3521  2.5193
  121TMC2    C1 1878   3.233   3.931  14.484 -0.3924  0.1769  0.0510
  121TMC2    C2 1879   3.310   3.901  14.593 -0.6222 -0.5214 -0.0233
  121TMC2    C3 1880   3.269   3.801  14.670  0.1694  0.4587 -0.1551
  121TMC2    C4 1881   3.120   3.854  14.450 -0.0203 -0.1064 -0.2150
  121TMC2    C5 1882   3.095   3.741  14.525  1.0087  0.1590  0.3344
  121TMC2    C6 1883   3.170   3.714  14.635  0.2084  0.1559  0.0088
  121TMC2     C 1884   3.246   4.058  14.431  0.3115 -0.8334 -0.0182
  121TMC2     O 1885   3.292   4.150  14.504  0.5155 -0.4073 -0.0836
  121TMC2     H 1886   3.374   3.972  14.644 -2.4235  3.3132 -3.1301
  121TMC2    H1 1887   3.055   3.893  14.372  0.3005 -0.5766 -0.7218
  121TMC2    H2 1888   3.154   3.627  14.699 -0.3827  2.4959  3.0269
  121TMC2    C7 1889   2.984   3.658  14.495  0.1452 -0.0852  0.3959
  121TMC2    C8 1890   3.294   3.821  14.818 -0.1371  0.3090 -0.5682
  121TMC2    O1 1891   2.989   3.543  14.531  0.1822 -0.2247 -0.5023
  121TMC2    O2 1892   3.283   3.926  14.879  0.6345 -0.1220 -0.6334
  121TMC2    O5 1893   3.304   3.696  14.872 -0.0691 -0.5919 -0.1977
  121TMC2    H5 1894   3.328   3.632  14.801 -0.7267 -2.3438  1.1737
  122MPD2     C 1895   3.153   4.317  14.313  0.3887 -0.2479 -0.2778
  122MPD2    C1 1896   3.154   4.195  14.246 -0.6370 -0.0024 -0.6325
  122MPD2    C2 1897   3.103   4.195  14.114 -0.5337  0.3528  0.1311
  122MPD2    C3 1898   3.069   4.311  14.050  0.0312  0.1477  1.0012
  122MPD2    C4 1899   3.064   4.425  14.122 -0.1673 -0.4712 -0.2589
  122MPD2    C5 1900   3.119   4.427  14.246  0.3173 -0.1445 -0.1860
  122MPD2     H 1901   3.082   4.100  14.067  1.7308 -0.0385 -0.1028
  122MPD2    H1 1902   3.037   4.519  14.074 -0.7206 -0.5685 -0.1310
  122MPD2    H2 1903   3.197   4.325  14.412 -0.0675  4.0798 -0.4286
  122MPD2    H3 1904   3.097   4.521  14.296 -0.3868  0.2385 -1.2099
  122MPD2     N 1905   3.014   4.313  13.923 -0.3996 -0.2128 -0.5531
  122MPD2    H5 1906   3.007   4.402  13.874  1.9300  0.1278 -0.2526
  122MPD2    N1 1907   3.197   4.067  14.304  0.2573 -0.0123  0.0722
  122MPD2    H7 1908   3.182   3.980  14.255 -0.3862 -0.5032  1.1377
  123TMC2    C1 1909   0.983   2.628  11.109 -0.2058 -0.9378 -0.3076
  123TMC2    C2 1910   1.036   2.752  11.118  0.0734  0.8569 -0.3540
  123TMC2    C3 1911   1.125   2.790  11.022 -0.3711 -0.3027  0.9242
  123TMC2    C4 1912   1.020   2.539  11.013  0.0796 -0.2249 -0.1164
  123TMC2    C5 1913   1.124   2.581  10.933 -0.2625  0.2144 -0.4014
  123TMC2    C6 1914   1.175   2.703  10.936 -0.0055 -0.5251  0.4334
  123TMC2     C 1915   0.894   2.592  11.217 -0.1340 -0.3644  0.0864
  123TMC2     O 1916   0.854   2.690  11.276  0.1326 -0.2076 -0.1870
  123TMC2     H 1917   1.004   2.827  11.190 -1.6967  0.3920 -0.6517
  123TMC2    H1 1918   0.981   2.439  10.994 -0.7101  0.4729 -2.1981
  123TMC2    H2 1919   1.257   2.739  10.875  0.2196  0.5679  1.3965
  123TMC2    C7 1920   1.180   2.483  10.847 -0.2410  0.7659 -0.1427
  123TMC2    C8 1921   1.190   2.918  11.041  0.3801 -0.1628 -0.2030
  123TMC2    O1 1922   1.139   2.369  10.855  0.8022 -0.0817  0.0761
  123TMC2    O2 1923   1.229   2.959  11.152 -0.4586  0.2587 -0.4142
  123TMC2    O5 1924   1.097   2.990  10.974 -0.1316 -0.4050  0.4230
  123TMC2    H5 1925   1.059   2.935  10.901 -2.8583  0.2871  1.3185
  124MPD2     C 1926   0.617   2.301  11.505  0.4916  0.0996  0.2424
  124MPD2    C1 1927   0.625   2.236  11.379  0.0547 -1.5383 -0.6625
  124MPD2    C2 1928   0.715   2.287  11.287 -0.2503  0.3860 -0.8469
  124MPD2    C3 1929   0.775   2.402  11.318 -0.4298  0.2859  0.2036
  124MPD2    C4 1930   0.754   2.467  11.441  0.2485 -0.0473  0.6504
  124MPD2    C5 1931   0.674   2.418  11.534  0.7434  0.0464  0.2995
  124MPD2     H 1932   0.720   2.256  11.183 -0.0416 -0.7319 -0.5039
  124MPD2    H1 1933   0.792   2.564  11.469  1.9390  0.0228 -1.7949
  124MPD2    H2 1934   0.540   2.271  11.575 -0.5692  0.9207 -0.5691
  124MPD2    H3 1935   0.653   2.466  11.629 -1.5214 -1.4511  0.5602
  124MPD2     N 1936   0.849   2.461  11.213 -0.1551 -0.5046  0.2314
  124MPD2    H5 1937   0.878   2.404  11.135  0.4525  1.0104 -0.6466
  124MPD2    N1 1938   0.529   2.135  11.355  0.4994 -0.1051  0.1113
  124MPD2    H7 1939   0.457   2.113  11.423  1.3660 -0.1027  1.0340
  125TMC2    C1 1940   1.426   4.087   8.541 -0.6478  0.5619 -0.5906
  125TMC2    C2 1941   1.369   3.962   8.553  0.2805 -0.3288  0.1321
  125TMC2    C3 1942   1.349   3.922   8.686 -0.0633 -0.0527  0.2347
  125TMC2    C4 1943   1.515   4.134   8.636  0.4560  0.0281  0.4117
  125TMC2    C5 1944   1.497   4.084   8.757  0.3877 -0.6007  0.8403
  125TMC2    C6 1945   1.423   3.977   8.795 -0.5900  0.0021  0.4045
  125TMC2     C 1946   1.420   4.169   8.413  0.1108  0.9280 -0.3792
  125TMC2     O 1947   1.431   4.292   8.430  0.1389  0.1293  0.4800
  125TMC2     H 1948   1.312   3.908   8.478  0.0723 -0.4106  0.3478
  125TMC2    H1 1949   1.582   4.216   8.616  0.0118  0.7228  1.8171
  125TMC2    H2 1950   1.419   3.945   8.898 -1.9871  1.3970  0.7787
  125TMC2    C7 1951   1.598   4.127   8.860  0.0446 -0.0335 -0.1496
  125TMC2    C8 1952   1.272   3.805   8.706 -0.2868 -0.5103 -0.7151
  125TMC2    O1 1953   1.635   4.246   8.854  0.0323 -0.6347  0.3320
  125TMC2    O2 1954   1.269   3.744   8.812  0.9915 -0.4248 -0.1158
  125TMC2    O5 1955   1.156   3.826   8.636  0.0923  0.0755 -0.2558
  125TMC2    H5 1956   1.155   3.896   8.567 -0.7411 -0.6067 -0.9269
  126MPD1     C 1957   1.430   4.200   7.897 -0.7170  0.6401  0.6870
  126MPD1    C1 1958   1.351   4.094   7.933  0.3839  0.3733  0.0453
  126MPD1    C2 1959   1.341   4.064   8.069  0.1984 -1.0495  0.0081
  126MPD1    C3 1960   1.388   4.151   8.169 -0.4528 -0.0478 -0.3479
  126MPD1    C4 1961   1.453   4.267   8.133  0.1755  0.6008  0.5193
  126MPD1    C5 1962   1.470   4.287   7.995  0.1994  0.2654  0.1495
  126MPD1     H 1963   1.287   3.979   8.110 -0.0007 -0.7216  0.4196
  126MPD1    H1 1964   1.495   4.331   8.209 -3.8087  1.9476  1.5753
  126MPD1    H2 1965   1.458   4.221   7.795 -1.9560  0.9979  0.4283
  126MPD1    H3 1966   1.519   4.377   7.959 -0.4526  0.0787 -1.2250
  126MPD1     N 1967   1.377   4.101   8.301  0.0264  0.0412 -0.4152
  126MPD1    H5 1968   1.359   4.002   8.316  1.4830 -0.4888 -2.1574
  126MPD1    N1 1969   1.320   4.010   7.825 -0.0088 -0.1923 -0.6098
  126MPD1    H6 1970   1.286   4.062   7.745 -1.1257  2.0540  1.3145
  126MPD1    H7 1971   1.254   3.935   7.844 -0.2434 -0.1688 -1.3446
  127TMC2    C1 1972   2.415   2.185  10.339 -0.2387  0.9518 -0.2683
  127TMC2    C2 1973   2.528   2.117  10.368  0.1708 -0.7348  0.1670
  127TMC2    C3 1974   2.522   2.027  10.468  0.0601  0.5592 -0.1893
  127TMC2    C4 1975   2.297   2.172  10.412  0.5571  0.7264 -0.3546
  127TMC2    C5 1976   2.302   2.086  10.517  1.1513 -0.1567  0.0692
  127TMC2    C6 1977   2.411   2.010  10.542  0.4221 -0.2725  0.5233
  127TMC2     C 1978   2.432   2.301  10.261  0.5260  0.9654  1.0764
  127TMC2     O 1979   2.545   2.347  10.265 -0.4895 -0.6955 -0.3184
  127TMC2     H 1980   2.619   2.135  10.312 -0.2360 -0.7527 -0.4944
  127TMC2    H1 1981   2.206   2.225  10.389  0.4080  0.5619 -0.1461
  127TMC2    H2 1982   2.407   1.948  10.631 -0.4022  1.1938  1.5141
  127TMC2    C7 1983   2.180   2.029  10.569 -0.1294  0.4005  0.1686
  127TMC2    C8 1984   2.646   1.987  10.522  0.6812 -0.3370 -1.3353
  127TMC2    O1 1985   2.091   2.096  10.609 -0.0994 -0.2112 -0.5206
  127TMC2    O2 1986   2.751   2.055  10.505 -0.3441  0.6141 -0.0155
  127TMC2    O5 1987   2.640   1.858  10.562  0.1273  0.5792  0.6061
  127TMC2    H5 1988   2.552   1.815  10.555 -0.1349  1.1057  0.7204
  128MPD2     C 1989   2.252   2.401   9.945  0.4426 -0.3153 -0.0531
  128MPD2    C1 1990   2.354   2.405  10.039  1.2168  0.4154  0.3763
  128MPD2    C2 1991   2.458   2.488  10.016  0.2284  0.6535  0.2036
  128MPD2    C3 1992   2.462   2.565   9.895  0.1156  0.2316 -0.4861
  128MPD2    C4 1993   2.356   2.567   9.813 -0.2268 -0.0446 -0.3410
  128MPD2    C5 1994   2.256   2.483   9.836 -1.0169  0.5202 -0.5601
  128MPD2     H 1995   2.549   2.486  10.074  2.1886  0.2884 -2.8582
  128MPD2    H1 1996   2.341   2.636   9.731  0.3290 -0.0924 -0.4806
  128MPD2    H2 1997   2.164   2.340   9.960  0.2748 -0.0652 -0.0168
  128MPD2    H3 1998   2.171   2.495   9.770 -1.7476 -0.2349  0.2417
  128MPD2     N 1999   2.579   2.637   9.880  0.5117 -0.6141  1.1100
  128MPD2    H5 2000   2.637   2.645   9.964  0.4538  1.4412  0.9623
  128MPD2    N1 2001   2.337   2.325  10.162  0.3878 -0.6558 -0.3252
  128MPD2    H7 2002   2.256   2.266  10.173 -0.0614 -0.5545 -3.1585
  129TMC2    C1 2003   2.858   3.489   1.217  1.0473  0.5220  0.3499
  129TMC2    C2 2004   2.984   3.500   1.268 -0.2541  0.8576 -0.1668
  129TMC2    C3 2005   3.012   3.428   1.383 -0.5420 -0.5597  0.0794
  129TMC2    C4 2006   2.769   3.395   1.269 -0.1851 -0.0826 -0.4933
  129TMC2    C5 2007   2.807   3.313   1.367  0.4744  0.0794 -0.1142
  129TMC2    C6 2008   2.920   3.334   1.438  0.4091 -0.1986  0.0014
  129TMC2     C 2009   2.821   3.587   1.117 -0.1805  0.6342 -0.0978
  129TMC2     O 2010   2.731   3.555   1.039 -0.1530  0.1661  0.5420
  129TMC2     H 2011   3.049   3.581   1.236  1.5502  0.0023  1.3037
  129TMC2    H1 2012   2.667   3.396   1.232 -0.2046 -0.7180 -0.4545
  129TMC2    H2 2013   2.959   3.275   1.520  0.3224  1.5633  1.3265
  129TMC2    C7 2014   2.701   3.240   1.424  0.1900 -0.4574  0.6644
  129TMC2    C8 2015   3.152   3.420   1.421  0.3344  0.0540  0.2373
  129TMC2    O1 2016   2.601   3.301   1.463  0.7150  0.0322 -0.4926
  129TMC2    O2 2017   3.186   3.319   1.477 -0.0553 -0.4522 -0.0656
  129TMC2    O5 2018   3.170   3.542   1.464  0.3520  0.3662 -0.1255
  129TMC2    H5 2019   3.093   3.598   1.440  0.8048  0.2545 -1.8046
  130MPD2     C 2020   2.774   3.833   0.936 -0.7122 -0.1606  0.3200
  130MPD2    C1 2021   2.859   3.829   1.048 -0.1710 -0.0099 -0.6573
  130MPD2    C2 2022   2.927   3.950   1.081  0.1335  0.4085  0.3981
  130MPD2    C3 2023   2.912   4.067   1.014 -0.3028 -0.6417  0.3162
  130MPD2    C4 2024   2.823   4.068   0.911 -0.5872  0.4911  1.2915
  130MPD2    C5 2025   2.767   3.953   0.864  0.2474 -0.7196 -0.4446
  130MPD2     H 2026   2.998   3.939   1.162  1.0131 -0.6564 -0.5150
  130MPD2    H1 2027   2.810   4.159   0.855  1.4864 -0.7907 -1.2859
  130MPD2    H2 2028   2.735   3.741   0.895 -1.1729  1.8578 -3.7659
  130MPD2    H3 2029   2.710   3.957   0.772  0.4460  0.0367 -0.5367
  130MPD2     N 2030   2.973   4.189   1.045  0.0062 -0.5359  0.5220
  130MPD2    H5 2031   2.932   4.267   0.994  0.4468  0.3300  1.5037
  130MPD2    N1 2032   2.883   3.714   1.129 -0.3127  0.0510 -0.6208
  130MPD2    H7 2033   2.954   3.735   1.198 -3.8570  1.2625  2.6363
  131TMC2    C1 2034   0.690   2.077  10.340  0.4028 -0.7181  0.9366
  131TMC2    C2 2035   0.698   2.012  10.223  0.1163 -0.3062 -0.5243
  131TMC2    C3 2036   0.791   2.059  10.131 -0.3666  1.2507  0.1709
  131TMC2    C4 2037   0.767   2.191  10.364  0.2644 -0.3708 -0.2153
  131TMC2    C5 2038   0.851   2.242  10.269 -0.0890  0.4167  0.3650
  131TMC2    C6 2039   0.867   2.171  10.153 -0.0647 -0.3206 -0.5748
  131TMC2     C 2040   0.613   2.020  10.451  0.7298 -0.3645 -0.1815
  131TMC2     O 2041   0.656   2.042  10.565 -0.3571  0.1851 -0.0801
  131TMC2     H 2042   0.629   1.934  10.195  0.0635 -0.8283  1.0396
  131TMC2    H1 2043   0.763   2.256  10.451 -0.1101  0.3433 -0.7627
  131TMC2    H2 2044   0.939   2.198  10.077  0.8764 -1.6637 -0.1765
  131TMC2    C7 2045   0.918   2.371  10.285  0.2187  0.9057  0.2942
  131TMC2    C8 2046   0.793   2.014   9.993  0.0348  0.5824 -0.1780
  131TMC2    O1 2047   0.915   2.414  10.396 -1.0667 -0.0498  0.0409
  131TMC2    O2 2048   0.815   2.082   9.891 -0.2328  0.1219  0.7898
  131TMC2    O5 2049   0.835   1.883  10.004 -0.3864 -0.6104 -0.1943
  131TMC2    H5 2050   0.812   1.841  10.089 -0.4648  0.3914  0.2863
  132MPD2     C 2051   0.273   1.877  10.441  0.3313 -0.4225  0.7022
  132MPD2    C1 2052   0.394   1.904  10.501 -0.5765  0.1956 -0.5356
  132MPD2    C2 2053   0.418   1.885  10.636  0.7454 -1.0567 -0.1077
  132MPD2    C3 2054   0.313   1.840  10.721 -0.4125  0.4043 -0.4706
  132MPD2    C4 2055   0.198   1.800  10.660  0.1211 -0.5108 -0.1477
  132MPD2    C5 2056   0.173   1.823  10.523  0.0628 -0.4509  0.4074
  132MPD2     H 2057   0.516   1.907  10.677 -0.3136  0.5933  1.5608
  132MPD2    H1 2058   0.113   1.769  10.719  1.8168  0.7872  2.9555
  132MPD2    H2 2059   0.260   1.906  10.338 -1.3470  1.5558  1.4781
  132MPD2    H3 2060   0.072   1.802  10.490  1.2452 -3.1324 -1.4906
  132MPD2     N 2061   0.337   1.835  10.860  0.0311  0.0348 -0.0466
  132MPD2    H5 2062   0.429   1.863  10.892  0.3990  1.6530 -2.4763
  132MPD2    N1 2063   0.492   1.957  10.408 -0.3503  1.0123 -0.0385
  132MPD2    H7 2064   0.472   1.949  10.309  1.3435  0.7101 -0.3537
  133TMC2    C1 2065   1.061   3.345  10.077  0.4480 -0.2679  0.1054
  133TMC2    C2 2066   1.022   3.477  10.105  0.1473 -0.4363  0.0303
  133TMC2    C3 2067   1.080   3.534  10.217 -0.0251  0.0728 -0.2405
  133TMC2    C4 2068   1.153   3.274  10.147  0.0374 -0.2940 -0.2195
  133TMC2    C5 2069   1.213   3.346  10.248  0.6240  0.1891  0.0072
  133TMC2    C6 2070   1.169   3.468  10.292 -0.2188  0.2716 -0.3060
  133TMC2     C 2071   0.999   3.265   9.986 -0.6975  1.0832  0.2294
  133TMC2     O 2072   0.971   3.150  10.014 -0.0197  0.3291  0.3168
  133TMC2     H 2073   0.938   3.527  10.058  1.0248  2.5742  1.7106
  133TMC2    H1 2074   1.173   3.171  10.123 -0.1580  0.2316 -2.5707
  133TMC2    H2 2075   1.214   3.512  10.381 -0.9153 -1.1027  0.7314
  133TMC2    C7 2076   1.308   3.272  10.327 -0.4825 -0.4482 -0.2035
  133TMC2    C8 2077   1.031   3.669  10.246  0.6096 -0.7226  0.6150
  133TMC2    O1 2078   1.327   3.295  10.447 -0.3358  0.1442 -0.1068
  133TMC2    O2 2079   0.969   3.741  10.172 -0.0921  0.5354  0.4669
  133TMC2    O5 2080   1.047   3.697  10.376  0.0454 -0.0749  0.1094
  133TMC2    H5 2081   1.072   3.620  10.431 -1.5050  0.8464  2.1056
  134MPD2     C 2082   0.900   3.381   9.651  0.6721  0.0581  0.3409
  134MPD2    C1 2083   0.885   3.307   9.769  0.8406  0.4665 -0.2144
  134MPD2    C2 2084   0.793   3.202   9.774 -0.7652  0.3158 -0.0300
  134MPD2    C3 2085   0.711   3.171   9.670  0.0753 -0.2877 -0.5188
  134MPD2    C4 2086   0.720   3.252   9.564  0.3735 -0.0123 -0.1629
  134MPD2    C5 2087   0.813   3.353   9.547  0.1135  0.3930 -0.4300
  134MPD2     H 2088   0.776   3.144   9.864  1.0102 -0.8113 -0.4211
  134MPD2    H1 2089   0.649   3.239   9.483  0.5921 -2.9741  0.1150
  134MPD2    H2 2090   0.962   3.469   9.649  0.0302  0.6047  3.6900
  134MPD2    H3 2091   0.803   3.416   9.459 -0.0989  2.1342  0.8393
  134MPD2     N 2092   0.609   3.068   9.666 -0.4119  0.2829 -0.5487
  134MPD2    H5 2093   0.561   3.057   9.577 -2.1827 -0.4362  0.5008
  134MPD2    N1 2094   0.971   3.341   9.876  0.1087 -0.2183  0.3832
  134MPD2    H7 2095   1.023   3.428   9.866  0.7045 -0.9274 -2.5449
  135TMC2    C1 2096   2.377   4.419   9.684  0.0775 -0.0910  0.3226
  135TMC2    C2 2097   2.299   4.453   9.793  0.5898 -0.2160 -0.5126
  135TMC2    C3 2098   2.298   4.374   9.908  0.2334 -0.4107 -0.3997
  135TMC2    C4 2099   2.454   4.308   9.685  0.2107 -0.3377  0.2889
  135TMC2    C5 2100   2.448   4.233   9.797 -0.0635  0.3592  0.4036
  135TMC2    C6 2101   2.375   4.265   9.911 -0.4124  1.1315 -0.2282
  135TMC2     C 2102   2.327   4.483   9.563  0.4446  0.6932  0.2948
  135TMC2     O 2103   2.248   4.576   9.565  0.2336  0.2204  0.5953
  135TMC2     H 2104   2.226   4.532   9.782 -1.0507 -1.3133  2.6233
  135TMC2    H1 2105   2.514   4.275   9.602 -0.2148 -1.5472  0.4584
  135TMC2    H2 2106   2.381   4.200   9.998  2.1499  1.2555 -0.3241
  135TMC2    C7 2107   2.492   4.098   9.784  0.1983  0.6415  0.3341
  135TMC2    C8 2108   2.189   4.390  10.007  0.7593  0.2648 -0.6478
  135TMC2    O1 2109   2.604   4.074   9.742  0.4521 -0.2661 -0.4007
  135TMC2    O2 2110   2.094   4.467   9.987  0.1444 -0.3638  0.1728
  135TMC2    O5 2111   2.232   4.340  10.122  0.2415 -0.8209 -0.3490
  135TMC2    H5 2112   2.322   4.302  10.115  1.6393  2.4649 -0.2907
  136MPD2     C 2113   2.218   4.508   9.293  0.6650  0.3410 -0.5704
  136MPD2    C1 2114   2.274   4.394   9.336 -0.3509 -0.8368  0.1434
  136MPD2    C2 2115   2.266   4.277   9.260  0.4482  0.1582 -0.2573
  136MPD2    C3 2116   2.205   4.273   9.139 -0.7251 -0.1997 -0.0002
  136MPD2    C4 2117   2.147   4.393   9.099 -0.0932  0.1037  0.1373
  136MPD2    C5 2118   2.156   4.509   9.173  0.0045 -0.3792  0.5076
  136MPD2     H 2119   2.309   4.188   9.304 -1.2119 -0.7428 -0.4659
  136MPD2    H1 2120   2.085   4.389   9.010  0.2780 -1.2419 -0.0589
  136MPD2    H2 2121   2.227   4.602   9.347  0.8919  0.4973 -0.8798
  136MPD2    H3 2122   2.121   4.603   9.134 -0.6901 -0.6280  0.5270
  136MPD2     N 2123   2.193   4.154   9.065  0.6967  0.7780 -0.0387
  136MPD2    H5 2124   2.135   4.153   8.981 -1.5198  1.0809  1.4915
  136MPD2    N1 2125   2.332   4.385   9.465  0.1824 -0.6910 -0.1080
  136MPD2    H7 2126   2.363   4.294   9.498  4.0502  0.5047 -0.4318
  137TMC2    C1 2127   1.967   2.636   9.938  0.0210  0.6781  0.8256
  137TMC2    C2 2128   2.030   2.731   9.868  0.5551 -0.3839  0.0804
  137TMC2    C3 2129   1.989   2.766   9.742  0.1156 -0.2033 -0.6261
  137TMC2    C4 2130   1.864   2.560   9.883 -0.0492  0.0136  1.4131
  137TMC2    C5 2131   1.830   2.594   9.753 -0.0951 -0.1763  0.8483
  137TMC2    C6 2132   1.886   2.691   9.676  0.2752  0.1428 -0.4972
  137TMC2     C 2133   1.995   2.620  10.081  0.1686 -0.6130  0.6040
  137TMC2     O 2134   2.103   2.664  10.123  0.1687 -0.5130 -0.4926
  137TMC2     H 2135   2.107   2.795   9.908  2.6489 -1.3666 -2.3518
  137TMC2    H1 2136   1.794   2.491   9.930 -1.4725  0.6318  0.2242
  137TMC2    H2 2137   1.866   2.707   9.571  2.2514  1.0246 -0.7461
  137TMC2    C7 2138   1.719   2.515   9.696 -0.1867 -0.6072 -0.3039
  137TMC2    C8 2139   2.075   2.862   9.665  0.1724 -0.4096  0.1961
  137TMC2    O1 2140   1.702   2.409   9.747 -0.0958 -0.3704  0.0446
  137TMC2    O2 2141   2.201   2.853   9.668 -0.2357 -1.0828  0.0544
  137TMC2    O5 2142   2.007   2.935   9.573  0.7494 -0.1867 -0.0051
  137TMC2    H5 2143   1.911   2.940   9.594  0.6756 -2.5974  0.2589
  138MPD2     C 2144   1.772   2.501  10.356 -0.4607  1.1113  0.3295
  138MPD2    C1 2145   1.867   2.579  10.288 -0.1732  0.0546 -0.1962
  138MPD2    C2 2146   1.944   2.673  10.361  0.3394 -0.4034 -0.5702
  138MPD2    C3 2147   1.916   2.695  10.499 -1.0215  0.0800  0.0632
  138MPD2    C4 2148   1.819   2.614  10.561 -0.3542 -0.3646 -0.4201
  138MPD2    C5 2149   1.754   2.518  10.488  0.7535 -0.2199 -0.0244
  138MPD2     H 2150   2.032   2.721  10.320  1.1882  0.5823  2.4114
  138MPD2    H1 2151   1.785   2.649  10.659  1.4132  0.4148 -0.0826
  138MPD2    H2 2152   1.709   2.426  10.311 -1.0830  1.7598  0.1203
  138MPD2    H3 2153   1.668   2.476  10.540  0.4025 -0.5341 -0.8667
  138MPD2     N 2154   1.998   2.797  10.559  0.4397 -0.7767  0.2618
  138MPD2    H5 2155   2.057   2.857  10.502 -0.4631  1.1578  1.3771
  138MPD2    N1 2156   1.883   2.567  10.148  0.3007  0.5747 -0.2304
  138MPD2    H7 2157   1.810   2.517  10.099 -0.3147  0.7122  0.5546
  139TMC2    C1 2158   3.111   1.738  13.647  0.2571 -0.0731  0.1569
  139TMC2    C2 2159   3.194   1.793  13.555 -0.4360  0.0869 -0.4115
  139TMC2    C3 2160   3.187   1.926  13.522  0.3565 -0.2379 -0.0050
  139TMC2    C4 2161   3.013   1.821  13.697 -0.5704  0.0876 -0.3935
  139TMC2    C5 2162   2.995   1.953  13.652 -0.2382  0.2427  0.3405
  139TMC2    C6 2163   3.093   2.007  13.569  0.4557  0.8273 -0.0048
  139TMC2     C 2164   3.129   1.604  13.685  0.1652  0.2444 -0.0094
  139TMC2     O 2165   3.217   1.544  13.627 -0.0795 -0.0056  0.0013
  139TMC2     H 2166   3.283   1.741  13.522 -0.9719  0.2386 -2.0666
  139TMC2    H1 2167   2.939   1.769  13.757  0.3226 -1.3603 -0.5572
  139TMC2    H2 2168   3.095   2.112  13.541  0.1923  0.1529 -2.4670
  139TMC2    C7 2169   2.897   2.038  13.715  0.5494 -0.1772  0.5800
  139TMC2    C8 2170   3.261   1.952  13.409 -0.7134 -0.0175  0.1766
  139TMC2    O1 2171   2.878   2.136  13.650  0.2545 -0.5093  0.7358
  139TMC2    O2 2172   3.260   1.869  13.325 -0.4564  0.3441  0.1827
  139TMC2    O5 2173   3.311   2.076  13.404  0.8745  0.5140  0.2941
  139TMC2    H5 2174   3.303   2.133  13.483  0.1721 -2.1744  2.1760
  140MPD2     C 2175   2.995   1.391  13.960 -0.5426 -0.2565 -0.2363
  140MPD2    C1 2176   3.079   1.438  13.860 -0.4319 -0.5466 -0.6025
  140MPD2    C2 2177   3.203   1.373  13.855 -0.1201 -0.3452  0.1911
  140MPD2    C3 2178   3.244   1.272  13.932 -0.8785  0.1770  0.2312
  140MPD2    C4 2179   3.153   1.235  14.028  1.0597  0.2803 -0.0622
  140MPD2    C5 2180   3.031   1.295  14.048  0.5328 -0.2182 -0.1258
  140MPD2     H 2181   3.281   1.419  13.795 -0.1691 -2.1957 -1.2801
  140MPD2    H1 2182   3.176   1.156  14.099  0.4050 -0.3704 -0.5716
  140MPD2    H2 2183   2.902   1.442  13.981  0.8034  2.9947 -2.0677
  140MPD2    H3 2184   2.960   1.264  14.124  1.1607 -0.6161  0.3045
  140MPD2     N 2185   3.377   1.212  13.907 -0.3456 -0.1793  0.1313
  140MPD2    H5 2186   3.426   1.248  13.826  0.0441  0.1386  0.5093
  140MPD2    N1 2187   3.052   1.556  13.786 -0.3625  0.3982 -0.4457
  140MPD2    H7 2188   2.967   1.605  13.813  0.9089  2.9122 -1.0431
  141TMC2    C1 2189   3.467   3.360  14.304  1.2394  0.1303  0.5022
  141TMC2    C2 2190   3.337   3.355  14.267 -0.4543  0.3821 -0.0409
  141TMC2    C3 2191   3.245   3.372  14.366 -0.6884 -0.1045  0.2771
  141TMC2    C4 2192   3.511   3.387  14.430 -0.2855  0.3986 -0.1953
  141TMC2    C5 2193   3.417   3.414  14.519  0.0723 -0.2146 -0.7871
  141TMC2    C6 2194   3.281   3.403  14.488  0.1058 -0.4244  0.2230
  141TMC2     C 2195   3.562   3.337  14.190 -0.1780 -0.3187 -0.3910
  141TMC2     O 2196   3.503   3.344  14.083  0.1439  0.1336  0.4588
  141TMC2     H 2197   3.305   3.326  14.167  1.4354  0.5873 -0.7088
  141TMC2    H1 2198   3.614   3.374  14.461 -0.3210  0.1662 -0.1760
  141TMC2    H2 2199   3.211   3.423  14.569  0.5858  1.5519  0.1590
  141TMC2    C7 2200   3.449   3.483  14.638 -0.0797 -0.0989  0.3152
  141TMC2    C8 2201   3.103   3.369  14.322 -0.6719 -0.0436 -0.1002
  141TMC2    O1 2202   3.360   3.500  14.718  0.2183 -0.4615  0.1867
  141TMC2    O2 2203   3.086   3.365  14.202 -0.0842  0.2952  0.2296
  141TMC2    O5 2204   3.045   3.273  14.404 -0.2037  0.2040 -0.4256
  141TMC2    H5 2205   3.080   3.274  14.496  2.5436 -0.6199 -1.4478
  142TMC2    C1 2206   1.415   1.668  10.628  0.6414  0.1276 -0.2837
  142TMC2    C2 2207   1.530   1.642  10.562  0.4949  0.2292  0.1577
  142TMC2    C3 2208   1.584   1.748  10.497 -0.7914  0.3070  0.5117
  142TMC2    C4 2209   1.355   1.789  10.628 -0.1765  1.0171 -0.6651
  142TMC2    C5 2210   1.412   1.888  10.557  0.4355  0.1296  0.4786
  142TMC2    C6 2211   1.533   1.873  10.490 -0.4236 -0.5208  0.2137
  142TMC2     C 2212   1.339   1.552  10.655 -0.2960  0.1584 -0.0848
  142TMC2     O 2213   1.352   1.458  10.577 -0.3248 -0.4615  0.1210
  142TMC2     H 2214   1.585   1.550  10.575  1.0143  0.5009 -0.1376
  142TMC2    H1 2215   1.259   1.796  10.679 -1.1402  2.2408 -2.6416
  142TMC2    H2 2216   1.584   1.957  10.444 -0.6090  0.4003  1.6906
  142TMC2    C7 2217   1.363   2.020  10.589 -0.0232  0.2016 -0.2082
  142TMC2    C8 2218   1.710   1.739  10.433  0.4207  0.4349  0.2273
  142TMC2    O1 2219   1.298   2.033  10.691 -0.2023  0.0404 -0.5417
  142TMC2    O2 2220   1.765   1.836  10.377 -0.1054  0.2865 -1.2972
  142TMC2    O5 2221   1.720   1.618  10.382 -0.0405  0.5052 -0.0855
  142TMC2    H5 2222   1.661   1.545  10.412  2.1727 -1.9739 -1.7388
  143MPD2     C 2223   0.989   1.313  10.937 -0.3812  0.4240 -0.5374
  143MPD2    C1 2224   1.050   1.277  10.815  0.0387  0.3415  0.6158
  143MPD2    C2 2225   1.154   1.358  10.771  0.5123 -0.3590 -0.0172
  143MPD2    C3 2226   1.188   1.475  10.830 -0.0394  0.0013 -0.3846
  143MPD2    C4 2227   1.117   1.511  10.945 -0.6244 -0.2858  0.3209
  143MPD2    C5 2228   1.023   1.428  11.002 -0.2243 -0.0600  0.0624
  143MPD2     H 2229   1.210   1.317  10.688  0.7470  2.5450 -1.2958
  143MPD2    H1 2230   1.145   1.601  10.998  3.2537 -0.2627 -1.6988
  143MPD2    H2 2231   0.904   1.257  10.973  0.0512 -0.0334 -0.2346
  143MPD2    H3 2232   0.964   1.451  11.089 -0.8400 -1.7456  0.0976
  143MPD2     N 2233   1.276   1.565  10.781 -0.3119 -0.1152 -0.0661
  143MPD2    H5 2234   1.293   1.647  10.838  0.7305  0.1486 -0.7595
  143MPD2    N1 2235   1.012   1.154  10.753 -0.1967  0.6862 -0.0723
  143MPD2    H7 2236   0.962   1.088  10.812 -1.0386  1.0649 -0.3551
  144TMC2    C1 2237   4.569   0.945   0.994  0.3199  0.1073 -0.2617
  144TMC2    C2 2238   4.625   0.823   0.967  0.1322 -0.7482 -0.3995
  144TMC2    C3 2239   4.726   0.766   1.046 -0.7932 -0.3840 -0.2263
  144TMC2    C4 2240   4.628   1.015   1.093 -0.2255  0.6242 -0.0691
  144TMC2    C5 2241   0.004   0.969   1.163 -0.5818  0.3871 -0.7066
  144TMC2    C6 2242   0.050   0.844   1.137 -0.4115  0.1297 -0.1742
  144TMC2     C 2243   4.469   0.994   0.913 -0.1930  0.2960  0.3817
  144TMC2     O 2244   4.403   0.906   0.860  0.2349 -0.8509  0.3366
  144TMC2     H 2245   4.596   0.770   0.877  0.6524 -0.7192 -0.5819
  144TMC2    H1 2246   4.589   1.110   1.126  0.2672  0.4394  1.0569
  144TMC2    H2 2247   0.146   0.811   1.177 -0.6437  1.1761  1.2490
  144TMC2    C7 2248   0.072   1.046   1.264  0.0477  0.2506  0.1716
  144TMC2    C8 2249   0.044   0.642   1.002  0.8203 -0.0324  0.2192
  144TMC2    O1 2250   0.152   0.990   1.337 -0.3683 -0.0944 -0.0100
  144TMC2    O2 2251   0.015   0.605   0.891 -0.4671 -0.2845 -0.4654
  144TMC2    O5 2252   0.122   0.579   1.093  0.6299 -0.2848  0.0204
  144TMC2    H5 2253   0.117   0.628   1.178 -1.3201  0.9333 -0.7919
  145MPD2     C 2254   4.140   1.343   0.728 -0.0374 -1.0149 -0.3394
  145MPD2    C1 2255   4.136   1.211   0.715  0.8114  0.3002  0.1447
  145MPD2    C2 2256   4.236   1.139   0.775  0.5096  0.2946  0.0366
  145MPD2    C3 2257   4.339   1.197   0.853 -0.6206 -0.0713 -0.5092
  145MPD2    C4 2258   4.332   1.336   0.856  0.2373  0.7494  0.9283
  145MPD2    C5 2259   4.239   1.411   0.795  0.1354 -0.1185 -0.4050
  145MPD2     H 2260   4.238   1.031   0.768  0.4013  0.2919  0.0560
  145MPD2    H1 2261   4.416   1.387   0.902  1.6703 -1.8578  1.2066
  145MPD2    H2 2262   4.060   1.403   0.685 -0.2786  0.7911  2.6254
  145MPD2    H3 2263   4.238   1.519   0.785  2.5296 -0.1761 -1.2774
  145MPD2     N 2264   4.448   1.129   0.923  0.2632  0.7999 -0.6309
  145MPD2    H5 2265   4.506   1.189   0.980  0.7985  0.5933 -0.9504
  145MPD2    N1 2266   4.035   1.140   0.651 -0.2370  0.6815  0.5893
  145MPD2    H7 2267   4.044   1.039   0.664 -1.4354  0.5522  0.4054
  146TMC2    C1 2268   4.726   4.228  13.156  0.1561 -0.3899  0.3857
  146TMC2    C2 2269   4.606   4.244  13.100  0.2132  0.1963  0.1508
  146TMC2    C3 2270   4.574   4.163  12.996 -0.8490  0.1852  0.3871
  146TMC2    C4 2271   0.084   4.150  13.103 -0.3712  0.8430  0.2996
  146TMC2    C5 2272   0.050   4.071  12.992 -0.3001 -0.4083  0.4661
  146TMC2    C6 2273   4.669   4.081  12.937 -0.3326 -0.1739  0.4442
  146TMC2     C 2274   0.039   4.332  13.246  0.7989  0.6349 -0.5711
  146TMC2     O 2275   0.018   4.449  13.221 -0.1580 -0.0714 -0.0864
  146TMC2     H 2276   4.543   4.316  13.150 -0.1361  0.4016 -0.5873
  146TMC2    H1 2277   0.188   4.163  13.130 -0.6017  1.2029  1.0180
  146TMC2    H2 2278   4.644   4.028  12.845  0.3018  3.6392 -1.9296
  146TMC2    C7 2279   0.157   4.050  12.900  0.4360  0.3047 -0.2677
  146TMC2    C8 2280   4.440   4.194  12.940 -0.5576 -0.2941  0.4605
  146TMC2    O1 2281   0.138   4.068  12.781 -0.3298  0.4459  0.0253
  146TMC2    O2 2282   4.394   4.302  12.958 -0.1725 -0.1002 -0.2554
  146TMC2    O5 2283   4.397   4.101  12.850  0.2596  0.1445 -0.1567
  146TMC2    H5 2284   4.464   4.030  12.838 -1.2257 -1.4833  1.2232
  147MPD2     C 2285   0.666   4.048  12.804 -0.0298  0.0101  0.0682
  147MPD2    C1 2286   0.646   4.017  12.932 -0.0607 -0.9589  0.2521
  147MPD2    C2 2287   0.516   4.013  12.977 -0.6427 -0.1086 -0.2023
  147MPD2    C3 2288   0.405   4.029  12.896 -0.2925  0.2171  0.2319
  147MPD2    C4 2289   0.422   4.076  12.765  0.5822 -0.1647 -0.4608
  147MPD2    C5 2290   0.555   4.079  12.725 -0.0654  0.1391  0.7352
  147MPD2     H 2291   0.496   4.003  13.083 -0.9760  0.5711 -0.2014
  147MPD2    H1 2292   0.338   4.086  12.697  0.0818  1.5487  0.4132
  147MPD2    H2 2293   0.765   4.054  12.761 -0.9311  0.6770 -1.9426
  147MPD2    H3 2294   0.582   4.110  12.625  1.9633 -0.7007  1.0210
  147MPD2     N 2295   0.276   4.016  12.956 -0.5315  0.8134 -0.5028
  147MPD2    H5 2296   0.270   4.007  13.056 -0.1619 -0.8014 -0.6242
  147MPD2    N1 2297   0.758   4.008  13.016  0.5041  0.2014 -0.3408
  147MPD2    H7 2298   0.854   4.027  12.987  0.6582  1.8012  1.2158
  148TMC2    C1 2299   0.310   3.413  10.794  0.2237  0.1853  0.0847
  148TMC2    C2 2300   0.362   3.531  10.847  0.3932  0.1709 -0.1388
  148TMC2    C3 2301   0.383   3.535  10.988  0.2387 -0.0826 -0.2008
  148TMC2    C4 2302   0.292   3.302  10.872 -0.5096 -0.6122 -0.7772
  148TMC2    C5 2303   0.321   3.312  11.013  0.2473  0.1926  0.1549
  148TMC2    C6 2304   0.360   3.435  11.072  0.3674 -0.0077 -0.2399
  148TMC2     C 2305   0.289   3.415  10.650  0.6711  0.4768  0.4279
  148TMC2     O 2306   0.280   3.525  10.596 -0.1863 -0.3086  0.0919
  148TMC2     H 2307   0.373   3.617  10.782 -0.8798 -0.0257 -0.6244
  148TMC2    H1 2308   0.250   3.211  10.832  0.6992 -1.6766  0.4028
  148TMC2    H2 2309   0.380   3.451  11.177  2.5730 -0.9994 -0.4986
  148TMC2    C7 2310   0.299   3.198  11.102  0.2227  0.2240  0.1251
  148TMC2    C8 2311   0.423   3.659  11.050  0.0480  0.6818  0.0990
  148TMC2    O1 2312   0.267   3.233  11.214  0.0498 -0.4359  0.5858
  148TMC2    O2 2313   0.364   3.692  11.153 -0.7131 -0.3173 -0.3185
  148TMC2    O5 2314   0.477   3.742  10.959 -0.1000  0.3647  0.4180
  148TMC2    H5 2315   0.516   3.686  10.888 -1.0958  0.4301 -0.1800
  149MPD2     C 2316   0.150   3.343  10.386 -0.8232  0.4068  0.1762
  149MPD2    C1 2317   0.179   3.256  10.485  0.0173  0.0265  0.5012
  149MPD2    C2 2318   0.144   3.120  10.472  0.1764  0.6464  0.4196
  149MPD2    C3 2319   0.076   3.078  10.357  0.1346  0.8215  0.5696
  149MPD2    C4 2320   0.041   3.175  10.265  0.0547  0.3989 -0.0903
  149MPD2    C5 2321   0.087   3.304  10.271 -0.3240 -0.7380 -0.2337
  149MPD2     H 2322   0.169   3.047  10.548 -0.1370  1.2454  1.1047
  149MPD2    H1 2323   4.702   3.156  10.193  0.9933 -0.2842 -0.9461
  149MPD2    H2 2324   0.166   3.450  10.391  0.5667  0.2765 -1.4472
  149MPD2    H3 2325   0.050   3.360  10.186  0.4163  0.6758  0.3934
  149MPD2     N 2326   0.019   2.945  10.337 -0.6744  0.1006  0.0215
  149MPD2    H5 2327   4.693   2.934  10.260  0.1545 -0.7176 -0.5642
  149MPD2    N1 2328   0.240   3.296  10.605 -0.7301 -0.3230 -0.5454
  149MPD2    H7 2329   0.244   3.224  10.677  0.8790  0.7771  0.4634
  150TMC2    C1 2330   2.487   2.222  12.214 -0.0443 -0.7784 -0.4228
  150TMC2    C2 2331   2.394   2.144  12.267  0.6067 -0.0790  0.3379
  150TMC2    C3 2332   2.433   2.087  12.385  0.6049  0.2974  0.0019
  150TMC2    C4 2333   2.610   2.249  12.268  0.2995 -0.3188  0.2795
  150TMC2    C5 2334   2.640   2.199  12.396  0.0545  0.6670 -0.1948
  150TMC2    C6 2335   2.555   2.109  12.457 -0.0854 -0.1101 -0.4146
  150TMC2     C 2336   2.451   2.288  12.088  0.3255 -0.7031  0.2631
  150TMC2     O 2337   2.517   2.388  12.068 -0.1259  0.1474  0.0507
  150TMC2     H 2338   2.294   2.125  12.230  0.4525 -0.3459  0.8896
  150TMC2    H1 2339   2.682   2.302  12.207 -0.5657  1.3473  0.7142
  150TMC2    H2 2340   2.565   2.068  12.557 -0.3815  2.0268  0.4824
  150TMC2    C7 2341   2.759   2.243  12.449  0.1939  0.5985  0.4979
  150TMC2    C8 2342   2.340   1.987  12.430 -0.0083 -0.0692 -0.3097
  150TMC2    O1 2343   2.817   2.332  12.387 -0.2701 -0.0388 -0.5127
  150TMC2    O2 2344   2.305   1.976  12.546  0.0221 -0.5177 -0.2655
  150TMC2    O5 2345   2.320   1.889  12.344 -0.3604  0.3014 -0.1537
  150TMC2    H5 2346   2.327   1.920  12.251  2.0350  1.3482  0.3603
  151MPD2     C 2347   2.108   2.377  11.725 -0.5492 -0.1653  0.4663
  151MPD2    C1 2348   2.076   2.258  11.781 -0.0362 -0.4273  0.3337
  151MPD2    C2 2349   2.157   2.221  11.888 -0.0389 -0.6122  0.0143
  151MPD2    C3 2350   2.260   2.297  11.935  0.3847  0.0976  0.5476
  151MPD2    C4 2351   2.289   2.419  11.878 -0.0901 -0.1806 -0.3524
  151MPD2    C5 2352   2.207   2.459  11.772  0.5341  0.1201 -0.5595
  151MPD2     H 2353   2.149   2.122  11.933 -0.6091 -1.4130 -1.8588
  151MPD2    H1 2354   2.370   2.481  11.917 -1.3825  1.3612 -0.1248
  151MPD2    H2 2355   2.049   2.413  11.641  0.9989  0.2176 -0.4600
  151MPD2    H3 2356   2.217   2.552  11.717  0.5143  1.3345  1.5155
  151MPD2     N 2357   2.338   2.237  12.030  0.0154  0.8807 -0.1950
  151MPD2    H5 2358   2.313   2.146  12.068  0.2768  1.1158  0.5350
  151MPD2    N1 2359   1.975   2.174  11.733  0.6836 -0.0827  0.5238
  151MPD2    H7 2360   1.932   2.194  11.643  1.8661  0.8069  0.1543
  152TMC2    C1 2361   1.991   1.965  12.975  0.1199  0.0094 -0.0601
  152TMC2    C2 2362   2.014   1.836  12.946 -0.0974  0.4412  0.3162
  152TMC2    C3 2363   2.143   1.809  12.904  0.6937  0.0016  0.2599
  152TMC2    C4 2364   2.076   2.064  12.930  0.1625  0.0819  0.3014
  152TMC2    C5 2365   2.204   2.036  12.889 -0.4526 -0.2979 -0.0970
  152TMC2    C6 2366   2.236   1.904  12.872 -0.2112  0.0656  0.3071
  152TMC2     C 2367   1.862   1.999  13.018  0.2853  0.0715 -0.6250
  152TMC2     O 2368   1.816   2.104  12.976 -0.5799 -0.4293 -0.3366
  152TMC2     H 2369   1.938   1.759  12.942 -3.0080  3.3591 -1.2014
  152TMC2    H1 2370   2.044   2.166  12.946  0.5929 -0.0691  2.1529
  152TMC2    H2 2371   2.319   1.877  12.808 -0.0996  0.5925  0.2273
  152TMC2    C7 2372   2.283   2.141  12.828  0.3706 -0.3126  0.2053
  152TMC2    C8 2373   2.177   1.672  12.863 -0.4342 -0.3817  0.4556
  152TMC2    O1 2374   2.207   2.227  12.784 -0.4092 -0.4390  0.3303
  152TMC2    O2 2375   2.275   1.655  12.788  0.0753  0.2790  0.8805
  152TMC2    O5 2376   2.101   1.579  12.922  0.3896  0.2976 -0.2200
  152TMC2    H5 2377   2.047   1.613  12.996 -0.0785 -2.0295  0.5139
  153MPD2     C 2378   1.658   1.818  13.255  0.7002  0.1486 -0.1938
  153MPD2    C1 2379   1.680   1.899  13.143  0.4318 -1.0783 -0.0613
  153MPD2    C2 2380   1.586   1.988  13.099 -0.5171  0.0587  0.9793
  153MPD2    C3 2381   1.488   2.025  13.188  0.9938 -0.0469  0.2612
  153MPD2    C4 2382   1.473   1.957  13.306 -0.3608 -0.1039 -0.1948
  153MPD2    C5 2383   1.562   1.858  13.343 -0.2550 -0.1509 -0.3061
  153MPD2     H 2384   1.614   2.039  13.008 -0.7207 -0.9864  0.3384
  153MPD2    H1 2385   1.388   1.984  13.367  1.2109 -1.8680  2.7889
  153MPD2    H2 2386   1.736   1.749  13.287  0.6319 -0.0644 -0.4908
  153MPD2    H3 2387   1.547   1.814  13.440 -1.4935 -1.4857 -1.1078
  153MPD2     N 2388   1.408   2.145  13.168  0.1703 -0.8146  0.4757
  153MPD2    H5 2389   1.347   2.175  13.243 -2.1956  0.5966 -2.0170
  153MPD2    N1 2390   1.809   1.894  13.092  0.5127 -0.0310 -0.0925
  153MPD2    H7 2391   1.875   1.825  13.127 -1.0440 -1.3460  0.3049
  154TMC2    C1 2392   4.384   2.696   0.491 -0.0169  0.5015 -0.8216
  154TMC2    C2 2393   4.410   2.662   0.623 -0.8898  0.4671  0.6066
  154TMC2    C3 2394   4.538   2.606   0.639 -0.4151  0.4207 -0.8779
  154TMC2    C4 2395   4.473   2.691   0.390  0.1215 -0.2823 -0.2639
  154TMC2    C5 2396   4.595   2.642   0.420 -0.7393 -0.4411 -0.2291
  154TMC2    C6 2397   4.632   2.596   0.543 -0.2641  0.4753 -0.0717
  154TMC2     C 2398   4.249   2.732   0.448 -0.2096  0.0609 -0.5635
  154TMC2     O 2399   4.209   2.699   0.336 -0.0394 -0.3769  0.6301
  154TMC2     H 2400   4.342   2.663   0.708 -0.7921 -1.0280  0.7028
  154TMC2    H1 2401   4.445   2.714   0.288  2.2779  2.1888 -0.2988
  154TMC2    H2 2402   4.732   2.555   0.548 -0.3564  0.5355  2.4325
  154TMC2    C7 2403   4.702   2.671   0.335 -0.2741 -0.1984  0.1175
  154TMC2    C8 2404   4.592   2.594   0.768  0.0184  1.1072  0.0009
  154TMC2    O1 2405   0.080   2.637   0.362 -0.0702  0.3448 -0.0449
  154TMC2    O2 2406   4.570   2.679   0.849  0.5056 -0.0007 -0.5789
  154TMC2    O5 2407   4.688   2.502   0.777  0.3964  0.2283  0.3612
  154TMC2    H5 2408   4.680   2.440   0.701 -0.0644 -0.7404  1.1830
  155MPD2     C 2409   3.958   2.833   0.405 -0.3191 -0.6064  0.3851
  155MPD2    C1 2410   4.032   2.830   0.526 -0.2930 -0.1027  0.7778
  155MPD2    C2 2411   3.960   2.865   0.641 -0.4006  0.1395 -0.8107
  155MPD2    C3 2412   3.822   2.895   0.625  0.3234  0.0894  0.2762
  155MPD2    C4 2413   3.761   2.889   0.501  0.3891 -0.1981 -0.5824
  155MPD2    C5 2414   3.832   2.852   0.392  0.5565  0.6826 -0.4656
  155MPD2     H 2415   3.997   2.863   0.743 -0.8954 -1.9516 -0.6703
  155MPD2    H1 2416   3.658   2.917   0.482  0.0490 -0.0509  1.4551
  155MPD2    H2 2417   4.019   2.809   0.319  1.7486  2.1143  1.1067
  155MPD2    H3 2418   3.784   2.850   0.295  0.5927  0.4423 -0.4774
  155MPD2     N 2419   3.741   2.935   0.740 -0.1145  0.3382 -0.2628
  155MPD2    H5 2420   3.786   2.929   0.831 -0.9939  1.1021  0.2226
  155MPD2    N1 2421   4.169   2.791   0.544  0.4741 -0.6241  0.0987
  155MPD2    H7 2422   4.209   2.798   0.637 -0.9807  2.4688  0.5009
  156TMC2    C1 2423   2.039   4.099  11.594 -0.4597 -0.1858 -0.4715
  156TMC2    C2 2424   2.046   3.998  11.506  0.5561 -0.0153 -0.5266
  156TMC2    C3 2425   2.022   4.027  11.376  0.3849 -0.0756  0.2208
  156TMC2    C4 2426   1.992   4.223  11.562 -0.3627  0.1003  0.2949
  156TMC2    C5 2427   1.954   4.248  11.429 -0.0268  0.6994  0.6523
  156TMC2    C6 2428   1.970   4.146  11.335  0.5379 -0.1820  0.1184
  156TMC2     C 2429   2.132   4.096  11.710  0.3901  0.3353 -0.4088
  156TMC2     O 2430   2.101   4.160  11.809 -0.6767 -0.0896 -0.2891
  156TMC2     H 2431   2.092   3.902  11.527 -1.4303 -1.0294 -0.7566
  156TMC2    H1 2432   1.988   4.301  11.636  1.4063 -0.4723  0.9832
  156TMC2    H2 2433   1.956   4.166  11.230  1.6112  1.3367  0.2689
  156TMC2    C7 2434   1.955   4.388  11.391 -0.6663 -0.6099  0.6133
  156TMC2    C8 2435   1.990   3.915  11.297 -0.2545 -0.1196 -0.2990
  156TMC2    O1 2436   1.960   4.419  11.271 -0.0645  0.0086 -0.5956
  156TMC2    O2 2437   1.921   3.825  11.348 -0.0673 -0.7963 -0.1362
  156TMC2    O5 2438   2.093   3.893  11.213 -0.2318 -0.2520 -0.4126
  156TMC2    H5 2439   2.141   3.976  11.191 -1.5749 -0.2567 -3.4269
  157MPD2     C 2440   2.466   3.962  11.716 -0.1604 -0.1122 -0.1599
  157MPD2    C1 2441   2.367   4.048  11.751  0.0343  0.2243 -0.6760
  157MPD2    C2 2442   2.384   4.146  11.846 -0.8277 -0.3235  0.5988
  157MPD2    C3 2443   2.506   4.159  11.906  0.5808  0.0520 -0.2741
  157MPD2    C4 2444   2.608   4.080  11.873 -0.1084 -0.5021 -0.3713
  157MPD2    C5 2445   2.587   3.979  11.781  1.1416 -0.5910 -0.0703
  157MPD2     H 2446   2.307   4.222  11.855 -1.4004 -0.4864 -2.8092
  157MPD2    H1 2447   2.705   4.088  11.920 -0.7904  2.9547  0.4524
  157MPD2    H2 2448   2.465   3.879  11.647 -0.5227 -0.0642 -0.2121
  157MPD2    H3 2449   2.671   3.914  11.764 -0.0080 -2.2124  0.4430
  157MPD2     N 2450   2.531   4.275  11.984  0.0575 -0.0272 -0.5415
  157MPD2    H5 2451   2.458   4.346  11.989  1.7756  1.4496  3.5576
  157MPD2    N1 2452   2.248   4.020  11.685  0.7649 -0.5391  0.0499
  157MPD2    H7 2453   2.250   3.965  11.600 -0.3535  0.8977 -0.9123
  158TMC2    C1 2454   3.429   3.017  13.197 -0.1181 -0.3165  0.0396
  158TMC2    C2 2455   3.475   3.078  13.082 -0.5990 -0.1858  0.1471
  158TMC2    C3 2456   3.393   3.152  13.002 -0.2681  0.6322 -0.5089
  158TMC2    C4 2457   3.293   3.020  13.232 -0.5369 -0.4224  0.0336
  158TMC2    C5 2458   3.215   3.109  13.151 -0.0502  0.8521  0.0631
  158TMC2    C6 2459   3.265   3.168  13.038  0.1300 -1.6295  0.5237
  158TMC2     C 2460   3.529   2.974  13.297 -0.3959 -0.3116 -0.1929
  158TMC2     O 2461   3.626   2.916  13.249  0.0328 -0.4432 -0.0178
  158TMC2     H 2462   3.572   3.062  13.034  0.0927 -1.0011  1.8094
  158TMC2    H1 2463   3.252   2.975  13.321  1.3851  0.7771  1.5079
  158TMC2    H2 2464   3.205   3.242  12.985 -0.2045 -1.4122  1.2048
  158TMC2    C7 2465   3.074   3.102  13.155 -0.7087 -0.4874 -0.9988
  158TMC2    C8 2466   3.463   3.246  12.920  0.6691 -0.4139 -0.1949
  158TMC2    O1 2467   3.015   3.156  13.066  0.1700  0.0924 -0.2889
  158TMC2    O2 2468   3.577   3.288  12.933 -0.3080  0.4553  0.3308
  158TMC2    O5 2469   3.394   3.276  12.809  0.1892 -0.6083  0.3383
  158TMC2    H5 2470   3.307   3.231  12.803  0.6194 -1.3702 -0.2276
  159MPD2     C 2471   3.688   2.894  13.768  0.0234 -0.7342 -0.5658
  159MPD2    C1 2472   3.571   2.967  13.775 -0.3407 -0.3343  0.6207
  159MPD2    C2 2473   3.517   3.008  13.658  0.9660  0.0191  0.2207
  159MPD2    C3 2474   3.568   2.963  13.539  0.8745  0.6423  0.3058
  159MPD2    C4 2475   3.673   2.879  13.532 -0.2536  0.3396 -0.4260
  159MPD2    C5 2476   3.740   2.852  13.650  0.1524 -0.3537  0.6705
  159MPD2     H 2477   3.419   3.055  13.655 -0.0582 -2.2236 -0.7523
  159MPD2    H1 2478   3.695   2.817  13.446  0.4603 -0.6489  0.4554
  159MPD2    H2 2479   3.739   2.857  13.857 -2.0708  0.4131  1.1078
  159MPD2    H3 2480   3.822   2.781  13.650  1.0958  0.7454 -0.9969
  159MPD2     N 2481   3.489   2.998  13.430 -0.3520  0.1615 -0.0733
  159MPD2    H5 2482   3.402   3.047  13.446 -1.6452 -2.0084 -0.5607
  159MPD2    N1 2483   3.512   2.982  13.897  0.0362  0.0172  0.1506
  159MPD2    H7 2484   3.552   2.930  13.974 -0.1223  0.6515  0.6615
  160TMC2    C1 2485   3.102   1.595   1.307  0.7574  0.4364 -0.0984
  160TMC2    C2 2486   3.105   1.472   1.362 -0.7455 -0.3204  0.4478
  160TMC2    C3 2487   3.199   1.378   1.326  0.6006 -0.0130 -0.0554
  160TMC2    C4 2488   3.192   1.630   1.210  0.3506  0.6176 -0.0779
  160TMC2    C5 2489   3.292   1.534   1.184  0.5926  0.2576  0.1257
  160TMC2    C6 2490   3.286   1.405   1.233 -0.4143  0.8907 -0.8423
  160TMC2     C 2491   2.991   1.685   1.338 -0.0086 -0.0687  0.4492
  160TMC2     O 2492   3.022   1.800   1.364 -0.1964  0.1955 -0.0703
  160TMC2     H 2493   3.038   1.436   1.440 -0.5339  0.7636  1.1281
  160TMC2    H1 2494   3.192   1.728   1.164 -0.0976 -1.2145 -3.9717
  160TMC2    H2 2495   3.367   1.337   1.211 -0.4420  0.9964 -1.2694
  160TMC2    C7 2496   3.387   1.567   1.082  0.7614  0.1654  0.0569
  160TMC2    C8 2497   3.194   1.246   1.387  0.5660 -0.0928 -0.4225
  160TMC2    O1 2498   3.419   1.482   1.001  0.0028 -0.3211  0.7868
  160TMC2    O2 2499   3.143   1.220   1.493 -0.4926 -0.3080 -0.4856
  160TMC2    O5 2500   3.198   1.165   1.282  0.1641  0.0344 -0.0771
  160TMC2    H5 2501   3.215   1.212   1.198 -0.9254 -1.4236 -1.1038
  161MPD2     C 2502   2.631   1.602   1.323 -0.0916 -0.1424 -0.1302
  161MPD2    C1 2503   2.745   1.682   1.326  0.0704 -0.0265  0.1550
  161MPD2    C2 2504   2.734   1.819   1.302  0.4530  0.4888  0.0405
  161MPD2    C3 2505   2.613   1.884   1.291  0.0317 -0.3191  0.2000
  161MPD2    C4 2506   2.502   1.810   1.297  0.6102 -0.3399 -0.4624
  161MPD2    C5 2507   2.508   1.669   1.306 -0.2143 -0.2190 -0.3791
  161MPD2     H 2508   2.828   1.873   1.301  0.4685  0.4026 -2.8908
  161MPD2    H1 2509   2.406   1.860   1.289  0.4864 -0.0368  3.1024
  161MPD2    H2 2510   2.634   1.494   1.328  0.1533 -0.1581 -0.6120
  161MPD2    H3 2511   2.420   1.610   1.329 -0.0669 -0.4626 -0.4430
  161MPD2     N 2512   2.591   2.021   1.263 -0.0549  0.4253  0.6187
  161MPD2    H5 2513   2.498   2.050   1.234  0.4065 -0.4936 -1.8376
  161MPD2    N1 2514   2.874   1.624   1.333 -0.1040 -0.5024  0.7623
  161MPD2    H7 2515   2.871   1.523   1.343 -0.2926 -0.8324 -2.5002
  162TMC2    C1 2516   1.386   3.830   1.096  0.1833 -0.3820 -0.0747
  162TMC2    C2 2517   1.323   3.927   1.173  0.0254  0.4780 -0.1596
  162TMC2    C3 2518   1.399   3.997   1.264  0.0083  0.6365 -0.7068
  162TMC2    C4 2519   1.521   3.804   1.122 -0.0474 -0.0354  0.1541
  162TMC2    C5 2520   1.579   3.861   1.231  0.3404 -0.3932 -0.0958
  162TMC2    C6 2521   1.522   3.962   1.313 -0.3918  0.1098 -0.2789
  162TMC2     C 2522   1.315   3.754   0.989  0.2770 -0.5750  0.4432
  162TMC2     O 2523   1.382   3.694   0.905 -0.2965 -0.7101 -0.4154
  162TMC2     H 2524   1.219   3.956   1.167 -0.4317 -0.7559  1.7678
  162TMC2    H1 2525   1.567   3.728   1.060  0.0946  1.5779 -1.7000
  162TMC2    H2 2526   1.577   4.026   1.381 -1.7494  0.2966  0.6597
  162TMC2    C7 2527   1.714   3.814   1.263 -0.2112  0.4732 -0.3254
  162TMC2    C8 2528   1.328   4.089   1.349 -0.6381 -0.0394  0.1717
  162TMC2    O1 2529   1.778   3.897   1.327 -0.7012  0.1987  0.1999
  162TMC2    O2 2530   1.352   4.104   1.468 -0.4112 -0.0925  0.7093
  162TMC2    O5 2531   1.242   4.161   1.274  0.6322  0.2269 -0.1838
  162TMC2    H5 2532   1.250   4.148   1.177  0.8054  2.1222 -0.4236
  163MPD2     C 2533   0.917   3.713   0.670  0.6988 -0.3235 -0.8123
  163MPD2    C1 2534   1.025   3.633   0.686 -0.0847 -0.6028  0.2428
  163MPD2    C2 2535   1.121   3.661   0.779  0.8198  0.7084  0.6742
  163MPD2    C3 2536   1.096   3.767   0.870 -0.2735  0.3896 -0.0497
  163MPD2    C4 2537   0.975   3.832   0.870 -0.1834 -0.3211 -0.3595
  163MPD2    C5 2538   0.892   3.810   0.763  0.0886  0.0548  0.1003
  163MPD2     H 2539   1.206   3.596   0.797  0.4854  0.5593  1.7391
  163MPD2    H1 2540   0.948   3.904   0.946  2.5522  0.2440  0.0710
  163MPD2    H2 2541   0.853   3.701   0.584 -0.1355  3.4707 -0.7401
  163MPD2    H3 2542   0.797   3.863   0.760 -0.9772 -2.0231 -2.9666
  163MPD2     N 2543   1.185   3.800   0.974  1.2032 -0.1322 -0.7137
  163MPD2    H5 2544   1.156   3.865   1.047  0.0174  0.4952 -1.7305
  163MPD2    N1 2545   1.045   3.524   0.600  0.0472  0.2896 -0.1446
  163MPD2    H7 2546   0.974   3.517   0.528  1.1861  1.3194 -1.3752
  164TMC2    C1 2547   0.852   2.913  11.567 -0.5165 -0.4382  0.6211
  164TMC2    C2 2548   0.886   2.954  11.440 -0.1203 -0.2421 -0.9520
  164TMC2    C3 2549   0.796   3.028  11.370  0.9671  0.4253 -0.2425
  164TMC2    C4 2550   0.732   2.952  11.620  0.2170  1.0742  0.2761
  164TMC2    C5 2551   0.639   3.021  11.547  0.7434  0.4562  0.6480
  164TMC2    C6 2552   0.674   3.063  11.418  0.1021  0.6113 -0.2931
  164TMC2     C 2553   0.907   2.795  11.634 -0.8669  0.1192 -0.1730
  164TMC2     O 2554   0.850   2.761  11.737  0.1075  0.5366  0.1474
  164TMC2     H 2555   0.969   2.919  11.378  1.4931  1.7948  0.0632
  164TMC2    H1 2556   0.702   2.925  11.721 -0.4900  2.7428  0.5123
  164TMC2    H2 2557   0.594   3.111  11.363 -0.4582  0.5765  0.4980
  164TMC2    C7 2558   0.494   3.036  11.584  0.5673  0.7374  0.4933
  164TMC2    C8 2559   0.835   3.086  11.246  0.0352  0.7285 -0.1716
  164TMC2    O1 2560   0.429   3.130  11.535 -0.2644 -0.1055 -0.0045
  164TMC2    O2 2561   0.748   3.108  11.165 -0.2648 -0.1945  0.0278
  164TMC2    O5 2562   0.965   3.104  11.233  0.2197 -0.3508  0.0346
  164TMC2    H5 2563   1.021   3.110  11.314  0.3337  0.3474 -0.1001
  165TMC2    C1 2564   3.699   1.065   2.144  0.7034 -0.0376  0.4307
  165TMC2    C2 2565   3.809   1.093   2.219 -0.3026  0.4740 -0.9633
  165TMC2    C3 2566   3.880   1.209   2.186  0.1103  0.1352  0.5213
  165TMC2    C4 2567   3.659   1.146   2.043 -1.1517 -0.6704  0.2309
  165TMC2    C5 2568   3.736   1.266   2.017 -0.2243 -0.2930 -0.6054
  165TMC2    C6 2569   3.843   1.298   2.091  0.9361 -0.7960 -0.3790
  165TMC2     C 2570   3.638   0.933   2.136 -0.0610 -0.4964 -0.8555
  165TMC2     O 2571   3.528   0.928   2.079 -0.8301 -0.3842  0.5096
  165TMC2     H 2572   3.839   1.018   2.291  0.5174  1.0489 -0.7103
  165TMC2    H1 2573   3.597   1.109   1.963  0.1136 -0.1184 -0.9976
  165TMC2    H2 2574   3.886   1.397   2.088 -0.0517 -0.3832 -1.0847
  165TMC2    C7 2575   3.712   1.325   1.886  0.4086 -0.6070  0.4233
  165TMC2    C8 2576   4.000   1.242   2.268  0.1910  0.7678 -0.1097
  165TMC2    O1 2577   3.664   1.257   1.799  0.7832 -0.2567  0.2126
  165TMC2    O2 2578   4.009   1.207   2.383 -0.0361 -0.3424 -0.1556
  165TMC2    O5 2579   4.083   1.320   2.200  0.4678 -0.8286  0.1606
  165TMC2    H5 2580   4.071   1.324   2.102  0.8077  0.2280  0.1560
  166MPD2     C 2581   3.620   0.435   2.263  0.0372  0.1093 -0.1915
  166MPD2    C1 2582   3.518   0.507   2.199 -0.0877  0.6271  0.8621
  166MPD2    C2 2583   3.544   0.646   2.177 -0.5802 -0.0353 -0.1416
  166MPD2    C3 2584   3.668   0.702   2.214  0.6007 -0.4702 -0.1398
  166MPD2    C4 2585   3.766   0.618   2.259 -0.8114 -0.2172  0.2083
  166MPD2    C5 2586   3.748   0.490   2.294 -0.7043 -0.0312 -0.3198
  166MPD2     H 2587   3.474   0.704   2.118 -1.5616  0.4659  1.5135
  166MPD2    H1 2588   3.861   0.664   2.287 -1.6813  0.8056  1.5030
  166MPD2    H2 2589   3.604   0.331   2.288 -2.5600  0.6939  0.5155
  166MPD2    H3 2590   3.834   0.432   2.326  0.9780  2.2737 -0.6331
  166MPD2     N 2591   3.715   0.833   2.195 -0.4506 -0.0293  0.6745
  166MPD2    H5 2592   3.808   0.854   2.229  0.1405  0.3765 -1.1950
  166MPD2    N1 2593   3.391   0.438   2.184  0.0858  0.0961 -0.5138
  166MPD2    H7 2594   3.377   0.338   2.198  0.1491  0.3856  1.5158
  167TMC2    C1 2595   0.860   2.913  12.550  0.5920  0.0179 -0.5044
  167TMC2    C2 2596   0.979   2.949  12.609 -0.3895  0.5841 -0.0761
  167TMC2    C3 2597   1.008   2.893  12.729  0.1527  0.3126 -0.6064
  167TMC2    C4 2598   0.769   2.825  12.612  0.5517 -0.2452  0.3767
  167TMC2    C5 2599   0.808   2.775  12.732  0.1310 -0.4294 -0.7275
  167TMC2    C6 2600   0.920   2.818  12.800  0.6634  0.2720  0.7340
  167TMC2     C 2601   0.834   2.972  12.416  0.0778  0.3919  0.3360
  167TMC2     O 2602   0.924   3.035  12.363  0.6406 -0.2301  0.1081
  167TMC2     H 2603   1.041   3.021  12.557  1.2854 -0.7047  0.1383
  167TMC2    H1 2604   0.682   2.788  12.558  0.2821 -0.5657  1.0390
  167TMC2    H2 2605   0.943   2.785  12.901  1.7184  2.1791  1.0976
  167TMC2    C7 2606   0.711   2.707  12.813 -0.6313 -0.2044  0.3393
  167TMC2    C8 2607   1.115   2.946  12.807  0.1254 -0.7852 -0.1630
  167TMC2    O1 2608   0.696   2.743  12.932 -0.6511 -0.4154 -0.1327
  167TMC2    O2 2609   1.117   2.951  12.930  0.5912 -0.0761 -0.1459
  167TMC2    O5 2610   1.206   2.995  12.720 -0.4181  0.0266 -0.3734
  167TMC2    H5 2611   1.181   2.978  12.626 -1.2008 -0.4198 -0.0863
  168MPD2     C 2612   0.744   2.990  12.142 -0.4450  0.2251  0.4538
  168MPD2    C1 2613   0.655   2.967  12.247  0.4854  0.5390 -0.4465
  168MPD2    C2 2614   0.520   2.953  12.214 -0.2458 -1.2976  0.6087
  168MPD2    C3 2615   0.475   2.993  12.086  0.7224 -0.1205  1.0045
  168MPD2    C4 2616   0.567   3.032  11.991  0.1666  0.3011 -0.1827
  168MPD2    C5 2617   0.703   3.032  12.019  0.6140  0.3249  0.0284
  168MPD2     H 2618   0.446   2.920  12.286 -1.5097 -1.3650 -0.7156
  168MPD2    H1 2619   0.533   3.078  11.900 -0.8932  0.7033  0.4153
  168MPD2    H2 2620   0.852   2.987  12.151 -0.3730  2.5980  0.4520
  168MPD2    H3 2621   0.777   3.068  11.948  0.7600  1.6753  0.8563
  168MPD2     N 2622   0.337   3.006  12.061  0.1614 -0.2186 -0.1133
  168MPD2    H5 2623   0.277   2.949  12.120 -0.5975 -0.4397 -1.0799
  168MPD2    N1 2624   0.701   2.941  12.373 -0.1623 -0.1847 -0.0126
  168MPD2    H7 2625   0.629   2.892  12.425 -0.6972  0.0458 -0.5394
  169MPD1     C 2626   0.985   1.885  10.448 -0.4683  0.1397  0.2979
  169MPD1    C1 2627   1.027   1.756  10.411  0.5290  0.8384  0.5114
  169MPD1    C2 2628   1.122   1.731  10.311  0.0565 -0.2533 -0.0164
  169MPD1    C3 2629   1.191   1.844  10.276  0.7899  0.4397  0.8514
  169MPD1    C4 2630   1.157   1.970  10.324 -0.2056  0.0088  0.0263
  169MPD1    C5 2631   1.054   1.991  10.406  0.5367  0.3526 -0.1606
  169MPD1     H 2632   1.151   1.632  10.278 -0.9390 -1.1926  1.9132
  169MPD1    H1 2633   1.205   2.062  10.291 -2.4442  2.0180  2.4192
  169MPD1    H2 2634   0.896   1.901  10.508 -1.7567 -3.4038 -0.6317
  169MPD1    H3 2635   1.032   2.089  10.446  1.8920 -0.7449  3.2967
  169MPD1     N 2636   1.292   1.818  10.189 -0.1885 -0.4741 -0.0206
  169MPD1    H5 2637   1.285   1.729  10.142  0.4399 -0.6974  0.3035
  169MPD1    N1 2638   0.950   1.649  10.458  0.3182  0.1137 -0.3711
  169MPD1    H6 2639   1.002   1.563  10.450  2.6458  1.5081 -0.1399
  169MPD1    H7 2640   0.920   1.672  10.553  1.9430  2.7984 -0.4906
  170MPD1     C 2641   2.023   0.524  13.046 -0.3438  0.0055  0.0872
  170MPD1    C1 2642   1.906   0.462  13.047  0.0980  0.1969 -0.1031
  170MPD1    C2 2643   1.857   0.412  13.167 -0.0784  0.5422  0.8191
  170MPD1    C3 2644   1.934   0.419  13.281 -0.2489 -0.0793  0.5755
  170MPD1    C4 2645   2.052   0.490  13.282 -0.2244  0.3106 -0.5889
  170MPD1    C5 2646   2.088   0.550  13.160 -0.0315 -0.1644  0.3591
  170MPD1     H 2647   1.761   0.363  13.170  0.5240 -0.7349 -1.0121
  170MPD1    H1 2648   2.100   0.510  13.377 -0.6040  0.4879 -0.4343
  170MPD1    H2 2649   2.068   0.555  12.953  0.6000 -1.2030  0.1373
  170MPD1    H3 2650   2.186   0.595  13.156 -0.8137  1.4787 -0.4075
  170MPD1     N 2651   1.884   0.364  13.400 -0.1268  0.1492  0.3713
  170MPD1    H5 2652   1.784   0.348  13.399 -0.6001  3.1191 -0.8584
  170MPD1    N1 2653   1.849   0.427  12.926  0.5937  0.6040 -0.3085
  170MPD1    H6 2654   1.865   0.504  12.862 -1.3177  2.7573  1.7945
  170MPD1    H7 2655   1.750   0.404  12.932  0.0747  2.5455 -1.2859
  171MPD1     C 2656   0.372   1.800  15.384 -0.2247  0.2120  0.5148
  171MPD1    C1 2657   0.418   1.690  15.308 -0.8258  0.5784  0.2143
  171MPD1    C2 2658   0.483   1.586  15.389  0.5024 -0.9713  0.4952
  171MPD1    C3 2659   0.508   1.601  15.527  0.6312 -0.0560  0.3234
  171MPD1    C4 2660   0.487   1.726  15.578 -0.3813  0.2931 -0.0021
  171MPD1    C5 2661   0.412   1.819  15.515 -0.0485  0.4989  0.0999
  171MPD1     H 2662   0.489   1.491  15.337 -0.2442  0.0703 -1.5026
  171MPD1    H1 2663   0.512   1.730  15.684  1.5808  0.8461 -0.4969
  171MPD1    H2 2664   0.298   1.872  15.352 -0.2190 -0.4246 -0.9053
  171MPD1    H3 2665   0.381   1.910  15.565 -0.0605  1.5891 -1.8964
  171MPD1     N 2666   0.543   1.499  15.621  0.2550 -0.3178 -0.2578
  171MPD1    H5 2667   0.547   1.536  15.715 -1.5946 -0.9398  0.0606
  171MPD1    N1 2668   0.367   1.657  15.180 -0.4372  0.3241 -0.3145
  171MPD1    H6 2669   0.353   1.733  15.114  0.4240 -1.2016 -2.2914
  171MPD1    H7 2670   0.432   1.597  15.129  1.6439  0.1669  2.5114
  172MPD1     C 2671   4.409   0.740   0.119 -0.3186 -0.4389 -0.7572
  172MPD1    C1 2672   4.309   0.820   0.181  0.1246 -0.3071  0.0330
  172MPD1    C2 2673   4.347   0.902   0.290 -0.0748 -0.1486  0.2828
  172MPD1    C3 2674   4.479   0.891   0.344  0.3738 -0.0653  0.3449
  172MPD1    C4 2675   4.569   0.809   0.283 -0.0666  0.1859 -0.2847
  172MPD1    C5 2676   4.531   0.724   0.179 -0.1982 -0.4388  0.5247
  172MPD1     H 2677   4.273   0.969   0.333 -1.1456  0.2191 -2.1241
  172MPD1    H1 2678   4.671   0.810   0.320 -0.2095  2.7406  0.0502
  172MPD1    H2 2679   4.383   0.685   0.029 -2.2993 -0.9053  0.0993
  172MPD1    H3 2680   4.597   0.645   0.144 -1.6956 -0.2444 -2.6886
  172MPD1     N 2681   4.527   0.977   0.445 -0.6765 -0.1252  0.4553
  172MPD1    H5 2682   4.625   0.964   0.467 -0.2909 -2.0936 -2.3392
  172MPD1    N1 2683   4.184   0.838   0.113 -0.1808 -0.8546 -0.7602
  172MPD1    H6 2684   4.101   0.883   0.149  0.7536  1.5215 -1.6097
  172MPD1    H7 2685   4.157   0.753   0.063 -0.8111 -0.9015 -0.3267
  173MPD1     C 2686   1.013   1.072  14.238  0.1865 -0.1139 -0.6376
  173MPD1    C1 2687   1.058   0.950  14.184 -0.1242  0.0927  0.5726
  173MPD1    C2 2688   1.026   0.839  14.255  0.7154  0.5740  0.3102
  173MPD1    C3 2689   0.953   0.854  14.369 -0.0022 -0.3115 -0.4835
  173MPD1    C4 2690   0.916   0.975  14.422 -0.6265  0.2784 -0.2152
  173MPD1    C5 2691   0.935   1.080  14.343 -0.5836 -0.8401 -0.0434
  173MPD1     H 2692   1.043   0.738  14.222  1.7412  1.0016 -0.4861
  173MPD1    H1 2693   0.855   0.994  14.509  0.3764 -1.3244  0.8457
  173MPD1    H2 2694   1.020   1.162  14.179  3.0975 -0.5434 -0.9501
  173MPD1    H3 2695   0.882   1.167  14.381 -1.1306 -0.8292 -0.8465
  173MPD1     N 2696   0.909   0.734  14.423 -0.6046 -0.3618 -0.7872
  173MPD1    H5 2697   0.957   0.656  14.380 -0.1321  0.1179 -1.1225
  173MPD1    N1 2698   1.106   0.931  14.055  0.6980  0.4723  0.6773
  173MPD1    H6 2699   1.156   0.843  14.049  0.7126  0.7837 -3.4344
  173MPD1    H7 2700   1.172   1.006  14.034  1.3287 -0.6444 -1.2750
  174MPD1     C 2701   1.565   0.237  14.409 -0.3379 -0.0951 -0.0650
  174MPD1    C1 2702   1.523   0.234  14.537  1.0421  0.6527 -0.2602
  174MPD1    C2 2703   1.396   0.275  14.571  0.5690  0.3852 -1.0024
  174MPD1    C3 2704   1.314   0.326  14.476  0.9365  0.1232 -0.3212
  174MPD1    C4 2705   1.352   0.345  14.349 -0.9978 -0.8041 -0.5690
  174MPD1    C5 2706   1.479   0.297  14.324 -0.0925  0.5673  0.2967
  174MPD1     H 2707   1.369   0.288  14.675  1.1109 -2.3090 -0.5009
  174MPD1    H1 2708   1.291   0.405  14.283 -0.3526 -0.6979 -1.0644
  174MPD1    H2 2709   1.665   0.205  14.382  0.6426  0.4164  2.8790
  174MPD1    H3 2710   1.519   0.308  14.224 -0.2398  1.3580  0.3243
  174MPD1     N 2711   1.179   0.368  14.504  0.1268  0.1883 -0.7003
  174MPD1    H5 2712   1.123   0.415  14.434 -0.4265  0.3382 -0.1572
  174MPD1    N1 2713   1.608   0.181  14.635 -0.1830 -0.5475 -0.3711
  174MPD1    H6 2714   1.560   0.173  14.725  0.5107 -0.6338 -0.0099
  174MPD1    H7 2715   1.644   0.098  14.589 -1.3034 -0.4017 -1.5211
  175MPD1     C 2716   4.227   1.695  15.590  0.6766 -0.7623 -0.1208
  175MPD1    C1 2717   4.113   1.700  15.655  0.6083 -0.3071  0.3088
  175MPD1    C2 2718   4.082   1.604  15.752 -1.1654 -0.6647  0.5932
  175MPD1    C3 2719   4.172   1.501  15.778 -0.1997 -0.7093  0.4571
  175MPD1    C4 2720   4.292   1.497  15.703  0.7079 -0.6078 -0.4147
  175MPD1    C5 2721   4.322   1.599  15.611 -0.4428  0.0185 -0.3045
  175MPD1     H 2722   3.982   1.598  15.793 -1.8369 -1.8087 -1.1710
  175MPD1    H1 2723   4.372   1.424  15.705 -0.1757 -1.5743 -0.3300
  175MPD1    H2 2724   4.245   1.761  15.507 -1.7096  2.1902  1.7237
  175MPD1    H3 2725   4.411   1.589  15.551 -0.0352  1.7867  0.0062
  175MPD1     N 2726   4.157   1.409  15.885 -0.3655  0.2439 -0.1613
  175MPD1    H5 2727   4.243   1.362  15.910  0.2447  2.6215  2.1815
  175MPD1    N1 2728   4.027   1.795  15.603  0.2188 -0.1389 -0.3800
  175MPD1    H6 2729   3.961   1.819  15.677  1.6910  2.2578  0.1465
  175MPD1    H7 2730   4.056   1.867  15.538 -1.0490  0.3791 -0.3782
  176MPD1     C 2731   1.880   0.517  17.020 -0.0427  0.0890  0.3516
  176MPD1    C1 2732   1.759   0.504  16.963 -0.7067 -0.0644 -0.2285
  176MPD1    C2 2733   1.661   0.459  17.046 -0.0422  0.2632 -0.7149
  176MPD1    C3 2734   1.683   0.398  17.168  0.0298  0.6194  0.0433
  176MPD1    C4 2735   1.806   0.408  17.221  0.5535 -0.1806  0.1564
  176MPD1    C5 2736   1.903   0.471  17.144 -0.4879 -0.0276  0.1381
  176MPD1     H 2737   1.564   0.446  17.001 -1.4668  1.5036  1.9971
  176MPD1    H1 2738   1.832   0.367  17.317  2.1069 -1.0007 -0.6205
  176MPD1    H2 2739   1.963   0.570  16.974  0.0463  0.4889  0.9745
  176MPD1    H3 2740   2.003   0.483  17.183 -0.9059 -0.2535  1.2999
  176MPD1     N 2741   1.580   0.332  17.240  0.5573  0.4713 -0.6225
  176MPD1    H5 2742   1.493   0.320  17.189  1.1965  0.3147 -1.6864
  176MPD1    N1 2743   1.737   0.577  16.843  0.8794 -0.6295 -1.0663
  176MPD1    H6 2744   1.650   0.543  16.802  0.5468 -1.6521  0.4974
  176MPD1    H7 2745   1.823   0.561  16.790  2.5033  0.3849  1.2757
  177MPD1     C 2746   3.494   2.852  10.211 -0.2036  0.2914 -0.3913
  177MPD1    C1 2747   3.497   2.918  10.085  0.0867  0.1974 -0.2984
  177MPD1    C2 2748   3.369   2.923  10.025 -0.5243  0.3891 -0.3880
  177MPD1    C3 2749   3.247   2.887  10.073  0.2016 -0.3900 -0.2594
  177MPD1    C4 2750   3.243   2.836  10.198 -0.1512 -0.8038 -0.5014
  177MPD1    C5 2751   3.370   2.816  10.257  0.5858  0.1815 -0.1814
  177MPD1     H 2752   3.368   2.946   9.919  2.1002 -0.0222 -0.5070
  177MPD1    H1 2753   3.151   2.798  10.241  0.1497 -1.0815 -0.1084
  177MPD1    H2 2754   3.584   2.836  10.270 -2.0464  0.5147  2.4615
  177MPD1    H3 2755   3.371   2.769  10.355  1.5150  0.8512  0.1312
  177MPD1     N 2756   3.134   2.891   9.983 -0.1822 -0.0664  0.6732
  177MPD1    H5 2757   3.135   2.956   9.906 -1.1400 -0.3345  0.4270
  177MPD1    N1 2758   3.618   2.929  10.026  0.3886 -0.5233  0.1590
  177MPD1    H6 2759   3.693   2.948  10.092  0.8172  0.0664 -0.4981
  177MPD1    H7 2760   3.619   2.993   9.946  0.5980 -0.7709 -0.0380
  178MPD1     C 2761   2.042   3.290  17.571 -0.0781  0.1623 -0.5313
  178MPD1    C1 2762   2.072   3.307  17.441  0.6411 -0.1865  0.0067
  178MPD1    C2 2763   2.120   3.426  17.402  0.8055 -0.7845  0.2988
  178MPD1    C3 2764   2.114   3.536  17.486  0.0525  0.4634  0.0395
  178MPD1    C4 2765   2.085   3.514  17.616 -0.2730 -0.0917  0.1838
  178MPD1    C5 2766   2.059   3.388  17.661  0.1534 -0.0700 -0.0976
  178MPD1     H 2767   2.151   3.421  17.298  0.5549  0.7968  0.1510
  178MPD1    H1 2768   2.090   3.586  17.697  0.3556  0.8648 -0.7018
  178MPD1    H2 2769   2.009   3.194  17.609  0.6853  0.8156  1.7515
  178MPD1    H3 2770   2.053   3.359   0.010  1.3915  1.5310  0.4098
  178MPD1     N 2771   2.137   3.670  17.440  0.1934  0.2869  0.4398
  178MPD1    H5 2772   2.123   3.748  17.504  1.2526  0.0512  0.9537
  178MPD1    N1 2773   2.070   3.199  17.353  0.2604 -0.0445 -0.4635
  178MPD1    H6 2774   1.993   3.135  17.374 -0.0663  0.4038 -0.2974
  178MPD1    H7 2775   2.032   3.234  17.265 -0.8623  0.7589  0.3488
  179MPD1     C 2776   1.441   2.840  15.677  0.4768  0.1758  0.0936
  179MPD1    C1 2777   1.383   2.766  15.582 -0.0583 -0.1818  0.5644
  179MPD1    C2 2778   1.354   2.631  15.606  0.0145 -0.3029 -0.3732
  179MPD1    C3 2779   1.399   2.575  15.723 -0.3519  0.6400 -0.8199
  179MPD1    C4 2780   1.461   2.654  15.821  0.3793 -0.0572 -0.2013
  179MPD1    C5 2781   1.490   2.784  15.792  0.3831  0.6764  0.3770
  179MPD1     H 2782   1.292   2.568  15.543  1.4554 -0.5608 -1.5326
  179MPD1    H1 2783   1.493   2.615  15.917 -0.3842 -1.5453 -0.5633
  179MPD1    H2 2784   1.454   2.945  15.654  1.3145  0.0272 -0.1070
  179MPD1    H3 2785   1.549   2.853  15.851 -2.4198  3.0653  0.4064
  179MPD1     N 2786   1.386   2.436  15.746  0.5161 -0.0658 -0.2730
  179MPD1    H5 2787   1.382   2.416  15.846 -1.1290  0.3306 -0.2523
  179MPD1    N1 2788   1.331   2.825  15.469 -0.0659  0.4237 -0.4894
  179MPD1    H6 2789   1.304   2.750  15.407 -2.7090  0.9017  0.0949
  179MPD1    H7 2790   1.391   2.899  15.432  0.1510  0.3073 -0.3721
  180MPD1     C 2791   2.424   3.855  15.232  0.1318 -0.4677  0.7652
  180MPD1    C1 2792   2.421   3.947  15.127  0.3520 -0.2555 -0.2257
  180MPD1    C2 2793   2.310   3.945  15.052  0.3272  1.2851  0.0903
  180MPD1    C3 2794   2.195   3.871  15.072  0.4615 -0.5314  0.6296
  180MPD1    C4 2795   2.203   3.781  15.178 -0.7330 -0.4868  0.2073
  180MPD1    C5 2796   2.317   3.776  15.256 -0.4624  0.3194  0.3351
  180MPD1     H 2797   2.301   4.008  14.964  2.4777  2.2972  0.6064
  180MPD1    H1 2798   2.122   3.714  15.205  1.1749 -2.6163  0.5845
  180MPD1    H2 2799   2.516   3.834  15.286 -0.9355 -0.8024  2.4381
  180MPD1    H3 2800   2.328   3.699  15.331  0.5702  1.2643  1.1472
  180MPD1     N 2801   2.090   3.884  14.982 -0.4190  0.0679  0.2658
  180MPD1    H5 2802   2.086   3.961  14.916 -1.4377 -0.8457 -0.7358
  180MPD1    N1 2803   2.536   4.016  15.090  0.6400 -0.5137 -0.5481
  180MPD1    H6 2804   2.517   4.107  15.048  2.1263 -0.1257 -0.3712
  180MPD1    H7 2805   2.602   4.016  15.168  0.8089 -0.5851 -0.6913
  181MPD1     C 2806   2.021   0.148  10.089 -0.2142 -0.1287  0.0886
  181MPD1    C1 2807   2.083   0.269  10.086 -0.0434 -0.7250  0.1977
  181MPD1    C2 2808   2.160   0.300   9.972 -0.1695  0.4849  0.0502
  181MPD1    C3 2809   2.191   0.204   9.874  0.7286 -0.1313 -0.3898
  181MPD1    C4 2810   2.125   0.084   9.878  0.3707 -0.3823  0.1139
  181MPD1    C5 2811   2.047   0.053   9.985  0.9572 -0.1435 -0.3544
  181MPD1     H 2812   2.205   0.398   9.970 -1.3060  1.0223  1.1006
  181MPD1    H1 2813   2.134   0.006   9.803  2.6728  1.3856 -1.4519
  181MPD1    H2 2814   1.932   0.131  10.149 -1.1656 -0.7518 -1.4694
  181MPD1    H3 2815   2.000   4.695   9.986  0.1134  0.2787  0.8269
  181MPD1     N 2816   2.280   0.222   9.768  0.3933  0.1508  0.2230
  181MPD1    H5 2817   2.279   0.139   9.710  2.5963  1.3825 -1.5354
  181MPD1    N1 2818   2.035   0.376  10.167 -0.4312 -0.2096 -0.0515
  181MPD1    H6 2819   2.011   0.355  10.264  2.7893 -1.3394  0.4844
  181MPD1    H7 2820   2.098   0.456  10.163  1.2103 -1.5356 -0.6673
  182MPD1     C 2821   4.291   4.472   1.771 -0.8204  0.7899  0.1868
  182MPD1    C1 2822   4.208   4.390   1.697 -0.0059  0.2693 -0.4086
  182MPD1    C2 2823   4.137   4.451   1.598  0.5698 -0.7265 -0.3065
  182MPD1    C3 2824   4.124   4.588   1.584  0.7368 -0.0741 -0.3286
  182MPD1    C4 2825   4.190   4.660   1.676 -0.3370 -0.5121 -0.0527
  182MPD1    C5 2826   4.276   4.606   1.764 -0.9467  0.0808  0.5043
  182MPD1     H 2827   4.078   4.390   1.531  1.2858 -1.0594 -0.6299
  182MPD1    H1 2828   4.190   0.029   1.670 -0.7839 -0.6030 -1.5920
  182MPD1    H2 2829   4.369   4.435   1.837 -1.1019  0.1881  0.1833
  182MPD1    H3 2830   4.337   4.673   1.824  0.0268 -0.4590  0.1033
  182MPD1     N 2831   4.031   4.659   1.500  0.7125  0.2424  0.1827
  182MPD1    H5 2832   4.033   0.021   1.499 -0.8840  0.2453 -2.5678
  182MPD1    N1 2833   4.217   4.252   1.693 -0.9831  0.2231 -0.2934
  182MPD1    H6 2834   4.145   4.201   1.642  0.0329  1.4509 -2.9445
  182MPD1    H7 2835   4.241   4.210   1.783  0.9972  0.3610 -0.7727
  183MPD1     C 2836   2.798   4.271   8.660 -0.4858 -0.4546 -0.9243
  183MPD1    C1 2837   2.713   4.375   8.694  0.1734  0.0068 -0.2125
  183MPD1    C2 2838   2.745   4.447   8.809  0.5653  0.2317  0.5832
  183MPD1    C3 2839   2.831   4.401   8.903 -0.2164  0.1631 -0.0786
  183MPD1    C4 2840   2.891   4.278   8.879 -0.9368 -0.0027  0.4429
  183MPD1    C5 2841   2.874   4.223   8.759  0.0936 -0.3631 -0.2368
  183MPD1     H 2842   2.688   4.537   8.829  2.1818  1.3176  0.4077
  183MPD1    H1 2843   2.957   4.233   8.952  2.5601  2.6976 -1.0507
  183MPD1    H2 2844   2.803   4.215   8.567  3.2471  0.1224 -1.0404
  183MPD1    H3 2845   2.941   4.141   8.735  0.2078 -0.6830  1.2270
  183MPD1     N 2846   2.854   4.483   9.012  0.0734  0.7119  0.7107
  183MPD1    H5 2847   2.820   4.578   9.014  1.5986  1.2719 -0.2569
  183MPD1    N1 2848   2.612   4.409   8.605  0.2457  0.0916  0.4814
  183MPD1    H6 2849   2.574   4.330   8.554 -0.2919  0.5522  0.1662
  183MPD1    H7 2850   2.534   4.456   8.650  0.2652  0.4796  0.1136
  184MPD1     C 2851   2.136   2.452  10.638 -0.1912 -0.3834  0.3105
  184MPD1    C1 2852   2.240   2.529  10.684 -0.0179  0.7732 -0.2243
  184MPD1    C2 2853   2.324   2.596  10.599 -0.0718 -0.4208  0.6187
  184MPD1    C3 2854   2.301   2.590  10.462  0.6963  0.0928  0.6621
  184MPD1    C4 2855   2.205   2.504  10.417 -0.2009  0.5353 -0.4277
  184MPD1    C5 2856   2.127   2.442  10.506 -0.7062 -0.3821  0.5090
  184MPD1     H 2857   2.405   2.653  10.644 -0.7304  0.4394  0.7033
  184MPD1    H1 2858   2.178   2.484  10.314 -0.0629  0.3636 -0.4306
  184MPD1    H2 2859   2.061   2.400  10.697 -0.1865 -0.4343  0.2717
  184MPD1    H3 2860   2.045   2.381  10.469 -0.0061 -0.8151 -0.3224
  184MPD1     N 2861   2.375   2.660  10.363  0.2063  0.3935 -0.3596
  184MPD1    H5 2862   2.343   2.658  10.266  0.8850  0.0604 -0.5807
  184MPD1    N1 2863   2.261   2.525  10.822  0.5140 -0.3088  1.3535
  184MPD1    H6 2864   2.178   2.510  10.879  0.7051  1.1334  2.0020
  184MPD1    H7 2865   2.317   2.593  10.872 -0.4172 -0.0978  2.1143
  185MPD1     C 2866   1.766   3.082  10.072  0.0606 -0.0805 -0.3407
  185MPD1    C1 2867   1.841   3.081   9.960 -0.5049  0.4251  0.0182
  185MPD1    C2 2868   1.974   3.049   9.973  0.0318 -0.2736 -0.3906
  185MPD1    C3 2869   2.031   3.042  10.096  0.0956  0.3365  0.0078
  185MPD1    C4 2870   1.954   3.066  10.207 -0.5597  0.1638  0.0192
  185MPD1    C5 2871   1.825   3.077  10.194  0.1618 -0.0070  0.3035
  185MPD1     H 2872   2.035   3.052   9.883 -0.1109  2.5554 -0.3969
  185MPD1    H1 2873   1.995   3.069  10.308  0.0070 -0.2415 -0.1980
  185MPD1    H2 2874   1.662   3.109  10.063  0.3616  1.1530 -0.1457
  185MPD1    H3 2875   1.765   3.086  10.284  1.5561  5.1746  0.7199
  185MPD1     N 2876   2.164   3.005  10.121 -0.0518 -0.6395 -0.1040
  185MPD1    H5 2877   2.191   3.005  10.219  1.3410 -1.5537 -0.4794
  185MPD1    N1 2878   1.779   3.088   9.833  0.0140 -0.9472  0.2372
  185MPD1    H6 2879   1.839   3.132   9.764 -2.8731  3.0670  0.2873
  185MPD1    H7 2880   1.706   3.158   9.840  0.7714 -0.2777  1.3114
  186MPD1     C 2881   1.665   2.122  16.709  0.8521  0.3408  0.2353
  186MPD1    C1 2882   1.740   2.148  16.599  0.0455  0.1928 -0.1593
  186MPD1    C2 2883   1.750   2.278  16.548  1.3658  0.1377 -0.0650
  186MPD1    C3 2884   1.674   2.381  16.612 -0.1163 -0.2494  0.5132
  186MPD1    C4 2885   1.600   2.344  16.719 -0.0246  0.0162 -0.6258
  186MPD1    C5 2886   1.597   2.222  16.766  0.5954 -0.7764  0.1625
  186MPD1     H 2887   1.809   2.291  16.459  1.5900 -1.9760 -0.2339
  186MPD1    H1 2888   1.543   2.419  16.773 -3.3286 -3.0397  0.1615
  186MPD1    H2 2889   1.654   2.027  16.760  1.1186  0.3126  0.2374
  186MPD1    H3 2890   1.554   2.183  16.857 -2.2488 -2.1402 -1.7499
  186MPD1     N 2891   1.670   2.510  16.564 -0.3260  0.5107  0.1202
  186MPD1    H5 2892   1.611   2.574  16.617  0.4008  0.5469  0.8733
  186MPD1    N1 2893   1.838   2.052  16.562 -0.0253 -0.8380  0.6449
  186MPD1    H6 2894   1.870   2.059  16.466 -0.9564 -0.2649  0.3793
  186MPD1    H7 2895   1.813   1.955  16.583  2.4193 -1.7241 -0.5088
  187MPD1     C 2896   1.584   4.476  17.124  0.1652  0.1442  0.0776
  187MPD1    C1 2897   1.618   4.609  17.133  0.5856  0.0966  0.4485
  187MPD1    C2 2898   1.509   4.701  17.129 -0.3911  0.6454 -0.0049
  187MPD1    C3 2899   1.373   4.665  17.096  0.3676  0.0655  0.4006
  187MPD1    C4 2900   1.352   4.531  17.088 -0.4461 -0.2801  0.2214
  187MPD1    C5 2901   1.452   4.439  17.109 -0.5635 -0.4223  0.1987
  187MPD1     H 2902   1.538   0.064  17.149  1.1631 -0.1969  2.0780
  187MPD1    H1 2903   1.252   4.492  17.073  0.0032 -1.2101 -0.3730
  187MPD1    H2 2904   1.651   4.393  17.143 -1.1461 -1.1453 -0.9078
  187MPD1    H3 2905   1.429   4.333  17.107 -0.2507 -0.4948  0.4667
  187MPD1     N 2906   1.262   0.015  17.094  0.4875 -0.3320 -0.6429
  187MPD1    H5 2907   1.170   4.714  17.106  0.0506  0.7684 -0.3379
  187MPD1    N1 2908   1.737   4.649  17.197 -0.5429  0.6542  0.1288
  187MPD1    H6 2909   1.809   4.579  17.182  0.0425  1.5346 -1.1551
  187MPD1    H7 2910   1.775   4.737  17.163 -0.2645 -0.1182 -1.5487
  188MPD1     C 2911   0.345   4.161  11.298 -0.3824 -0.2108  0.0691
  188MPD1    C1 2912   0.318   4.250  11.197  0.0344  0.1336  0.1639
  188MPD1    C2 2913   0.355   4.206  11.067 -0.1247 -0.9502 -0.1699
  188MPD1    C3 2914   0.416   4.079  11.056  0.1399 -1.1025  0.2436
  188MPD1    C4 2915   0.448   3.999  11.168 -0.2965  0.4735  0.0730
  188MPD1    C5 2916   0.411   4.042  11.290  0.3141 -0.5132 -0.3364
  188MPD1     H 2917   0.323   4.269  10.984 -0.2257  0.9497  1.3141
  188MPD1    H1 2918   0.517   3.915  11.162 -1.8440 -0.8240  0.5280
  188MPD1    H2 2919   0.324   4.191  11.400  0.0253  1.6653 -0.3946
  188MPD1    H3 2920   0.440   3.990  11.380 -0.0270 -0.6146 -0.2855
  188MPD1     N 2921   0.455   4.034  10.926 -0.4635  0.0822  0.0024
  188MPD1    H5 2922   0.510   3.949  10.923  0.7038  0.7447  2.3590
  188MPD1    N1 2923   0.244   4.366  11.216  0.4611  0.1036  0.2246
  188MPD1    H6 2924   0.280   4.438  11.154 -0.0954  1.7047  1.7476
  188MPD1    H7 2925   0.250   4.403  11.311 -1.1268  0.9513 -0.0087
  189MPD1     C 2926   2.894   1.134   0.722  0.1983  0.2095 -0.2670
  189MPD1    C1 2927   2.787   1.050   0.695  0.0019  0.6722  0.3516
  189MPD1    C2 2928   2.672   1.106   0.641 -0.9782  0.1346 -0.1286
  189MPD1    C3 2929   2.682   1.242   0.588  0.0735 -0.7323 -0.0888
  189MPD1    C4 2930   2.796   1.315   0.604  0.2758  0.5704  0.4740
  189MPD1    C5 2931   2.898   1.255   0.666 -0.6390  0.3355 -0.0642
  189MPD1     H 2932   2.584   1.042   0.643 -1.0132  0.2073  0.7253
  189MPD1    H1 2933   2.814   1.418   0.575 -0.7127  0.0807 -1.9261
  189MPD1    H2 2934   2.988   1.096   0.759 -1.3103 -3.4564 -0.1891
  189MPD1    H3 2935   2.995   1.305   0.663 -0.1657 -0.6771 -1.6230
  189MPD1     N 2936   2.570   1.295   0.512  0.3276 -0.6702 -0.5237
  189MPD1    H5 2937   2.513   1.220   0.476 -0.3196 -0.6527  0.4789
  189MPD1    N1 2938   2.787   0.923   0.764  0.2778  0.4762 -0.1772
  189MPD1    H6 2939   2.712   0.863   0.731  1.0964 -0.2802 -0.6596
  189MPD1    H7 2940   2.880   0.883   0.758 -0.5575 -1.7101  1.5289
  190MPD1     C 2941   1.262   3.463  15.165  0.2034 -0.6456  0.1123
  190MPD1    C1 2942   1.374   3.388  15.144  0.1864 -0.5708  0.7760
  190MPD1    C2 2943   1.487   3.402  15.236  0.1483  0.3813 -0.0071
  190MPD1    C3 2944   1.476   3.493  15.338  0.7046  0.2053  0.9733
  190MPD1    C4 2945   1.360   3.560  15.360 -0.5049  0.6027 -0.3219
  190MPD1    C5 2946   1.254   3.543  15.282 -0.6899 -0.1769  0.0490
  190MPD1     H 2947   1.581   3.356  15.208 -0.7246 -0.3695 -1.7489
  190MPD1    H1 2948   1.343   3.637  15.435 -1.2303 -0.3113  0.4561
  190MPD1    H2 2949   1.176   3.447  15.100  0.6453 -0.8924 -0.4123
  190MPD1    H3 2950   1.165   3.603  15.297  0.1265  0.8400  0.8070
  190MPD1     N 2951   1.587   3.510  15.425 -0.4269 -0.8297 -0.7091
  190MPD1    H5 2952   1.674   3.467  15.397 -0.1439 -0.8855  0.2454
  190MPD1    N1 2953   1.396   3.326  15.020  0.1918  0.3702  0.8955
  190MPD1    H6 2954   1.305   3.304  14.980  1.0771 -2.4527  0.4606
  190MPD1    H7 2955   1.449   3.240  15.033  1.8129  1.3263  0.6752
  191MPD1     C 2956   0.239   0.301  13.320  0.6877 -0.0837 -0.7289
  191MPD1    C1 2957   0.149   0.402  13.340  0.0542 -0.3116 -0.6292
  191MPD1    C2 2958   0.163   0.518  13.272 -0.1671  0.1016  0.1626
  191MPD1    C3 2959   0.242   0.527  13.160 -0.3148  0.0585 -0.0235
  191MPD1    C4 2960   0.326   0.415  13.137 -0.3006 -0.5594 -0.3920
  191MPD1    C5 2961   0.331   0.307  13.218  0.5264  0.7251 -0.3351
  191MPD1     H 2962   0.088   0.596  13.281  1.0225  0.9231  3.0495
  191MPD1    H1 2963   0.389   0.414  13.049 -0.4406 -0.0078 -0.5011
  191MPD1    H2 2964   0.238   0.218  13.390  1.6641 -0.0620 -0.6870
  191MPD1    H3 2965   0.403   0.229  13.196 -1.6769 -1.2111 -0.6094
  191MPD1     N 2966   0.242   0.647  13.076  0.0993 -0.0656 -0.1997
  191MPD1    H5 2967   0.179   0.714  13.119  1.0458  0.3983  0.4525
  191MPD1    N1 2968   0.060   0.395  13.455 -0.4619  0.5150 -0.3166
  191MPD1    H6 2969   0.009   0.308  13.442 -0.0515  0.3463 -0.8023
  191MPD1    H7 2970   4.716   0.453  13.456 -0.7498  0.1277 -1.5533
  192MPD1     C 2971   4.453   1.434  12.925 -0.2173 -0.0788  0.6514
  192MPD1    C1 2972   4.417   1.310  12.864 -0.3254 -0.9720 -0.0805
  192MPD1    C2 2973   4.520   1.217  12.857 -0.7803 -0.1882  0.7986
  192MPD1    C3 2974   4.650   1.254  12.863 -0.0163 -0.2102  0.7992
  192MPD1    C4 2975   4.680   1.380  12.907  0.3254  0.1159  0.0915
  192MPD1    C5 2976   4.582   1.469  12.941 -0.0737  0.0240  0.4230
  192MPD1     H 2977   4.499   1.124  12.804  1.0432  1.4146 -2.7518
  192MPD1    H1 2978   0.044   1.414  12.908  1.0674 -2.1593  0.0346
  192MPD1    H2 2979   4.387   1.515  12.953 -0.5079 -0.3039  0.6229
  192MPD1    H3 2980   4.602   1.571  12.972  1.6097  0.1405 -1.0544
  192MPD1     N 2981   0.020   1.168  12.845  0.4425 -0.3530 -0.2331
  192MPD1    H5 2982   0.109   1.218  12.842  0.9103 -1.2378 -1.0100
  192MPD1    N1 2983   4.288   1.260  12.837 -0.0634 -0.2423  0.0725
  192MPD1    H6 2984   4.219   1.332  12.817 -0.9453 -1.2822 -0.6328
  192MPD1    H7 2985   4.287   1.194  12.759  0.1814 -0.3649  0.1741
  193MPD1     C 2986   0.156   1.249  16.014  0.0700  0.1841  0.2517
  193MPD1    C1 2987   0.146   1.380  16.077 -0.9388  0.2452  0.5864
  193MPD1    C2 2988   0.233   1.401  16.180 -0.0193  0.0839  0.0909
  193MPD1    C3 2989   0.319   1.303  16.228 -0.2020 -0.3015 -0.1896
  193MPD1    C4 2990   0.329   1.185  16.161  0.5086 -0.6670 -0.1346
  193MPD1    C5 2991   0.254   1.155  16.047  0.2286  0.3419 -0.2775
  193MPD1     H 2992   0.238   1.494  16.235 -1.6123  0.3330 -0.1949
  193MPD1    H1 2993   0.402   1.111  16.193  2.2908  1.6148  1.1469
  193MPD1    H2 2994   0.091   1.217  15.933  0.6422  0.0061 -0.1315
  193MPD1    H3 2995   0.261   1.062  15.992 -0.1899  0.6086 -0.7782
  193MPD1     N 2996   0.416   1.329  16.328 -0.0448  0.1194  0.6261
  193MPD1    H5 2997   0.495   1.267  16.319  0.0174  0.1483  0.9751
  193MPD1    N1 2998   0.089   1.492  16.009  0.0272 -0.5321 -0.1767
  193MPD1    H6 2999   0.048   1.564  16.069  1.1415  2.4015 -2.9650
  193MPD1    H7 3000   0.024   1.465  15.935  0.0695 -0.7844 -0.1195
  194MPD1     C 3001   2.838   3.532  16.857  0.7084 -0.2671  0.8147
  194MPD1    C1 3002   2.892   3.536  16.984 -0.1852  0.2636  0.5183
  194MPD1    C2 3003   2.983   3.445  17.029 -0.7056  0.1673  0.8883
  194MPD1    C3 3004   3.023   3.338  16.948 -0.1844 -0.2941 -0.1610
  194MPD1    C4 3005   2.962   3.327  16.824 -0.4212 -0.4315 -0.4808
  194MPD1    C5 3006   2.871   3.422  16.786 -0.3485  0.5889 -0.2488
  194MPD1     H 3007   3.029   3.459  17.126  0.5976  2.8412 -0.1299
  194MPD1    H1 3008   2.988   3.249  16.754 -0.2829  0.1919 -1.1195
  194MPD1    H2 3009   2.778   3.609  16.809  0.8454 -0.6021  0.1022
  194MPD1    H3 3010   2.842   3.418  16.682  1.0530  1.0732 -0.6591
  194MPD1     N 3011   3.133   3.249  16.966 -0.0167 -0.3389 -0.0426
  194MPD1    H5 3012   3.142   3.163  16.914  0.7857  0.1198 -0.6518
  194MPD1    N1 3013   2.880   3.665  17.055 -0.2244 -0.8460 -0.2839
  194MPD1    H6 3014   2.904   3.653  17.153 -2.4359 -1.0746  0.2205
  194MPD1    H7 3015   2.797   3.722  17.041  1.0569  0.4410 -2.6376
  195MPD1     C 3016   0.850   0.086   0.913  0.0475 -0.4785  0.7517
  195MPD1    C1 3017   0.887   0.012   0.799  0.0634 -0.2504 -0.1457
  195MPD1    C2 3018   0.807   0.014   0.690 -0.7529  0.4809  0.0773
  195MPD1    C3 3019   0.691   0.094   0.692 -0.2526 -0.6718 -0.0525
  195MPD1    C4 3020   0.653   0.154   0.810  0.8268 -0.4822 -0.0658
  195MPD1    C5 3021   0.732   0.153   0.921 -0.2559  0.0923 -0.4143
  195MPD1     H 3022   0.848   4.700   0.604 -0.8755  1.5187 -0.6314
  195MPD1    H1 3023   0.562   0.212   0.822  1.1138 -0.3414  1.4690
  195MPD1    H2 3024   0.920   0.080   0.996  2.2361  0.8789 -0.9779
  195MPD1    H3 3025   0.714   0.216   1.007 -0.4594 -0.3761 -0.1093
  195MPD1     N 3026   0.607   0.114   0.584  0.5336 -0.3088  0.1410
  195MPD1    H5 3027   0.528   0.178   0.591 -0.5446 -1.7007  0.6659
  195MPD1    N1 3028   1.006   4.683   0.792 -0.1021  0.0792  0.4913
  195MPD1    H6 3029   0.996   4.607   0.724  0.2915 -0.1864  0.7280
  195MPD1    H7 3030   1.031   4.627   0.873  0.0933  0.4635  0.6974
  196MPD1     C 3031   3.888   4.614   0.858 -1.0048  0.1901  0.5925
  196MPD1    C1 3032   3.931   4.559   0.974 -0.1129  0.7935 -0.1090
  196MPD1    C2 3033   4.038   4.607   1.046  1.1955 -0.1127  0.3415
  196MPD1    C3 3034   4.112   4.721   0.999  0.2596  0.7479  1.0411
  196MPD1    C4 3035   4.044   0.055   0.902  0.2174  0.2494 -0.0211
  196MPD1    C5 3036   3.938   4.732   0.826  0.3917 -0.5982 -0.0130
  196MPD1     H 3037   4.068   4.547   1.132  0.7095 -0.9203 -0.0555
  196MPD1    H1 3038   4.076   0.155   0.872 -0.1726 -0.0189 -1.3026
  196MPD1    H2 3039   3.815   4.562   0.797  0.8076 -4.8166  2.7195
  196MPD1    H3 3040   3.905   0.043   0.735 -0.3246  0.8296  1.0389
  196MPD1     N 3041   4.228   0.026   1.065  0.0035  0.2707 -0.3648
  196MPD1    H5 3042   4.266   0.116   1.036 -0.4200  1.4542  2.7510
  196MPD1    N1 3043   3.871   4.437   1.010  0.1476  0.6185 -0.4599
  196MPD1    H6 3044   3.782   4.425   0.963 -0.6258 -1.6010  1.5561
  196MPD1    H7 3045   3.867   4.414   1.109 -0.2871 -0.1068 -0.6435
  197MPD1     C 3046   3.969   1.426  17.713 -0.0944  0.1038  0.0350
  197MPD1    C1 3047   4.064   1.520  17.746 -0.2660  0.2423 -0.4590
  197MPD1    C2 3048   4.118   1.599  17.639 -0.8859 -0.2377 -0.3434
  197MPD1    C3 3049   4.072   1.582  17.506  0.2545  0.5309 -0.9094
  197MPD1    C4 3050   3.996   1.476  17.480 -0.1590  0.9179  0.7795
  197MPD1    C5 3051   3.949   1.395  17.579  0.2990  0.2936 -0.7640
  197MPD1     H 3052   4.187   1.681  17.654 -0.1648 -0.6877 -1.2279
  197MPD1    H1 3053   3.970   1.460  17.376 -2.2750  0.9498  1.2999
  197MPD1    H2 3054   3.929   1.356   0.031 -0.1536 -1.0346 -1.0885
  197MPD1    H3 3055   3.897   1.306  17.546  0.2953 -0.2163  0.6235
  197MPD1     N 3056   4.112   1.663  17.394 -0.2611  0.5959  0.2287
  197MPD1    H5 3057   4.075   1.639  17.303  1.6049  2.3894 -1.0080
  197MPD1    N1 3058   4.084   1.552   0.124 -0.2927 -0.1563 -0.3400
  197MPD1    H6 3059   4.176   1.595   0.136  0.5033 -2.4528  1.7300
  197MPD1    H7 3060   4.066   1.474   0.186  1.9227 -0.2443  0.1897
  198MPD1     C 3061   0.471   0.164  15.656 -0.3285  0.5872  0.1875
  198MPD1    C1 3062   0.531   0.197  15.770  0.7660 -0.3350 -0.0003
  198MPD1    C2 3063   0.667   0.203  15.765  0.0379 -0.1040 -0.1008
  198MPD1    C3 3064   0.742   0.149  15.658  0.0031  0.3566 -0.5674
  198MPD1    C4 3065   0.679   0.106  15.542  0.2061  0.6769  0.2097
  198MPD1    C5 3066   0.541   0.116  15.542  0.7149 -0.4500  0.7488
  198MPD1     H 3067   0.717   0.245  15.852 -0.8916 -0.3901  0.5609
  198MPD1    H1 3068   0.733   0.077  15.453  0.9530  0.4250  0.7387
  198MPD1    H2 3069   0.364   0.149  15.656  0.0515 -2.0868  0.6263
  198MPD1    H3 3070   0.494   0.085  15.450 -3.0424  2.6166  1.6405
  198MPD1     N 3071   0.874   0.127  15.680 -0.2790 -0.5646  0.8018
  198MPD1    H5 3072   0.908   0.123  15.776  1.9382  0.2047  0.0488
  198MPD1    N1 3073   0.460   0.229  15.885 -0.0757 -0.1965  0.3019
  198MPD1    H6 3074   0.365   0.192  15.885  0.2464 -1.0317 -0.2743
  198MPD1    H7 3075   0.509   0.205  15.971  0.6893 -1.2754 -0.4394
  199MPD1     C 3076   3.083   0.810  10.068  0.6508  0.7162  0.8547
  199MPD1    C1 3077   3.047   0.945  10.087  0.2209  0.4164 -0.6836
  199MPD1    C2 3078   2.937   0.993  10.024 -0.4062  0.6964 -0.0692
  199MPD1    C3 3079   2.845   0.906   9.959  0.0698  0.1106 -0.2000
  199MPD1    C4 3080   2.872   0.772   9.956  0.3418 -0.5464 -0.2797
  199MPD1    C5 3081   2.990   0.730  10.008  0.8213 -0.2845  0.5740
  199MPD1     H 3082   2.907   1.097  10.034  0.0610  0.8865 -0.6433
  199MPD1    H1 3083   2.804   0.700   9.913  1.1628 -2.0503  0.9365
  199MPD1    H2 3084   3.170   0.768  10.117 -0.5886 -0.8146  1.7339
  199MPD1    H3 3085   3.015   0.625   9.998 -0.0951 -0.6816  2.3644
  199MPD1     N 3086   2.721   0.934   9.899  0.6167 -0.5274  0.2999
  199MPD1    H5 3087   2.670   0.853   9.865  1.7313 -0.9709 -0.3178
  199MPD1    N1 3088   3.148   1.030  10.133 -1.0006 -0.1684 -0.2230
  199MPD1    H6 3089   3.111   1.122  10.160  3.9793  1.2332  1.7411
  199MPD1    H7 3090   3.197   1.002  10.218  0.0839 -1.0155 -1.1376
  200MPD1     C 3091   2.395   0.990  15.946 -0.1338  0.2343  0.1518
  200MPD1    C1 3092   2.279   0.948  15.881  0.5773  0.3979  0.1333
  200MPD1    C2 3093   2.263   0.968  15.745 -0.1312 -0.0615 -0.3209
  200MPD1    C3 3094   2.369   1.025  15.673 -0.5030  0.6432  0.0672
  200MPD1    C4 3095   2.491   1.043  15.738  0.4479 -0.1841 -0.3897
  200MPD1    C5 3096   2.498   1.043  15.877 -0.1742  0.2163  0.7176
  200MPD1     H 3097   2.170   0.951  15.690 -0.9210 -0.0818  1.0245
  200MPD1    H1 3098   2.581   1.076  15.688  2.0230  0.8881  3.1321
  200MPD1    H2 3099   2.407   0.988  16.054  1.3842  0.2607 -0.0226
  200MPD1    H3 3100   2.588   1.071  15.929 -0.1738 -0.6519  1.1823
  200MPD1     N 3101   2.347   1.065  15.541  0.1946  0.0017 -0.5067
  200MPD1    H5 3102   2.258   1.032  15.506 -0.5547 -0.3630  1.7373
  200MPD1    N1 3103   2.171   0.905  15.959 -0.1719 -0.0345  0.0191
  200MPD1    H6 3104   2.203   0.865  16.046 -0.4272 -2.0607 -0.8339
  200MPD1    H7 3105   2.107   0.846  15.907  0.6603 -1.0492  0.1494
  201MPD1     C 3106   3.969   0.490  13.713  0.0862 -0.3439  0.7524
  201MPD1    C1 3107   4.107   0.489  13.742 -0.2808  0.7384 -0.3080
  201MPD1    C2 3108   4.176   0.367  13.723 -0.1013 -0.4965 -0.6002
  201MPD1    C3 3109   4.127   0.273  13.635 -0.4653  0.4205 -0.4367
  201MPD1    C4 3110   3.997   0.288  13.593  0.1338  0.0899  0.2943
  201MPD1    C5 3111   3.917   0.393  13.630 -0.5743 -0.1485  0.3241
  201MPD1     H 3112   4.277   0.361  13.761  0.3919 -0.6514 -1.9177
  201MPD1    H1 3113   3.952   0.216  13.526  1.2924  0.9589 -1.4237
  201MPD1    H2 3114   3.907   0.576  13.735  0.5202 -0.4075  2.2346
  201MPD1    H3 3115   3.818   0.401  13.587  0.3784  0.8584 -1.7040
  201MPD1     N 3116   4.204   0.152  13.611 -0.2003  0.5309  0.1991
  201MPD1    H5 3117   4.303   0.152  13.632 -0.6257  4.1877  2.0447
  201MPD1    N1 3118   4.169   0.590  13.819 -0.7186 -0.1023  0.5641
  201MPD1    H6 3119   4.114   0.675  13.829  1.0727  1.4275 -2.5688
  201MPD1    H7 3120   4.269   0.607  13.809 -0.6349 -2.0747 -2.0646
  202MPD1     C 3121   2.941   3.628   9.757 -0.1630  0.1584  0.0177
  202MPD1    C1 3122   3.047   3.543   9.754  0.2316  0.3971  0.1382
  202MPD1    C2 3123   3.176   3.591   9.762  0.3682 -0.1642  0.2976
  202MPD1    C3 3124   3.197   3.727   9.756  0.4071 -0.0828  0.3836
  202MPD1    C4 3125   3.091   3.816   9.750  0.2665  0.5457  0.4361
  202MPD1    C5 3126   2.963   3.768   9.753  0.1706  0.3500  0.4167
  202MPD1     H 3127   3.250   3.515   9.784  0.9870  1.5163  3.9940
  202MPD1    H1 3128   3.112   3.918   9.778 -0.6550  0.3545  1.8322
  202MPD1    H2 3129   2.841   3.587   9.753 -0.6026  1.0377  2.2000
  202MPD1    H3 3130   2.882   3.839   9.760 -1.1347 -1.1122 -0.0269
  202MPD1     N 3131   3.313   3.796   9.773 -0.3615 -0.6529 -0.1570
  202MPD1    H5 3132   3.301   3.892   9.742 -0.9594  0.1629  2.5392
  202MPD1    N1 3133   3.024   3.408   9.791 -0.6461  0.5822 -0.5891
  202MPD1    H6 3134   3.087   3.344   9.742 -0.4785  0.1012  0.2482
  202MPD1    H7 3135   2.928   3.376   9.774  0.4117 -1.9489 -1.8933
  203MPD1     C 3136   2.673   0.526  12.248 -0.7559 -0.0776  0.3487
  203MPD1    C1 3137   2.747   0.435  12.176 -0.1386 -0.2725 -0.5974
  203MPD1    C2 3138   2.852   0.370  12.240 -0.0440 -0.1659 -0.4675
  203MPD1    C3 3139   2.873   0.393  12.376  0.4037  0.1999  0.4970
  203MPD1    C4 3140   2.793   0.479  12.449 -0.4789  0.1156  0.0060
  203MPD1    C5 3141   2.691   0.544  12.385  0.2720 -0.2929 -0.6265
  203MPD1     H 3142   2.911   0.291  12.196 -0.1819 -0.0529 -0.8542
  203MPD1    H1 3143   2.803   0.502  12.555  0.4329  1.2850 -0.3350
  203MPD1    H2 3144   2.597   0.590  12.204 -0.0080  2.0590  2.1442
  203MPD1    H3 3145   2.637   0.620  12.441  1.0209 -0.0461 -0.2387
  203MPD1     N 3146   2.971   0.320  12.449  0.5365  0.3326  0.3159
  203MPD1    H5 3147   3.030   0.259  12.394 -0.4277  0.0360 -0.4067
  203MPD1    N1 3148   2.735   0.427  12.037 -0.1819 -0.2775 -0.0048
  203MPD1    H6 3149   2.756   0.338  11.991 -2.0321 -1.1916  0.9496
  203MPD1    H7 3150   2.646   0.460  12.002  0.3818  2.1097  0.8296
  204MPD1     C 3151   3.184   2.594  17.558 -0.1179  0.1575 -0.9086
  204MPD1    C1 3152   3.250   2.552  17.446 -0.6073 -0.3972 -0.8795
  204MPD1    C2 3153   3.249   2.420  17.398  0.0201  0.6348 -0.4329
  204MPD1    C3 3154   3.178   2.326  17.475 -0.4613 -0.0962  0.1255
  204MPD1    C4 3155   3.106   2.370  17.584 -0.4182  0.3768 -0.5275
  204MPD1    C5 3156   3.114   2.500  17.627 -0.2571  0.0585 -0.2268
  204MPD1     H 3157   3.294   2.396  17.302  2.5030  3.4136  0.0484
  204MPD1    H1 3158   3.045   2.303  17.645 -0.1037  0.5741 -0.0027
  204MPD1    H2 3159   3.195   2.694  17.598 -1.2876  0.3668 -1.1221
  204MPD1    H3 3160   3.067   2.516  17.724  0.1794 -1.7610  0.2850
  204MPD1     N 3161   3.171   2.191  17.430 -0.2735  0.6712  0.7586
  204MPD1    H5 3162   3.237   2.171  17.355  2.0096  0.2521  2.8776
  204MPD1    N1 3163   3.332   2.647  17.383  0.5514  0.8201 -0.3480
  204MPD1    H6 3164   3.294   2.740  17.395  0.7404  1.1630 -2.4970
  204MPD1    H7 3165   3.342   2.637  17.282 -2.3458 -2.1557 -0.3567
  205MPD1     C 3166   1.951   0.932  17.270  0.3950  0.0401 -0.1335
  205MPD1    C1 3167   2.032   1.034  17.224  0.5255 -0.1860  0.5291
  205MPD1    C2 3168   2.167   1.029  17.260 -0.6794 -0.3756 -0.2452
  205MPD1    C3 3169   2.211   0.919  17.339  1.2824  0.4810  0.6640
  205MPD1    C4 3170   2.132   0.820  17.383  0.4248  0.3199 -0.5627
  205MPD1    C5 3171   2.002   0.831  17.343  0.9333  0.3746 -0.2075
  205MPD1     H 3172   2.234   1.101  17.213  1.4658 -1.4156  1.1802
  205MPD1    H1 3173   2.180   0.745  17.445  0.5275 -0.2161 -1.2825
  205MPD1    H2 3174   1.846   0.931  17.246  0.1916  1.2862  0.7080
  205MPD1    H3 3175   1.927   0.756  17.366  0.3072  1.3917  1.0954
  205MPD1     N 3176   2.346   0.907  17.386  0.3230  0.0651 -0.1546
  205MPD1    H5 3177   2.368   0.820  17.432  1.1112 -0.7260 -2.0379
  205MPD1    N1 3178   1.986   1.135  17.137  0.2434 -0.5764  0.2770
  205MPD1    H6 3179   2.059   1.203  17.114 -0.3854  0.0855  0.2408
  205MPD1    H7 3180   1.916   1.189  17.188 -2.1044 -2.1477 -1.3360
  206MPD1     C 3181   3.698   3.293  17.154  0.1799 -0.0170 -0.6135
  206MPD1    C1 3182   3.701   3.187  17.064 -0.0092 -0.3659  0.4016
  206MPD1    C2 3183   3.626   3.189  16.942  0.5058  0.5162 -0.0881
  206MPD1    C3 3184   3.542   3.295  16.912 -0.1871  0.1208 -0.5430
  206MPD1    C4 3185   3.529   3.393  17.009 -0.4316  0.9292 -0.1618
  206MPD1    C5 3186   3.604   3.387  17.122 -0.3341  0.3744  0.3408
  206MPD1     H 3187   3.643   3.106  16.874 -0.1690 -0.1189  0.5269
  206MPD1    H1 3188   3.454   3.470  16.997 -1.4725 -0.0280  0.1949
  206MPD1    H2 3189   3.745   3.288  17.252 -1.4078 -1.4035  0.0717
  206MPD1    H3 3190   3.571   3.463  17.192 -1.3915 -0.3397  0.6055
  206MPD1     N 3191   3.466   3.303  16.792  0.6497  0.3102 -0.7704
  206MPD1    H5 3192   3.391   3.371  16.798  0.1287 -0.1469 -2.0297
  206MPD1    N1 3193   3.802   3.087  17.072  0.8449 -0.6258 -0.2167
  206MPD1    H6 3194   3.817   3.050  17.165  0.0240  0.9289  0.5369
  206MPD1    H7 3195   3.785   3.009  17.009  0.1596  0.5320 -1.4956
  207MPD1     C 3196   1.070   0.887   9.787  0.0730  1.0628 -0.2975
  207MPD1    C1 3197   0.974   0.805   9.845  0.3208  0.1151 -0.2864
  207MPD1    C2 3198   0.962   0.788   9.983 -0.7808  0.2408 -0.6664
  207MPD1    C3 3199   1.043   0.862  10.065 -0.2546  0.3082 -0.4516
  207MPD1    C4 3200   1.146   0.936  10.005 -0.2999  0.2392  1.1583
  207MPD1    C5 3201   1.153   0.957   9.868  0.0751 -0.2655  0.3215
  207MPD1     H 3202   0.879   0.737  10.030 -0.0658  1.1764  1.6101
  207MPD1    H1 3203   1.213   0.995  10.066  4.0853 -1.7297 -1.7303
  207MPD1    H2 3204   1.079   0.905   9.680  0.4941 -1.8330 -0.7608
  207MPD1    H3 3205   1.223   1.023   9.818  0.1645  1.0753  2.2678
  207MPD1     N 3206   1.041   0.869  10.206 -0.3190  0.0967  0.4309
  207MPD1    H5 3207   1.117   0.917  10.253 -0.9245 -0.2118  1.7060
  207MPD1    N1 3208   0.876   0.746   9.765 -0.0048  0.2313 -0.6876
  207MPD1    H6 3209   0.815   0.675   9.806 -0.1971  0.8731  0.1327
  207MPD1    H7 3210   0.917   0.716   9.677  0.6214  3.4168 -1.5001
  208MPD1     C 3211   3.594   1.056   0.885  0.1956 -0.8171  0.4488
  208MPD1    C1 3212   3.657   0.945   0.931 -0.7776 -0.8187 -0.0608
  208MPD1    C2 3213   3.609   0.829   0.873  0.0518 -0.3675  0.5089
  208MPD1    C3 3214   3.515   0.823   0.774  0.6578 -0.4340  0.0670
  208MPD1    C4 3215   3.462   0.936   0.717  0.0869  0.0830  0.0003
  208MPD1    C5 3216   3.501   1.051   0.780 -0.2432 -1.2804  0.8770
  208MPD1     H 3217   3.637   0.737   0.923 -0.4253  0.2434  1.9210
  208MPD1    H1 3218   3.378   0.937   0.649 -1.7425 -0.8912  2.2716
  208MPD1    H2 3219   3.623   1.156   0.916 -1.2047 -0.7945  1.6850
  208MPD1    H3 3220   3.463   1.148   0.751 -0.0483 -1.5073 -0.1198
  208MPD1     N 3221   3.458   0.698   0.740 -0.4905 -0.0409 -0.5703
  208MPD1    H5 3222   3.471   0.632   0.816  0.1952  1.7401  0.8677
  208MPD1    N1 3223   3.741   0.950   1.042 -0.4451  0.0221 -0.4260
  208MPD1    H6 3224   3.803   1.030   1.030 -0.8634  0.2419 -1.1160
  208MPD1    H7 3225   3.784   0.861   1.066 -1.6661 -1.1430 -2.5925
  209MPD1     C 3226   0.443   4.544  11.665  0.2312  0.3409 -0.2476
  209MPD1    C1 3227   0.437   4.676  11.617 -0.2588 -0.2107  0.1334
  209MPD1    C2 3228   0.490   4.707  11.487  0.0512 -0.7130  0.0823
  209MPD1    C3 3229   0.525   4.609  11.394 -0.2550 -0.0573  0.4796
  209MPD1    C4 3230   0.513   4.481  11.440 -0.1853  0.1733  0.5412
  209MPD1    C5 3231   0.471   4.450  11.570 -0.4793 -0.0301  0.6753
  209MPD1     H 3232   0.486   0.069  11.448 -0.6056 -0.5151  0.6489
  209MPD1    H1 3233   0.537   4.397  11.376 -1.1293 -0.2165  0.7016
  209MPD1    H2 3234   0.432   4.510  11.767  0.5965 -0.0931 -0.3550
  209MPD1    H3 3235   0.467   4.349  11.610  1.1830 -0.9838 -1.5665
  209MPD1     N 3236   0.574   4.643  11.268 -0.0109  0.3998  0.4991
  209MPD1    H5 3237   0.564   0.002  11.243 -0.5416  0.6722  1.7411
  209MPD1    N1 3238   0.427   0.033  11.716 -0.5630  0.0252 -0.8338
  209MPD1    H6 3239   0.348   0.024  11.779 -1.0819  1.0541 -1.3345
  209MPD1    H7 3240   0.433   0.130  11.685 -3.4532  1.1024  1.9658
  210MPD1     C 3241   0.809   4.110  10.419  0.1730 -0.6600 -0.4232
  210MPD1    C1 3242   0.744   4.219  10.372  0.3311  0.0622  0.4380
  210MPD1    C2 3243   0.701   4.312  10.470 -0.0755  0.3392  0.6499
  210MPD1    C3 3244   0.732   4.295  10.602 -0.1729 -0.5001  0.1302
  210MPD1    C4 3245   0.799   4.184  10.646  0.3740  0.8334  0.9404
  210MPD1    C5 3246   0.826   4.092  10.553 -0.1835 -0.2037 -0.2619
  210MPD1     H 3247   0.642   4.397  10.438 -1.5581 -0.5425  1.0316
  210MPD1    H1 3248   0.812   4.176  10.754 -0.7379  0.1532  1.0208
  210MPD1    H2 3249   0.854   4.032  10.359 -1.0819 -0.7928 -1.1857
  210MPD1    H3 3250   0.874   4.002  10.590 -3.3305 -1.6665  0.2598
  210MPD1     N 3251   0.702   4.388  10.707 -0.9187 -0.0424  0.4449
  210MPD1    H5 3252   0.733   4.360  10.800  0.8559  0.3830 -0.0188
  210MPD1    N1 3253   0.701   4.222  10.241  0.1458 -0.6629 -0.3172
  210MPD1    H6 3254   0.771   4.182  10.178  0.8604  0.1915 -0.0627
  210MPD1    H7 3255   0.666   4.311  10.207 -0.3318 -0.5185  0.5556
  211MPD1     C 3256   3.364   4.660  15.809 -0.2526 -1.0264  0.0271
  211MPD1    C1 3257   3.234   4.664  15.849 -0.2191 -0.1840  0.1264
  211MPD1    C2 3258   3.183   0.052  15.876  0.7843  0.1729  0.5010
  211MPD1    C3 3259   3.260   0.170  15.857  0.6681 -0.3377 -0.3494
  211MPD1    C4 3260   3.392   0.159  15.808 -0.6557  0.0497 -0.0656
  211MPD1    C5 3261   3.443   0.036  15.795 -0.3381 -0.0459 -0.3312
  211MPD1     H 3262   3.080   0.052  15.910  1.3964  1.0874  2.3810
  211MPD1    H1 3263   3.459   0.241  15.786 -0.8215 -0.4905 -2.4821
  211MPD1    H2 3264   3.418   4.566  15.800  0.0711 -0.9423  1.1446
  211MPD1    H3 3265   3.540   0.009  15.756 -1.2732 -1.1096 -1.9213
  211MPD1     N 3266   3.194   0.293  15.882  0.3978 -0.1830  0.1912
  211MPD1    H5 3267   3.109   0.287  15.936 -1.1998 -2.4666 -2.5668
  211MPD1    N1 3268   3.156   4.552  15.878  0.0568  0.3483 -0.4837
  211MPD1    H6 3269   3.185   4.468  15.827  0.8894  1.0044 -1.0775
  211MPD1    H7 3270   3.055   4.560  15.870  0.0673  0.9422  0.0156
  212MPD1     C 3271   2.826   3.397  16.353  0.2501 -0.2800  0.7594
  212MPD1    C1 3272   2.763   3.492  16.435  0.0597 -0.7486 -0.2139
  212MPD1    C2 3273   2.664   3.449  16.524  0.3354 -0.2957  0.0284
  212MPD1    C3 3274   2.643   3.312  16.545 -0.7032 -0.5310 -0.3417
  212MPD1    C4 3275   2.712   3.221  16.468  0.4166 -0.3356 -0.5448
  212MPD1    C5 3276   2.804   3.266  16.378 -0.0004  0.4515 -0.6567
  212MPD1     H 3277   2.606   3.526  16.572  1.2192 -0.4419  1.3209
  212MPD1    H1 3278   2.687   3.116  16.479  1.8947 -0.3638  2.5422
  212MPD1    H2 3279   2.897   3.421  16.275  1.2462 -1.8645  1.1610
  212MPD1    H3 3280   2.865   3.195  16.324 -0.3121 -2.0277  2.3146
  212MPD1     N 3281   2.546   3.255  16.632 -0.0468  0.0721 -0.6179
  212MPD1    H5 3282   2.528   3.156  16.623  2.0402 -0.2412 -1.4345
  212MPD1    N1 3283   2.777   3.632  16.402  0.2746  0.3001 -0.2149
  212MPD1    H6 3284   2.756   3.698  16.477  0.4651  0.6119 -0.4344
  212MPD1    H7 3285   2.859   3.667  16.353  1.0680  1.0358  1.6475
  213MPD1     C 3286   1.058   3.750  16.024 -0.1841  0.0100 -0.6415
  213MPD1    C1 3287   0.951   3.684  15.965 -0.1160  0.3507  0.0019
  213MPD1    C2 3288   0.862   3.757  15.888  0.2884 -0.0623 -0.5078
  213MPD1    C3 3289   0.887   3.882  15.846 -0.3414  0.0113 -0.3887
  213MPD1    C4 3290   0.999   3.945  15.896  0.2415  0.3850 -0.2659
  213MPD1    C5 3291   1.087   3.878  15.980  0.8991 -0.8446 -0.0381
  213MPD1     H 3292   0.778   3.699  15.851 -1.6271  3.1575 -1.1409
  213MPD1    H1 3293   1.018   4.048  15.869  1.3444  0.5994  1.3432
  213MPD1    H2 3294   1.127   3.707  16.096 -2.3813 -2.7573 -0.1897
  213MPD1    H3 3295   1.173   3.935  16.013 -2.3928  1.9636  3.7945
  213MPD1     N 3296   0.790   3.940  15.756 -0.3255  0.1863  0.4908
  213MPD1    H5 3297   0.717   3.880  15.719  2.2232 -1.3018 -2.0760
  213MPD1    N1 3298   0.913   3.560  16.029 -0.1299 -0.3265  0.6985
  213MPD1    H6 3299   0.989   3.507  16.068 -0.1973  0.1236  1.4372
  213MPD1    H7 3300   0.853   3.498  15.975 -0.2433  0.1038  0.3266
  214MPD1     C 3301   4.705   3.699  15.291 -0.7259  0.1875  0.2956
  214MPD1    C1 3302   0.079   3.630  15.327  0.1630 -0.7245  0.3331
  214MPD1    C2 3303   0.183   3.706  15.385  0.1738 -0.4618 -0.0180
  214MPD1    C3 3304   0.170   3.849  15.403  0.3532  0.5821 -0.2925
  214MPD1    C4 3305   0.055   3.903  15.354 -0.4577 -0.5602 -1.1257
  214MPD1    C5 3306   4.695   3.830  15.308 -0.4987  0.0425  0.0491
  214MPD1     H 3307   0.279   3.661  15.409 -0.4472 -2.2559 -0.8931
  214MPD1    H1 3308   0.041   4.010  15.364 -1.3771 -0.6609 -1.4031
  214MPD1    H2 3309   4.622   3.640  15.255  0.1017 -0.7156 -0.1393
  214MPD1    H3 3310   4.601   3.882  15.295  0.1752  0.5688 -2.8719
  214MPD1     N 3311   0.281   3.936  15.436  0.5485  0.4217  0.3360
  214MPD1    H5 3312   0.257   4.032  15.459  1.5874  0.9491 -0.8210
  214MPD1    N1 3313   0.084   3.494  15.320 -0.2499  0.1530  0.7458
  214MPD1    H6 3314   0.174   3.447  15.334 -1.5273 -2.3866  0.4550
  214MPD1    H7 3315   0.025   3.448  15.251  0.1362  3.5786 -1.8936
  215MPD1     C 3316   0.155   4.518  10.844  0.0802  0.5922 -0.3693
  215MPD1    C1 3317   0.038   4.586  10.865 -0.7878  0.3725  1.2973
  215MPD1    C2 3318   0.041   4.691  10.951 -1.2366 -0.1675 -0.2608
  215MPD1    C3 3319   0.154   4.724  11.028 -0.4104 -0.1313 -0.5672
  215MPD1    C4 3320   0.274   4.653  10.999  0.4372  0.0552  0.4638
  215MPD1    C5 3321   0.271   4.554  10.903 -0.9717 -0.5314  0.6171
  215MPD1     H 3322   4.698   0.022  10.959 -2.6719 -1.6977 -1.6006
  215MPD1    H1 3323   0.372   4.665  11.042 -0.3660 -0.1261  2.3487
  215MPD1    H2 3324   0.169   4.443  10.766 -1.6909  0.6133 -0.7089
  215MPD1    H3 3325   0.360   4.505  10.864 -1.3041 -2.3764  2.1638
  215MPD1     N 3326   0.152   0.092  11.115  0.3323 -0.1648  0.3717
  215MPD1    H5 3327   0.059   0.128  11.134  0.6487 -0.3062  2.2165
  215MPD1    N1 3328   4.673   4.578  10.768 -0.0908 -0.0423  0.2108
  215MPD1    H6 3329   4.667   4.476  10.759 -0.1539  0.2269 -3.0087
  215MPD1    H7 3330   4.582   4.602  10.807 -0.1051  1.5138 -0.7991
  216MPD1     C 3331   2.646   4.306  17.558 -0.8440  0.3808 -0.1654
  216MPD1    C1 3332   2.547   4.249  17.629  0.4435  1.2055 -0.4420
  216MPD1    C2 3333   2.518   4.115  17.614 -0.0666  0.1250  0.0779
  216MPD1    C3 3334   2.586   4.043  17.519 -0.2993  0.8742 -0.1677
  216MPD1    C4 3335   2.697   4.094  17.455  0.3239 -0.3679 -0.2003
  216MPD1    C5 3336   2.725   4.233  17.477  0.0110 -0.1766  0.4944
  216MPD1     H 3337   2.426   4.076  17.655  0.7169 -1.8933 -0.0866
  216MPD1    H1 3338   2.757   4.039  17.383  1.6758  0.9462 -0.0726
  216MPD1    H2 3339   2.668   4.412  17.570 -0.7831  0.2960  0.4596
  216MPD1    H3 3340   2.806   4.284  17.426 -0.0540 -0.2805  0.2874
  216MPD1     N 3341   2.550   3.904  17.510  0.4320  0.2540 -0.1060
  216MPD1    H5 3342   2.478   3.873  17.574  2.0726 -3.0681  0.1098
  216MPD1    N1 3343   2.481   4.321  17.732 -0.1585  0.1345  0.2977
  216MPD1    H6 3344   2.527   4.410  17.751  2.4249 -1.0832 -0.1261
  216MPD1    H7 3345   2.486   4.272   0.065  2.4783  1.3928  0.8482
  217MPD1     C 3346   1.716   3.925   8.412  0.0163 -0.5610  0.0221
  217MPD1    C1 3347   1.697   3.810   8.487 -0.1754  0.0449  0.0846
  217MPD1    C2 3348   1.768   3.798   8.607  0.0991 -0.1563 -0.2396
  217MPD1    C3 3349   1.844   3.904   8.658 -0.5020  0.6734 -0.4885
  217MPD1    C4 3350   1.870   4.016   8.572 -0.0893  0.1662  0.2205
  217MPD1    C5 3351   1.804   4.023   8.450  0.7557 -0.0053  0.1786
  217MPD1     H 3352   1.751   3.706   8.662  1.6209  0.0548  0.5793
  217MPD1    H1 3353   1.929   4.102   8.602 -0.8714  0.7328  0.1548
  217MPD1    H2 3354   1.674   3.928   8.312  0.3036  2.1650 -0.0231
  217MPD1    H3 3355   1.817   4.104   8.379  3.5638 -0.4992  0.1076
  217MPD1     N 3356   1.920   3.901   8.780 -0.1574  0.2948  0.1676
  217MPD1    H5 3357   1.976   3.978   8.816  1.8200 -1.2770  0.4995
  217MPD1    N1 3358   1.626   3.705   8.423 -0.9037  0.4532  0.1568
  217MPD1    H6 3359   1.551   3.660   8.477 -1.2240  1.5350  0.6052
  217MPD1    H7 3360   1.573   3.745   8.346  0.2155  2.7013  0.5639
  218MPD1     C 3361   4.195   0.655  13.407 -0.0233 -0.2845 -0.2022
  218MPD1    C1 3362   4.265   0.744  13.326  0.0102 -0.0715 -0.4643
  218MPD1    C2 3363   4.364   0.690  13.249 -0.0279 -0.4779  1.0797
  218MPD1    C3 3364   4.407   0.559  13.264 -1.4832 -0.1767  0.3399
  218MPD1    C4 3365   4.343   0.470  13.348 -0.5618 -0.1992  0.3183
  218MPD1    C5 3366   4.241   0.523  13.424  0.4716  0.3122 -0.4354
  218MPD1     H 3367   4.417   0.749  13.175 -0.9974 -0.8577  0.0944
  218MPD1    H1 3368   4.374   0.368  13.365  0.7229 -0.2357 -2.2580
  218MPD1    H2 3369   4.124   0.692  13.480 -1.0253 -0.7687 -0.9351
  218MPD1    H3 3370   4.187   0.464  13.498 -0.8231  1.9124 -0.1032
  218MPD1     N 3371   4.509   0.523  13.167 -0.2001 -0.1783  0.5688
  218MPD1    H5 3372   4.557   0.594  13.113 -0.5678 -1.1400 -1.0205
  218MPD1    N1 3373   4.252   0.882  13.343 -0.3588  0.5637  0.2041
  218MPD1    H6 3374   4.157   0.907  13.372  0.5945  0.4383  3.4390
  218MPD1    H7 3375   4.279   0.940  13.264 -0.6806 -0.8264 -0.9260
  219MPD1     C 3376   0.257   0.832  12.383 -0.0833  0.1343 -0.7520
  219MPD1    C1 3377   0.128   0.809  12.400  0.6196  0.2815 -0.4035
  219MPD1    C2 3378   0.086   0.735  12.508 -0.2101  0.3902  0.3652
  219MPD1    C3 3379   0.176   0.662  12.585  0.9479 -0.2869 -0.2930
  219MPD1    C4 3380   0.312   0.670  12.549 -0.4833  0.8046  0.0927
  219MPD1    C5 3381   0.354   0.763  12.456 -0.5764  0.0021  0.1546
  219MPD1     H 3382   4.719   0.718  12.516 -0.3542  2.0676  1.9986
  219MPD1    H1 3383   0.387   0.614  12.604 -0.6844  0.5484  0.1031
  219MPD1    H2 3384   0.278   0.900  12.301 -0.6276  0.7492 -0.3797
  219MPD1    H3 3385   0.458   0.777  12.429 -0.5429 -1.6189 -0.5468
  219MPD1     N 3386   0.137   0.568  12.684  0.4019 -0.2347  0.0437
  219MPD1    H5 3387   0.210   0.512  12.727 -0.8583  0.0047  2.5092
  219MPD1    N1 3388   0.029   0.870  12.320  0.2307 -0.3914  0.8762
  219MPD1    H6 3389   0.052   0.917  12.233  0.2675 -1.1166  0.4961
  219MPD1    H7 3390   4.678   0.823  12.309  0.0717  0.1449 -0.0953
  220MPD1     C 3391   4.309   0.835   9.975 -1.0263  0.1790  0.2770
  220MPD1    C1 3392   4.170   0.852  10.006  0.1631  0.9465 -0.2681
  220MPD1    C2 3393   4.124   0.787  10.118  0.2635  0.2221  0.0682
  220MPD1    C3 3394   4.207   0.735  10.209 -0.2358  0.7295 -0.0494
  220MPD1    C4 3395   4.345   0.745  10.197  0.7412  0.7611  0.4258
  220MPD1    C5 3396   4.395   0.792  10.078 -0.5385  0.3483  0.3698
  220MPD1     H 3397   4.019   0.764  10.128  0.3257  0.2385  0.7246
  220MPD1    H1 3398   4.416   0.702  10.267 -1.1407  0.8656  2.3816
  220MPD1    H2 3399   4.348   0.870   9.881  0.4505 -1.2598  0.3532
  220MPD1    H3 3400   4.502   0.795  10.066 -0.7602  0.1431 -1.6711
  220MPD1     N 3401   4.137   0.670  10.318  0.3603 -0.3215 -0.5244
  220MPD1    H5 3402   4.039   0.693  10.333  0.7623  0.3154  1.1326
  220MPD1    N1 3403   4.078   0.893   9.910 -0.4357 -0.3475 -0.4638
  220MPD1    H6 3404   4.000   0.950   9.943 -0.2832  1.5193 -3.2634
  220MPD1    H7 3405   4.119   0.950   9.836  0.8178 -1.5490 -0.6837
  221MPD1     C 3406   4.058   3.824  16.723  0.1809 -0.2649 -1.4200
  221MPD1    C1 3407   4.111   3.810  16.598 -0.1532 -0.0679 -0.2630
  221MPD1    C2 3408   4.029   3.833  16.480 -0.1619 -0.3664  0.1990
  221MPD1    C3 3409   3.900   3.868  16.494  0.5165  0.4341  0.1245
  221MPD1    C4 3410   3.848   3.887  16.620 -0.4790 -0.2228 -1.0783
  221MPD1    C5 3411   3.924   3.858  16.731 -0.3509 -0.1602 -0.6645
  221MPD1     H 3412   4.071   3.809  16.383 -0.3418 -1.3831  0.3743
  221MPD1    H1 3413   3.749   3.929  16.634  1.2384  3.3827  0.3144
  221MPD1    H2 3414   4.121   3.812  16.810  0.3571 -0.3036 -1.5537
  221MPD1    H3 3415   3.880   3.887  16.826 -0.8896 -0.4222 -0.8357
  221MPD1     N 3416   3.823   3.917  16.388  0.2331 -0.3912 -0.2783
  221MPD1    H5 3417   3.734   3.965  16.393  1.3516  1.4169  2.0669
  221MPD1    N1 3418   4.247   3.787  16.588 -0.4410 -0.2486  0.4879
  221MPD1    H6 3419   4.282   3.760  16.496  3.8222  1.3954  1.5852
  221MPD1    H7 3420   4.283   3.714  16.649 -2.1706 -0.7199  0.9246
  222MPD1     C 3421   1.225   0.580   1.474  0.0933 -0.5596  0.1845
  222MPD1    C1 3422   1.262   0.643   1.360  0.2112  0.1774  0.0508
  222MPD1    C2 3423   1.345   0.574   1.278 -0.2409  0.7432  1.0190
  222MPD1    C3 3424   1.384   0.442   1.297 -0.4517  0.2061  0.0573
  222MPD1    C4 3425   1.334   0.373   1.402 -0.3396 -0.1077 -0.3510
  222MPD1    C5 3426   1.250   0.440   1.489 -0.7907 -0.1086 -0.6866
  222MPD1     H 3427   1.381   0.621   1.188 -0.2531  0.5585  0.9179
  222MPD1    H1 3428   1.356   0.271   1.431  2.7109 -0.0571 -2.5505
  222MPD1    H2 3429   1.160   0.626   1.549  0.3042 -0.0039  0.0276
  222MPD1    H3 3430   1.210   0.394   1.578  0.2515 -2.1235 -1.2574
  222MPD1     N 3431   1.462   0.359   1.213  0.4190  0.2079 -0.2883
  222MPD1    H5 3432   1.489   0.266   1.244  0.2483  0.6419  1.1642
  222MPD1    N1 3433   1.231   0.774   1.342 -0.0831 -0.4548 -0.2385
  222MPD1    H6 3434   1.227   0.789   1.241 -1.0121 -3.1113 -0.5912
  222MPD1    H7 3435   1.140   0.791   1.384  0.3068 -1.6062  1.0552
  223MPD1     C 3436   1.891   4.247   1.187 -0.2188  0.1470 -0.7251
  223MPD1    C1 3437   1.982   4.321   1.109  0.1407  1.2351  0.0481
  223MPD1    C2 3438   1.948   4.443   1.054  0.0569 -0.1930 -0.2800
  223MPD1    C3 3439   1.824   4.498   1.081 -0.0424  0.0791  0.2665
  223MPD1    C4 3440   1.731   4.419   1.150 -0.4220 -0.0618 -0.8481
  223MPD1    C5 3441   1.767   4.295   1.205  0.7384  0.0994 -0.5136
  223MPD1     H 3442   2.018   4.496   0.991 -0.0090 -2.2825 -2.1112
  223MPD1    H1 3443   1.628   4.449   1.169 -0.9905 -0.9642 -2.4714
  223MPD1    H2 3444   1.925   4.158   1.239 -0.8959 -0.3408 -1.1157
  223MPD1    H3 3445   1.706   4.251   1.283  1.8912 -0.9245 -0.1797
  223MPD1     N 3446   1.793   4.632   1.047  0.2548  0.5534  0.3198
  223MPD1    H5 3447   1.873   4.680   1.006  1.2766 -0.1581  1.4672
  223MPD1    N1 3448   2.107   4.262   1.093  0.4516 -0.3016  0.2705
  223MPD1    H6 3449   2.124   4.209   1.178  1.0110  1.1158  1.0507
  223MPD1    H7 3450   2.183   4.329   1.077  1.5829 -1.7220 -0.2644
  224MPD1     C 3451   2.170   4.401   8.533  0.0859  0.0912  0.2202
  224MPD1    C1 3452   2.208   4.269   8.534 -0.5717 -0.5489 -0.6433
  224MPD1    C2 3453   2.282   4.228   8.644 -0.7635  0.1907 -0.4855
  224MPD1    C3 3454   2.321   4.320   8.744 -0.9641 -1.2576  0.7042
  224MPD1    C4 3455   2.272   4.449   8.739  0.7348  0.8541  0.0636
  224MPD1    C5 3456   2.201   4.491   8.631  0.1483 -0.6381  0.2130
  224MPD1     H 3457   2.304   4.124   8.665  1.0851  0.1381 -2.6485
  224MPD1    H1 3458   2.293   4.514   8.824 -1.4665 -0.9497  1.9568
  224MPD1    H2 3459   2.116   4.438   8.446  0.2006 -2.2247 -0.8551
  224MPD1    H3 3460   2.173   4.595   8.619  1.2401 -0.1901  1.6864
  224MPD1     N 3461   2.409   4.281   8.849 -0.7426 -0.1742 -0.4583
  224MPD1    H5 3462   2.435   4.354   8.914  2.3374 -1.1517 -0.5837
  224MPD1    N1 3463   2.139   4.176   8.461 -0.6995  0.5267  0.3263
  224MPD1    H6 3464   2.196   4.096   8.433 -1.7019 -0.0543 -0.0867
  224MPD1    H7 3465   2.095   4.209   8.375 -0.5351  1.6747  0.6816
  225MPD1     C 3466   3.917   0.907  13.452 -1.1365  0.0803 -0.0917
  225MPD1    C1 3467   3.977   1.018  13.396  0.0704 -0.2833 -0.6624
  225MPD1    C2 3468   3.980   1.039  13.263  0.3964  0.2333 -0.6856
  225MPD1    C3 3469   3.913   0.953  13.178 -0.4318  0.0747  0.6076
  225MPD1    C4 3470   3.841   0.850  13.231 -1.1564  0.3000 -0.0542
  225MPD1    C5 3471   3.854   0.822  13.369  0.2381 -0.6072  0.4489
  225MPD1     H 3472   4.026   1.126  13.219 -1.5629  1.2593 -0.7346
  225MPD1    H1 3473   3.778   0.789  13.167  0.8392 -0.6122 -1.1338
  225MPD1    H2 3474   3.930   0.885  13.557 -1.4669 -1.2006 -0.3134
  225MPD1    H3 3475   3.811   0.730  13.408  0.4925 -0.4465  1.0942
  225MPD1     N 3476   3.893   0.974  13.040  0.5464 -0.2346 -0.2647
  225MPD1    H5 3477   3.832   0.901  13.005 -0.8929  0.2192  1.3359
  225MPD1    N1 3478   4.056   1.108  13.476 -0.2917 -0.5482  0.0368
  225MPD1    H6 3479   4.052   1.200  13.433  1.6224 -0.6668 -0.3999
  225MPD1    H7 3480   4.012   1.111  13.568 -0.7763  0.7905 -0.2407
  226MPD1     C 3481   2.064   1.303   9.697 -0.1254  0.3386 -0.1758
  226MPD1    C1 3482   2.012   1.195   9.631  0.3189 -0.3019  0.6769
  226MPD1    C2 3483   2.085   1.152   9.526  0.2056 -0.0135  0.7049
  226MPD1    C3 3484   2.212   1.196   9.504 -1.7600  0.2190 -0.4213
  226MPD1    C4 3485   2.257   1.304   9.576 -0.8981  0.0377  0.0491
  226MPD1    C5 3486   2.187   1.363   9.673  0.3841 -0.3071 -0.2765
  226MPD1     H 3487   2.055   1.057   9.485 -0.8408  0.0439  1.3133
  226MPD1    H1 3488   2.351   1.354   9.556 -0.1913 -0.4719  2.1099
  226MPD1    H2 3489   2.008   1.358   9.772  1.0453  0.4478  0.6114
  226MPD1    H3 3490   2.226   1.447   9.730  1.2692 -1.1572  0.3712
  226MPD1     N 3491   2.290   1.146   9.402 -0.0570  0.0282 -0.7416
  226MPD1    H5 3492   2.243   1.079   9.342 -0.8224  0.6940 -0.8799
  226MPD1    N1 3493   1.879   1.158   9.650  0.4057  0.0163  0.2492
  226MPD1    H6 3494   1.856   1.070   9.605  1.3855 -0.5284  0.8042
  226MPD1    H7 3495   1.865   1.153   9.751 -1.7059  1.4302  0.0156
  227MPD1     C 3496   3.335   0.986   9.310 -0.2609 -0.0923  0.5874
  227MPD1    C1 3497   3.266   0.871   9.338 -0.2554  0.2617  0.4555
  227MPD1    C2 3498   3.138   0.857   9.303  0.5502  0.3321  0.0387
  227MPD1    C3 3499   3.072   0.964   9.250  0.0344 -0.5449 -0.2775
  227MPD1    C4 3500   3.134   1.081   9.229  1.1879  0.6101 -0.6813
  227MPD1    C5 3501   3.267   1.091   9.254 -0.8236  0.1237 -0.0350
  227MPD1     H 3502   3.105   0.755   9.320  0.3377  0.3803 -0.0833
  227MPD1    H1 3503   3.086   1.171   9.191 -0.7805  0.4954  1.5375
  227MPD1    H2 3504   3.439   1.009   9.334 -0.1434  3.8855 -3.8099
  227MPD1    H3 3505   3.310   1.190   9.246  0.9278 -0.6856 -0.7357
  227MPD1     N 3506   2.934   0.953   9.225  0.0709  0.1655 -0.3161
  227MPD1    H5 3507   2.895   0.860   9.233 -0.2866  0.2746 -0.8061
  227MPD1    N1 3508   3.336   0.761   9.386  0.0299  0.0806 -0.5252
  227MPD1    H6 3509   3.416   0.789   9.443 -0.9880 -0.5303  1.1858
  227MPD1    H7 3510   3.277   0.695   9.435 -0.4705  1.7142  1.0644
  228MPD1     C 3511   1.548   4.160  12.808 -0.2642  0.5812 -0.2625
  228MPD1    C1 3512   1.439   4.241  12.812 -0.4628 -0.7726 -0.4493
  228MPD1    C2 3513   1.343   4.215  12.913 -0.4628  0.0723  0.0813
  228MPD1    C3 3514   1.344   4.098  12.987 -0.4710 -0.3361  0.4003
  228MPD1    C4 3515   1.455   4.017  12.976 -0.8713  0.0193  0.1341
  228MPD1    C5 3516   1.554   4.046  12.887 -0.3127  0.2821 -0.6196
  228MPD1     H 3517   1.261   4.281  12.937  0.8414  0.2111  4.1555
  228MPD1    H1 3518   1.455   3.925  13.034 -1.4471  0.5047  0.9114
  228MPD1    H2 3519   1.636   4.179  12.749  0.9486 -0.3558  1.2470
  228MPD1    H3 3520   1.628   3.968  12.875 -0.6447  0.2204 -2.2627
  228MPD1     N 3521   1.236   4.078  13.079  0.0264 -0.3740 -0.1881
  228MPD1    H5 3522   1.151   4.133  13.076 -0.0167 -0.5084 -1.4420
  228MPD1    N1 3523   1.431   4.354  12.733 -0.3296  0.7109  0.3885
  228MPD1    H6 3524   1.381   4.436  12.766 -1.7265 -0.6581  1.6426
  228MPD1    H7 3525   1.515   4.388  12.687 -0.3237 -0.7183 -0.6777
  229MPD1     C 3526   1.460   2.962  14.885 -0.5952 -0.1681 -0.2659
  229MPD1    C1 3527   1.539   2.989  14.997 -0.2570 -0.3125 -0.0714
  229MPD1    C2 3528   1.556   2.885  15.084  0.8739 -0.0561  0.2088
  229MPD1    C3 3529   1.500   2.762  15.065 -0.6663 -0.1713 -0.0539
  229MPD1    C4 3530   1.407   2.747  14.963 -0.2966  0.6121 -0.4232
  229MPD1    C5 3531   1.383   2.847  14.876  0.0061  0.1545  0.4076
  229MPD1     H 3532   1.616   2.895  15.173  0.7389 -1.0464  0.4193
  229MPD1    H1 3533   1.352   2.655  14.955  0.0739  0.3913 -0.4238
  229MPD1    H2 3534   1.452   3.034  14.805  0.0871  0.5091  0.2786
  229MPD1    H3 3535   1.304   2.840  14.803  1.7511 -0.8743 -1.3788
  229MPD1     N 3536   1.525   2.644  15.144 -0.0597  0.3351  0.7791
  229MPD1    H5 3537   1.477   2.555  15.132  1.1096 -0.3088  0.8406
  229MPD1    N1 3538   1.605   3.110  15.012 -0.3808 -0.0781 -1.2205
  229MPD1    H6 3539   1.639   3.160  14.930 -1.5275 -0.4012 -1.8909
  229MPD1    H7 3540   1.661   3.129  15.095 -3.3742 -0.5480  0.9331
  230MPD1     C 3541   1.913   2.644  16.083 -0.4062 -0.0220 -0.4158
  230MPD1    C1 3542   1.867   2.742  16.003 -0.0049  1.1607 -0.2536
  230MPD1    C2 3543   1.814   2.698  15.885  0.2390  0.0632 -0.3581
  230MPD1    C3 3544   1.815   2.567  15.847  0.2894  0.6085 -0.0870
  230MPD1    C4 3545   1.853   2.473  15.939 -1.0471 -0.1051 -0.0989
  230MPD1    C5 3546   1.912   2.510  16.048 -0.4164  0.6130 -0.5081
  230MPD1     H 3547   1.775   2.772  15.816 -1.0075 -1.5155 -1.3566
  230MPD1    H1 3548   1.856   2.366  15.920 -0.2474 -0.0463 -0.3380
  230MPD1    H2 3549   1.948   2.661  16.184 -2.6671 -0.5370  0.4620
  230MPD1    H3 3550   1.949   2.437  16.120  0.9623  1.4342 -0.3682
  230MPD1     N 3551   1.745   2.534  15.726  0.7201 -0.1799 -0.3765
  230MPD1    H5 3552   1.722   2.614  15.668 -1.0936 -1.0777 -0.8885
  230MPD1    N1 3553   1.857   2.877  16.053  0.0940  0.5524 -0.3109
  230MPD1    H6 3554   1.923   2.904  16.125 -1.0692  2.6971 -0.0578
  230MPD1    H7 3555   1.850   2.936  15.971  1.6700 -0.8866 -1.4690
  231MPD1     C 3556   4.564   4.211  15.840 -0.1441 -0.0477  0.1065
  231MPD1    C1 3557   4.512   4.325  15.769 -0.8103 -0.0680 -0.2966
  231MPD1    C2 3558   4.595   4.380  15.666  0.9481 -0.4283  0.1402
  231MPD1    C3 3559   4.708   4.313  15.619 -0.3775 -0.3255 -0.1209
  231MPD1    C4 3560   0.002   4.189  15.681  0.4480  0.5144  0.4703
  231MPD1    C5 3561   4.669   4.142  15.791  0.3855  1.0517  0.1702
  231MPD1     H 3562   4.555   4.469  15.619 -1.0766 -1.0669  0.6374
  231MPD1    H1 3563   0.085   4.123  15.658 -0.8879 -0.9456 -0.1893
  231MPD1    H2 3564   4.516   4.173  15.929 -0.5780  1.5320  0.5494
  231MPD1    H3 3565   4.692   4.044  15.832 -0.6219  1.4885  1.7842
  231MPD1     N 3566   0.015   4.362  15.496 -0.1257  0.3928 -0.0719
  231MPD1    H5 3567   4.721   4.450  15.458  0.8081  0.4869 -0.6861
  231MPD1    N1 3568   4.400   4.393  15.818  0.1439 -0.1674  0.2920
  231MPD1    H6 3569   4.327   4.339  15.863  0.8796 -1.1220  0.3441
  231MPD1    H7 3570   4.359   4.464  15.757 -2.2121 -1.9552 -0.1787
  232MPD1     C 3571   1.857   2.584   0.551  0.3936 -0.6296  0.2447
  232MPD1    C1 3572   1.742   2.653   0.521 -0.0276  0.0221  0.5449
  232MPD1    C2 3573   1.658   2.602   0.425  0.2416  0.0427 -0.3466
  232MPD1    C3 3574   1.708   2.505   0.340 -0.1526  0.1879 -1.0633
  232MPD1    C4 3575   1.824   2.426   0.369 -0.0445 -0.1570 -0.8583
  232MPD1    C5 3576   1.895   2.476   0.477  0.7320  0.9573 -0.8025
  232MPD1     H 3577   1.565   2.650   0.398  0.4944  0.5385 -0.3376
  232MPD1    H1 3578   1.864   2.349   0.305  0.0579  0.5826 -1.6753
  232MPD1    H2 3579   1.931   2.613   0.625  1.0305  0.5567 -0.8443
  232MPD1    H3 3580   1.987   2.430   0.510 -0.5207 -2.7648 -2.5594
  232MPD1     N 3581   1.621   2.464   0.237  0.3860 -0.8842  0.7102
  232MPD1    H5 3582   1.537   2.522   0.239 -0.1719 -1.5576 -2.7593
  232MPD1    N1 3583   1.694   2.755   0.606 -0.1511 -0.1968  0.0421
  232MPD1    H6 3584   1.644   2.817   0.543  0.0894 -0.1542 -0.1068
  232MPD1    H7 3585   1.770   2.803   0.653 -0.7248  2.0495 -1.3155
  233MPD1     C 3586   2.916   0.623   1.573  0.0245  0.2114 -0.2984
  233MPD1    C1 3587   2.953   0.514   1.655 -0.1427  0.1441  0.4286
  233MPD1    C2 3588   3.087   0.511   1.693  0.0799 -0.0019  0.3714
  233MPD1    C3 3589   3.178   0.609   1.654 -0.5283  0.0969 -0.0966
  233MPD1    C4 3590   3.146   0.706   1.568  0.1667 -0.0729 -0.4210
  233MPD1    C5 3591   3.013   0.704   1.529  0.4605 -0.0923  0.4831
  233MPD1     H 3592   3.120   0.418   1.739  0.4396 -0.0075  0.1108
  233MPD1    H1 3593   3.214   0.773   1.516  1.5708 -1.4387 -0.3295
  233MPD1    H2 3594   2.814   0.627   1.537 -0.2601 -0.0935  0.4620
  233MPD1    H3 3595   2.980   0.770   1.449  4.0497  1.6202  0.4237
  233MPD1     N 3596   3.310   0.608   1.697 -0.5931 -0.4309  0.5185
  233MPD1    H5 3597   3.376   0.674   1.657  0.3308 -1.2967  0.6230
  233MPD1    N1 3598   2.877   0.398   1.669 -0.3483 -0.9075 -0.1845
  233MPD1    H6 3599   2.777   0.410   1.659 -0.3888  0.1732  1.5277
  233MPD1    H7 3600   2.902   0.336   1.746  2.6768 -0.9346 -1.1710
  234MPD1     C 3601   2.980   2.469   9.809 -0.5174  0.7939 -0.2973
  234MPD1    C1 3602   2.865   2.464   9.726  0.6561  0.4891  0.4205
  234MPD1    C2 3603   2.868   2.523   9.605 -0.4382 -0.6576 -0.0278
  234MPD1    C3 3604   2.960   2.625   9.582  0.3465  0.0563 -0.2443
  234MPD1    C4 3605   3.064   2.636   9.662 -0.1299 -0.2928 -0.7720
  234MPD1    C5 3606   3.080   2.557   9.777  0.3474  0.1174  0.1865
  234MPD1     H 3607   2.794   2.501   9.528 -2.5211  1.8149  1.2580
  234MPD1    H1 3608   3.148   2.702   9.642  0.1516  0.0334  1.4397
  234MPD1    H2 3609   2.998   2.412   9.899 -1.9786 -1.1009 -1.2032
  234MPD1    H3 3610   3.166   2.562   9.842  1.7715 -1.4632 -1.5703
  234MPD1     N 3611   2.932   2.708   9.476  0.0753 -0.9798 -0.6337
  234MPD1    H5 3612   2.851   2.693   9.417 -1.8347 -0.5992  1.9128
  234MPD1    N1 3613   2.784   2.356   9.751  0.0583 -0.0070  0.2360
  234MPD1    H6 3614   2.769   2.341   9.850 -0.9930 -2.8003 -0.3353
  234MPD1    H7 3615   2.696   2.380   9.705 -0.3125 -1.1635  0.3194
  235MPD1     C 3616   0.152   1.271  11.653  0.4637 -0.2619 -0.1921
  235MPD1    C1 3617   0.154   1.254  11.520 -0.0272  0.4257 -0.3780
  235MPD1    C2 3618   0.170   1.364  11.441 -0.1535  0.1937  0.0603
  235MPD1    C3 3619   0.195   1.485  11.498 -0.2491  0.4084  0.0482
  235MPD1    C4 3620   0.207   1.502  11.637  0.3635 -0.3230 -0.3375
  235MPD1    C5 3621   0.184   1.389  11.707  0.5860  0.2223  0.6419
  235MPD1     H 3622   0.148   1.360  11.335 -1.0820 -0.5737  0.2841
  235MPD1    H1 3623   0.243   1.591  11.688 -0.0046 -0.3729  0.0082
  235MPD1    H2 3624   0.147   1.188  11.723 -0.4773 -0.1262 -0.1001
  235MPD1    H3 3625   0.221   1.397  11.808  0.9781 -0.3731  0.5414
  235MPD1     N 3626   0.204   1.596  11.409 -0.4093  0.5453 -0.2472
  235MPD1    H5 3627   0.185   1.571  11.312 -1.0998  1.7648 -0.4289
  235MPD1    N1 3628   0.103   1.139  11.468  1.0263  0.5923  0.4846
  235MPD1    H6 3629   0.095   1.056  11.527  0.1697 -0.5561 -1.2409
  235MPD1    H7 3630   0.117   1.115  11.370  0.5122  0.2507  0.4910
  236MPD1     C 3631   4.349   2.546   9.712 -0.5639  0.2420 -0.1390
  236MPD1    C1 3632   4.265   2.499   9.812  0.1948 -0.3133  1.1283
  236MPD1    C2 3633   4.298   2.533   9.941 -0.3523  0.0313 -0.0531
  236MPD1    C3 3634   4.403   2.628   9.971 -0.5941  0.0122 -0.3844
  236MPD1    C4 3635   4.486   2.678   9.864 -0.0713  0.4023  0.3489
  236MPD1    C5 3636   4.454   2.630   9.742  0.0734  0.3589  0.6311
  236MPD1     H 3637   4.230   2.495  10.016 -0.7867  0.2909 -0.3185
  236MPD1    H1 3638   4.556   2.759   9.879 -0.3362  0.3263  2.0495
  236MPD1    H2 3639   4.318   2.532   9.609 -1.6045 -1.1298  0.3654
  236MPD1    H3 3640   4.506   2.671   9.656 -1.1007  2.0337  0.7304
  236MPD1     N 3641   4.433   2.674  10.105  0.2837 -0.1292 -0.1215
  236MPD1    H5 3642   4.481   2.763  10.108  1.4524 -0.7062 -1.2675
  236MPD1    N1 3643   4.167   2.399   9.788 -0.4602  0.3501  0.7149
  236MPD1    H6 3644   4.139   2.398   9.690  0.9796 -1.5997  0.3350
  236MPD1    H7 3645   4.087   2.425   9.846 -1.4568  0.4239 -0.7006
  237MPD1     C 3646   0.496   0.782  14.976 -0.2305  0.3869 -0.1119
  237MPD1    C1 3647   0.400   0.880  14.951  0.0010 -0.4853  0.2745
  237MPD1    C2 3648   0.299   0.896  15.044  0.2204 -0.1960  0.0250
  237MPD1    C3 3649   0.304   0.837  15.167 -0.2454  0.0939  0.5764
  237MPD1    C4 3650   0.412   0.757  15.199 -0.2954 -0.1167 -0.0665
  237MPD1    C5 3651   0.501   0.721  15.104  0.2038  0.4328  0.3953
  237MPD1     H 3652   0.211   0.950  15.010 -1.4638 -1.7487  1.9438
  237MPD1    H1 3653   0.427   0.701  15.291 -1.3372 -0.1696  0.0753
  237MPD1    H2 3654   0.571   0.747  14.906 -0.9400 -1.5542  0.0950
  237MPD1    H3 3655   0.589   0.660  15.124  1.2531  1.6256 -0.6032
  237MPD1     N 3656   0.215   0.859  15.269 -0.3211 -0.1092  0.0747
  237MPD1    H5 3657   0.233   0.815  15.359 -0.3530  0.1463  0.2055
  237MPD1    N1 3658   0.392   0.951  14.826 -0.2232  0.1554 -0.7634
  237MPD1    H6 3659   0.486   0.963  14.790  0.4098 -0.1262  0.7914
  237MPD1    H7 3660   0.355   1.045  14.841 -0.5633  0.4118 -3.1416
  238MPD1     C 3661   1.967   3.927  15.533 -0.0862  0.2873 -0.8087
  238MPD1    C1 3662   1.853   3.980  15.589  0.3033  0.2285 -0.4605
  238MPD1    C2 3663   1.730   3.954  15.535 -0.0606 -0.7914 -0.3440
  238MPD1    C3 3664   1.723   3.892  15.408 -0.2227 -0.1391 -0.0380
  238MPD1    C4 3665   1.838   3.850  15.352 -0.2004 -0.2165  0.6288
  238MPD1    C5 3666   1.959   3.863  15.416  0.7922  1.0682 -0.0347
  238MPD1     H 3667   1.645   4.013  15.569  1.0163  0.8570 -0.5699
  238MPD1    H1 3668   1.848   3.821  15.248 -2.0513  0.8525  0.1716
  238MPD1    H2 3669   2.067   3.947  15.569 -0.6598  0.7201  0.5513
  238MPD1    H3 3670   2.052   3.838  15.366 -0.5220 -1.2506 -1.3519
  238MPD1     N 3671   1.609   3.898  15.324 -0.6168  0.0617  0.1479
  238MPD1    H5 3672   1.628   3.886  15.225  0.3541 -1.3429  0.5044
  238MPD1    N1 3673   1.870   4.075  15.689 -1.1598 -0.0793 -0.0316
  238MPD1    H6 3674   1.964   4.070  15.728 -1.8548  0.3273  1.7118
  238MPD1    H7 3675   1.798   4.066  15.761  1.2045  0.6007  2.4309
  239MPD1     C 3676   1.903   0.410  15.120 -0.0034 -0.4847  0.0474
  239MPD1    C1 3677   1.996   0.458  15.030  0.7590  0.2128 -0.0738
  239MPD1    C2 3678   1.973   0.441  14.893 -0.5216  0.6222 -0.1182
  239MPD1    C3 3679   1.866   0.361  14.845 -0.6747 -0.8514 -0.0343
  239MPD1    C4 3680   1.786   0.301  14.951 -0.2635 -0.3684  0.3921
  239MPD1    C5 3681   1.806   0.320  15.081  0.1446 -0.9339 -0.0084
  239MPD1     H 3682   2.038   0.495  14.826  0.3236 -0.1608  0.0783
  239MPD1    H1 3683   1.702   0.236  14.931 -1.2858  0.5592  1.7010
  239MPD1    H2 3684   1.912   0.431  15.226 -0.3126 -0.8686  0.1510
  239MPD1    H3 3685   1.733   0.294  15.157 -1.3544  1.1282 -0.7374
  239MPD1     N 3686   1.838   0.347  14.707 -0.1428 -0.1100 -0.0514
  239MPD1    H5 3687   1.755   0.296  14.679 -0.0225 -1.4343  2.0129
  239MPD1    N1 3688   2.100   0.549  15.083 -0.3852 -0.4610  0.3207
  239MPD1    H6 3689   2.176   0.545  15.016  1.0671  2.5593  1.7818
  239MPD1    H7 3690   2.146   0.506  15.163 -0.2243 -0.7631  0.0624
  240MPD1     C 3691   1.257   0.031  13.958 -1.2987 -0.2759 -0.4028
  240MPD1    C1 3692   1.136   0.023  14.014  0.7905  0.4720  0.3497
  240MPD1    C2 3693   1.134   0.016  14.153 -0.0932 -0.3700  0.4187
  240MPD1    C3 3694   1.250   4.736  14.231 -0.1069  0.6317 -0.6973
  240MPD1    C4 3695   1.367   4.723  14.168  0.8868 -0.1457 -0.9114
  240MPD1    C5 3696   1.370   0.004  14.033 -0.3991 -0.5380  0.0665
  240MPD1     H 3697   1.041   0.034  14.206 -0.3610 -0.6563  0.0552
  240MPD1    H1 3698   1.463   4.710  14.217  0.4130 -1.5048 -0.3431
  240MPD1    H2 3699   1.273   0.047  13.852  0.4559  1.3065  0.1047
  240MPD1    H3 3700   1.467   0.007  13.984 -1.7877  0.8857 -2.5735
  240MPD1     N 3701   1.240   4.731  14.373  0.3853  0.7321  0.0440
  240MPD1    H5 3702   1.149   4.734  14.417 -0.0847 -1.5603 -0.7393
  240MPD1    N1 3703   1.017   0.049  13.939  0.1426 -0.4121  0.0201
  240MPD1    H6 3704   1.030   0.021  13.842 -0.2533 -0.4487 -0.0241
  240MPD1    H7 3705   1.000   0.150  13.935  2.0081 -0.1763 -1.5622
  241MPD1     C 3706   1.609   4.302  15.331  0.4637 -0.0416  0.0437
  241MPD1    C1 3707   1.685   4.364  15.232 -0.3729  0.3092  0.2039
  241MPD1    C2 3708   1.617   4.426  15.129  0.4881  0.4103 -0.0550
  241MPD1    C3 3709   1.478   4.430  15.122  0.5662  0.5112 -0.4772
  241MPD1    C4 3710   1.409   4.381  15.232  0.4451  0.7414 -0.0784
  241MPD1    C5 3711   1.472   4.321  15.335  0.6960 -0.2400 -0.5432
  241MPD1     H 3712   1.675   4.456  15.043 -1.9798  1.5592 -1.3292
  241MPD1    H1 3713   1.302   4.374  15.239  0.4158  1.9163  0.7329
  241MPD1    H2 3714   1.670   4.251  15.405 -1.3444  0.1106  1.6513
  241MPD1    H3 3715   1.414   4.285  15.420  1.0888  0.3690 -0.0117
  241MPD1     N 3716   1.402   4.496  15.018 -0.8122  0.2148  0.5962
  241MPD1    H5 3717   1.301   4.486  15.021 -0.6515 -0.5416  3.4208
  241MPD1    N1 3718   1.824   4.338  15.224  0.3651  0.3784  0.6312
  241MPD1    H6 3719   1.864   4.422  15.183 -1.0234  0.2644 -0.9966
  241MPD1    H7 3720   1.864   4.338  15.317  1.0979 -1.2763  0.3181
  242MPD1     C 3721   1.124   3.342  16.274  0.3200 -0.0339 -0.3821
  242MPD1    C1 3722   1.016   3.299  16.206  0.3915 -0.9590 -0.0392
  242MPD1    C2 3723   1.034   3.262  16.077 -0.0539 -0.3372  0.0360
  242MPD1    C3 3724   1.146   3.303  16.004  0.3453 -0.0872 -0.3790
  242MPD1    C4 3725   1.254   3.368  16.072 -0.5389 -0.2709  0.1706
  242MPD1    C5 3726   1.236   3.377  16.209  0.2007 -0.1264 -0.0738
  242MPD1     H 3727   0.952   3.213  16.025  0.1791 -0.7516  0.0531
  242MPD1    H1 3728   1.344   3.405  16.025 -1.2763  1.0197 -0.2272
  242MPD1    H2 3729   1.124   3.355  16.381 -0.8294 -0.0261 -0.3806
  242MPD1    H3 3730   1.318   3.420  16.267  0.6518  1.9004 -2.1990
  242MPD1     N 3731   1.165   3.288  15.863 -0.5643 -0.1526 -1.2340
  242MPD1    H5 3732   1.255   3.312  15.823  0.7975 -0.8313  1.4173
  242MPD1    N1 3733   0.916   3.252  16.283  0.5936 -0.5186  0.1201
  242MPD1    H6 3734   0.910   3.309  16.367  1.0701  1.5637 -1.2638
  242MPD1    H7 3735   0.833   3.258  16.224  0.8443  0.1538 -0.1605
  243MPD1     C 3736   2.765   2.966  17.638 -0.4942 -0.3544  0.3780
  243MPD1    C1 3737   2.809   2.948  17.507 -0.3026 -0.5927  0.7182
  243MPD1    C2 3738   2.821   2.816  17.464 -0.6906  0.4197 -0.4370
  243MPD1    C3 3739   2.799   2.705  17.543  0.8374 -0.0293  0.2710
  243MPD1    C4 3740   2.756   2.731  17.668 -0.3620  0.0233  0.0818
  243MPD1    C5 3741   2.737   2.858  17.716  0.8244 -0.0978  0.0474
  243MPD1     H 3742   2.866   2.796  17.368 -0.3458  0.6269 -0.3150
  243MPD1    H1 3743   2.755   2.656  17.746 -3.7332  1.0675  1.0608
  243MPD1    H2 3744   2.750   3.067  17.676 -2.6346 -0.8396  0.8507
  243MPD1    H3 3745   2.703   2.866   0.063 -2.7109  1.6447 -1.2423
  243MPD1     N 3746   2.811   2.575  17.485  0.4383  0.9468  0.3492
  243MPD1    H5 3747   2.863   2.565  17.398 -1.0021 -1.8632 -0.2164
  243MPD1    N1 3748   2.843   3.050  17.424 -0.1220 -0.7607  0.7890
  243MPD1    H6 3749   2.799   3.137  17.452 -0.6732 -1.7295  2.9641
  243MPD1    H7 3750   2.820   3.032  17.326 -1.0147  0.1715  0.8350
  244MPD1     C 3751   2.763   1.707   0.160  0.7297  0.2137 -0.5937
  244MPD1    C1 3752   2.855   1.808   0.149 -0.3231 -0.0200 -0.7675
  244MPD1    C2 3753   2.845   1.901   0.049 -0.3700 -0.2106 -0.0488
  244MPD1    C3 3754   2.748   1.891  17.706  0.0613 -0.6239  0.4357
  244MPD1    C4 3755   2.667   1.777  17.705 -0.0460 -0.3954 -0.4454
  244MPD1    C5 3756   2.682   1.688   0.055  0.3302  0.0522 -0.1615
  244MPD1     H 3757   2.925   1.973   0.036 -0.2061 -0.7012 -1.6908
  244MPD1    H1 3758   2.596   1.761  17.625 -2.1829  2.5081  0.8759
  244MPD1    H2 3759   2.769   1.631   0.237  0.7060 -0.0924 -0.8936
  244MPD1    H3 3760   2.639   1.588   0.048 -0.3370  0.3881 -0.8459
  244MPD1     N 3761   2.747   1.992  17.607 -0.1867  0.2605 -0.2543
  244MPD1    H5 3762   2.827   2.054  17.609  0.3439 -0.4517  0.9459
  244MPD1    N1 3763   2.960   1.817   0.246 -0.0055 -0.6149 -0.1884
  244MPD1    H6 3764   3.053   1.842   0.213 -0.7601  2.4629  0.0386
  244MPD1    H7 3765   2.972   1.731   0.300  2.2507  0.2158  0.6244
  245MPD1     C 3766   4.452   2.546  12.580  0.8175  0.0852 -0.2674
  245MPD1    C1 3767   4.505   2.670  12.611  0.5244  0.2384 -0.0159
  245MPD1    C2 3768   4.494   2.710  12.742 -0.1778  1.0760 -0.4060
  245MPD1    C3 3769   4.408   2.645  12.833  0.4334  0.4344 -0.0422
  245MPD1    C4 3770   4.329   2.541  12.789 -0.8915 -0.1242  0.4882
  245MPD1    C5 3771   4.363   2.490  12.661  0.0195 -0.7926 -0.2302
  245MPD1     H 3772   4.544   2.799  12.780 -1.4541  0.2369  3.2315
  245MPD1    H1 3773   4.254   2.492  12.850 -0.5717  0.5478  1.4294
  245MPD1    H2 3774   4.474   2.496  12.486 -0.8314 -1.8434  0.3841
  245MPD1    H3 3775   4.308   2.400  12.636 -2.0269 -0.1102  1.7864
  245MPD1     N 3776   4.401   2.696  12.961 -0.3961 -0.0842 -0.2223
  245MPD1    H5 3777   4.447   2.785  12.977  0.0290 -0.0941 -1.4177
  245MPD1    N1 3778   4.605   2.724  12.531  0.2904 -0.3978  0.1957
  245MPD1    H6 3779   4.570   2.724  12.435  0.2223 -1.9932  0.2212
  245MPD1    H7 3780   4.615   2.823  12.552 -0.6770 -0.2926  0.1858
  246MPD1     C 3781   1.571   2.835  10.392 -0.7803 -0.4547  0.1959
  246MPD1    C1 3782   1.539   2.849  10.256 -0.0037 -0.5877  0.8470
  246MPD1    C2 3783   1.462   2.963  10.214  0.7099  0.8084 -0.5325
  246MPD1    C3 3784   1.434   3.061  10.303  0.4945 -0.3015 -0.3626
  246MPD1    C4 3785   1.484   3.051  10.430  0.1700 -0.0954 -0.0484
  246MPD1    C5 3786   1.544   2.940  10.478  0.0595  0.1347  0.1633
  246MPD1     H 3787   1.423   2.967  10.113 -2.0488 -0.3549  0.4807
  246MPD1    H1 3788   1.457   3.125  10.504 -0.7031 -0.9069  0.4397
  246MPD1    H2 3789   1.641   2.756  10.419 -1.3083 -0.3761  1.7776
  246MPD1    H3 3790   1.592   2.925  10.574  1.0155  1.5881 -0.0975
  246MPD1     N 3791   1.366   3.174  10.257 -0.0493 -0.1485  0.0308
  246MPD1    H5 3792   1.343   3.166  10.158 -1.3808  2.6603  0.1343
  246MPD1    N1 3793   1.563   2.739  10.177 -0.0704 -0.0550  0.9293
  246MPD1    H6 3794   1.635   2.674  10.206 -0.2530 -0.9757 -0.6835
  246MPD1    H7 3795   1.590   2.771  10.084  0.3176 -0.1307  1.0167
  247MPD1     C 3796   3.919   3.086  15.952  0.5989  0.1544  0.3391
  247MPD1    C1 3797   3.990   2.983  16.009 -0.3444 -0.0732  0.0632
  247MPD1    C2 3798   3.928   2.856  16.012 -0.4988 -0.4024  0.5368
  247MPD1    C3 3799   3.808   2.837  15.942 -0.0786 -0.3055 -0.0917
  247MPD1    C4 3800   3.755   2.938  15.871  0.8606 -0.6730  0.3114
  247MPD1    C5 3801   3.804   3.066  15.890 -0.4233 -0.1366 -0.2682
  247MPD1     H 3802   3.967   2.781  16.079 -2.2429 -0.5025  1.4418
  247MPD1    H1 3803   3.658   2.936  15.822  1.4167 -1.3655 -0.7487
  247MPD1    H2 3804   3.955   3.188  15.960  1.0544  0.0542 -0.3928
  247MPD1    H3 3805   3.765   3.156  15.843 -0.2328  1.4387  2.5540
  247MPD1     N 3806   3.745   2.707  15.957  0.4395  0.2251  0.6380
  247MPD1    H5 3807   3.796   2.630  16.000  1.2746 -0.1584 -1.0649
  247MPD1    N1 3808   4.106   3.012  16.089  0.2172 -0.4849  0.3466
  247MPD1    H6 3809   4.172   2.936  16.104  2.2132  1.3517  0.8468
  247MPD1    H7 3810   4.152   3.100  16.066 -1.0213  0.3934  1.2488
  248MPD1     C 3811   0.271   2.951   0.116 -0.5547 -0.4932 -0.2405
  248MPD1    C1 3812   0.185   3.034   0.178 -0.0142 -0.6427 -0.1577
  248MPD1    C2 3813   0.075   2.980   0.224  0.2953 -1.0556  0.5493
  248MPD1    C3 3814   0.042   2.849   0.208 -0.8583 -0.3725 -1.0207
  248MPD1    C4 3815   0.124   2.775   0.129  0.0768  0.1685  0.8146
  248MPD1    C5 3816   0.243   2.823   0.088  0.2741  0.2132 -0.5138
  248MPD1     H 3817   4.736   3.043   0.264  0.0434 -0.5819 -0.7013
  248MPD1    H1 3818   0.100   2.673   0.098 -1.5564  1.1405 -1.1306
  248MPD1    H2 3819   0.367   2.983   0.078 -1.1120 -0.1572 -1.3569
  248MPD1    H3 3820   0.318   2.759   0.043  0.7731  0.5954 -0.2257
  248MPD1     N 3821   4.676   2.789   0.275 -0.7773 -0.2967  0.7335
  248MPD1    H5 3822   4.611   2.852   0.321  2.8615  3.9490  0.0672
  248MPD1    N1 3823   0.220   3.165   0.222  0.4490  0.2730 -0.1522
  248MPD1    H6 3824   0.137   3.221   0.239 -0.3864 -1.1863  0.5587
  248MPD1    H7 3825   0.284   3.209   0.157  0.8517  0.1173  0.1415
  249MPD1     C 3826   1.518   0.681   9.710  0.0040  0.2760 -0.3961
  249MPD1    C1 3827   1.601   0.731   9.814 -0.0077  0.4121  0.1113
  249MPD1    C2 3828   1.536   0.732   9.937 -0.9287  0.6268 -0.0303
  249MPD1    C3 3829   1.421   0.667   9.966 -0.3373 -0.6425 -0.5624
  249MPD1    C4 3830   1.350   0.614   9.864 -0.3170  0.4513 -0.5761
  249MPD1    C5 3831   1.399   0.627   9.739  0.3864 -0.0270  0.3532
  249MPD1     H 3832   1.596   0.761  10.023 -3.3297 -0.7995  2.1296
  249MPD1    H1 3833   1.250   0.573   9.871 -0.5113  0.5528 -2.7423
  249MPD1    H2 3834   1.545   0.704   9.608  0.3140  0.0711 -0.3566
  249MPD1    H3 3835   1.344   0.604   9.648 -0.0838  2.5166 -0.0130
  249MPD1     N 3836   1.377   0.656  10.102 -0.0293 -0.5388 -0.3905
  249MPD1    H5 3837   1.428   0.710  10.171  0.2523 -2.1916  0.6780
  249MPD1    N1 3838   1.717   0.799   9.787  0.2882  0.2098  0.0348
  249MPD1    H6 3839   1.790   0.794   9.858 -1.0899  0.6131  1.4765
  249MPD1    H7 3840   1.758   0.775   9.697 -1.0609 -0.8264 -0.3004
  250MPD2     C 3841   3.147   0.557  13.442 -0.0925  0.2485  1.1852
  250MPD2    C1 3842   3.056   0.654  13.403  0.0028  0.9014 -0.1299
  250MPD2    C2 3843   2.979   0.633  13.287  1.1048 -0.1566  0.3564
  250MPD2    C3 3844   2.997   0.516  13.215 -0.1154  0.0045 -0.1030
  250MPD2    C4 3845   3.079   0.419  13.259  0.7090  0.5277 -0.2550
  250MPD2    C5 3846   3.155   0.445  13.370  0.0280  0.5685 -0.0173
  250MPD2     H 3847   2.918   0.712  13.245  0.9698 -0.6219 -0.3143
  250MPD2    H1 3848   3.102   0.328  13.205 -0.2178  0.2530 -0.1819
  250MPD2    H2 3849   3.220   0.573  13.520 -0.8389  1.4790  1.6386
  250MPD2    H3 3850   3.224   0.366  13.400 -2.0064 -1.0480  0.4576
  250MPD2     N 3851   2.932   0.483  13.094  0.1790  0.8199  0.1643
  250MPD2    H5 3852   2.942   0.385  13.072  0.1589 -0.1585  4.6266
  250MPD2    N1 3853   3.054   0.777  13.467 -0.3136  0.4475  0.3937
  250MPD2    H7 3854   3.132   0.791  13.531  0.1168  0.9526 -0.2423
  251TMC3    C1 3855   3.011   1.020  13.471 -0.0274 -0.3749  0.6258
  251TMC3    C2 3856   2.923   1.120  13.434 -0.0115 -0.2060 -0.5527
  251TMC3    C3 3857   2.964   1.253  13.456  0.4267  0.0367  0.3183
  251TMC3    C4 3858   3.145   1.036  13.478  0.2839  0.6357 -0.1996
  251TMC3    C5 3859   3.184   1.170  13.489 -0.3242  0.1657  0.3884
  251TMC3    C6 3860   3.096   1.281  13.485  0.6391 -0.4638  0.1343
  251TMC3     C 3861   2.966   0.882  13.438 -0.1410 -0.4582  0.2612
  251TMC3     O 3862   2.853   0.860  13.405  0.3337  0.3336 -0.0537
  251TMC3     H 3863   2.822   1.094  13.404 -0.4977  1.2164 -0.1258
  251TMC3    H1 3864   3.215   0.954  13.489  1.4963  1.3623 -2.4512
  251TMC3    H2 3865   3.133   1.378  13.515  3.2292 -1.1817 -0.7216
  251TMC3    C7 3866   3.323   1.189  13.540 -1.0883 -0.3091 -0.6260
  251TMC3    C8 3867   2.871   1.356  13.467 -0.4496 -0.2785 -0.4726
  251TMC3    O1 3868   3.380   1.091  13.581  0.5852 -0.8808 -0.1289
  251TMC3    O2 3869   2.756   1.335  13.495  0.1383  0.0099  0.1557
  252TMC3    C1 3870   1.511   1.838  10.087 -0.6231  0.7981  0.1747
  252TMC3    C2 3871   1.621   1.917  10.074 -0.0436  0.0451  0.9123
  252TMC3    C3 3872   1.739   1.850  10.062 -0.9024  0.2433  0.0798
  252TMC3    C4 3873   1.517   1.702  10.076  0.6901 -0.1061 -0.0838
  252TMC3    C5 3874   1.643   1.638  10.060  0.4887  0.0548  0.0466
  252TMC3    C6 3875   1.758   1.713  10.051  0.4700 -1.0513 -0.2383
  252TMC3     C 3876   1.402   1.899  10.171  0.4018 -0.9190 -0.1361
  252TMC3     O 3877   1.429   2.011  10.217  0.4466  0.5923 -0.1294
  252TMC3     H 3878   1.629   2.024  10.090 -1.3591  0.5549 -1.7865
  252TMC3    H1 3879   1.427   1.644  10.065  0.4854  0.6500 -2.3475
  252TMC3    H2 3880   1.858   1.675  10.036  1.2268  0.0631  1.9292
  252TMC3    C7 3881   1.642   1.498  10.064 -0.4820  0.6805  0.1160
  252TMC3    C8 3882   1.833   1.935  10.000 -0.0687  0.6232  0.1299
  252TMC3    O1 3883   1.531   1.445  10.069 -0.0513 -0.0503  0.6538
  252TMC3    O2 3884   1.807   2.046   9.955  0.5910  0.0476 -0.1164
  253MPD2     C 3885   4.487   1.421  15.278  0.3248 -0.5209 -0.0529
  253MPD2    C1 3886   4.352   1.406  15.309  0.5563  0.0107 -0.4885
  253MPD2    C2 3887   4.315   1.317  15.406  0.2876  0.2471  0.4946
  253MPD2    C3 3888   4.398   1.259  15.490  0.3597 -0.4737 -0.1835
  253MPD2    C4 3889   4.528   1.275  15.463 -0.4457  0.4235 -0.1583
  253MPD2    C5 3890   4.572   1.344  15.349 -0.4158 -0.5353  0.1508
  253MPD2     H 3891   4.208   1.321  15.423  0.3730  3.1528  0.2559
  253MPD2    H1 3892   4.604   1.221  15.518  0.6396 -0.1210 -2.1835
  253MPD2    H2 3893   4.531   1.488  15.206  0.3578 -0.1789  0.2827
  253MPD2    H3 3894   4.677   1.355  15.325 -0.5653  3.8408  1.4403
  253MPD2     N 3895   4.351   1.164  15.587  0.3147 -0.0485 -0.3673
  253MPD2    H5 3896   4.406   1.145  15.669  0.5384 -0.8597 -0.7018
  253MPD2    N1 3897   4.238   1.476  15.257 -0.6647  0.1387 -0.1609
  253MPD2    H7 3898   4.147   1.441  15.286 -1.9823  3.7275  0.0195
  254TMC3    C1 3899   4.154   1.098  15.726  0.3875 -0.4415  0.9297
  254TMC3    C2 3900   4.019   1.079  15.715  0.6424  1.0307 -0.1926
  254TMC3    C3 3901   3.959   1.023  15.814 -1.4418 -0.5543 -0.2959
  254TMC3    C4 3902   4.231   1.052  15.832  1.1717  0.3412 -1.1906
  254TMC3    C5 3903   4.158   1.001  15.941  0.3337  0.1376 -0.7086
  254TMC3    C6 3904   4.019   0.994  15.928 -0.2052  0.1385  0.2521
  254TMC3     C 3905   4.216   1.127  15.592 -0.5108  0.1435  0.5899
  254TMC3     O 3906   4.128   1.133  15.502  0.5592 -0.1907 -0.1001
  254TMC3     H 3907   3.954   1.098  15.630  1.3761  0.6537 -0.8305
  254TMC3    H1 3908   4.339   1.045  15.826  1.3345  1.8515  0.1008
  254TMC3    H2 3909   3.966   0.949  16.012  0.2431 -0.7516  0.0566
  254TMC3    C7 3910   4.213   0.985  16.076  0.3697  0.0402 -0.1046
  254TMC3    C8 3911   3.819   1.062  15.847 -0.0549 -0.1078  0.4383
  254TMC3    O1 3912   4.134   0.941  16.161  0.1957 -0.6137 -0.3861
  254TMC3    O2 3913   3.754   0.982  15.908 -0.9092 -0.6484 -0.6332
  255MPD2     C 3914   1.684   3.357  10.502 -1.1932  0.0012  0.7834
  255MPD2    C1 3915   1.805   3.357  10.440  0.3820 -0.2007  0.2071
  255MPD2    C2 3916   1.918   3.306  10.506  0.3109 -0.5390 -0.2628
  255MPD2    C3 3917   1.908   3.270  10.639 -0.0715  0.2463 -0.4203
  255MPD2    C4 3918   1.786   3.276  10.703  0.6915 -0.3492 -0.4371
  255MPD2    C5 3919   1.680   3.338  10.635  0.9994  0.2987 -0.0640
  255MPD2     H 3920   2.013   3.309  10.453 -0.4247 -1.1849 -1.6060
  255MPD2    H1 3921   1.775   3.253  10.808 -0.4397 -1.4897 -0.8056
  255MPD2    H2 3922   1.596   3.394  10.451 -2.4615  0.7064  3.4992
  255MPD2    H3 3923   1.590   3.364  10.689  1.3486 -0.3410  0.8254
  255MPD2     N 3924   2.025   3.220  10.700  0.2778 -0.0347  0.1456
  255MPD2    H5 3925   2.111   3.228  10.648 -0.2357 -1.6111 -0.9397
  255MPD2    N1 3926   1.809   3.396  10.304  0.2135  0.6384 -0.6368
  255MPD2    H7 3927   1.719   3.426  10.268  0.4085 -0.9240 -2.4227
  256TMC3    C1 3928   1.891   3.443  10.093 -0.6203 -0.6145 -0.3437
  256TMC3    C2 3929   1.991   3.497  10.029  0.2895  0.0516 -0.2835
  256TMC3    C3 3930   1.968   3.535   9.901  0.0589 -0.3271 -0.5751
  256TMC3    C4 3931   1.765   3.423  10.044 -0.8615  0.1253 -0.3904
  256TMC3    C5 3932   1.742   3.488   9.926 -0.3593 -0.7760  0.0606
  256TMC3    C6 3933   1.843   3.534   9.855  0.0654  0.3434 -0.1777
  256TMC3     C 3934   1.924   3.414  10.233 -0.0629 -0.2125 -0.1133
  256TMC3     O 3935   2.040   3.413  10.266  0.1703  0.2040  0.6277
  256TMC3     H 3936   2.095   3.493  10.061  0.6859  2.8500 -1.2444
  256TMC3    H1 3937   1.679   3.386  10.099 -1.1641 -0.4909 -1.2958
  256TMC3    H2 3938   1.829   3.574   9.756  0.8045 -0.9493 -0.8122
  256TMC3    C7 3939   1.623   3.437   9.851 -0.8070 -0.4837  0.4380
  256TMC3    C8 3940   2.054   3.636   9.838 -0.1596 -0.6089 -0.0588
  256TMC3    O1 3941   1.583   3.323   9.877 -0.0848  0.2296 -0.7339
  256TMC3    O2 3942   2.013   3.728   9.768  0.3529  0.5569  0.4415
  257MPD2     C 3943   1.145   0.588  13.539  0.3424  0.2932  0.9053
  257MPD2    C1 3944   1.264   0.631  13.477  0.2156  0.7550 -0.1684
  257MPD2    C2 3945   1.383   0.576  13.521  0.0467 -0.1506 -0.3864
  257MPD2    C3 3946   1.382   0.480  13.616  0.2273 -0.4162  0.7227
  257MPD2    C4 3947   1.262   0.427  13.663  0.1821 -0.3594 -0.1050
  257MPD2    C5 3948   1.149   0.492  13.639 -0.0206 -0.2347  0.4139
  257MPD2     H 3949   1.478   0.613  13.484  0.1674 -0.3562 -0.2825
  257MPD2    H1 3950   1.249   0.349  13.737  2.0534 -1.1590 -0.6162
  257MPD2    H2 3951   1.042   0.612  13.519  0.1539 -1.4595 -0.2763
  257MPD2    H3 3952   1.057   0.460  13.687 -0.4598 -1.5124 -1.3112
  257MPD2     N 3953   1.510   0.425  13.648  0.1345  0.2613  0.0913
  257MPD2    H5 3954   1.591   0.462  13.599  1.6471 -0.8020  1.7589
  257MPD2    N1 3955   1.255   0.725  13.377  0.0036  0.3018  0.1926
  257MPD2    H7 3956   1.178   0.790  13.366 -0.8646 -0.7216  0.1320
  258TMC3    C1 3957   1.673   0.281  13.735 -0.2446  0.3720  0.3501
  258TMC3    C2 3958   1.744   0.299  13.614  0.1374 -0.6115  0.1675
  258TMC3    C3 3959   1.882   0.286  13.619 -0.4831 -0.1893 -0.2124
  258TMC3    C4 3960   1.725   0.216  13.840  0.2740  0.7415  0.2283
  258TMC3    C5 3961   1.862   0.187  13.829  0.0289 -0.2789  0.4569
  258TMC3    C6 3962   1.942   0.228  13.728  0.0878  0.6566 -0.3121
  258TMC3     C 3963   1.527   0.317  13.734  0.4336 -0.7933 -0.5647
  258TMC3     O 3964   1.461   0.287  13.836  0.5766 -0.3643  0.5038
  258TMC3     H 3965   1.696   0.336  13.524 -1.8041 -1.3434  0.9218
  258TMC3    H1 3966   1.654   0.208  13.921  0.9914 -0.7645  0.7183
  258TMC3    H2 3967   2.050   0.219  13.733  0.1375  0.8420 -1.0019
  258TMC3    C7 3968   1.932   0.165  13.954 -0.7353 -0.4567  0.2301
  258TMC3    C8 3969   1.960   0.331  13.511 -0.5246  0.1656  0.8030
  258TMC3    O1 3970   2.049   0.198  13.972  0.1693 -0.6302 -0.1535
  258TMC3    O2 3971   2.082   0.329  13.538  0.0279 -0.2204 -0.0640
  259MPD2     C 3972   0.836   3.214   0.860 -0.8025 -0.1802  0.2522
  259MPD2    C1 3973   0.831   3.078   0.843 -0.1224 -0.2687 -0.5271
  259MPD2    C2 3974   0.820   3.032   0.712 -0.1745 -0.1082  0.1989
  259MPD2    C3 3975   0.811   3.115   0.605 -1.0142  0.2562 -0.1735
  259MPD2    C4 3976   0.813   3.249   0.624  0.1840  0.9908 -0.1107
  259MPD2    C5 3977   0.832   3.297   0.751 -0.1698  0.3143 -0.4127
  259MPD2     H 3978   0.805   2.927   0.689  0.6931  0.0538 -1.1506
  259MPD2    H1 3979   0.830   3.318   0.542 -1.4304 -1.7987 -2.7894
  259MPD2    H2 3980   0.822   3.258   0.958  0.8671  2.7424 -0.7982
  259MPD2    H3 3981   0.841   3.403   0.772  0.1733  0.4870 -1.4190
  259MPD2     N 3982   0.785   3.066   0.473  0.1132  0.0392 -0.9112
  259MPD2    H5 3983   0.776   2.965   0.468 -0.0133  0.0152 -0.2619
  259MPD2    N1 3984   0.838   2.998   0.953 -0.4215 -0.1603 -0.1816
  259MPD2    H7 3985   0.856   3.057   1.033  1.5621 -1.4766  0.3352
  260TMC3    C1 3986   0.733   3.039   0.251  0.1747 -0.7328  0.2629
  260TMC3    C2 3987   0.725   3.100   0.128 -0.6698  0.1999 -0.4345
  260TMC3    C3 3988   0.692   3.010   0.024 -0.2482 -0.8684 -0.4798
  260TMC3    C4 3989   0.691   2.914   0.278  0.0243  0.2974  0.2787
  260TMC3    C5 3990   0.651   2.829   0.179 -0.2082 -0.4613 -0.2238
  260TMC3    C6 3991   0.660   2.876   0.048 -0.1945 -0.3426 -1.1934
  260TMC3     C 3992   0.768   3.135   0.358 -0.4494 -0.1138 -0.4365
  260TMC3     O 3993   0.777   3.256   0.331  0.5369 -0.1799 -0.7254
  260TMC3     H 3994   0.768   3.197   0.109 -0.0327 -0.3092 -1.5881
  260TMC3    H1 3995   0.696   2.872   0.378  1.2581 -2.0565 -0.7745
  260TMC3    H2 3996   0.637   2.807  17.723 -2.7940  0.2261 -0.9530
  260TMC3    C7 3997   0.671   2.689   0.194 -0.6815 -0.1014  0.6379
  260TMC3    C8 3998   0.799   3.026  17.686  0.1345  0.4908  0.1131
  260TMC3    O1 3999   0.700   2.629   0.094 -0.0036  0.2386  0.7443
  260TMC3    O2 4000   0.819   3.135  17.637  0.1737  0.1340  0.3964
  261MPD2     C 4001   2.215   0.772  12.801 -0.4527  0.9247 -0.8356
  261MPD2    C1 4002   2.328   0.788  12.727  0.2036 -0.6782  0.5342
  261MPD2    C2 4003   2.323   0.878  12.629  1.0325 -0.4463  0.6300
  261MPD2    C3 4004   2.209   0.947  12.586  0.0207  0.2223 -0.1540
  261MPD2    C4 4005   2.093   0.922  12.659  0.5336  0.6833 -0.0281
  261MPD2    C5 4006   2.098   0.834  12.761  0.4895  0.6973  0.0735
  261MPD2     H 4007   2.417   0.883  12.575  0.5729 -1.1869 -0.2461
  261MPD2    H1 4008   2.000   0.968  12.629  0.7179  1.2648  0.3015
  261MPD2    H2 4009   2.211   0.710  12.890  1.2994 -0.0493 -1.4431
  261MPD2    H3 4010   2.005   0.816  12.812  0.7800 -0.0106  0.3521
  261MPD2     N 4011   2.220   1.030  12.474 -0.4518  0.3207  0.2252
  261MPD2    H5 4012   2.309   1.028  12.426 -0.7530  2.6602 -0.4174
  261MPD2    N1 4013   2.444   0.702  12.746 -0.1342 -0.6431 -0.1338
  261MPD2    H7 4014   2.530   0.737  12.706 -0.9869 -0.4360 -1.7896
  262TMC3    C1 4015   2.147   1.175  12.311 -0.2969 -0.0314 -0.7520
  262TMC3    C2 4016   2.065   1.284  12.274 -0.6108  0.2539  0.0993
  262TMC3    C3 4017   2.070   1.339  12.151  0.5487 -0.0223  0.1349
  262TMC3    C4 4018   2.241   1.123  12.222 -0.2402  0.0944 -0.5568
  262TMC3    C5 4019   2.238   1.187  12.096 -0.9086 -0.0888  0.0118
  262TMC3    C6 4020   2.155   1.290  12.059 -0.4234 -0.4532 -0.4221
  262TMC3     C 4021   2.122   1.112  12.435 -0.1139  0.0109  0.2174
  262TMC3     O 4022   2.016   1.143  12.490  0.2607  0.6244 -0.2908
  262TMC3     H 4023   2.005   1.334  12.349  1.5112  1.6934  0.8373
  262TMC3    H1 4024   2.296   1.031  12.240  0.7901  0.7449 -0.3930
  262TMC3    H2 4025   2.145   1.323  11.956 -0.0612 -0.7615 -0.5549
  262TMC3    C7 4026   2.293   1.106  11.989  0.0683  0.5916 -1.0429
  262TMC3    C8 4027   1.968   1.438  12.118 -0.3929  0.1413  0.7945
  262TMC3    O1 4028   2.295   0.987  12.006  0.6473 -0.4528 -0.2103
  262TMC3    O2 4029   2.006   1.514  12.031  0.3746 -0.2092 -0.2134
  263MPD2     C 4030   2.736   4.376  11.676 -0.3928 -0.2065 -0.5849
  263MPD2    C1 4031   2.848   4.430  11.616  0.7099 -0.1461 -0.0063
  263MPD2    C2 4032   2.842   4.490  11.493 -0.5503 -0.7495  0.4668
  263MPD2    C3 4033   2.714   4.505  11.426  0.5349 -0.3114  0.2780
  263MPD2    C4 4034   2.606   4.445  11.484 -0.4034 -0.2745 -0.4888
  263MPD2    C5 4035   2.616   4.389  11.609  0.0534  0.2825  0.8266
  263MPD2     H 4036   2.927   4.529  11.438 -0.4654  1.1849  1.9815
  263MPD2    H1 4037   2.508   4.443  11.438  0.0588  1.6572 -1.5615
  263MPD2    H2 4038   2.739   4.334  11.776 -0.5605 -2.0490 -1.3693
  263MPD2    H3 4039   2.532   4.342  11.658 -0.6263  1.3107  0.6637
  263MPD2     N 4040   2.710   4.575  11.306 -0.5286  0.2093  0.0235
  263MPD2    H5 4041   2.795   4.619  11.274  0.4983 -1.5759  0.3222
  263MPD2    N1 4042   2.976   4.415  11.678 -0.1475  0.1607 -0.1054
  263MPD2    H7 4043   2.976   4.378  11.772  2.0706  1.7794  0.5374
  264TMC3    C1 4044   2.616   4.670  11.116  0.4712  1.1874 -0.5219
  264TMC3    C2 4045   2.620   0.060  11.158  0.4031  0.0981 -0.1393
  264TMC3    C3 4046   2.695   0.145  11.078 -0.6129 -0.5135 -1.0230
  264TMC3    C4 4047   2.692   4.622  11.015  0.0478  0.0158  0.8784
  264TMC3    C5 4048   2.759   4.713  10.934 -0.6641  0.0536 -0.8960
  264TMC3    C6 4049   2.749   0.107  10.955  0.1104  0.2934  0.1557
  264TMC3     C 4050   2.597   4.588  11.229 -0.0769  0.1761 -0.0190
  264TMC3     O 4051   2.485   4.540  11.243 -0.1871  0.7078 -0.5080
  264TMC3     H 4052   2.589   0.078  11.260 -2.8802 -0.7123 -0.9990
  264TMC3    H1 4053   2.699   4.514  11.004  0.4599  0.0289  0.9970
  264TMC3    H2 4054   2.798   0.178  10.890 -0.1923  0.3501 -0.0103
  264TMC3    C7 4055   2.819   4.673  10.813 -0.2632 -0.2853  0.0500
  264TMC3    C8 4056   2.742   0.272  11.135  0.5627  0.1013 -0.2050
  264TMC3    O1 4057   2.844   0.026  10.741  0.8151 -0.0594  0.5623
  264TMC3    O2 4058   2.806   0.332  11.051 -0.7969 -0.0744  0.1862
  265MPD2     C 4059   0.543   0.641  15.704  0.3813  0.2810 -0.1404
  265MPD2    C1 4060   0.614   0.736  15.624 -0.3779 -0.2718 -0.7357
  265MPD2    C2 4061   0.661   0.700  15.499 -0.2897 -0.4194  0.6425
  265MPD2    C3 4062   0.666   0.565  15.461 -0.2289  0.4757  0.2809
  265MPD2    C4 4063   0.603   0.474  15.539  0.4532 -0.7086 -0.2926
  265MPD2    C5 4064   0.541   0.512  15.655  0.6387  0.1801 -0.3333
  265MPD2     H 4065   0.703   0.775  15.434  0.0109 -0.9652  0.2069
  265MPD2    H1 4066   0.604   0.368  15.516  3.2083 -1.0876  1.4922
  265MPD2    H2 4067   0.491   0.645  15.799  0.9569 -1.1769  0.2331
  265MPD2    H3 4068   0.487   0.442  15.718  0.0377  2.2940  1.5226
  265MPD2     N 4069   0.727   0.517  15.345  0.1664 -0.1155 -0.3886
  265MPD2    H5 4070   0.706   0.419  15.329  0.0703 -0.2804  0.7210
  265MPD2    N1 4071   0.621   0.871  15.665  0.1490 -0.2095 -0.2235
  265MPD2    H7 4072   0.674   0.936  15.608 -0.4171 -0.7528 -1.3741
  266TMC3    C1 4073   0.586   1.063  15.801 -0.5890  0.4411  0.1221
  266TMC3    C2 4074   0.578   1.116  15.924 -0.8837 -0.4549  0.2322
  266TMC3    C3 4075   0.575   1.253  15.942 -0.1968 -0.4195  0.6045
  266TMC3    C4 4076   0.574   1.149  15.689  0.8319 -0.0360 -0.2951
  266TMC3    C5 4077   0.569   1.283  15.707 -0.0612 -0.3249  0.3073
  266TMC3    C6 4078   0.566   1.337  15.830  0.0692  0.0680  0.5042
  266TMC3     C 4079   0.575   0.919  15.787 -0.1906 -0.8964 -0.1219
  266TMC3     O 4080   0.525   0.859  15.883 -0.0611 -0.0553  0.3419
  266TMC3     H 4081   0.603   1.048  16.005 -0.2427  0.7170  1.0224
  266TMC3    H1 4082   0.590   1.108  15.590 -1.0491 -1.4262 -0.0201
  266TMC3    H2 4083   0.562   1.444  15.846 -0.6792  0.1893 -0.4711
  266TMC3    C7 4084   0.566   1.368  15.592 -0.0497  0.4382 -0.5220
  266TMC3    C8 4085   0.628   1.304  16.071  0.1128 -0.1652 -0.2217
  266TMC3    O1 4086   0.577   1.311  15.480  0.0962 -0.4840  0.5552
  266TMC3    O2 4087   0.663   1.231  16.160 -0.2415 -1.1708 -0.7808
  267MPD2     C 4088   2.494   3.033   0.259  0.0164 -0.2413  0.7172
  267MPD2    C1 4089   2.595   3.116   0.210  0.3066 -0.0437  0.4303
  267MPD2    C2 4090   2.560   3.217   0.121  0.6343  0.3928  0.1675
  267MPD2    C3 4091   2.431   3.226   0.063  0.1128 -0.2242  0.0189
  267MPD2    C4 4092   2.332   3.134   0.105 -0.4602  0.2045  0.0825
  267MPD2    C5 4093   2.368   3.045   0.203 -0.5461 -0.0179 -0.2832
  267MPD2     H 4094   2.632   3.288   0.080 -1.2279  1.3237 -1.4744
  267MPD2    H1 4095   2.232   3.133   0.063 -0.5525  0.3010  0.3045
  267MPD2    H2 4096   2.519   2.961   0.336 -1.2323  0.0690  1.4090
  267MPD2    H3 4097   2.295   2.976   0.245  1.0058 -2.2193 -1.1983
  267MPD2     N 4098   2.404   3.328  17.725  0.3695 -0.4200 -0.3711
  267MPD2    H5 4099   2.316   3.329  17.674  0.0018  0.8460  0.2789
  267MPD2    N1 4100   2.722   3.110   0.270 -0.2540 -0.1994  0.1918
  267MPD2    H7 4101   2.737   3.023   0.321  0.5759  0.0314  0.3478
  268TMC3    C1 4102   2.952   3.141   0.314  0.7249  0.5439 -0.2333
  268TMC3    C2 4103   3.072   3.179   0.263  0.0039  0.9883  1.1732
  268TMC3    C3 4104   3.184   3.146   0.331 -0.2149 -0.0423  0.9864
  268TMC3    C4 4105   2.934   3.083   0.437  0.4344  0.2136 -0.2352
  268TMC3    C5 4106   3.051   3.064   0.508  0.2943 -0.8430  0.1727
  268TMC3    C6 4107   3.175   3.089   0.454  0.2015  0.8869 -0.8298
  268TMC3     C 4108   2.833   3.188   0.249 -0.8570  0.1960  0.2184
  268TMC3     O 4109   2.845   3.287   0.175  0.2516  0.4132 -0.8403
  268TMC3     H 4110   3.073   3.241   0.174 -0.0114  0.0140  0.4987
  268TMC3    H1 4111   2.839   3.068   0.486 -0.6876 -2.3347 -3.1832
  268TMC3    H2 4112   3.266   3.061   0.507 -0.6361 -1.3349 -0.5560
  268TMC3    C7 4113   3.036   3.016   0.643  0.2976  0.3762 -0.0295
  268TMC3    C8 4114   3.316   3.123   0.271 -0.3495 -0.0122  0.5692
  268TMC3    O1 4115   2.924   3.030   0.688 -0.2484 -0.2743 -0.4863
  268TMC3    O2 4116   3.407   3.085   0.340  0.2630 -0.4118 -0.2972
  269MPD2     C 4117   3.589   1.227  15.461  0.2420  0.0202  0.0603
  269MPD2    C1 4118   3.474   1.217  15.543 -0.0727  0.0437  0.3472
  269MPD2    C2 4119   3.388   1.327  15.548  0.5581  0.4254  0.0878
  269MPD2    C3 4120   3.425   1.445  15.484  0.0676 -0.1548 -0.0327
  269MPD2    C4 4121   3.537   1.453  15.415 -0.0848 -0.2379 -1.1611
  269MPD2    C5 4122   3.608   1.343  15.391 -0.5535 -0.3574  0.3172
  269MPD2     H 4123   3.300   1.313  15.609  0.3931  0.4531 -0.1444
  269MPD2    H1 4124   3.565   1.538  15.353  2.0602 -0.1375 -0.0747
  269MPD2    H2 4125   3.657   1.145  15.439 -0.2521  0.0399 -1.5350
  269MPD2    H3 4126   3.697   1.347  15.329 -1.6102  2.1652 -1.0182
  269MPD2     N 4127   3.339   1.552  15.515  0.6204  0.4350 -0.3257
  269MPD2    H5 4128   3.255   1.541  15.571  0.9481  1.3557  0.3530
  269MPD2    N1 4129   3.463   1.092  15.620 -0.0400  0.1124  0.1073
  269MPD2    H7 4130   3.531   1.020  15.597  0.6093  1.2852 -1.6297
  270TMC3    C1 4131   3.362   0.917  15.721  0.0029  0.3547  0.8604
  270TMC3    C2 4132   3.239   0.865  15.698 -1.2884 -0.8286 -0.4423
  270TMC3    C3 4133   3.239   0.742  15.649 -0.2007  0.4701  0.2844
  270TMC3    C4 4134   3.484   0.857  15.695 -0.3521  0.1437  1.3232
  270TMC3    C5 4135   3.477   0.732  15.643  0.1888  0.2086 -0.2490
  270TMC3    C6 4136   3.355   0.672  15.617 -0.3666  1.0239 -0.1133
  270TMC3     C 4137   3.357   1.059  15.698  0.2169  0.0923 -0.5717
  270TMC3     O 4138   3.260   1.118  15.744  0.4181 -0.4218  0.4621
  270TMC3     H 4139   3.153   0.927  15.722 -2.1280 -2.7530  1.4367
  270TMC3    H1 4140   3.581   0.898  15.720  0.5754 -0.1597 -1.7236
  270TMC3    H2 4141   3.351   0.565  15.597 -1.0098  0.9423  0.4668
  270TMC3    C7 4142   3.597   0.659  15.621  0.0249 -0.5242  0.9750
  270TMC3    C8 4143   3.112   0.691  15.599  0.5122  0.0661  0.4057
  270TMC3    O1 4144   3.684   0.668  15.707 -0.3308  0.1711  0.2403
  270TMC3    O2 4145   3.013   0.732  15.657  0.2750 -0.2370 -0.0208
  271MPD2     C 4146   2.395   0.909  13.942 -0.1331 -0.0217 -0.2519
  271MPD2    C1 4147   2.326   0.856  14.045  0.0555  0.1615 -0.2455
  271MPD2    C2 4148   2.186   0.858  14.047  0.0208  0.2468 -0.0857
  271MPD2    C3 4149   2.111   0.910  13.940 -0.4054 -1.0289 -0.1061
  271MPD2    C4 4150   2.187   0.939  13.827 -0.4497 -0.3127  0.1971
  271MPD2    C5 4151   2.325   0.939  13.824 -0.9634  0.5892  0.9537
  271MPD2     H 4152   2.137   0.821  14.137  0.0060  0.4399 -0.0147
  271MPD2    H1 4153   2.136   0.970  13.736 -0.3251  1.2016  0.6396
  271MPD2    H2 4154   2.503   0.912  13.933  0.0569 -0.3359  1.9548
  271MPD2    H3 4155   2.373   0.973  13.733 -5.5676  0.2454 -1.5953
  271MPD2     N 4156   1.969   0.919  13.933 -0.3227  0.0090  0.0641
  271MPD2    H5 4157   1.929   0.947  13.844  0.2199 -1.2223 -0.5619
  271MPD2    N1 4158   2.402   0.814  14.166  0.3062  0.3893  0.3738
  271MPD2    H7 4159   2.354   0.766  14.242  0.5374 -1.3658 -0.5802
  272TMC3    C1 4160   2.591   0.765  14.311  0.3098 -0.4626  0.1081
  272TMC3    C2 4161   2.721   0.729  14.306  0.3365 -0.2709  0.3751
  272TMC3    C3 4162   2.780   0.670  14.415  0.0266  0.2073 -0.3906
  272TMC3    C4 4163   2.520   0.757  14.424  0.0634 -0.1292  0.0295
  272TMC3    C5 4164   2.586   0.711  14.533  0.5354  0.3307  0.2570
  272TMC3    C6 4165   2.716   0.676  14.538 -0.0555  0.5844 -0.4811
  272TMC3     C 4166   2.540   0.830  14.191  0.0979  0.1598 -0.1645
  272TMC3     O 4167   2.630   0.894  14.127  0.8005  0.0439  0.2809
  272TMC3     H 4168   2.763   0.710  14.208  0.2045  0.0625  0.2537
  272TMC3    H1 4169   2.421   0.801  14.424  0.7106  1.3261 -1.1953
  272TMC3    H2 4170   2.765   0.647  14.631  2.3795 -1.1894 -2.3285
  272TMC3    C7 4171   2.519   0.747  14.660  0.9966  0.2655  0.2815
  272TMC3    C8 4172   2.918   0.641  14.393 -0.0306 -0.1496 -0.9452
  272TMC3    O1 4173   2.401   0.722  14.653  0.4232  0.0961 -0.5838
  272TMC3    O2 4174   2.965   0.692  14.295  0.1384  0.7661 -0.1634
  273MPD2     C 4175   3.414   3.727  11.909 -0.3665 -0.2376  0.5472
  273MPD2    C1 4176   3.493   3.834  11.880  0.4720  0.5592 -0.2706
  273MPD2    C2 4177   3.543   3.849  11.755 -0.4134  0.1581 -0.1040
  273MPD2    C3 4178   3.510   3.764  11.653  0.3224 -1.0719 -0.1928
  273MPD2    C4 4179   3.429   3.661  11.680 -0.3979  0.7175 -0.5979
  273MPD2    C5 4180   3.383   3.643  11.812 -0.2451 -0.3396  0.8651
  273MPD2     H 4181   3.586   3.946  11.736 -0.3582  0.3034  0.7818
  273MPD2    H1 4182   3.409   3.584  11.606 -0.1105  1.1683 -1.1435
  273MPD2    H2 4183   3.372   3.707  12.007  0.3932  0.9475  1.1042
  273MPD2    H3 4184   3.322   3.559  11.844 -0.9656 -0.6688 -1.4149
  273MPD2     N 4185   3.562   3.779  11.520 -0.0981  0.4335  0.3288
  273MPD2    H5 4186   3.518   3.725  11.446  0.7784 -1.2893  1.0767
  273MPD2    N1 4187   3.537   3.919  11.991 -0.0438 -0.6882  0.3128
  273MPD2    H7 4188   3.501   3.885  12.080 -0.7428 -0.2856  0.1842
  274TMC3    C1 4189   3.714   3.860  11.345  0.3738  0.0682 -0.2246
  274TMC3    C2 4190   3.614   3.826  11.255  0.1327  0.6124  0.5719
  274TMC3    C3 4191   3.606   3.896  11.141  0.0518  0.0586 -0.5434
  274TMC3    C4 4192   3.809   3.962  11.317 -0.1420 -0.4644  0.2266
  274TMC3    C5 4193   3.797   4.029  11.201 -1.0039  0.3207 -0.2380
  274TMC3    C6 4194   3.689   4.006  11.112 -0.5121 -0.3254 -0.0638
  274TMC3     C 4195   3.673   3.851  11.484  0.6820  0.4229  0.5711
  274TMC3     O 4196   3.754   3.905  11.556 -0.2845  0.0859 -0.7240
  274TMC3     H 4197   3.548   3.741  11.262  1.4910 -0.2582  2.8892
  274TMC3    H1 4198   3.895   3.980  11.381  0.0790  1.5897 -0.6498
  274TMC3    H2 4199   3.694   4.063  11.020 -2.3557  0.1623  0.1294
  274TMC3    C7 4200   3.893   4.132  11.160  0.3886  0.9325  0.2270
  274TMC3    C8 4201   3.512   3.846  11.040 -0.1117 -0.3011 -0.0150
  274TMC3    O1 4202   3.919   4.117  11.038 -0.2185 -0.1064  0.2038
  274TMC3    O2 4203   3.461   3.736  11.052 -0.4243 -0.7115  0.1540
  275MPD2     C 4204   3.895   1.964  14.586  0.5691  0.5675  0.2800
  275MPD2    C1 4205   3.799   2.052  14.565 -0.4840 -0.1642  0.1244
  275MPD2    C2 4206   3.670   2.020  14.609  0.0625  0.0354 -0.9091
  275MPD2    C3 4207   3.652   1.898  14.679  0.0318  0.4240 -0.3854
  275MPD2    C4 4208   3.754   1.807  14.702 -0.6463 -1.1530  0.0205
  275MPD2    C5 4209   3.875   1.851  14.660  0.3988 -0.3699 -0.2844
  275MPD2     H 4210   3.589   2.090  14.592  1.5876  2.4405  1.5722
  275MPD2    H1 4211   3.745   1.717  14.762  0.1236 -0.7583  0.7274
  275MPD2    H2 4212   4.001   1.977  14.564  0.1870  1.9044 -0.7363
  275MPD2    H3 4213   3.958   1.781  14.666  0.5013 -0.3932 -2.0682
  275MPD2     N 4214   3.523   1.860  14.722  0.0510  0.4793 -0.4749
  275MPD2    H5 4215   3.521   1.782  14.787 -0.9470  0.5748 -0.3875
  275MPD2    N1 4216   3.814   2.174  14.494  0.3422 -0.3459 -0.3814
  275MPD2    H7 4217   3.736   2.238  14.484  0.4333  0.0496  1.4075
  276TMC3    C1 4218   3.936   2.367  14.459  0.1519  0.0264 -0.0898
  276TMC3    C2 4219   3.825   2.418  14.528 -0.0386  0.3858 -0.1903
  276TMC3    C3 4220   3.842   2.501  14.638  0.0580 -0.8725  0.3469
  276TMC3    C4 4221   4.057   2.416  14.489  0.3139 -0.4120 -0.6012
  276TMC3    C5 4222   4.077   2.482  14.608 -1.4779 -0.7002  0.3230
  276TMC3    C6 4223   3.967   2.531  14.685 -0.5239 -0.2231  0.2234
  276TMC3     C 4224   3.937   2.224  14.457  0.6270 -0.8434  0.0620
  276TMC3     O 4225   4.051   2.178  14.465 -0.4093 -0.1458  0.3008
  276TMC3     H 4226   3.724   2.404  14.493  0.5395 -1.8858 -0.9816
  276TMC3    H1 4227   4.144   2.370  14.444  1.1311  0.7411 -0.2141
  276TMC3    H2 4228   3.980   2.588  14.776  0.0703 -0.6111  0.3865
  276TMC3    C7 4229   4.218   2.497  14.663 -0.2370  0.1776 -0.4177
  276TMC3    C8 4230   3.755   2.460  14.740 -0.6291 -0.1042  0.2633
  276TMC3    O1 4231   4.224   2.568  14.765  0.1740  0.4083  0.6535
  276TMC3    O2 4232   3.635   2.466  14.707  0.4309 -0.0753  0.7412
  277MPD2     C 4233   0.505   1.083  13.080  0.0100  0.1948 -0.1124
  277MPD2    C1 4234   0.383   1.073  13.146  0.9920 -0.0435 -0.4353
  277MPD2    C2 4235   0.366   0.970  13.238  0.0469  0.3083 -0.1481
  277MPD2    C3 4236   0.468   0.881  13.277  0.0821  0.8742 -0.8484
  277MPD2    C4 4237   0.593   0.896  13.220 -0.4605  0.1522 -0.3983
  277MPD2    C5 4238   0.610   0.997  13.118 -0.4479  0.0038  0.3280
  277MPD2     H 4239   0.270   0.952  13.284 -1.1345 -0.5806 -3.0067
  277MPD2    H1 4240   0.679   0.833  13.238  0.2996  1.4580  0.5204
  277MPD2    H2 4241   0.529   1.156  13.003 -1.7924 -1.4347 -2.2168
  277MPD2    H3 4242   0.705   0.997  13.066 -0.1943  2.6338  0.8188
  277MPD2     N 4243   0.445   0.783  13.375 -0.4199  0.1976 -0.4021
  277MPD2    H5 4244   0.354   0.787  13.420 -1.2734 -4.5185 -1.6772
  277MPD2    N1 4245   0.289   1.163  13.113 -0.1256  0.3131  0.1111
  277MPD2    H7 4246   0.308   1.243  13.053 -1.0905  1.4238  1.2635
  278TMC3    C1 4247   0.485   0.611  13.526 -0.6993 -0.1425 -0.1561
  278TMC3    C2 4248   0.507   0.478  13.531 -0.4707  0.3331  0.1624
  278TMC3    C3 4249   0.442   0.415  13.630  0.6384  0.2040  0.1889
  278TMC3    C4 4250   0.426   0.688  13.624 -0.5880 -0.5515 -0.1746
  278TMC3    C5 4251   0.367   0.615  13.725 -0.7441  0.2129  0.1513
  278TMC3    C6 4252   0.374   0.481  13.731  0.2817  0.2139  0.1006
  278TMC3     C 4253   0.531   0.681  13.403 -0.0866  0.3139  0.4017
  278TMC3     O 4254   0.623   0.630  13.335  0.4401  0.0979  0.6436
  278TMC3     H 4255   0.549   0.421  13.448  0.4291  0.2334  0.6827
  278TMC3    H1 4256   0.417   0.795  13.606  1.8784 -0.7213 -2.3465
  278TMC3    H2 4257   0.336   0.430  13.819 -1.9116  1.8944  0.1185
  278TMC3    C7 4258   0.332   0.680  13.847 -0.1499  0.5960  0.2945
  278TMC3    C8 4259   0.430   0.276  13.614  0.1386 -0.1575 -0.3530
  278TMC3    O1 4260   0.417   0.754  13.893  0.2631  0.8489 -0.4472
  278TMC3    O2 4261   0.532   0.209  13.584 -0.2617 -0.4469 -0.8115
  279MPD2     C 4262   0.298   0.965   0.439 -0.2385 -0.2959  0.7161
  279MPD2    C1 4263   0.226   1.084   0.458  0.3159  0.4053  0.0060
  279MPD2    C2 4264   0.160   1.152   0.354 -0.3066 -0.4255 -0.3000
  279MPD2    C3 4265   0.142   1.078   0.231  0.1766  0.1985  0.0385
  279MPD2    C4 4266   0.196   0.954   0.221 -0.1662  0.1242  0.3530
  279MPD2    C5 4267   0.263   0.898   0.327  0.1207  0.2403 -0.3103
  279MPD2     H 4268   0.113   1.250   0.360 -2.6950 -1.5962  0.2948
  279MPD2    H1 4269   0.186   0.894   0.131  1.0430 -0.7593  0.7968
  279MPD2    H2 4270   0.356   0.919   0.518  0.9802 -0.4272 -0.2555
  279MPD2    H3 4271   0.301   0.796   0.323 -2.4865 -0.7995  1.2154
  279MPD2     N 4272   0.073   1.120   0.115 -0.3529 -0.2239  0.1519
  279MPD2    H5 4273   0.074   1.062   0.032  1.0927  1.3296 -0.9185
  279MPD2    N1 4274   0.243   1.138   0.595 -0.4267 -0.5446 -0.4588
  279MPD2    H7 4275   0.326   1.100   0.638  0.3362  1.7489  0.0906
  280TMC3    C1 4276   0.032   1.268   0.619 -0.0909  0.3382  0.0282
  280TMC3    C2 4277   4.693   1.161   0.575 -0.4131 -0.5867 -0.2540
  280TMC3    C3 4278   4.554   1.182   0.566 -0.3428  0.2664  0.2324
  280TMC3    C4 4279   4.718   1.386   0.662  0.3745 -0.6068  0.2562
  280TMC3    C5 4280   4.584   1.406   0.642 -0.8313  0.4138  0.2054
  280TMC3    C6 4281   4.504   1.304   0.594 -0.1943  0.1075 -0.4467
  280TMC3     C 4282   0.177   1.251   0.640  0.0424  0.1288 -0.8336
  280TMC3     O 4283   0.222   1.304   0.739 -0.3709 -0.4269  0.2032
  280TMC3     H 4284   4.730   1.063   0.546  0.3117 -0.1010 -0.9966
  280TMC3    H1 4285   0.049   1.464   0.688 -0.2027 -0.6577  1.9744
  280TMC3    H2 4286   4.400   1.335   0.593 -1.4072 -4.0061 -1.2289
  280TMC3    C7 4287   4.536   1.542   0.649 -0.7620 -0.0890  0.4477
  280TMC3    C8 4288   4.473   1.094   0.485 -0.1944 -0.3342  0.1732
  280TMC3    O1 4289   4.579   1.612   0.741  0.1824  0.6014  0.1403
  280TMC3    O2 4290   4.355   1.120   0.485  0.0906 -0.2049 -0.3039
  281TMC3    C1 4291   3.538   1.047  13.904  0.1449  0.1961 -0.3775
  281TMC3    C2 4292   3.639   1.132  13.869  0.3991 -0.4887  0.5914
  281TMC3    C3 4293   3.742   1.077  13.801 -0.4254  0.0979  0.3801
  281TMC3    C4 4294   3.523   0.917  13.869  0.3283  0.8583  0.2586
  281TMC3    C5 4295   3.631   0.863  13.802  0.0125  0.2070 -0.3709
  281TMC3    C6 4296   3.738   0.944  13.772  0.1264 -0.6554  0.3710
  281TMC3     C 4297   3.423   1.100  13.968  0.3518 -0.0394  0.0783
  281TMC3     O 4298   3.368   1.031  14.058 -0.3776 -0.0648 -0.1986
  281TMC3     H 4299   3.640   1.234  13.905 -0.8810  0.0316 -0.8385
  281TMC3    H1 4300   3.430   0.867  13.893 -0.3627  0.0631 -3.9781
  281TMC3    H2 4301   3.825   0.894  13.732  0.8845  0.4868  0.6025
  281TMC3    C7 4302   3.623   0.737  13.733  0.6133  0.0897 -0.3199
  281TMC3    C8 4303   3.853   1.149  13.750  0.4631  0.0519 -0.1653
  281TMC3    O1 4304   3.684   0.728  13.625 -0.3065 -0.2505 -0.1273
  281TMC3    O2 4305   3.962   1.093  13.756  0.2293 -0.2441 -0.8629
  282MPD2     C 4306   0.490   2.360  14.831 -0.8908 -0.1395 -0.1369
  282MPD2    C1 4307   0.377   2.413  14.892  0.3928  0.2797  0.2776
  282MPD2    C2 4308   0.273   2.457  14.821 -0.4056 -0.4439  0.3068
  282MPD2    C3 4309   0.282   2.451  14.677 -0.3071 -0.2490  0.2986
  282MPD2    C4 4310   0.396   2.409  14.617  0.4597 -1.0348  0.1796
  282MPD2    C5 4311   0.500   2.355  14.694 -0.0356  0.4401 -0.2966
  282MPD2     H 4312   0.180   2.486  14.868  0.1304 -0.6744  1.5096
  282MPD2    H1 4313   0.409   2.404  14.510  0.8111  0.7164  0.1397
  282MPD2    H2 4314   0.563   2.313  14.896 -1.2419 -0.2434  0.1847
  282MPD2    H3 4315   0.584   2.306  14.647  0.3100  0.3038  0.4731
  282MPD2     N 4316   0.171   2.502  14.599 -0.1012  0.9468  0.2200
  282MPD2    H5 4317   0.086   2.530  14.646 -0.3752  0.0249  0.2659
  282MPD2    N1 4318   0.359   2.424  15.035  0.4415 -0.3975  0.5059
  282MPD2    H7 4319   0.268   2.457  15.064  0.6019  1.7413 -1.4073
  283TMC3    C1 4320   0.414   2.424  15.253 -0.2349 -0.4961  0.6212
  283TMC3    C2 4321   0.489   2.512  15.322 -0.4012  0.5661 -1.2033
  283TMC3    C3 4322   0.481   2.506  15.458 -0.3061 -0.0367  0.5153
  283TMC3    C4 4323   0.323   2.334  15.309 -0.1694  0.1721 -0.0384
  283TMC3    C5 4324   0.323   2.333  15.448 -0.4000 -0.9639  0.2473
  283TMC3    C6 4325   0.400   2.421  15.523 -0.2492  0.2849 -0.3261
  283TMC3     C 4326   0.466   2.409  15.121  0.8186 -0.3528 -0.5200
  283TMC3     O 4327   0.585   2.401  15.106 -0.4911  0.0920  0.4120
  283TMC3     H 4328   0.540   2.593  15.271 -0.4755  0.3297 -1.6531
  283TMC3    H1 4329   0.264   2.267  15.247 -0.2645  1.9986 -1.9471
  283TMC3    H2 4330   0.409   2.412  15.630 -0.2939  1.0225 -0.2648
  283TMC3    C7 4331   0.253   2.223  15.515 -0.5904  0.0836 -0.0296
  283TMC3    C8 4332   0.536   2.613  15.532  0.8884 -0.2951 -0.1399
  283TMC3    O1 4333   0.270   2.224  15.639 -0.4052 -0.8678  0.7309
  283TMC3    O2 4334   0.586   2.584  15.640  0.5556 -0.0220  0.4194
  284MPD2     C 4335   2.607   1.723  12.292 -0.1922 -0.5155 -0.0466
  284MPD2    C1 4336   2.740   1.709  12.240  0.2973  0.0131  0.3110
  284MPD2    C2 4337   2.845   1.684  12.330 -0.1697 -0.2590  0.3484
  284MPD2    C3 4338   2.820   1.677  12.468 -0.1433  0.1234  0.5720
  284MPD2    C4 4339   2.690   1.674  12.517  0.8257  0.7890 -0.1143
  284MPD2    C5 4340   2.587   1.702  12.430  0.8821  0.5985  0.4230
  284MPD2     H 4341   2.943   1.678  12.285  0.6487  2.2213  1.8178
  284MPD2    H1 4342   2.666   1.657  12.622  0.6395  0.7053 -0.1704
  284MPD2    H2 4343   2.525   1.713  12.222  0.2317  1.5665 -0.8427
  284MPD2    H3 4344   2.484   1.701  12.462  1.0841  0.0400  1.0542
  284MPD2     N 4345   2.928   1.657  12.560  0.3027  0.0416  0.2991
  284MPD2    H5 4346   2.909   1.630  12.656  1.2827 -0.0462  0.4689
  284MPD2    N1 4347   2.768   1.709  12.101 -0.3254 -0.2612 -0.5202
  284MPD2    H7 4348   2.857   1.669  12.072  1.1154  1.5888  1.3888
  285TMC3    C1 4349   2.772   1.769  11.882 -0.4912 -0.2820  1.0866
  285TMC3    C2 4350   2.828   1.659  11.829 -0.0630  0.1938 -0.5223
  285TMC3    C3 4351   2.911   1.679  11.715 -0.3475  0.0620 -0.3343
  285TMC3    C4 4352   2.788   1.896  11.836 -0.3765 -0.5782 -0.0060
  285TMC3    C5 4353   2.881   1.913  11.735  0.2672  0.8885  0.0476
  285TMC3    C6 4354   2.930   1.804  11.659 -0.1942  0.3653 -0.6961
  285TMC3     C 4355   2.695   1.756  11.999 -0.0076  0.2233 -0.6903
  285TMC3     O 4356   2.602   1.834  12.013  0.3426 -0.2395  0.8183
  285TMC3     H 4357   2.824   1.562  11.877  1.6467 -0.8651 -2.5315
  285TMC3    H1 4358   2.748   1.979  11.894  1.2952 -0.1558  0.5289
  285TMC3    H2 4359   2.987   1.821  11.568  0.3998 -0.7018 -0.5202
  285TMC3    C7 4360   2.906   2.040  11.677 -0.2801 -0.1940  0.4717
  285TMC3    C8 4361   3.000   1.573  11.678 -0.9054 -0.3024  0.1435
  285TMC3    O1 4362   2.985   2.056  11.584 -0.2379 -1.0019  0.4459
  285TMC3    O2 4363   2.957   1.461  11.695 -0.4865  0.3197 -0.2470
  286MPD2     C 4364   4.091   1.180   1.413  0.3853  0.3001 -0.0732
  286MPD2    C1 4365   4.040   1.146   1.295 -0.5367 -0.1757 -0.3078
  286MPD2    C2 4366   4.009   1.016   1.265  0.2047  0.5914 -0.1523
  286MPD2    C3 4367   4.034   0.916   1.355  0.7057 -0.3423 -0.4595
  286MPD2    C4 4368   4.080   0.954   1.477  0.5346  0.1927 -0.6629
  286MPD2    C5 4369   4.111   1.085   1.511 -0.2053  0.5392 -0.2313
  286MPD2     H 4370   3.966   0.985   1.170  1.1204 -2.3674  0.3938
  286MPD2    H1 4371   4.093   0.875   1.551 -1.2373 -0.2627 -0.8411
  286MPD2    H2 4372   4.116   1.281   1.444 -4.6948  1.2233  1.0077
  286MPD2    H3 4373   4.139   1.098   1.615 -1.0679  0.0007  0.0779
  286MPD2     N 4374   4.029   0.779   1.330  0.3325 -0.0984  0.2035
  286MPD2    H5 4375   4.052   0.715   1.405 -0.2838 -0.8332 -0.2364
  286MPD2    N1 4376   4.022   1.247   1.195 -1.0963 -0.3020  1.0514
  286MPD2    H7 4377   4.031   1.342   1.229  1.1011  0.4979 -1.7700
  287TMC3    C1 4378   3.995   0.585   1.191 -0.6632  0.1000 -0.1231
  287TMC3    C2 4379   3.913   0.522   1.107  0.6614 -0.1994 -0.4399
  287TMC3    C3 4380   3.903   0.381   1.115 -0.1875  0.4126  0.5476
  287TMC3    C4 4381   4.066   0.516   1.279  0.3755  0.6069  0.1592
  287TMC3    C5 4382   4.063   0.386   1.291  0.2637  0.7570 -0.2627
  287TMC3    C6 4383   3.977   0.308   1.210 -0.8808 -0.0793 -0.0577
  287TMC3     C 4384   3.974   0.723   1.213  0.1735 -0.0076  0.3128
  287TMC3     O 4385   3.935   0.776   1.113  0.2318 -0.0966 -0.3937
  287TMC3     H 4386   3.843   0.577   1.045 -0.0086  0.8957  1.3093
  287TMC3    H1 4387   4.145   0.568   1.333  1.0132  1.5604 -1.6769
  287TMC3    H2 4388   3.961   0.201   1.212 -0.6118 -0.1081  0.6783
  287TMC3    C7 4389   4.146   0.314   1.382 -0.2250 -0.2165 -0.2338
  287TMC3    C8 4390   3.831   0.304   1.015  0.7035 -0.2538 -0.4135
  287TMC3    O1 4391   4.145   0.189   1.372  0.3530  0.5559  0.3398
  287TMC3    O2 4392   3.758   0.212   1.053 -0.1372  0.0889 -0.5931
  288TMC3    C1 4393   0.986   0.404  14.644  0.4201  0.2271 -0.1138
  288TMC3    C2 4394   0.887   0.341  14.712 -0.5682  0.3454  0.3986
  288TMC3    C3 4395   0.773   0.414  14.733  0.1463 -0.4157  0.2399
  288TMC3    C4 4396   0.974   0.515  14.570 -1.0467  0.2383 -0.1809
  288TMC3    C5 4397   0.847   0.569  14.576  0.3435  0.5419 -0.3587
  288TMC3    C6 4398   0.748   0.527  14.662  0.6527  0.4188 -0.0367
  288TMC3     C 4399   1.108   0.329  14.618  0.6731  1.1515 -0.3537
  288TMC3     O 4400   1.138   0.242  14.699  0.5292 -0.3266 -0.2584
  288TMC3     H 4401   0.920   0.270  14.787  1.2767  1.5664  0.7328
  288TMC3    H1 4402   1.050   0.585  14.538  1.6143 -2.5315  0.0459
  288TMC3    H2 4403   0.652   0.575  14.671 -0.6359 -1.8743 -1.6939
  288TMC3    C7 4404   0.839   0.710  14.535  0.1978 -0.0257 -0.1305
  288TMC3    C8 4405   0.713   0.420  14.859 -0.7013 -0.3487  0.1017
  288TMC3    O1 4406   0.774   0.784  14.606 -0.3252 -0.6130 -0.1200
  288TMC3    O2 4407   0.688   0.537  14.895 -0.5627 -0.1630  0.1951
  289MPD2     C 4408   1.028   4.069  14.772 -0.3453 -0.2810 -0.0574
  289MPD2    C1 4409   0.973   4.188  14.726  0.3725 -0.5261 -0.7562
  289MPD2    C2 4410   0.848   4.188  14.662 -0.4639  0.2447  0.6588
  289MPD2    C3 4411   0.778   4.070  14.643 -0.1062  0.1274 -0.1963
  289MPD2    C4 4412   0.834   3.952  14.684 -0.8777  0.1881  0.5404
  289MPD2    C5 4413   0.957   3.954  14.749  0.1373  0.4714  0.0602
  289MPD2     H 4414   0.807   4.280  14.623  0.1134  0.1017 -0.2910
  289MPD2    H1 4415   0.785   3.857  14.668  1.6379 -0.8228 -1.1283
  289MPD2    H2 4416   1.120   4.055  14.827 -0.5106  0.0021  0.2915
  289MPD2    H3 4417   0.995   3.863  14.793  2.3429  0.8678 -1.0137
  289MPD2     N 4418   0.648   4.085  14.583  0.0523  0.3392  0.1571
  289MPD2    H5 4419   0.628   4.179  14.549  1.5496  0.8699  0.7673
  289MPD2    N1 4420   1.057   4.297  14.751 -0.0263  0.1150  0.4806
  289MPD2    H7 4421   1.151   4.273  14.781  0.1813  0.0448 -0.2412
  290TMC3    C1 4422   0.465   4.036  14.459  0.3594 -0.7557 -0.6966
  290TMC3    C2 4423   0.417   4.158  14.490 -0.1623 -0.1134  0.2863
  290TMC3    C3 4424   0.326   4.210  14.407 -0.2327 -0.1409  0.4837
  290TMC3    C4 4425   0.411   3.949  14.369 -0.4089  0.2133  0.3887
  290TMC3    C5 4426   0.319   4.007  14.292 -0.2172  0.2618 -0.5452
  290TMC3    C6 4427   0.282   4.141  14.298  0.2337  0.0120 -0.3663
  290TMC3     C 4428   0.567   3.984  14.541 -0.4115 -0.9579  0.0731
  290TMC3     O 4429   0.584   3.863  14.543 -0.1541  0.2359  0.1186
  290TMC3     H 4430   0.453   4.216  14.574  0.8494  0.8619 -0.8235
  290TMC3    H1 4431   0.464   3.857  14.349 -0.1933  0.2563  0.7630
  290TMC3    H2 4432   0.206   4.187  14.236  1.1034 -0.1963 -1.5884
  290TMC3    C7 4433   0.245   3.930  14.198 -0.4795  0.4783  0.8154
  290TMC3    C8 4434   0.339   4.356  14.392 -0.0625 -0.2361 -0.1899
  290TMC3    O1 4435   0.172   3.995  14.120 -0.0034  0.3065  0.3966
  290TMC3    O2 4436   0.331   4.428  14.491  0.1355  0.0323  0.4288
  291MPD2     C 4437   4.457   4.668   0.241  0.7890 -0.7152 -0.0568
  291MPD2    C1 4438   4.561   4.596   0.292 -0.3859  0.3520 -0.1726
  291MPD2    C2 4439   4.687   4.658   0.289 -0.0842  0.0910 -0.4696
  291MPD2    C3 4440   4.702   0.047   0.240  0.8098  0.4995  0.3381
  291MPD2    C4 4441   4.593   0.122   0.201  0.2356  0.0767 -0.5968
  291MPD2    C5 4442   4.475   0.057   0.190  0.4341 -0.5202 -0.8794
  291MPD2     H 4443   0.026   4.597   0.332 -1.0365 -1.1114 -0.4513
  291MPD2    H1 4444   4.595   0.226   0.169 -0.1592  0.2600 -0.0201
  291MPD2    H2 4445   4.358   4.624   0.237  0.9420 -1.2536  1.8215
  291MPD2    H3 4446   4.394   0.117   0.148 -1.4218 -2.3964  0.0077
  291MPD2     N 4447   0.088   0.113   0.237 -0.2147  0.7497  0.2911
  291MPD2    H5 4448   0.082   0.212   0.215  0.1402  0.3741 -1.4885
  291MPD2    N1 4449   4.559   4.459   0.333  0.0386 -0.7465 -0.2327
  291MPD2    H7 4450   4.649   4.420   0.360  0.1177 -0.7087 -0.4412
  292TMC3    C1 4451   4.487   4.245   0.398 -0.6648 -1.2468  0.0052
  292TMC3    C2 4452   4.551   4.253   0.518  0.4432 -0.1900  0.0178
  292TMC3    C3 4453   4.597   4.132   0.565 -0.5230 -0.3001 -0.4194
  292TMC3    C4 4454   4.458   4.132   0.333  0.0521 -0.0373 -0.2546
  292TMC3    C5 4455   4.487   4.013   0.398  0.0009 -0.1195  0.1589
  292TMC3    C6 4456   4.559   4.014   0.510  0.9260  0.1689 -0.8401
  292TMC3     C 4457   4.455   4.370   0.334  0.2547  0.0438  0.1913
  292TMC3     O 4458   4.337   4.381   0.304  0.0824  0.5063 -0.2875
  292TMC3     H 4459   4.583   4.348   0.558 -1.6350  0.2594  0.6075
  292TMC3    H1 4460   4.417   4.142   0.233  0.9748 -0.3147 -0.6620
  292TMC3    H2 4461   4.576   3.921   0.563 -0.4154  1.4858  1.9048
  292TMC3    C7 4462   4.491   3.895   0.323  0.2782  0.3477 -0.2268
  292TMC3    C8 4463   4.660   4.124   0.695 -0.2776 -0.4113 -0.3400
  292TMC3    O1 4464   4.541   3.793   0.373 -0.6911  0.2926  0.4301
  292TMC3    O2 4465   0.044   4.134   0.700 -0.2090  0.6016  0.1955
  293MPD2     C 4466   1.447   0.623  12.663  0.9600  0.0378  0.5294
  293MPD2    C1 4467   1.372   0.618  12.777 -0.0955  0.4650 -0.1055
  293MPD2    C2 4468   1.433   0.635  12.900  0.3751 -0.6225  0.2910
  293MPD2    C3 4469   1.564   0.670  12.902  0.2544  0.3004  0.5231
  293MPD2    C4 4470   1.634   0.673  12.786  0.3476 -0.1445 -0.2923
  293MPD2    C5 4471   1.579   0.653  12.671  0.0785 -0.1168  0.0980
  293MPD2     H 4472   1.374   0.635  12.992  2.2777 -2.3684  1.5004
  293MPD2    H1 4473   1.739   0.702  12.786  0.6547 -1.2384 -2.0443
  293MPD2    H2 4474   1.404   0.594  12.568 -0.2057  0.0090  1.0715
  293MPD2    H3 4475   1.641   0.662  12.583 -0.0554 -1.8727 -0.1687
  293MPD2     N 4476   1.621   0.700  13.031  0.2875 -0.7761  0.8723
  293MPD2    H5 4477   1.562   0.699  13.114  1.1420  1.1371  1.5077
  293MPD2    N1 4478   1.241   0.583  12.751  0.3979  0.0759 -0.1224
  293MPD2    H7 4479   1.210   0.581  12.655  0.0588  1.2541 -0.0331
  294TMC3    C1 4480   1.015   0.567  12.810  0.2999  0.5461  0.1778
  294TMC3    C2 4481   0.926   0.490  12.883 -0.0269 -0.1904 -0.1325
  294TMC3    C3 4482   0.802   0.476  12.831 -0.7276 -0.3035  0.5889
  294TMC3    C4 4483   0.978   0.631  12.695 -0.1942  0.5426  0.4683
  294TMC3    C5 4484   0.847   0.627  12.657 -0.0632  0.1138 -0.2481
  294TMC3    C6 4485   0.756   0.550  12.723 -0.2915 -0.3197  0.0375
  294TMC3     C 4486   1.155   0.559  12.852  0.0079  0.7828 -0.6199
  294TMC3     O 4487   1.179   0.546  12.975 -0.5300  0.3885 -0.3217
  294TMC3     H 4488   0.957   0.424  12.963  0.1934  1.3092  1.0042
  294TMC3    H1 4489   1.046   0.699  12.644  1.2191 -0.6867  0.6989
  294TMC3    H2 4490   0.658   0.538  12.679 -0.6776 -2.0552  1.4084
  294TMC3    C7 4491   0.784   0.743  12.590  0.6960  0.3667  0.0663
  294TMC3    C8 4492   0.731   0.349  12.842  0.0892  0.5116  0.1661
  294TMC3    O1 4493   0.692   0.794  12.655  0.0198  0.0721 -0.2937
  294TMC3    O2 4494   0.715   0.287  12.950  0.0988 -0.3495 -0.0408
  295MPD2     C 4495   3.053   0.429   0.948  0.0182 -0.0746  0.1681
  295MPD2    C1 4496   2.972   0.323   0.901 -0.1683  0.6249 -0.6356
  295MPD2    C2 4497   2.976   0.199   0.956 -0.4910 -0.9328 -0.3719
  295MPD2    C3 4498   3.061   0.182   1.068  0.0338  0.1809 -0.4199
  295MPD2    C4 4499   3.127   0.292   1.122  0.3578 -0.5473 -0.2508
  295MPD2    C5 4500   3.122   0.412   1.064 -0.1708 -0.2071  0.8964
  295MPD2     H 4501   2.911   0.118   0.925 -1.0532  0.0223 -1.6617
  295MPD2    H1 4502   3.195   0.272   1.204 -0.3703 -2.3651 -0.0825
  295MPD2    H2 4503   3.056   0.527   0.901 -0.6901 -0.0719  0.1297
  295MPD2    H3 4504   3.183   0.493   1.103 -0.9120  0.7110  0.1621
  295MPD2     N 4505   3.082   0.061   1.135 -0.5985 -0.7333  0.1937
  295MPD2    H5 4506   3.125   0.059   1.226  1.8964 -0.3822 -0.9748
  295MPD2    N1 4507   2.872   0.348   0.799  0.1544  0.1637  0.3326
  295MPD2    H7 4508   2.826   0.266   0.760  0.3124  0.0993  0.2795
  296TMC3    C1 4509   3.095   4.568   1.151 -0.1996  0.3670  0.0238
  296TMC3    C2 4510   3.174   4.587   1.262 -0.1617  0.7793  0.2003
  296TMC3    C3 4511   3.214   4.473   1.324 -0.0909  0.3768  0.1134
  296TMC3    C4 4512   3.070   4.442   1.096 -0.2706  0.5692 -0.0359
  296TMC3    C5 4513   3.118   4.336   1.162  0.2396  0.6862 -0.7429
  296TMC3    C6 4514   3.195   4.348   1.274  0.4478 -0.4803 -0.1914
  296TMC3     C 4515   3.052   4.680   1.076 -0.0404  0.0263  0.0075
  296TMC3     O 4516   3.009   4.652   0.964  0.4712  0.0333  0.1461
  296TMC3     H 4517   3.229   4.674   1.293  0.6547 -0.3952  2.0240
  296TMC3    H1 4518   3.048   4.431   0.990  0.5473 -0.8626 -0.0518
  296TMC3    H2 4519   3.230   4.260   1.326 -1.1400 -1.0304 -0.0353
  296TMC3    C7 4520   3.080   4.205   1.127  0.5623 -0.4331 -0.7145
  296TMC3    C8 4521   3.263   4.474   1.464  0.4750  1.3784  0.7145
  296TMC3    O1 4522   3.141   4.118   1.179  0.2879 -0.2715  0.5617
  296TMC3    O2 4523   3.300   4.370   1.510 -0.1819  0.3445 -0.1774
  297MPD2     C 4524   4.534   1.491  16.483 -0.5277  0.0971 -0.1093
  297MPD2    C1 4525   4.494   1.492  16.354  0.0713 -0.4579 -0.3396
  297MPD2    C2 4526   4.577   1.566  16.269 -0.0169  0.4069 -0.7899
  297MPD2    C3 4527   4.668   1.652  16.324  0.2072  0.4426 -0.6128
  297MPD2    C4 4528   4.704   1.648  16.451  0.3435 -0.1991 -0.0744
  297MPD2    C5 4529   4.636   1.564  16.532 -0.2697 -0.6455 -0.4962
  297MPD2     H 4530   4.563   1.569  16.162  1.8092 -0.0842 -1.0417
  297MPD2    H1 4531   0.033   1.719  16.497  2.0196 -1.5489 -0.4605
  297MPD2    H2 4532   4.463   1.451  16.554 -0.2374 -0.9720 -0.4220
  297MPD2    H3 4533   4.648   1.577  16.639 -0.2843  1.9237 -0.8064
  297MPD2     N 4534   0.002   1.751  16.251  0.5731 -0.5542  0.3883
  297MPD2    H5 4535   0.083   1.795  16.293 -0.6538  0.6402  1.4789
  297MPD2    N1 4536   4.381   1.428  16.300 -0.0667 -0.1228 -0.2675
  297MPD2    H7 4537   4.372   1.453  16.202  0.3417 -0.1060 -0.2992
  298TMC3    C1 4538   4.170   1.346  16.285 -0.2851  0.2678 -0.1784
  298TMC3    C2 4539   4.179   1.341  16.148  0.6318  0.8152 -0.4766
  298TMC3    C3 4540   4.063   1.317  16.081 -0.1389 -0.2996  0.0044
  298TMC3    C4 4541   4.049   1.343  16.346 -0.2777  0.3089 -1.0250
  298TMC3    C5 4542   3.938   1.330  16.269 -0.0120 -0.3388  0.1473
  298TMC3    C6 4543   3.937   1.310  16.139  0.7108  0.7962  0.7190
  298TMC3     C 4544   4.289   1.359  16.372 -0.1461 -1.0012 -0.2200
  298TMC3     O 4545   4.273   1.336  16.491 -0.0451  0.4119 -0.0335
  298TMC3     H 4546   4.273   1.336  16.095  1.2602  1.7271  0.5564
  298TMC3    H1 4547   4.044   1.365  16.452  2.9189 -1.8529 -0.4206
  298TMC3    H2 4548   3.850   1.296  16.076  0.3400  2.2813  0.9090
  298TMC3    C7 4549   3.818   1.393  16.331  0.1631  0.4044 -0.5028
  298TMC3    C8 4550   4.048   1.394  15.962 -0.4292  0.9323 -0.6057
  298TMC3    O1 4551   3.818   1.402  16.455  0.0744  0.4377  0.1439
  298TMC3    O2 4552   3.946   1.467  15.965  0.0962 -0.0349  0.1464
  299MPD2     C 4553   4.562   1.005  11.336  0.3956  0.0134 -0.8330
  299MPD2    C1 4554   4.555   1.123  11.264 -0.7959  0.6422 -0.3070
  299MPD2    C2 4555   4.486   1.127  11.141  0.8339  0.3548  0.1777
  299MPD2    C3 4556   4.419   1.020  11.094 -0.4330  0.8640  0.7523
  299MPD2    C4 4557   4.427   0.900  11.164  0.3998 -0.0716  0.5804
  299MPD2    C5 4558   4.503   0.897  11.283  0.0996 -0.8136 -0.3362
  299MPD2     H 4559   4.466   1.221  11.091  0.2909 -0.6770 -1.5215
  299MPD2    H1 4560   4.391   0.805  11.126 -1.3723  0.8142  0.0442
  299MPD2    H2 4561   4.609   0.992  11.433 -2.3997  0.8613  0.6240
  299MPD2    H3 4562   4.525   0.803  11.333  2.7220  0.4552  0.8623
  299MPD2     N 4563   4.363   1.032  10.968 -0.2872 -0.4552 -0.1263
  299MPD2    H5 4564   4.389   1.116  10.916 -1.0650  0.8131  1.5136
  299MPD2    N1 4565   4.597   1.238  11.331  0.4295 -0.1194 -0.2158
  299MPD2    H7 4566   4.634   1.220  11.423  2.4118 -1.3219 -1.2424
  300TMC3    C1 4567   4.238   0.958  10.783 -0.1418  0.2817  0.4765
  300TMC3    C2 4568   4.324   0.989  10.684  0.4695  0.2399 -1.6167
  300TMC3    C3 4569   4.273   1.005  10.556  0.2832  0.5141  0.2124
  300TMC3    C4 4570   4.109   0.922  10.766 -0.0862 -0.8127 -0.2531
  300TMC3    C5 4571   4.062   0.927  10.638 -0.0366 -0.4049 -0.6313
  300TMC3    C6 4572   4.143   0.962  10.530  1.0888 -0.1856  1.1968
  300TMC3     C 4573   4.288   0.927  10.915 -0.9632 -0.0827  0.0264
  300TMC3     O 4574   4.236   0.834  10.972  0.4341 -0.1391  0.1404
  300TMC3     H 4575   4.430   0.992  10.708 -0.0698 -1.0860  0.9253
  300TMC3    H1 4576   4.040   0.901  10.847  1.3492 -2.7346  0.4662
  300TMC3    H2 4577   4.099   0.972  10.431  2.1752  1.1686  0.8521
  300TMC3    C7 4578   3.929   0.883  10.604  0.0091 -0.2607  1.1464
  300TMC3    C8 4579   4.374   0.988  10.449  0.3776 -0.2748  0.0894
  300TMC3    O1 4580   3.910   0.846  10.491 -0.6094 -0.2822 -0.1826
  300TMC3    O2 4581   4.465   0.911  10.468 -0.4105 -0.8184  0.2955
  301MPD2     C 4582   2.614   3.109   1.072  0.0579  0.6464 -0.5630
  301MPD2    C1 4583   2.490   3.046   1.093  0.1387 -0.4650 -0.0278
  301MPD2    C2 4584   2.495   2.910   1.128  0.3641  0.2065  0.3314
  301MPD2    C3 4585   2.614   2.835   1.142  0.3611 -0.4510 -0.1900
  301MPD2    C4 4586   2.735   2.899   1.131  0.6729 -0.4703  0.6904
  301MPD2    C5 4587   2.729   3.034   1.097 -0.2560  0.6050  0.4600
  301MPD2     H 4588   2.399   2.861   1.143  1.2322 -1.3761  0.7959
  301MPD2    H1 4589   2.830   2.848   1.142  0.9918 -0.1502 -0.5213
  301MPD2    H2 4590   2.619   3.210   1.035  2.0112  0.6824 -0.2213
  301MPD2    H3 4591   2.822   3.089   1.083  0.6212 -0.9043  0.4187
  301MPD2     N 4592   2.601   2.696   1.177  0.0961  0.2456 -0.6142
  301MPD2    H5 4593   2.505   2.666   1.191  1.4220 -3.0819  1.5012
  301MPD2    N1 4594   2.363   3.109   1.065 -0.1590 -0.5120  0.2128
  301MPD2    H7 4595   2.286   3.044   1.077 -0.9168  0.1048 -1.4027
  302TMC3    C1 4596   2.628   2.469   1.164  0.4385 -0.6732 -0.4162
  302TMC3    C2 4597   2.698   2.360   1.216  1.0228  0.0833 -0.7186
  302TMC3    C3 4598   2.644   2.237   1.181  0.2508  0.2408 -0.0936
  302TMC3    C4 4599   2.527   2.463   1.077 -0.1546 -0.2232 -0.3874
  302TMC3    C5 4600   2.483   2.340   1.042 -0.2298 -0.6379  0.3679
  302TMC3    C6 4601   2.544   2.226   1.095  0.4916  0.2680 -0.0102
  302TMC3     C 4602   2.694   2.595   1.179 -0.3087 -0.8544 -0.2704
  302TMC3     O 4603   2.818   2.605   1.179 -0.0125  0.2931  0.2415
  302TMC3     H 4604   2.771   2.377   1.294 -0.2438 -0.3335  0.5711
  302TMC3    H1 4605   2.489   2.540   1.010 -0.2825  1.6662  1.8582
  302TMC3    H2 4606   2.518   2.126   1.062  2.3215 -0.4097  0.5787
  302TMC3    C7 4607   2.370   2.337   0.957  0.6437 -0.5514  0.1912
  302TMC3    C8 4608   2.691   2.118   1.250 -0.0218 -0.0435 -0.0372
  302TMC3    O1 4609   2.276   2.416   0.985  0.0114 -0.6741 -0.3179
  302TMC3    O2 4610   2.793   2.116   1.313  0.6519 -0.5815  0.5626
  303MPD2     C 4611   1.256   4.437   9.728 -0.4220  0.4014 -1.0837
  303MPD2    C1 4612   1.281   4.474   9.854 -0.7022  0.0517 -0.1571
  303MPD2    C2 4613   1.335   4.600   9.885 -0.3067  0.1897  0.0220
  303MPD2    C3 4614   1.355   4.694   9.783 -0.3803  0.4934  0.4941
  303MPD2    C4 4615   1.333   4.655   9.656 -0.4929  0.1326  1.2167
  303MPD2    C5 4616   1.275   4.534   9.629  0.4859  1.0228 -0.0943
  303MPD2     H 4617   1.378   4.628   9.980  0.0189  1.4513 -0.4880
  303MPD2    H1 4618   1.338   4.718   9.568  2.7197 -1.4550  0.2449
  303MPD2    H2 4619   1.224   4.336   9.705  1.5337 -0.7246  1.0944
  303MPD2    H3 4620   1.252   4.500   9.529  0.6621 -0.4884  0.3677
  303MPD2     N 4621   1.396   0.085   9.801  0.6537 -0.2781  0.8015
  303MPD2    H5 4622   1.404   0.143   9.718  0.0554  0.6108  1.3657
  303MPD2    N1 4623   1.255   4.385   9.953 -0.3728 -0.2945  0.2011
  303MPD2    H7 4624   1.168   4.333   9.948 -0.2662 -0.7445  2.9317
  304TMC3    C1 4625   1.234   4.321  10.171  0.5220 -0.8775 -0.7750
  304TMC3    C2 4626   1.314   4.262  10.265  0.0423 -0.0864  0.1839
  304TMC3    C3 4627   1.255   4.235  10.388 -0.2977 -0.4334 -0.9217
  304TMC3    C4 4628   1.105   4.353  10.190 -0.8394 -0.0517 -0.4320
  304TMC3    C5 4629   1.053   4.333  10.310  0.8370  0.1127 -0.5030
  304TMC3    C6 4630   1.119   4.255  10.401 -0.1570 -0.4626 -0.0515
  304TMC3     C 4631   1.318   4.388  10.074  0.2311  0.1131  0.0462
  304TMC3     O 4632   1.422   4.440  10.112 -0.2574  0.1377 -0.2294
  304TMC3     H 4633   1.418   4.247  10.241 -0.1963  0.3549 -1.0984
  304TMC3    H1 4634   1.073   4.434  10.126  0.0402  1.8263  1.5072
  304TMC3    H2 4635   1.076   4.226  10.496  1.1367 -0.8055  0.4323
  304TMC3    C7 4636   0.982   4.446  10.370  0.3529  0.3007 -0.2016
  304TMC3    C8 4637   1.331   4.266  10.508 -0.2725  0.2273  0.0597
  304TMC3    O1 4638   0.928   4.527  10.297 -0.0824 -0.6009 -0.8611
  304TMC3    O2 4639   1.258   4.317  10.588 -0.2183  0.4503 -0.0474
  305MPD2     C 4640   0.023   2.925  14.294 -0.1421  0.1318 -0.5331
  305MPD2    C1 4641   0.140   2.860  14.271 -0.5290 -0.6832  0.6176
  305MPD2    C2 4642   0.154   2.790  14.152  0.0834  0.5281  0.5737
  305MPD2    C3 4643   0.064   2.806  14.041 -0.1564  0.5720  0.3788
  305MPD2    C4 4644   4.685   2.875  14.068 -0.3255 -0.0535  0.3063
  305MPD2    C5 4645   4.664   2.924  14.195  0.3753 -0.3752  0.0531
  305MPD2     H 4646   0.254   2.752  14.134 -0.2929  0.4555 -1.3114
  305MPD2    H1 4647   4.604   2.893  13.998  0.1497  1.7384  0.2238
  305MPD2    H2 4648   4.735   2.975  14.387  2.2181 -0.1996  0.3497
  305MPD2    H3 4649   4.572   2.979  14.215 -0.9120 -2.2811 -0.6842
  305MPD2     N 4650   0.085   2.757  13.911  0.2079 -0.5304 -0.0859
  305MPD2    H5 4651   0.029   2.795  13.836 -0.7661  0.6221  1.2110
  305MPD2    N1 4652   0.242   2.847  14.370  0.2830 -0.0499 -1.0233
  305MPD2    H7 4653   0.325   2.793  14.349 -0.6147 -1.5051 -0.8435
  306TMC3    C1 4654   0.362   2.889  14.573  0.3923  0.8444 -0.3037
  306TMC3    C2 4655   0.438   2.778  14.549 -0.6524  0.2202 -0.0927
  306TMC3    C3 4656   0.571   2.787  14.592  0.0915 -0.3714  0.3137
  306TMC3    C4 4657   0.401   2.997  14.644 -0.2051 -0.0243  0.4032
  306TMC3    C5 4658   0.529   2.988  14.694 -0.4139 -0.1294  0.0276
  306TMC3    C6 4659   0.614   2.893  14.661 -0.3389 -0.8902  0.1119
  306TMC3     C 4660   0.247   2.918  14.492  0.1664  0.4475  0.0612
  306TMC3     O 4661   0.162   2.995  14.538 -0.2888 -0.3118  0.7670
  306TMC3     H 4662   0.389   2.694  14.500  0.3401 -0.2346 -0.3009
  306TMC3    H1 4663   0.336   3.081  14.668 -1.0334 -0.8073  0.8808
  306TMC3    H2 4664   0.713   2.888  14.704  0.1824 -0.0051 -1.0007
  306TMC3    C7 4665   0.589   3.112  14.733 -0.7712 -0.2962  0.0902
  306TMC3    C8 4666   0.669   2.688  14.560 -0.9934 -0.0557  0.3506
  306TMC3    O1 4667   0.535   3.207  14.680 -0.0713  0.6058  0.0009
  306TMC3    O2 4668   0.773   2.691  14.628  0.2776  0.3567  0.5116
  307MPD2     C 4669   3.418   1.706   0.345 -0.1197  0.1651 -0.0171
  307MPD2    C1 4670   3.405   1.828   0.413  0.5490  0.3519  0.5917
  307MPD2    C2 4671   3.349   1.827   0.535 -0.0864 -0.0235 -0.1877
  307MPD2    C3 4672   3.299   1.710   0.593 -0.2700 -0.5080  0.7587
  307MPD2    C4 4673   3.314   1.590   0.524  0.2807  1.0046 -0.5526
  307MPD2    C5 4674   3.375   1.597   0.402  0.1902  0.3155 -0.2846
  307MPD2     H 4675   3.346   1.922   0.587  1.1658 -0.2934  0.3833
  307MPD2    H1 4676   3.286   1.497   0.574 -0.6322  1.5109 -0.1216
  307MPD2    H2 4677   3.456   1.701   0.244  1.4029 -0.9553  0.6083
  307MPD2    H3 4678   3.374   1.505   0.345  0.3422  0.2945 -0.2532
  307MPD2     N 4679   3.225   1.723   0.711 -0.3384 -0.6292  0.0071
  307MPD2    H5 4680   3.219   1.816   0.752 -1.2551 -0.8239  0.3160
  307MPD2    N1 4681   3.446   1.950   0.357  0.9492  0.2875  0.3587
  307MPD2    H7 4682   3.452   2.031   0.418  1.8939 -0.0111  0.6521
  308TMC3    C1 4683   2.857   1.598   0.970  0.8864 -0.7730  0.6381
  308TMC3    C2 4684   2.813   1.725   0.985  0.5852  0.1250 -0.4595
  308TMC3    C3 4685   2.906   1.817   0.952  0.5266  0.1289 -0.0408
  308TMC3    C4 4686   2.988   1.566   0.923 -0.3932 -0.2858  0.0164
  308TMC3    C5 4687   3.071   1.665   0.881 -0.8505 -0.1462  0.0743
  308TMC3    C6 4688   3.031   1.794   0.901  0.3406  0.8753 -0.0826
  308TMC3     C 4689   2.762   1.488   0.974  0.0397 -0.0011 -0.9362
  308TMC3     O 4690   2.799   1.379   1.010  0.1393 -0.3596 -0.0071
  308TMC3     H 4691   2.713   1.747   1.021  0.2053 -0.8139 -0.9452
  308TMC3    H1 4692   3.013   1.462   0.910 -1.1903 -0.4759  0.0325
  308TMC3    H2 4693   3.098   1.876   0.877  0.0135  0.6301 -1.8503
  308TMC3    C7 4694   3.163   1.622   0.778  0.3793  0.5044  0.1179
  308TMC3    C8 4695   2.863   1.954   0.938  0.6690  0.2319  0.1477
  308TMC3    O1 4696   3.170   1.502   0.759 -0.3482  0.0712  0.0078
  308TMC3    O2 4697   2.743   1.971   0.905 -0.6200 -0.2350 -0.0653
  309MPD2     C 4698   2.873   1.722  17.080  0.2629  0.2532  0.0193
  309MPD2    C1 4699   2.776   1.742  16.988 -0.3438  0.7192 -0.7001
  309MPD2    C2 4700   2.650   1.776  17.028 -0.2156 -0.4520 -0.9535
  309MPD2    C3 4701   2.622   1.801  17.163 -0.4477  0.1543  0.1844
  309MPD2    C4 4702   2.727   1.783  17.255 -0.4851 -0.0514  1.0333
  309MPD2    C5 4703   2.852   1.755  17.211  0.3582 -0.3378 -0.6767
  309MPD2     H 4704   2.568   1.785  16.957 -0.6027 -3.9481 -0.9592
  309MPD2    H1 4705   2.711   1.792  17.362 -0.3033  1.6465  0.9178
  309MPD2    H2 4706   2.969   1.688  17.043 -0.2828  0.8151 -1.9197
  309MPD2    H3 4707   2.930   1.754  17.286 -0.0274  3.2361 -0.2190
  309MPD2     N 4708   2.499   1.847  17.217 -0.1173  0.6622 -0.3522
  309MPD2    H5 4709   2.486   1.866  17.316 -0.6326 -1.5112 -0.0050
  309MPD2    N1 4710   2.788   1.710  16.850  0.1286  0.2446  0.3839
  309MPD2    H7 4711   2.701   1.717  16.799 -0.6277  0.8114  1.7549
  310TMC3    C1 4712   2.878   1.618  16.648  0.7328  0.2625  0.1950
  310TMC3    C2 4713   2.780   1.686  16.576  0.5157 -0.0607  0.1919
  310TMC3    C3 4714   2.752   1.647  16.448 -0.2729 -0.4558 -0.7434
  310TMC3    C4 4715   2.956   1.519  16.592  1.0582 -0.2568  0.1893
  310TMC3    C5 4716   2.917   1.477  16.470  0.4126 -0.2107 -0.4785
  310TMC3    C6 4717   2.814   1.532  16.395  0.2275  0.1289  0.2901
  310TMC3     C 4718   2.894   1.639  16.791  0.0369 -0.3199  0.5625
  310TMC3     O 4719   3.007   1.615  16.831  0.4055  0.1915 -0.1197
  310TMC3     H 4720   2.740   1.780  16.614 -1.5660 -0.7382 -0.3360
  310TMC3    H1 4721   3.041   1.474  16.643 -0.7687 -2.9216  0.8544
  310TMC3    H2 4722   2.776   1.483  16.306 -0.8885  2.4766 -0.5334
  310TMC3    C7 4723   2.972   1.351  16.420  0.6204  0.1807 -0.1200
  310TMC3    C8 4724   2.628   1.699  16.386  0.1207 -0.2459  0.6469
  310TMC3    O1 4725   2.968   1.351  16.296 -0.1024  0.1521 -0.2281
  310TMC3    O2 4726   2.541   1.753  16.452 -0.0487 -0.4630 -0.0827
  311MPD2     C 4727   3.838   2.261  12.910 -0.0266  0.4450 -0.9172
  311MPD2    C1 4728   3.807   2.384  12.958 -1.0952  0.2049  0.5346
  311MPD2    C2 4729   3.691   2.391  13.034  0.2712  0.0964 -0.3625
  311MPD2    C3 4730   3.607   2.287  13.043  0.6532  0.2334  0.2263
  311MPD2    C4 4731   3.647   2.166  12.994 -0.4052 -0.3752  0.4253
  311MPD2    C5 4732   3.765   2.150  12.933  0.0243 -0.6387 -0.3832
  311MPD2     H 4733   3.654   2.478  13.087  0.8490  0.9021 -1.2846
  311MPD2    H1 4734   3.585   2.078  13.005  1.9472 -2.2998 -1.7093
  311MPD2    H2 4735   3.933   2.246  12.860  2.5992  0.4827  4.0916
  311MPD2    H3 4736   3.801   2.063  12.879 -1.0900 -1.1032 -0.3847
  311MPD2     N 4737   3.479   2.308  13.097 -0.1268  0.3896 -0.0951
  311MPD2    H5 4738   3.459   2.401  13.131  1.7978  0.6861  0.2289
  311MPD2    N1 4739   3.880   2.503  12.933 -0.7389 -0.0414 -0.2057
  311MPD2    H7 4740   3.851   2.585  12.984  1.5346  0.1951  0.7020
  312TMC3    C1 4741   3.255   2.289  13.143  0.0228  0.5445  0.4114
  312TMC3    C2 4742   3.135   2.227  13.129 -0.1179  0.1475  0.5278
  312TMC3    C3 4743   3.021   2.301  13.138  0.7919 -0.7974  0.2409
  312TMC3    C4 4744   3.264   2.418  13.184 -0.2835  0.3564 -0.0713
  312TMC3    C5 4745   3.149   2.489  13.190 -0.1229  0.2106  0.2222
  312TMC3    C6 4746   3.024   2.438  13.162 -0.0880 -0.4530 -0.6446
  312TMC3     C 4747   3.366   2.225  13.088 -0.1023 -0.2918 -0.1820
  312TMC3     O 4748   3.355   2.109  13.045  0.1322  0.2227  0.6324
  312TMC3     H 4749   3.126   2.120  13.115 -1.4575  0.2180  0.8028
  312TMC3    H1 4750   3.355   2.474  13.202  0.2167 -0.3449 -0.4639
  312TMC3    H2 4751   2.936   2.501  13.170 -0.6602 -1.1325 -1.5487
  312TMC3    C7 4752   3.150   2.597  13.289 -0.2510 -0.2021  0.5959
  312TMC3    C8 4753   2.906   2.245  13.072  0.0517  0.2442 -0.1461
  312TMC3    O1 4754   3.053   2.673  13.288  0.2147 -0.0849 -0.3817
  312TMC3    O2 4755   2.901   2.122  13.075 -0.4002  0.2133 -0.2292
  313MPD2     C 4756   3.759   1.208  10.469  0.5470  0.8690 -0.2832
  313MPD2    C1 4757   3.640   1.145  10.508  0.3153 -0.1611 -0.7995
  313MPD2    C2 4758   3.578   1.059  10.421  0.9583  0.1896 -0.7407
  313MPD2    C3 4759   3.634   1.041  10.295 -0.1604  0.1654  0.0298
  313MPD2    C4 4760   3.747   1.101  10.256 -0.2602  0.1039 -0.3937
  313MPD2    C5 4761   3.809   1.180  10.345  0.5168 -0.6040 -0.2948
  313MPD2     H 4762   3.487   1.005  10.448  0.1474  2.7489  1.5367
  313MPD2    H1 4763   3.798   1.081  10.162  0.2070  1.3529 -0.4156
  313MPD2    H2 4764   3.830   1.264  10.529 -0.8457 -0.0316  2.1779
  313MPD2    H3 4765   3.906   1.221  10.321 -0.6227  1.5550 -1.2273
  313MPD2     N 4766   3.556   0.968  10.203 -0.1288  0.0287 -0.0604
  313MPD2    H5 4767   3.468   0.927  10.235  0.5520 -2.1882 -0.9983
  313MPD2    N1 4768   3.581   1.163  10.638 -0.0555 -0.2784 -0.2234
  313MPD2    H7 4769   3.492   1.121  10.663 -0.9353  0.6285 -1.8332
  314TMC3    C1 4770   3.547   1.258  10.848 -1.2382 -0.9025 -0.1864
  314TMC3    C2 4771   3.561   1.378  10.914 -0.3510 -0.2947 -0.4731
  314TMC3    C3 4772   3.456   1.431  10.974  0.3288 -0.3429 -0.0401
  314TMC3    C4 4773   3.426   1.205  10.823  0.2039  0.1684 -0.4836
  314TMC3    C5 4774   3.317   1.271  10.878 -0.5352 -0.0974 -0.2612
  314TMC3    C6 4775   3.331   1.381  10.956  0.0430 -1.1836 -0.8176
  314TMC3     C 4776   3.637   1.237  10.738 -0.0265  0.2124  0.9424
  314TMC3     O 4777   3.739   1.306  10.732  0.3456 -0.0386 -0.3112
  314TMC3     H 4778   3.658   1.424  10.923  0.2442 -1.1550 -2.5354
  314TMC3    H1 4779   3.404   1.107  10.782 -0.9076 -0.3738  1.3575
  314TMC3    H2 4780   3.239   1.430  10.985  0.9121 -0.3823  0.5802
  314TMC3    C7 4781   3.181   1.237  10.830  0.4938  0.4343  1.0421
  314TMC3    C8 4782   3.469   1.561  11.028 -0.1533  1.1640  0.7577
  314TMC3    O1 4783   3.159   1.115  10.822 -0.0434  0.6870  0.3620
  314TMC3    O2 4784   3.514   1.639  10.949  0.7741  0.1257 -0.6550
  315MPD2     C 4785   3.472   1.342   0.130 -0.2609  0.5641 -0.8504
  315MPD2    C1 4786   3.593   1.342   0.199  0.4294 -0.8071 -0.3241
  315MPD2    C2 4787   3.687   1.427   0.162 -0.2580  0.2980 -0.1024
  315MPD2    C3 4788   3.659   1.535   0.075 -0.1667  0.1740 -0.2761
  315MPD2    C4 4789   3.537   1.533   0.008  0.1235 -0.7955 -0.5337
  315MPD2    C5 4790   3.452   1.426   0.026  0.0172 -0.1123 -0.4498
  315MPD2     H 4791   3.776   1.433   0.223  0.0435 -1.5509 -0.3766
  315MPD2    H1 4792   3.509   1.605  17.687  1.6128 -0.5266 -0.8406
  315MPD2    H2 4793   3.400   1.263   0.148 -0.9172  1.3679  0.1012
  315MPD2    H3 4794   3.363   1.424  17.720 -0.0345 -0.8507 -0.3536
  315MPD2     N 4795   3.757   1.633   0.057  0.0763 -0.3323 -0.0946
  315MPD2    H5 4796   3.850   1.618   0.095  0.3710  1.2009 -0.1932
  315MPD2    N1 4797   3.630   1.241   0.293  0.2002  0.4852  0.2892
  315MPD2    H7 4798   3.723   1.262   0.329 -1.1667  1.6317  3.1671
  316TMC3    C1 4799   3.871   1.830  17.745 -0.6847 -0.0288  0.7974
  316TMC3    C2 4800   3.952   1.848   0.096 -0.0724 -0.0556 -0.1837
  316TMC3    C3 4801   4.035   1.952   0.101 -0.2475  0.4632 -0.2031
  316TMC3    C4 4802   3.886   1.915  17.635 -0.4893  0.6230  0.5653
  316TMC3    C5 4803   3.974   2.018  17.644 -0.2989 -0.2687  0.4550
  316TMC3    C6 4804   4.045   2.045   0.001 -0.3992  0.5174 -0.8865
  316TMC3     C 4805   3.750   1.750  17.743 -0.2800 -0.4205 -0.1011
  316TMC3     O 4806   3.665   1.781  17.659 -0.9116 -0.0505 -0.1792
  316TMC3     H 4807   3.919   1.798   0.187  1.0080 -1.1202 -0.3771
  316TMC3    H1 4808   3.827   1.890  17.548 -0.4814  1.1540  0.4093
  316TMC3    H2 4809   4.107   2.133   0.012 -0.2217  0.0390  1.9611
  316TMC3    C7 4810   3.988   2.112  17.536  0.4089  0.3216  0.1158
  316TMC3    C8 4811   4.117   1.976   0.218 -0.8117 -0.1577 -0.0408
  316TMC3    O1 4812   4.069   2.203  17.558  0.4808 -0.5896 -0.0636
  316TMC3    O2 4813   4.144   2.093   0.250  0.1537  0.6270  0.1509
  317MPD2     C 4814   0.278   4.461  13.368 -0.3187 -0.8712  0.3080
  317MPD2    C1 4815   0.242   4.328  13.379 -0.2624 -0.1697  0.0046
  317MPD2    C2 4816   0.326   4.245  13.441  0.4794  0.2897 -0.2535
  317MPD2    C3 4817   0.446   4.285  13.494  0.2729 -0.1379 -0.4953
  317MPD2    C4 4818   0.485   4.414  13.472 -0.2852 -0.0294 -0.0329
  317MPD2    C5 4819   0.400   4.503  13.410  0.2551  0.0493  0.3070
  317MPD2     H 4820   0.298   4.141  13.455 -1.2613  0.9871  1.3440
  317MPD2    H1 4821   0.584   4.451  13.494  1.5701 -3.6460 -2.1915
  317MPD2    H2 4822   0.221   4.525  13.301 -2.7087 -1.0589  2.1936
  317MPD2    H3 4823   0.432   4.606  13.398 -2.6516  1.1521  2.1248
  317MPD2     N 4824   0.530   4.184  13.547  0.4690 -0.0467 -0.7912
  317MPD2    H5 4825   0.486   4.094  13.564  0.1578  0.2756  0.1050
  317MPD2    N1 4826   0.133   4.267  13.325  0.3853 -0.1705 -0.9910
  317MPD2    H7 4827   0.127   4.166  13.333 -1.1611  0.1195  1.2591
  318TMC3    C1 4828   0.726   4.094  13.672  0.5891  0.6037  0.0551
  318TMC3    C2 4829   0.664   3.973  13.698  0.2437 -0.2874 -0.8084
  318TMC3    C3 4830   0.732   3.877  13.760  0.2184 -0.0812  0.2044
  318TMC3    C4 4831   0.854   4.118  13.715  1.0068 -0.6082 -0.3712
  318TMC3    C5 4832   0.914   4.017  13.783  0.6345 -0.4789  0.3130
  318TMC3    C6 4833   0.860   3.892  13.803 -0.5615 -0.8879 -0.6340
  318TMC3     C 4834   0.660   4.204  13.589 -0.1358  0.0659  0.5352
  318TMC3     O 4835   0.740   4.300  13.596 -0.0526 -0.1032 -0.2285
  318TMC3     H 4836   0.559   3.962  13.674  0.4075 -1.4986 -0.9656
  318TMC3    H1 4837   0.900   4.215  13.696 -0.9317  0.6353  1.3036
  318TMC3    H2 4838   0.905   3.810  13.858  0.9993  1.5451  1.6903
  318TMC3    C7 4839   1.050   4.046  13.820 -0.4791 -0.6358 -0.0781
  318TMC3    C8 4840   0.665   3.750  13.792 -0.5819 -0.5026 -0.2659
  318TMC3    O1 4841   1.086   4.165  13.816  0.4443  0.4389  0.7465
  318TMC3    O2 4842   0.732   3.666  13.848  0.2064  0.2559  1.0376
  319MPD2     C 4843   1.642   0.978  16.597 -0.2389 -0.1054 -0.5086
  319MPD2    C1 4844   1.590   0.870  16.671  0.2435 -0.0990  0.1832
  319MPD2    C2 4845   1.567   0.752  16.592  0.4218 -0.2777  0.2139
  319MPD2    C3 4846   1.612   0.734  16.465 -0.1130  0.1824 -0.3748
  319MPD2    C4 4847   1.675   0.838  16.408  0.3952 -0.4981 -0.1229
  319MPD2    C5 4848   1.691   0.963  16.470  0.8191 -0.4873 -0.9242
  319MPD2     H 4849   1.514   0.676  16.648  1.6840 -1.1251  0.2592
  319MPD2    H1 4850   1.705   0.838  16.304  0.3402 -1.4358 -0.1402
  319MPD2    H2 4851   1.650   1.079  16.638  2.2688 -1.0876  1.4891
  319MPD2    H3 4852   1.741   1.044  16.418 -2.3686  1.4496 -0.9653
  319MPD2     N 4853   1.577   0.628  16.380 -0.1678  0.3635 -0.2242
  319MPD2    H5 4854   1.594   0.650  16.282  2.9641 -1.3700 -0.0790
  319MPD2    N1 4855   1.531   0.872  16.800 -0.6726  0.0868  0.2185
  319MPD2    H7 4856   1.490   0.786  16.837  0.7790 -0.5022  0.4950
  320TMC3    C1 4857   1.415   0.464  16.307 -0.6378 -0.2395  0.4265
  320TMC3    C2 4858   1.361   0.546  16.213  0.2915  0.0349 -0.8593
  320TMC3    C3 4859   1.237   0.519  16.165  0.2065  0.2629 -0.3192
  320TMC3    C4 4860   1.367   0.340  16.327  0.1256  0.5287 -0.7671
  320TMC3    C5 4861   1.241   0.315  16.270  0.0824  1.3035  0.2024
  320TMC3    C6 4862   1.170   0.399  16.182 -0.4057  0.4267  0.6832
  320TMC3     C 4863   1.488   0.528  16.412  0.3863  0.0234 -0.4120
  320TMC3     O 4864   1.470   0.481  16.522  0.0388 -0.2834 -0.0094
  320TMC3     H 4865   1.413   0.632  16.172 -1.6424  1.7698  0.3042
  320TMC3    H1 4866   1.425   0.273  16.390  0.1146 -0.4172 -1.7640
  320TMC3    H2 4867   1.074   0.379  16.136  0.5763 -1.0395 -0.7106
  320TMC3    C7 4868   1.186   0.180  16.264 -0.1877 -0.2465 -0.0513
  320TMC3    C8 4869   1.193   0.585  16.040 -0.1107  0.3700 -0.0106
  320TMC3    O1 4870   1.096   0.168  16.184 -0.2516 -1.0491  0.1919
  320TMC3    O2 4871   1.131   0.515  15.958  0.1817  0.2223 -0.1402
  321TMC3    C1 4872   1.431   0.975  16.986 -0.0964  0.3608  0.6505
  321TMC3    C2 4873   1.400   0.852  17.043 -0.6576  0.2146 -0.0705
  321TMC3    C3 4874   1.342   0.854  17.164 -0.4090  0.9805  0.0761
  321TMC3    C4 4875   1.390   1.093  17.045  0.0167  0.3181  0.4610
  321TMC3    C5 4876   1.362   1.091  17.176 -0.2566 -0.7419 -0.5488
  321TMC3    C6 4877   1.334   0.972  17.232 -0.2445  0.1051  0.2805
  321TMC3     C 4878   1.521   0.989  16.872 -0.1662  0.0366  0.4457
  321TMC3     O 4879   1.540   1.105  16.842 -0.2511 -0.2233  0.5818
  321TMC3     H 4880   1.437   0.760  16.999  1.7852  0.9968  0.3070
  321TMC3    H1 4881   1.399   1.186  16.989  0.8186  0.0541  0.1557
  321TMC3    H2 4882   1.291   0.965  17.331 -0.4704 -0.1632  0.1652
  321TMC3    C7 4883   1.453   1.167  17.259 -0.4487 -0.1562 -0.0632
  321TMC3    C8 4884   1.394   0.752  17.249  1.0563 -0.1889  0.2480
  321TMC3    O1 4885   1.476   1.111  17.364 -0.0851 -0.0528  0.2611
  321TMC3    O2 4886   1.391   0.633  17.215  0.2464  0.0409  0.5056
  322MPD2     C 4887   0.487   1.914  13.445 -0.0236  0.6358  0.3642
  322MPD2    C1 4888   0.558   1.843  13.536  0.3908  0.9405 -0.2155
  322MPD2    C2 4889   0.593   1.714  13.513  0.2054  0.2830 -0.3411
  322MPD2    C3 4890   0.548   1.645  13.400 -0.0089  0.4616  0.1061
  322MPD2    C4 4891   0.477   1.713  13.309  0.4504  0.3201  0.0592
  322MPD2    C5 4892   0.443   1.846  13.329 -0.2788 -0.1368  0.5633
  322MPD2     H 4893   0.654   1.665  13.588 -1.2122  0.6358  1.0505
  322MPD2    H1 4894   0.448   1.678  13.210  0.2075  0.0462  0.2287
  322MPD2    H2 4895   0.457   2.018  13.449 -2.0866  0.0408  0.2710
  322MPD2    H3 4896   0.371   1.894  13.264  0.9590 -1.8278 -2.0769
  322MPD2     N 4897   0.592   1.508  13.376  0.4434  0.1919  0.1255
  322MPD2    H5 4898   0.628   1.463  13.460 -1.5689 -0.8866  0.4083
  322MPD2    N1 4899   0.613   1.908  13.652  0.5093  0.1228 -0.0033
  322MPD2    H7 4900   0.682   1.855  13.705 -1.2675 -1.9041  0.2808
  323TMC3    C1 4901   0.710   2.084  13.772  0.2084  0.0851 -0.0891
  323TMC3    C2 4902   0.790   2.194  13.749  0.8857  0.0424 -0.2214
  323TMC3    C3 4903   0.895   2.222  13.836  0.2092  0.1593 -0.2849
  323TMC3    C4 4904   0.718   2.010  13.889  0.1406  0.0775  0.0628
  323TMC3    C5 4905   0.835   2.030  13.959  0.4300 -0.1062  0.8362
  323TMC3    C6 4906   0.921   2.133  13.937  0.1642  0.4527 -0.8601
  323TMC3     C 4907   0.619   2.046  13.672  0.2000 -0.0502 -0.4198
  323TMC3     O 4908   0.588   2.136  13.599  0.6527 -0.5403 -0.1876
  323TMC3     H 4909   0.758   2.260  13.670 -1.9625 -0.3842  0.5665
  323TMC3    H1 4910   0.660   1.920  13.909 -0.6936  0.7643  0.7364
  323TMC3    H2 4911   0.997   2.163  14.008 -1.5478 -1.7984  1.9410
  323TMC3    C7 4912   0.863   1.942  14.071  0.1604 -0.8965 -0.0332
  323TMC3    C8 4913   1.000   2.318  13.809 -0.7492 -1.3546  0.2688
  323TMC3    O1 4914   0.772   1.891  14.132  0.2746 -0.6308 -0.0768
  323TMC3    O2 4915   1.099   2.311  13.886 -0.0990 -0.2361  0.2983
  324MPD2     C 4916   2.207   2.837  14.588  0.3993  0.2970 -0.2498
  324MPD2    C1 4917   2.213   2.973  14.570  1.7859 -0.5628 -0.0136
  324MPD2    C2 4918   2.097   3.027  14.528 -0.0373  0.3167 -0.2809
  324MPD2    C3 4919   1.981   2.953  14.506 -0.2450 -0.1889  0.2338
  324MPD2    C4 4920   1.979   2.817  14.526  0.6369  0.0799  0.4535
  324MPD2    C5 4921   2.092   2.765  14.569 -0.6681 -0.2802 -0.5209
  324MPD2     H 4922   2.094   3.136  14.527  1.5529  0.3936  2.3127
  324MPD2    H1 4923   1.898   2.748  14.507  1.7983 -1.1771  0.1038
  324MPD2    H2 4924   2.281   2.768  14.627  0.6059  0.9483  0.5148
  324MPD2    H3 4925   2.097   2.660  14.596 -0.0618 -0.3187 -0.8016
  324MPD2     N 4926   1.858   3.016  14.469 -0.2376  0.6423 -0.3025
  324MPD2    H5 4927   1.775   2.966  14.498 -0.2076  0.3663 -0.6971
  324MPD2    N1 4928   2.330   3.051  14.610 -0.0084  0.4644  0.0895
  324MPD2    H7 4929   2.329   3.152  14.603  0.3751  0.6154  2.2074
  325TMC3    C1 4930   1.713   3.205  14.415  0.1560 -0.4406 -0.4642
  325TMC3    C2 4931   1.607   3.125  14.458 -0.1998 -0.2291  0.5054
  325TMC3    C3 4932   1.487   3.178  14.438  0.7839 -0.5898 -0.4911
  325TMC3    C4 4933   1.699   3.338  14.369  0.5304  0.1777  0.3144
  325TMC3    C5 4934   1.569   3.367  14.336  0.2826  0.4377 -0.3397
  325TMC3    C6 4935   1.461   3.296  14.379 -0.3038 -0.1867 -0.2589
  325TMC3     C 4936   1.849   3.152  14.434  0.0007 -0.4924 -0.7331
  325TMC3     O 4937   1.936   3.213  14.373  0.2673 -1.1337 -0.2847
  325TMC3     H 4938   1.617   3.030  14.508  1.0769 -1.3116 -1.7766
  325TMC3    H1 4939   1.785   3.394  14.335  1.3129 -1.8355 -1.0332
  325TMC3    H2 4940   1.360   3.336  14.378 -0.3172 -0.2000  0.6850
  325TMC3    C7 4941   1.537   3.503  14.301 -0.0435 -0.2856 -0.2500
  325TMC3    C8 4942   1.386   3.086  14.465  1.2075 -1.0510 -0.0425
  325TMC3    O1 4943   1.423   3.528  14.258  0.4307  0.1722  0.0037
  325TMC3    O2 4944   1.410   2.967  14.478  0.1415  0.0838  0.4141
  326MPD2     C 4945   3.118   3.858  11.302 -0.6936  0.1702  0.4413
  326MPD2    C1 4946   3.096   3.920  11.183  0.0284 -0.3135 -0.0541
  326MPD2    C2 4947   3.180   4.030  11.150  0.2524 -0.0069 -0.3408
  326MPD2    C3 4948   3.278   4.080  11.237 -0.4667 -0.0385  0.1123
  326MPD2    C4 4949   3.297   4.004  11.352 -0.2493 -1.0693  0.7540
  326MPD2    C5 4950   3.219   3.900  11.388 -0.3634 -0.5264  0.5992
  326MPD2     H 4951   3.167   4.083  11.056  2.7147  0.7991 -0.2135
  326MPD2    H1 4952   3.380   4.026  11.418 -0.4800  1.9022  0.0755
  326MPD2    H2 4953   3.054   3.778  11.338 -2.0119  0.9450 -0.1951
  326MPD2    H3 4954   3.249   3.850  11.479  2.8152  0.8776  0.3388
  326MPD2     N 4955   3.373   4.184  11.211 -0.0225  0.6532 -0.9585
  326MPD2    H5 4956   3.448   4.194  11.279 -0.3661  0.5847 -0.5723
  326MPD2    N1 4957   2.982   3.897  11.099 -0.4402 -0.4031  0.4848
  326MPD2    H7 4958   2.966   3.960  11.021  1.6295 -0.3741  0.0950
  327TMC3    C1 4959   2.825   3.767  10.981 -0.0961 -0.0391 -0.2754
  327TMC3    C2 4960   2.741   3.873  10.946  0.3050  0.0350  0.3106
  327TMC3    C3 4961   2.702   3.890  10.824 -0.0242  0.2910 -0.0074
  327TMC3    C4 4962   2.886   3.693  10.886 -0.1927  0.6302  0.2354
  327TMC3    C5 4963   2.861   3.720  10.758 -0.0290  0.4783 -0.0598
  327TMC3    C6 4964   2.762   3.812  10.726  0.7146  0.6062  0.3273
  327TMC3     C 4965   2.905   3.783  11.099  0.6975  0.7327  0.4263
  327TMC3     O 4966   2.937   3.685  11.165  0.0561 -0.4407  0.1388
  327TMC3     H 4967   2.715   3.934  11.032 -1.5150  3.0364 -2.3789
  327TMC3    H1 4968   2.965   3.621  10.904 -0.1939  0.1499 -1.6963
  327TMC3    H2 4969   2.730   3.813  10.623  0.8839  0.4280  0.2736
  327TMC3    C7 4970   2.987   3.747  10.680  0.1539 -0.0698  0.3682
  327TMC3    C8 4971   2.624   4.003  10.777  0.0712 -0.0920  0.0801
  327TMC3    O1 4972   2.979   3.750  10.560 -0.4625 -0.0458  0.0188
  327TMC3    O2 4973   2.626   4.016  10.653 -0.4456  0.1512 -0.2954
  328MPD2     C 4974   1.502   4.353  17.486  0.0026  0.0421 -0.0620
  328MPD2    C1 4975   1.399   4.446  17.489 -0.6444  0.5969 -0.2965
  328MPD2    C2 4976   1.280   4.419  17.424 -0.5538 -0.0526  1.0543
  328MPD2    C3 4977   1.260   4.298  17.364  0.4326 -0.4246 -0.3291
  328MPD2    C4 4978   1.362   4.197  17.368  0.7797  1.0643  0.5183
  328MPD2    C5 4979   1.482   4.227  17.436  0.6810  0.2995 -0.2489
  328MPD2     H 4980   1.195   4.485  17.411 -1.3582 -1.2836  0.0933
  328MPD2    H1 4981   1.359   4.104  17.312  2.7037  0.7235  0.9591
  328MPD2    H2 4982   1.596   4.376  17.534  1.0923 -0.8897 -1.7444
  328MPD2    H3 4983   1.555   4.147  17.432  1.9776  1.3555  2.8275
  328MPD2     N 4984   1.149   4.265  17.286  0.3776 -0.0993 -1.0276
  328MPD2    H5 4985   1.151   4.174  17.241 -0.0753 -0.7782  0.3515
  328MPD2    N1 4986   1.429   4.572  17.548 -0.3907 -0.0593  0.2007
  328MPD2    H7 4987   1.528   4.590  17.551 -0.8153  2.3571 -0.7956
  329TMC3    C1 4988   1.365   0.070  17.566  0.1950 -0.2971 -0.1818
  329TMC3    C2 4989   1.247   0.148  17.576 -0.1646 -0.1484 -1.1106
  329TMC3    C3 4990   1.245   0.264  17.495 -0.6829  0.1465 -0.4034
  329TMC3    C4 4991   1.471   0.109  17.484  0.1634  0.4300  0.7855
  329TMC3    C5 4992   1.464   0.220  17.412  0.2622 -0.4333 -0.2160
  329TMC3    C6 4993   1.351   0.293  17.413 -0.0902  0.3769  0.3921
  329TMC3     C 4994   1.333   4.669  17.570 -0.4932 -0.2273 -0.6635
  329TMC3     O 4995   1.215   4.650  17.592  0.1330  0.7184  0.7948
  329TMC3     H 4996   1.174   0.122  17.651 -0.0683  0.7922 -0.6990
  329TMC3    H1 4997   1.556   0.045  17.462  1.0826  0.9072  2.9998
  329TMC3    H2 4998   1.338   0.384  17.355 -1.4407  0.2852  0.5477
  329TMC3    C7 4999   1.593   0.258  17.351 -0.1153 -0.0574 -0.2766
  329TMC3    C8 5000   1.132   0.357  17.483 -0.1142 -0.4024  0.6460
  329TMC3    O1 5001   1.694   0.217  17.411 -0.2786 -0.1164  0.0556
  329TMC3    O2 5002   1.149   0.465  17.431 -0.0073 -0.0045  0.2365
  330TMC3    C1 5003   2.830   2.995   9.724 -0.3816 -0.1756 -0.3938
  330TMC3    C2 5004   2.723   2.918   9.710 -0.8327  0.2530  0.3663
  330TMC3    C3 5005   2.721   2.800   9.783 -0.5606  0.2453  0.2424
  330TMC3    C4 5006   2.941   2.954   9.799  0.6134 -0.0022 -0.2791
  330TMC3    C5 5007   2.921   2.850   9.886  0.6518 -0.2257  0.1266
  330TMC3    C6 5008   2.811   2.778   9.877 -0.2174  0.5131  0.9541
  330TMC3     C 5009   2.826   3.123   9.662 -0.1866  0.6038 -0.2543
  330TMC3     O 5010   2.932   3.168   9.614 -0.2668 -0.5107  0.1487
  330TMC3     H 5011   2.632   2.950   9.660 -1.0357  0.0522  0.6077
  330TMC3    H1 5012   2.999   3.038   9.834  0.6176  0.1226 -0.5851
  330TMC3    H2 5013   2.800   2.706   9.957  0.4202  0.2701  0.8247
  330TMC3    C7 5014   3.010   2.829   9.998  0.3549  0.7511  0.4059
  330TMC3    C8 5015   2.605   2.710   9.767 -0.0899  0.1098  0.5386
  330TMC3    O1 5016   2.980   2.743  10.085  0.0122  0.0050  0.2398
  330TMC3    O2 5017   2.550   2.706   9.654  0.0632  0.5675 -0.5329
  331MPD2     C 5018   1.673   3.018  12.882  0.2620 -0.0999  0.3249
  331MPD2    C1 5019   1.565   3.051  12.961  0.4462  0.7117  0.4888
  331MPD2    C2 5020   1.492   2.963  13.032 -0.5119  0.1613 -0.8488
  331MPD2    C3 5021   1.529   2.839  13.041  0.1272  0.4877 -0.4315
  331MPD2    C4 5022   1.639   2.798  12.962  0.9740  0.3602  0.6732
  331MPD2    C5 5023   1.698   2.884  12.873 -0.0282  0.6534 -0.0928
  331MPD2     H 5024   1.400   2.993  13.081 -0.5060  1.0981 -1.4107
  331MPD2    H1 5025   1.679   2.698  12.963  0.3222  0.1121  1.9538
  331MPD2    H2 5026   1.732   3.091  12.827 -1.9705  1.0623 -0.5072
  331MPD2    H3 5027   1.787   2.849  12.822  0.4312 -0.0529  1.1834
  331MPD2     N 5028   1.455   2.749  13.108  0.6533  0.5017  0.0242
  331MPD2    H5 5029   1.367   2.783  13.145  1.5263  3.9960 -1.1412
  331MPD2    N1 5030   1.520   3.188  12.949  0.0916 -0.0723 -0.4295
  331MPD2    H7 5031   1.556   3.237  12.868  0.5662  0.8140  0.3249
  332TMC3    C1 5032   1.344   2.545  13.109 -0.7485  1.1147  0.1370
  332TMC3    C2 5033   1.259   2.588  13.007 -0.2827 -0.6341 -0.0535
  332TMC3    C3 5034   1.205   2.488  12.928  0.1766  0.3264 -0.7795
  332TMC3    C4 5035   1.368   2.412  13.128 -0.3681  0.0966  0.3921
  332TMC3    C5 5036   1.315   2.324  13.042  0.0155 -0.0146 -0.5170
  332TMC3    C6 5037   1.230   2.356  12.945 -0.6739  0.4358 -0.0717
  332TMC3     C 5038   1.475   2.615  13.107  0.2004 -0.3787  0.3426
  332TMC3     O 5039   1.575   2.546  13.098 -0.8903  0.4649 -0.2434
  332TMC3     H 5040   1.259   2.690  12.969 -1.6892 -0.6103  0.0240
  332TMC3    H1 5041   1.448   2.387  13.198  0.2111  0.9151  0.0230
  332TMC3    H2 5042   1.193   2.276  12.882 -1.1906 -0.0610  0.8708
  332TMC3    C7 5043   1.379   2.199  13.042 -0.7037 -0.1699  0.0149
  332TMC3    C8 5044   1.149   2.523  12.795 -0.7481  1.1507  0.1213
  332TMC3    O1 5045   1.409   2.152  12.930 -0.0510 -0.3435  0.0247
  332TMC3    O2 5046   1.206   2.618  12.748 -0.3427  0.0169  0.7960
  333MPD2     C 5047   1.405   2.267  11.752  0.9030 -0.4171 -0.4290
  333MPD2    C1 5048   1.418   2.186  11.642  0.4924  0.0984 -0.0525
  333MPD2    C2 5049   1.361   2.057  11.642  0.3498 -0.1746 -0.1162
  333MPD2    C3 5050   1.290   2.022  11.758 -0.8110  0.0407 -1.0229
  333MPD2    C4 5051   1.270   2.111  11.860 -0.3586  0.0438  0.0762
  333MPD2    C5 5052   1.321   2.234  11.855  0.2677  0.0056  0.3928
  333MPD2     H 5053   1.378   1.982  11.567 -1.2496  0.8173 -1.4688
  333MPD2    H1 5054   1.200   2.088  11.940 -2.1394  3.3429 -0.5260
  333MPD2    H2 5055   1.447   2.367  11.748  1.3898 -0.5991  0.1024
  333MPD2    H3 5056   1.308   2.306  11.935  0.6198  0.6680 -0.1388
  333MPD2     N 5057   1.240   1.893  11.761 -0.4519 -0.1023  0.5455
  333MPD2    H5 5058   1.231   1.857  11.666  2.3428  0.3534  0.1131
  333MPD2    N1 5059   1.511   2.236  11.547 -0.2705 -0.4868 -0.2765
  333MPD2    H7 5060   1.564   2.320  11.568 -0.2899  0.2597 -3.1324
  334TMC3    C1 5061   1.624   2.246  11.335 -0.0244  0.4254 -0.0814
  334TMC3    C2 5062   1.697   2.177  11.248 -0.0856  0.0920 -0.7538
  334TMC3    C3 5063   1.780   2.249  11.168  0.0980  0.1704  1.6128
  334TMC3    C4 5064   1.626   2.385  11.343 -0.0824  0.2904  0.0415
  334TMC3    C5 5065   1.714   2.450  11.261  0.2171 -0.3134  0.0780
  334TMC3    C6 5066   1.788   2.384  11.165  0.3050  0.3592 -0.7836
  334TMC3     C 5067   1.556   2.164  11.434  0.5372 -0.4676  0.1701
  334TMC3     O 5068   1.529   2.049  11.399 -0.5879 -0.4508 -0.0619
  334TMC3     H 5069   1.693   2.069  11.242  1.2393  0.0317 -0.3551
  334TMC3    H1 5070   1.563   2.438  11.414  0.8405  1.8766 -0.3263
  334TMC3    H2 5071   1.867   2.446  11.123 -0.2564  0.0911 -2.2372
  334TMC3    C7 5072   1.692   2.590  11.222  0.0511  0.2130 -0.9384
  334TMC3    C8 5073   1.878   2.165  11.115  0.2211 -0.4866  0.3006
  334TMC3    O1 5074   1.699   2.672  11.311  0.4838 -0.0921  0.6077
  334TMC3    O2 5075   1.849   2.048  11.099 -0.3481 -0.5301  0.3351
  335TMC3    C1 5076   2.199   3.843  17.301 -0.2391  1.1248 -0.3088
  335TMC3    C2 5077   2.101   3.921  17.346  0.0645 -0.9021  0.4208
  335TMC3    C3 5078   2.095   4.053  17.320  0.2611  0.0662  0.5315
  335TMC3    C4 5079   2.303   3.891  17.238 -0.1782 -0.2246 -0.1737
  335TMC3    C5 5080   2.310   4.025  17.232 -0.2278 -0.2170  0.1171
  335TMC3    C6 5081   2.206   4.107  17.265 -0.1057  0.1829 -0.4468
  335TMC3     C 5082   2.187   3.705  17.316 -0.1499  1.2969 -0.4179
  335TMC3     O 5083   2.241   3.643  17.222 -0.4178 -0.1638  0.2342
  335TMC3     H 5084   2.020   3.871  17.398  0.7878  0.3673  2.7586
  335TMC3    H1 5085   2.376   3.835  17.180 -1.0904 -2.2603  0.6404
  335TMC3    H2 5086   2.210   4.214  17.249 -0.7540 -0.0326 -1.9620
  335TMC3    C7 5087   2.427   4.088  17.180 -0.0192  0.6120  0.0308
  335TMC3    C8 5088   1.964   4.113  17.296  0.3001 -0.0805 -0.4837
  335TMC3    O1 5089   2.480   4.013  17.099 -0.7012  0.0228  0.2226
  335TMC3    O2 5090   1.966   4.225  17.257 -0.7335 -0.0833 -0.6501
  336MPD2     C 5091   1.509   1.912  16.272  0.1633 -0.7990  0.2336
  336MPD2    C1 5092   1.482   1.838  16.159  0.0882 -0.5432 -0.0542
  336MPD2    C2 5093   1.510   1.703  16.160  0.9041  0.5355 -0.5208
  336MPD2    C3 5094   1.558   1.637  16.276 -0.0609  0.4804  0.2098
  336MPD2    C4 5095   1.588   1.714  16.392  0.6118  0.0366 -0.4404
  336MPD2    C5 5096   1.563   1.850  16.387 -0.1520 -0.4276  0.1279
  336MPD2     H 5097   1.488   1.653  16.066  0.4018  0.1422 -0.1926
  336MPD2    H1 5098   1.624   1.674  16.486 -2.0436  1.7573  1.3122
  336MPD2    H2 5099   1.489   2.018  16.274 -1.7335 -1.1008 -2.8015
  336MPD2    H3 5100   1.591   1.905  16.476 -2.4257 -1.3185  1.4051
  336MPD2     N 5101   1.567   1.499  16.279  0.1080 -0.4516  0.1171
  336MPD2    H5 5102   1.607   1.452  16.360  1.7080 -0.9173 -0.9362
  336MPD2    N1 5103   1.426   1.890  16.038 -0.3760 -0.2662  0.0221
  336MPD2    H7 5104   1.398   1.819  15.971  0.8401 -2.2365  1.5794
  337TMC3    C1 5105   1.393   2.047  15.860  0.6044 -0.0151 -0.4662
  337TMC3    C2 5106   1.305   1.964  15.793 -0.4593 -0.8232 -0.2330
  337TMC3    C3 5107   1.260   2.000  15.671 -0.4580  0.1067  0.1036
  337TMC3    C4 5108   1.421   2.176  15.818 -0.0658 -0.6719 -0.3142
  337TMC3    C5 5109   1.363   2.205  15.697  0.3195 -1.0586 -0.2503
  337TMC3    C6 5110   1.291   2.118  15.612  0.3966 -0.0713 -0.0368
  337TMC3     C 5111   1.430   2.022  16.000 -0.4019  0.5151 -0.1081
  337TMC3     O 5112   1.492   2.112  16.052 -0.0459 -0.0172 -0.2543
  337TMC3     H 5113   1.273   1.868  15.831 -0.0966 -0.6696  0.4610
  337TMC3    H1 5114   1.466   2.254  15.877  0.3480 -0.0107 -1.4987
  337TMC3    H2 5115   1.246   2.150  15.518  2.1599  2.2177 -0.0968
  337TMC3    C7 5116   1.355   2.340  15.656  0.4823  0.4858  0.3832
  337TMC3    C8 5117   1.148   1.921  15.628  0.4220 -0.3221 -0.0258
  337TMC3    O1 5118   1.322   2.354  15.541 -0.4159 -0.8697  0.0079
  337TMC3    O2 5119   1.105   1.838  15.706  0.0890  0.1247  0.3331
  338MPD2     C 5120   1.760   2.061   1.020  0.0018 -0.5292  0.4588
  338MPD2    C1 5121   1.682   1.999   0.921 -0.6430  0.0421 -0.3213
  338MPD2    C2 5122   1.545   2.012   0.931 -0.3987 -0.0856  0.2662
  338MPD2    C3 5123   1.488   2.102   1.014 -0.0332  0.7701 -0.7163
  338MPD2    C4 5124   1.570   2.175   1.099  0.4205  0.6174 -0.6464
  338MPD2    C5 5125   1.704   2.153   1.104 -0.0950  0.9313  0.2307
  338MPD2     H 5126   1.481   1.952   0.867  0.1935  0.3320 -0.7279
  338MPD2    H1 5127   1.524   2.252   1.160 -2.1175  0.0996 -1.8798
  338MPD2    H2 5128   1.868   2.052   1.016  0.0532  1.0858 -1.8488
  338MPD2    H3 5129   1.767   2.210   1.172 -0.5765  1.8212 -0.0744
  338MPD2     N 5130   1.350   2.121   1.006  0.0925  0.2144 -0.0142
  338MPD2    H5 5131   1.300   2.063   0.938 -0.3024  0.6001 -0.0578
  338MPD2    N1 5132   1.737   1.903   0.830  0.3664 -0.1390 -0.1473
  338MPD2    H7 5133   1.674   1.864   0.760 -1.3356 -0.1904  1.4118
  339TMC3    C1 5134   1.132   2.204   1.058 -0.6744 -0.1317 -0.1632
  339TMC3    C2 5135   1.079   2.094   1.110  0.6901 -0.3946  0.2092
  339TMC3    C3 5136   0.976   2.039   1.043 -0.3805 -0.3495 -0.3116
  339TMC3    C4 5137   1.114   2.232   0.930  0.1889  0.4277  0.8992
  339TMC3    C5 5138   1.022   2.165   0.858 -0.2571  0.1776  0.0647
  339TMC3    C6 5139   0.939   2.079   0.920  0.2554 -0.0708 -0.3829
  339TMC3     C 5140   1.273   2.207   1.090  1.4043  0.0825  0.3383
  339TMC3     O 5141   1.314   2.273   1.183 -0.1763 -0.3277 -0.3715
  339TMC3     H 5142   1.104   2.059   1.209 -1.9621  0.1608  1.0965
  339TMC3    H1 5143   1.177   2.303   0.879 -0.0543 -0.6923 -0.9334
  339TMC3    H2 5144   0.856   2.045   0.859 -0.7198 -0.1368  1.0088
  339TMC3    C7 5145   1.039   2.172   0.714 -0.4387 -0.2412  0.1541
  339TMC3    C8 5146   0.912   1.914   1.083  0.7847 -0.1141 -0.1471
  339TMC3    O1 5147   1.093   2.266   0.659  0.3196  0.5938 -0.3433
  339TMC3    O2 5148   0.895   1.829   0.996 -0.5040  0.0353 -0.5502
  340MPD2     C 5149   1.278   3.482   9.481  0.2689 -0.2026 -0.4427
  340MPD2    C1 5150   1.304   3.380   9.556 -0.5466 -0.8784 -0.3721
  340MPD2    C2 5151   1.399   3.385   9.654  0.0558  1.0684 -0.6037
  340MPD2    C3 5152   1.476   3.502   9.662  0.4795 -0.1773  0.7471
  340MPD2    C4 5153   1.443   3.611   9.587  0.3349  0.0329  0.7348
  340MPD2    C5 5154   1.344   3.605   9.487  0.1154 -0.2407  0.3615
  340MPD2     H 5155   1.415   3.294   9.710 -1.3809  2.3026  1.8172
  340MPD2    H1 5156   1.504   3.700   9.592  0.2017  0.1945 -0.6647
  340MPD2    H2 5157   1.208   3.489   9.399 -1.3152  0.6074  0.9859
  340MPD2    H3 5158   1.328   3.682   9.413  3.4686 -0.3234 -0.4470
  340MPD2     N 5159   1.591   3.523   9.752  0.1969 -0.0736 -0.3810
  340MPD2    H5 5160   1.625   3.619   9.752  0.4184 -0.1492 -1.2305
  340MPD2    N1 5161   1.211   3.273   9.540  0.3315 -0.2820  0.2508
  340MPD2    H7 5162   1.166   3.272   9.449  0.4199 -1.5116  0.2138
  341TMC3    C1 5163   1.112   3.054   9.609  0.1245  0.2646 -0.1740
  341TMC3    C2 5164   1.053   2.991   9.709  0.0307  0.1449  0.1274
  341TMC3    C3 5165   1.000   2.869   9.680 -0.0350 -0.9488 -0.3902
  341TMC3    C4 5166   1.124   3.000   9.480 -0.8293 -0.3718  0.3369
  341TMC3    C5 5167   1.095   2.867   9.464 -0.0671  0.0483 -0.7187
  341TMC3    C6 5168   1.021   2.801   9.566  0.4113  0.6762 -0.3004
  341TMC3     C 5169   1.188   3.182   9.643  0.0053  0.6092 -0.1229
  341TMC3     O 5170   1.210   3.196   9.765  0.0570  0.1424 -0.5303
  341TMC3     H 5171   1.034   3.050   9.798  0.3720  0.7398 -0.1941
  341TMC3    H1 5172   1.179   3.056   9.405 -1.9622  0.2020 -0.0491
  341TMC3    H2 5173   0.991   2.697   9.565 -0.5042  0.9345  0.7168
  341TMC3    C7 5174   1.221   2.801   9.427 -0.4550 -0.7520 -0.6917
  341TMC3    C8 5175   0.958   2.792   9.798 -0.7071 -0.2026  0.2485
  341TMC3    O1 5176   1.322   2.867   9.416  0.1408  0.1322  0.5676
  341TMC3    O2 5177   0.881   2.699   9.778  0.3749  0.5263 -0.0004
  342MPD2     C 5178   4.479   2.359  17.696  0.2982 -0.3272 -0.1520
  342MPD2    C1 5179   4.556   2.406  17.590 -0.0227  0.2347  0.9087
  342MPD2    C2 5180   4.593   2.536  17.583 -0.3190  0.5242 -0.8800
  342MPD2    C3 5181   4.541   2.627  17.671 -0.2380  0.2590 -0.3117
  342MPD2    C4 5182   4.469   2.582   0.026  0.2202  0.2755  0.0317
  342MPD2    C5 5183   4.445   2.446   0.039 -0.3864 -0.0716 -0.4884
  342MPD2     H 5184   4.657   2.560  17.499  1.7090  0.8448  0.7556
  342MPD2    H1 5185   4.443   2.641   0.113 -1.0495 -0.5008  0.1762
  342MPD2    H2 5186   4.445   2.256  17.703  2.3581 -1.0907 -1.2456
  342MPD2    H3 5187   4.409   2.415   0.136  1.5594 -1.7872 -0.3307
  342MPD2     N 5188   4.571   2.770  17.657 -0.3526 -0.0876 -1.0345
  342MPD2    H5 5189   4.634   2.798  17.583 -0.5014  2.4937 -0.1934
  342MPD2    N1 5190   4.604   2.311  17.490 -0.2399  0.6895 -0.3743
  342MPD2    H7 5191   4.674   2.352  17.429  0.0884  0.5007 -0.1187
  343TMC3    C1 5192   4.620   2.096  17.379 -0.3414  0.6421  0.0085
  343TMC3    C2 5193   0.002   2.129  17.325  0.5236  0.3922  0.9164
  343TMC3    C3 5194   0.062   2.036  17.237 -0.1332  0.3062 -0.2015
  343TMC3    C4 5195   4.557   1.972  17.357  0.0452  0.2730 -0.0096
  343TMC3    C5 5196   4.617   1.890  17.274 -0.8003  0.4324  0.3056
  343TMC3    C6 5197   4.735   1.916  17.214 -0.5159  0.1939 -0.2594
  343TMC3     C 5198   4.553   2.184  17.471  0.3446  0.1003  0.2659
  343TMC3     O 5199   4.454   2.136  17.521  0.0411 -0.0716  0.5199
  343TMC3     H 5200   0.044   2.227  17.347 -1.6292  1.7369 -0.8393
  343TMC3    H1 5201   4.463   1.942  17.401  0.9515 -2.3888  0.1203
  343TMC3    H2 5202   0.025   1.832  17.153  0.0238  0.3521 -0.2205
  343TMC3    C7 5203   4.574   1.749  17.288 -0.3382 -0.6611  0.0749
  343TMC3    C8 5204   0.202   2.049  17.197 -0.3133  0.2347 -0.6596
  343TMC3    O1 5205   4.512   1.690  17.198 -0.2451 -0.1323 -0.1625
  343TMC3    O2 5206   0.260   2.131  17.264 -0.2256  0.3954  0.2355
  344MPD2     C 5207   4.481   2.098  11.407  0.8184 -0.2224  0.0539
  344MPD2    C1 5208   4.537   1.998  11.331  0.1150 -0.3022 -0.7021
  344MPD2    C2 5209   4.607   2.041  11.215  0.0733  0.5661  0.1101
  344MPD2    C3 5210   4.611   2.170  11.181  0.1056  0.4928  0.3198
  344MPD2    C4 5211   4.563   2.267  11.263 -0.0279 -1.0017 -0.6131
  344MPD2    C5 5212   4.500   2.230  11.379  0.3617 -0.2878  0.6362
  344MPD2     H 5213   4.669   1.968  11.164 -0.9002  1.2348 -2.0540
  344MPD2    H1 5214   4.569   2.374  11.246  0.2286 -1.3029 -2.4315
  344MPD2    H2 5215   4.426   2.076  11.498 -0.9291 -1.3004 -1.2891
  344MPD2    H3 5216   4.456   2.307  11.442  0.0282  1.1591 -1.3427
  344MPD2     N 5217   4.664   2.222  11.058  0.5952 -0.8273  0.4185
  344MPD2    H5 5218   4.664   2.323  11.046 -0.6602 -1.1693 -2.3534
  344MPD2    N1 5219   4.545   1.866  11.364 -0.9143  0.0821 -0.1412
  344MPD2    H7 5220   4.596   1.802  11.304 -0.2937  1.7481 -1.3965
  345TMC3    C1 5221   0.056   2.237  10.875 -0.0747 -0.2821  0.2511
  345TMC3    C2 5222   0.117   2.350  10.928 -0.0060  0.8307 -0.2057
  345TMC3    C3 5223   0.177   2.438  10.843 -0.7169  0.5625 -0.1111
  345TMC3    C4 5224   0.063   2.205  10.742  0.7426 -0.0579  0.3115
  345TMC3    C5 5225   0.129   2.292  10.662  0.2904  0.6544 -0.3391
  345TMC3    C6 5226   0.182   2.411  10.713  0.3264  0.2281  0.1720
  345TMC3     C 5227   4.724   2.152  10.962 -0.7167  0.5682 -0.2005
  345TMC3     O 5228   0.000   2.033  10.943  0.4527 -0.6671  0.6310
  345TMC3     H 5229   0.116   2.364  11.035  0.5774  1.4843 -0.2838
  345TMC3    H1 5230   4.734   2.128  10.708 -0.2761  0.7585  0.4978
  345TMC3    H2 5231   0.221   2.490  10.650 -1.4079  0.3691 -0.7310
  345TMC3    C7 5232   0.088   2.296  10.517 -0.3184 -0.1116 -0.1847
  345TMC3    C8 5233   0.213   2.573  10.883 -0.6473  0.3475 -0.4344
  345TMC3    O1 5234   4.719   2.250  10.491  0.6686 -0.1133 -0.1002
  345TMC3    O2 5235   0.244   2.653  10.797  0.2260 -0.1303 -0.0574
  346MPD2     C 5236   1.050   3.608  14.754 -0.4391  0.3736  0.6609
  346MPD2    C1 5237   1.104   3.645  14.633  0.6474 -1.0603 -0.1094
  346MPD2    C2 5238   1.221   3.724  14.634 -0.3826  0.1970  0.5568
  346MPD2    C3 5239   1.300   3.742  14.748 -0.5491 -0.3635 -0.4843
  346MPD2    C4 5240   1.244   3.695  14.868  0.2336 -0.4730  0.1846
  346MPD2    C5 5241   1.117   3.644  14.875 -0.0358  0.3406  0.6733
  346MPD2     H 5242   1.259   3.770  14.544 -0.8876 -2.5757 -1.0920
  346MPD2    H1 5243   1.276   3.732  14.965 -0.6810 -0.4428  0.4745
  346MPD2    H2 5244   0.952   3.562  14.766 -0.0211 -0.5152  0.7160
  346MPD2    H3 5245   1.077   3.613  14.970 -1.0451  0.7097  0.3658
  346MPD2     N 5246   1.425   3.811  14.747 -0.0486 -0.2378 -0.7795
  346MPD2    H5 5247   1.449   3.843  14.653 -0.1869  3.1695  0.3326
  346MPD2    N1 5248   1.038   3.623  14.507 -0.4052  0.1367 -0.0875
  346MPD2    H7 5249   1.092   3.661  14.429 -1.0468  1.4400  0.1012
  347TMC3    C1 5250   1.648   3.850  14.804 -0.1712  0.1850  0.7166
  347TMC3    C2 5251   1.684   3.915  14.693 -0.2060  0.2281 -0.4944
  347TMC3    C3 5252   1.818   3.932  14.666  0.2388 -0.1670 -0.2523
  347TMC3    C4 5253   1.753   3.805  14.889  0.2278  0.1205 -0.2278
  347TMC3    C5 5254   1.887   3.839  14.868  0.2010 -0.3636  0.2516
  347TMC3    C6 5255   1.920   3.915  14.762  0.5787  0.5080  0.1597
  347TMC3     C 5256   1.515   3.812  14.849 -0.2760  0.5944 -0.0878
  347TMC3     O 5257   1.502   3.767  14.961  0.4358 -0.0256  0.2279
  347TMC3     H 5258   1.609   3.972  14.639 -3.5334 -2.2970  1.4541
  347TMC3    H1 5259   1.727   3.735  14.968 -0.5537  0.5783 -0.0882
  347TMC3    H2 5260   2.021   3.944  14.736  1.5215 -1.5102  1.5700
  347TMC3    C7 5261   1.974   3.810  14.976 -0.2178  0.2278 -0.6865
  347TMC3    C8 5262   1.858   4.028  14.557 -0.0364  0.3586 -0.7728
  347TMC3    O1 5263   1.944   3.732  15.063  0.4887  0.2119  0.5380
  347TMC3    O2 5264   1.959   4.095  14.572  0.0355  0.1006 -0.0062
  348MPD2     C 5265   3.792   3.222  12.314  0.3818 -0.6565 -0.2831
  348MPD2    C1 5266   3.739   3.155  12.200 -0.2358 -0.5991 -0.1295
  348MPD2    C2 5267   3.701   3.231  12.094 -0.1162  0.1121 -0.6403
  348MPD2    C3 5268   3.732   3.364  12.083  0.4226 -0.9305  0.3007
  348MPD2    C4 5269   3.775   3.435  12.198 -0.0075 -0.7612 -0.6962
  348MPD2    C5 5270   3.806   3.362  12.310  0.4248 -0.3934 -0.5140
  348MPD2     H 5271   3.683   3.181  12.000 -0.5925  0.0678 -0.5277
  348MPD2    H1 5272   3.793   3.542  12.204  2.4100 -1.1088 -1.5954
  348MPD2    H2 5273   3.815   3.169  12.406 -0.9140 -0.3091  0.2368
  348MPD2    H3 5274   3.847   3.415  12.395  0.7238  2.2287 -2.3047
  348MPD2     N 5275   3.722   3.424  11.960  0.1483 -0.7687  0.4779
  348MPD2    H5 5276   3.686   3.368  11.884 -0.2755  0.4594 -0.2198
  348MPD2    N1 5277   3.736   3.015  12.187  0.3168  0.2908  0.7359
  348MPD2    H7 5278   3.700   2.983  12.097  2.3835  2.7399 -0.9747
  349TMC3    C1 5279   3.801   2.782  12.205  0.2606  0.7849 -0.1592
  349TMC3    C2 5280   3.862   2.681  12.268 -0.1293 -0.0411 -0.0747
  349TMC3    C3 5281   3.869   2.559  12.210  0.5517  0.0390  0.4209
  349TMC3    C4 5282   3.754   2.764  12.077  0.1250  0.5044  0.1328
  349TMC3    C5 5283   3.764   2.633  12.018  0.2677 -0.1131 -0.2622
  349TMC3    C6 5284   3.826   2.534  12.086 -0.1900 -0.0167 -0.2295
  349TMC3     C 5285   3.796   2.915  12.264  0.5320  0.0236  0.3986
  349TMC3     O 5286   3.819   2.923  12.384 -0.1093  0.0218 -0.3798
  349TMC3     H 5287   3.882   2.706  12.371 -0.4677 -1.0561  0.2433
  349TMC3    H1 5288   3.701   2.844  12.026  0.8342 -1.3617 -3.5110
  349TMC3    H2 5289   3.833   2.436  12.040 -2.5686 -0.9014  1.3009
  349TMC3    C7 5290   3.720   2.616  11.881  0.4514  0.7257 -0.4274
  349TMC3    C8 5291   3.910   2.461  12.302  0.4880 -0.4421  0.6604
  349TMC3    O1 5292   3.683   2.508  11.837  0.8734 -0.0258  0.0771
  349TMC3    O2 5293   3.940   2.501  12.414 -0.1367  0.4602 -0.4565
  350MPD2     C 5294   2.782   0.834   9.545  0.1043  1.1634  0.0299
  350MPD2    C1 5295   2.832   0.710   9.595 -0.2570  0.0473 -0.5767
  350MPD2    C2 5296   2.963   0.710   9.647 -0.0162  0.0495  0.4935
  350MPD2    C3 5297   3.050   0.818   9.658 -0.1504 -0.6092  0.3337
  350MPD2    C4 5298   2.988   0.937   9.630  0.2901 -0.5072  0.0908
  350MPD2    C5 5299   2.862   0.941   9.576 -0.4476  0.3941  0.5840
  350MPD2     H 5300   3.012   0.626   9.695  1.7683  0.8875  0.0984
  350MPD2    H1 5301   3.041   1.031   9.634  0.2131 -0.5019  1.0245
  350MPD2    H2 5302   2.688   0.841   9.491 -0.8093 -0.5033  1.3796
  350MPD2    H3 5303   2.829   1.041   9.550 -1.9639 -0.2836 -0.0763
  350MPD2     N 5304   3.180   0.798   9.699  0.1009  0.4013 -0.2302
  350MPD2    H5 5305   3.191   0.699   9.720  1.4295  0.8000  0.8769
  350MPD2    N1 5306   2.740   0.602   9.592 -0.9321 -0.6802  0.3487
  350MPD2    H7 5307   2.646   0.630   9.565 -0.9116  1.3027  2.3250
  351TMC3    C1 5308   2.675   0.383   9.602  0.1258 -0.5015 -0.5178
  351TMC3    C2 5309   2.700   0.247   9.581  0.4448  0.9951 -0.6513
  351TMC3    C3 5310   2.597   0.158   9.570  0.0317  0.1810  0.2846
  351TMC3    C4 5311   2.539   0.421   9.600 -0.2377  0.0272 -0.3172
  351TMC3    C5 5312   2.440   0.322   9.617  0.8045 -0.6159 -0.2905
  351TMC3    C6 5313   2.463   0.191   9.580  0.1344  0.6083 -0.1110
  351TMC3     C 5314   2.781   0.473   9.606  0.2134  1.5114 -0.6918
  351TMC3     O 5315   2.894   0.434   9.634 -0.3751  0.0278  0.0267
  351TMC3     H 5316   2.804   0.224   9.566  0.3971  1.1378 -1.1922
  351TMC3    H1 5317   2.512   0.512   9.652 -0.4763 -0.1777 -0.0852
  351TMC3    H2 5318   2.384   0.122   9.553  0.3713  0.4555 -0.4163
  351TMC3    C7 5319   2.358   0.331   9.743  0.3291 -0.3021 -0.7878
  351TMC3    C8 5320   2.625   0.018   9.549 -0.6804 -0.7424  0.3754
  351TMC3    O1 5321   2.361   0.434   9.812 -0.1649 -0.0058  0.0287
  351TMC3    O2 5322   2.524   4.692   9.514  0.5087 -0.1980 -0.5686
  352MPD2     C 5323   1.851   3.984   0.972 -0.1149 -0.6925  0.2355
  352MPD2    C1 5324   1.788   3.889   0.895  1.1526  0.0138  0.1101
  352MPD2    C2 5325   1.840   3.761   0.883 -0.3817  0.0754  0.0187
  352MPD2    C3 5326   1.953   3.730   0.951  0.8344  0.2391 -0.6950
  352MPD2    C4 5327   2.020   3.824   1.027 -0.9780  0.1467  0.3436
  352MPD2    C5 5328   1.967   3.954   1.036 -0.4381  0.1120 -0.1229
  352MPD2     H 5329   1.785   3.681   0.835  0.6996  0.8243 -2.4536
  352MPD2    H1 5330   2.111   3.800   1.079  0.0118  1.1711 -0.9219
  352MPD2    H2 5331   1.816   4.087   0.974  0.2309 -0.5873  0.9665
  352MPD2    H3 5332   2.020   4.038   1.080 -0.4484  1.2178 -2.1903
  352MPD2     N 5333   1.997   3.592   0.963 -0.2886  0.0446  0.5190
  352MPD2    H5 5334   2.078   3.585   1.025 -0.0686 -2.8418 -0.0729
  352MPD2    N1 5335   1.661   3.933   0.840 -0.1743  0.1489  0.4122
  352MPD2    H7 5336   1.635   4.029   0.862 -1.5888  0.1354 -1.1767
  353TMC3    C1 5337   1.997   3.353   0.944 -0.6247 -0.6467 -0.0191
  353TMC3    C2 5338   2.138   3.351   0.940  0.2598 -0.7435 -0.0796
  353TMC3    C3 5339   2.198   3.229   0.939  0.3613 -0.5032  0.0809
  353TMC3    C4 5340   1.927   3.238   0.960  0.2492 -0.0913 -0.4954
  353TMC3    C5 5341   1.993   3.123   0.970  0.1540 -0.2790  0.1829
  353TMC3    C6 5342   2.127   3.110   0.953 -0.5018  0.5052  0.8082
  353TMC3     C 5343   1.928   3.481   0.918 -0.4660  0.5077  0.5037
  353TMC3     O 5344   1.814   3.469   0.874  0.0457  0.0906  0.0361
  353TMC3     H 5345   2.201   3.439   0.938 -0.5314 -0.1511  0.8772
  353TMC3    H1 5346   1.821   3.250   0.982  0.1021 -1.6345 -0.4153
  353TMC3    H2 5347   2.163   3.009   0.963  0.2618  0.6528 -0.4492
  353TMC3    C7 5348   1.912   2.996   0.969 -0.5328 -0.1943  0.2750
  353TMC3    C8 5349   2.334   3.224   0.998  0.4454  0.2699  0.8026
  353TMC3    O1 5350   1.975   2.896   0.935 -0.7439 -0.5147  0.2752
  353TMC3    O2 5351   2.404   3.318   0.974 -0.1483  0.1478 -0.2307
  354TMC3    C1 5352   2.970   4.238  13.706 -0.4877 -0.6641 -0.0500
  354TMC3    C2 5353   3.007   4.363  13.664  0.2545 -0.0448  0.2686
  354TMC3    C3 5354   3.019   4.389  13.529  0.1479  0.9169 -0.3849
  354TMC3    C4 5355   2.940   4.140  13.609  0.0859  0.7332 -0.2031
  354TMC3    C5 5356   2.951   4.167  13.470 -0.8877  0.0770  0.0200
  354TMC3    C6 5357   2.989   4.294  13.435 -0.7041 -0.6910  0.4496
  354TMC3     C 5358   2.987   4.205  13.843 -0.2115 -0.8271  0.2425
  354TMC3     O 5359   2.974   4.086  13.883  0.7585 -0.0625  0.7380
  354TMC3     H 5360   3.021   4.445  13.733 -0.0743  0.3750 -0.1630
  354TMC3    H1 5361   2.946   4.041  13.652  3.1107 -0.5103 -3.4486
  354TMC3    H2 5362   3.001   4.323  13.332 -0.7156 -2.0103  0.0762
  354TMC3    C7 5363   3.014   4.068  13.389  0.2955 -0.3976 -0.0447
  354TMC3    C8 5364   3.104   4.506  13.499  0.6297 -0.0830 -0.1513
  354TMC3    O1 5365   2.961   3.959  13.386 -0.0040 -0.2810  0.1208
  354TMC3    O2 5366   3.129   4.584  13.591  0.5327  0.3871  0.4777
  355MPD2     C 5367   2.876   0.161  11.810 -0.3531 -0.1562  0.3977
  355MPD2    C1 5368   2.982   0.152  11.724  0.9005  0.1788  0.3605
  355MPD2    C2 5369   3.106   0.123  11.774  0.3519 -0.4286 -0.0365
  355MPD2    C3 5370   3.126   0.106  11.904  0.2249  0.3984  0.3276
  355MPD2    C4 5371   3.016   0.105  11.992  1.2916  0.7460 -0.3571
  355MPD2    C5 5372   2.892   0.133  11.943  0.1297  0.2243  0.2579
  355MPD2     H 5373   3.183   0.104  11.700  0.1289 -1.8538  0.0874
  355MPD2    H1 5374   3.027   0.078  12.096 -0.0166  3.2227  0.4182
  355MPD2    H2 5375   2.773   0.167  11.775 -0.6692 -0.1009  1.3303
  355MPD2    H3 5376   2.804   0.121  12.007 -1.4111 -0.1801 -1.9401
  355MPD2     N 5377   3.255   0.095  11.956  0.4025  0.4657  1.4590
  355MPD2    H5 5378   3.262   0.108  12.056 -1.6219 -1.2216  1.8096
  355MPD2    N1 5379   2.948   0.173  11.581 -0.1281 -0.3275  0.4829
  355MPD2    H7 5380   2.850   0.165  11.557  0.5741 -0.8014 -2.2931
  356TMC3    C1 5381   3.491   0.084  11.977 -0.6279 -0.0214  0.3064
  356TMC3    C2 5382   3.595   0.127  11.906  0.5239  0.0720  0.5114
  356TMC3    C3 5383   3.681   0.225  11.943  0.0373  0.2183 -0.3429
  356TMC3    C4 5384   3.472   0.144  12.100 -0.4437 -0.6631  0.1221
  356TMC3    C5 5385   3.558   0.250  12.138 -0.4474 -0.1584 -0.3064
  356TMC3    C6 5386   3.662   0.292  12.063 -0.5228  0.2577 -0.0361
  356TMC3     C 5387   3.374   0.070  11.890  0.3148 -0.4460 -0.8357
  356TMC3     O 5388   3.373   0.035  11.775  0.3792 -1.2015  0.1390
  356TMC3     H 5389   3.605   0.089  11.804  2.3760  1.3699  0.2070
  356TMC3    H1 5390   3.393   0.117  12.170 -2.3100  0.2252 -1.6284
  356TMC3    H2 5391   3.731   0.373  12.088 -2.4345  1.8085  0.2255
  356TMC3    C7 5392   3.546   0.288  12.284  0.7942 -0.2788 -0.4363
  356TMC3    C8 5393   3.782   0.270  11.847 -0.3806 -0.0730 -0.1223
  356TMC3    O1 5394   3.465   0.223  12.346 -0.4187 -0.0914  0.2120
  356TMC3    O2 5395   3.844   0.188  11.784 -0.0397  0.0308  0.1563
  357MPD2     C 5396   3.652   0.598   1.307  0.0795 -0.1421  0.3820
  357MPD2    C1 5397   3.699   0.523   1.409  0.6967 -0.5404  0.3275
  357MPD2    C2 5398   3.744   0.595   1.518  0.2360  0.4488 -0.1312
  357MPD2    C3 5399   3.719   0.731   1.526  0.4932 -0.4425 -0.2188
  357MPD2    C4 5400   3.680   0.803   1.416  0.3155 -0.7365  0.1527
  357MPD2    C5 5401   3.649   0.734   1.304 -0.3265 -0.3275 -0.0252
  357MPD2     H 5402   3.790   0.542   1.600 -2.7885  0.5256  1.5847
  357MPD2    H1 5403   3.657   0.908   1.417 -2.1875 -1.2858 -0.3010
  357MPD2    H2 5404   3.619   0.543   1.220 -0.7346  2.3712 -0.9190
  357MPD2    H3 5405   3.615   0.789   1.217  1.3283  0.8063  0.0382
  357MPD2     N 5406   3.753   0.808   1.645 -0.5052  0.1331 -0.5593
  357MPD2    H5 5407   3.747   0.907   1.627  2.2583 -0.0111 -2.2568
  357MPD2    N1 5408   3.698   0.384   1.400 -0.0287  0.0021 -0.4091
  357MPD2    H7 5409   3.649   0.334   1.327  0.2303 -0.5862 -0.1799
  358TMC3    C1 5410   3.727   0.160   1.452  0.8104 -0.0233 -0.4804
  358TMC3    C2 5411   3.619   0.119   1.385 -0.1708 -0.4997  0.1232
  358TMC3    C3 5412   3.612   4.734   1.333 -0.3458  0.0522  0.0655
  358TMC3    C4 5413   3.843   0.083   1.457 -0.2885  0.5436 -0.2000
  358TMC3    C5 5414   3.841   4.707   1.376  0.9271 -0.8656 -0.0584
  358TMC3    C6 5415   3.725   4.670   1.305  0.1708 -0.6315 -0.4639
  358TMC3     C 5416   3.748   0.299   1.495 -0.0567  0.6141 -0.4018
  358TMC3     O 5417   3.830   0.325   1.586 -0.4497 -0.2791 -0.5815
  358TMC3     H 5418   3.533   0.183   1.404  0.1305  0.5595 -2.1433
  358TMC3    H1 5419   3.926   0.123   1.513  1.2827  1.9067 -3.4814
  358TMC3    H2 5420   3.723   4.571   1.261 -0.6393 -0.5242 -0.6534
  358TMC3    C7 5421   3.938   4.605   1.415 -0.2466 -0.0180  1.0363
  358TMC3    C8 5422   3.504   4.730   1.235 -0.5950  0.3339  0.3880
  358TMC3    O1 5423   3.920   4.491   1.378  0.1636 -0.2912  0.4781
  358TMC3    O2 5424   3.418   0.082   1.235 -0.0292  0.9272  0.9221
  359MPD2     C 5425   3.812   3.682  12.614 -0.1891  0.0197 -0.0217
  359MPD2    C1 5426   3.713   3.697  12.520 -0.1526 -0.0161 -0.5554
  359MPD2    C2 5427   3.606   3.607  12.508  0.5253 -0.2493 -0.1333
  359MPD2    C3 5428   3.608   3.490  12.588 -0.2199  0.5343  0.3921
  359MPD2    C4 5429   3.716   3.469  12.676  0.3992 -0.4437  0.0508
  359MPD2    C5 5430   3.815   3.564  12.684  0.4072  0.5016 -0.6675
  359MPD2     H 5431   3.525   3.633  12.441  2.0610 -1.2431 -2.3810
  359MPD2    H1 5432   3.728   3.371  12.720  0.3292  0.3340  1.7920
  359MPD2    H2 5433   3.887   3.758  12.628  1.6055 -1.3339 -2.2458
  359MPD2    H3 5434   3.896   3.543  12.753 -0.6219  1.1570  0.7150
  359MPD2     N 5435   3.529   3.376  12.567  0.2914  0.1334  0.1571
  359MPD2    H5 5436   3.546   3.296  12.627  2.8128  2.2853  2.3117
  359MPD2    N1 5437   3.707   3.812  12.433 -0.1247  0.3909 -0.3146
  359MPD2    H7 5438   3.621   3.809  12.379 -0.9231  2.0318  0.8581
  360TMC3    C1 5439   3.786   3.994  12.303 -0.0457  0.6212  0.2692
  360TMC3    C2 5440   3.892   4.077  12.280 -0.0809  0.5494  0.3017
  360TMC3    C3 5441   3.862   4.171  12.187  0.5036 -0.0637 -0.5432
  360TMC3    C4 5442   3.684   3.979  12.213  0.0956  0.4844  0.7633
  360TMC3    C5 5443   3.671   4.070  12.112  0.0405  0.2822 -0.0072
  360TMC3    C6 5444   3.758   4.177  12.100  0.0714  0.3164 -0.1952
  360TMC3     C 5445   3.810   3.898  12.411 -0.3399 -0.1321  0.7113
  360TMC3     O 5446   3.916   3.914  12.470 -0.1898  0.3445  0.0197
  360TMC3     H 5447   3.968   4.100  12.353  0.6899  3.5956 -1.4610
  360TMC3    H1 5448   3.607   3.906  12.234  0.3166 -0.2822 -1.1271
  360TMC3    H2 5449   3.767   4.244  12.015  2.5002 -2.3403 -2.0469
  360TMC3    C7 5450   3.616   4.034  11.986  0.2741 -0.4523  0.3982
  360TMC3    C8 5451   3.988   4.227  12.147 -0.1727 -0.1370 -0.2340
  360TMC3    O1 5452   3.645   4.103  11.888  0.2990 -0.3771 -0.6384
  360TMC3    O2 5453   3.989   4.344  12.099 -0.3398 -0.3019  0.2848
  361MPD2     C 5454   0.706   2.604  16.773  1.0485 -0.1239  0.1280
  361MPD2    C1 5455   0.691   2.638  16.905  0.1786 -0.4677  0.6202
  361MPD2    C2 5456   0.770   2.591  17.004  0.6027  0.6019 -0.6270
  361MPD2    C3 5457   0.868   2.502  16.975 -0.1973 -0.0348 -0.0673
  361MPD2    C4 5458   0.867   2.454  16.849 -0.2844  0.4091 -0.1866
  361MPD2    C5 5459   0.796   2.507  16.743  0.3635 -0.3472  0.7192
  361MPD2     H 5460   0.762   2.618  17.109  1.3627 -2.1059  0.1307
  361MPD2    H1 5461   0.945   2.383  16.826  0.6844  1.4660 -0.1685
  361MPD2    H2 5462   0.635   2.645  16.703  0.3767  2.4196  2.2881
  361MPD2    H3 5463   0.811   2.469  16.643 -1.4965  1.4318 -0.2324
  361MPD2     N 5464   0.970   2.454  17.062  0.4664 -0.2999 -0.1085
  361MPD2    H5 5465   1.031   2.384  17.021  1.9744  1.1871 -0.3964
  361MPD2    N1 5466   0.587   2.728  16.918 -0.1154  0.2130 -0.2884
  361MPD2    H7 5467   0.527   2.743  16.838  1.4037 -0.3179 -1.5323
  362TMC3    C1 5468   0.445   2.875  17.022 -0.3681 -0.1284  0.4285
  362TMC3    C2 5469   0.347   2.885  17.112 -0.1950  0.2595  0.7441
  362TMC3    C3 5470   0.249   2.981  17.096 -0.2313 -0.6755 -0.4288
  362TMC3    C4 5471   0.453   2.944  16.908 -0.2295  0.6255 -0.6534
  362TMC3    C5 5472   0.355   3.037  16.889  0.4111  0.0112 -0.0142
  362TMC3    C6 5473   0.251   3.052  16.984  0.6687 -0.3132  0.8705
  362TMC3     C 5474   0.547   2.772  17.038 -0.2909  0.1246  0.2675
  362TMC3     O 5475   0.569   2.730  17.153  0.4665  0.0436 -0.6630
  362TMC3     H 5476   0.340   2.828  17.204  1.1621  0.5377  1.0118
  362TMC3    H1 5477   0.533   2.943  16.835  1.0976 -0.2717  0.8133
  362TMC3    H2 5478   0.183   3.135  16.972 -0.3999 -1.1135  1.2955
  362TMC3    C7 5479   0.342   3.115  16.757 -0.1902 -0.4456 -0.4801
  362TMC3    C8 5480   0.123   2.965  17.166  0.4792 -0.2581  0.0206
  362TMC3    O1 5481   0.325   3.235  16.757  0.0236 -0.0780 -0.0533
  362TMC3    O2 5482   0.087   2.850  17.180  0.7063  0.2063 -0.0087
  363TMC3    C1 5483   2.931   4.556   9.219  0.0520 -0.3009  0.3427
  363TMC3    C2 5484   3.037   4.549   9.308 -0.0002  0.7701 -0.0053
  363TMC3    C3 5485   3.058   4.662   9.380 -0.0522 -0.2125  0.1848
  363TMC3    C4 5486   2.842   4.662   9.211  0.5769 -0.5110  0.6243
  363TMC3    C5 5487   2.870   0.028   9.295 -0.5141 -1.0456  0.1821
  363TMC3    C6 5488   2.976   0.030   9.378 -0.1270 -0.9472  0.2082
  363TMC3     C 5489   2.908   4.447   9.132 -1.1842 -0.0249 -0.3793
  363TMC3     O 5490   2.951   4.338   9.169 -0.1934  0.1248 -0.0432
  363TMC3     H 5491   3.101   4.463   9.296 -1.5773 -0.6314  1.6899
  363TMC3    H1 5492   2.750   4.658   9.155  0.2711 -0.7205  1.1485
  363TMC3    H2 5493   3.007   0.117   9.434  0.8981 -1.6246  0.6955
  363TMC3    C7 5494   2.796   0.149   9.281  0.4140  0.1748 -0.1957
  363TMC3    C8 5495   3.184   4.676   9.450  0.4281 -0.2246  0.4521
  363TMC3    O1 5496   2.854   0.242   9.331  0.1048  0.1264  0.2516
  363TMC3    O2 5497   3.216   0.051   9.480  0.0615  0.4552 -0.0245
  364MPD2     C 5498   2.457   4.490  10.836 -0.5533 -0.1529  0.2195
  364MPD2    C1 5499   2.511   4.425  10.728 -0.0462 -0.2776  0.1829
  364MPD2    C2 5500   2.544   4.294  10.737 -0.7435  0.1447  0.4435
  364MPD2    C3 5501   2.537   4.223  10.860  0.2443  0.8531 -0.8880
  364MPD2    C4 5502   2.484   4.287  10.968 -0.5348  0.8845  0.8543
  364MPD2    C5 5503   2.434   4.416  10.950  0.3435 -0.1784  0.0794
  364MPD2     H 5504   2.573   4.238  10.649  2.4656  1.1786  0.8433
  364MPD2    H1 5505   2.480   4.239  11.065  2.3491 -2.9629 -0.9376
  364MPD2    H2 5506   2.452   4.598  10.838 -1.0616 -0.1698 -0.2748
  364MPD2    H3 5507   2.400   4.469  11.038  0.7113  0.3374 -0.0892
  364MPD2     N 5508   2.577   4.089  10.875 -1.1407  0.7084  0.3057
  364MPD2    H5 5509   2.572   4.051  10.969 -0.6997 -1.2959 -0.4767
  364MPD2    N1 5510   2.531   4.498  10.612  0.0584  0.1940 -0.9971
  364MPD2    H7 5511   2.499   4.594  10.609 -0.4021 -0.0032 -2.1823
  365TMC3    C1 5512   2.643   4.564  10.415  0.3387 -0.1584 -0.0269
  365TMC3    C2 5513   2.695   4.528  10.296 -0.6313 -0.4065 -0.2044
  365TMC3    C3 5514   2.764   4.622  10.226 -0.0331 -0.4564 -0.5506
  365TMC3    C4 5515   2.655   4.692  10.464 -0.0039  0.4049 -0.0258
  365TMC3    C5 5516   2.726   0.046  10.391  0.0691 -0.8702 -0.1814
  365TMC3    C6 5517   2.791   0.009  10.274  0.1558 -0.6084 -0.5604
  365TMC3     C 5518   2.593   4.460  10.490 -0.8830 -0.6209 -0.2498
  365TMC3     O 5519   2.624   4.350  10.449  0.1223  0.1965 -0.3723
  365TMC3     H 5520   2.660   4.437  10.248  0.5550 -0.2695 -1.3269
  365TMC3    H1 5521   2.630   4.712  10.567  2.0709  0.2136  0.5240
  365TMC3    H2 5522   2.847   0.081  10.215 -0.0969 -0.1909 -0.2808
  365TMC3    C7 5523   2.745   0.185  10.442  0.1049 -0.8688  0.8646
  365TMC3    C8 5524   2.869   4.572  10.131 -0.0735  0.3688 -0.4819
  365TMC3    O1 5525   2.819   0.259  10.377  0.2994  0.1133  0.0742
  365TMC3    O2 5526   2.946   4.648  10.077 -0.0826  0.4977  0.5504
  366MPD2     C 5527   1.058   0.806  15.496  0.4597  0.6380  0.0589
  366MPD2    C1 5528   1.156   0.902  15.499 -0.2922  1.1277  0.3065
  366MPD2    C2 5529   1.288   0.873  15.471  0.3246 -0.1300 -0.2131
  366MPD2    C3 5530   1.314   0.754  15.410 -0.2659 -0.0137  0.6452
  366MPD2    C4 5531   1.220   0.649  15.399 -0.6873 -0.1251 -0.1837
  366MPD2    C5 5532   1.096   0.681  15.453  0.2926 -0.2154 -1.0754
  366MPD2     H 5533   1.355   0.958  15.462 -1.6399  1.5209  0.8244
  366MPD2    H1 5534   1.233   0.556  15.345  2.2521 -0.8253  1.6829
  366MPD2    H2 5535   0.964   0.829  15.545 -0.8393  0.4910 -2.3694
  366MPD2    H3 5536   1.021   0.603  15.460 -0.4257  0.5074 -0.7102
  366MPD2     N 5537   1.430   0.754  15.340  0.1537  0.4278  0.2142
  366MPD2    H5 5538   1.502   0.823  15.361  0.3533  0.9207 -2.0731
  366MPD2    N1 5539   1.127   1.039  15.528  0.0625  0.3515  0.7662
  366MPD2    H7 5540   1.205   1.103  15.544 -2.1782  2.4848  3.1397
  367TMC3    C1 5541   1.001   1.232  15.530 -0.1275 -0.1488  0.5037
  367TMC3    C2 5542   1.105   1.302  15.595 -0.1232 -0.5475  0.0220
  367TMC3    C3 5543   1.136   1.430  15.549  0.1956  0.5414 -0.5836
  367TMC3    C4 5544   0.918   1.293  15.443  0.2871 -0.0716  0.7421
  367TMC3    C5 5545   0.951   1.424  15.399  0.0418 -0.0310  0.5259
  367TMC3    C6 5546   1.063   1.497  15.450 -0.0559  0.2521  0.1670
  367TMC3     C 5547   0.997   1.092  15.532  0.4361  0.1978  0.3092
  367TMC3     O 5548   0.894   1.035  15.510  0.6138  0.1289 -0.6211
  367TMC3     H 5549   1.167   1.254  15.670  1.2950 -1.7514 -1.9238
  367TMC3    H1 5550   0.853   1.233  15.380  0.2093  0.4524  0.3216
  367TMC3    H2 5551   1.081   1.598  15.416  0.6249 -0.6204 -2.0164
  367TMC3    C7 5552   0.889   1.490  15.283 -0.0443 -0.6566  0.1414
  367TMC3    C8 5553   1.251   1.489  15.620 -0.0325 -0.2547  0.6905
  367TMC3    O1 5554   0.954   1.570  15.215  0.5053  0.3962  0.2849
  367TMC3    O2 5555   1.274   1.459  15.739 -0.3820 -0.4616  0.1633
  368MPD2     C 5556   1.909   2.524  13.170 -0.0868 -0.4972 -0.1490
  368MPD2    C1 5557   1.945   2.656  13.156 -0.1352 -0.0889 -0.2027
  368MPD2    C2 5558   2.046   2.683  13.067 -0.3348  0.8237  0.0192
  368MPD2    C3 5559   2.112   2.590  12.999 -0.2459 -0.6984  0.5689
  368MPD2    C4 5560   2.079   2.456  13.018  0.1766  0.4876  0.3820
  368MPD2    C5 5561   1.979   2.426  13.104  0.1326  0.7039  0.1592
  368MPD2     H 5562   2.076   2.786  13.054  0.7025  0.6491  0.9704
  368MPD2    H1 5563   2.129   2.377  12.963 -0.1195 -1.1799  2.4750
  368MPD2    H2 5564   1.821   2.510  13.232 -0.2961 -2.0634 -0.8152
  368MPD2    H3 5565   1.955   2.321  13.120  0.4746  1.0340  2.7519
  368MPD2     N 5566   2.211   2.612  12.899 -0.2488  0.2552 -0.1701
  368MPD2    H5 5567   2.276   2.538  12.878 -0.2998  0.3928 -0.8248
  368MPD2    N1 5568   1.870   2.760  13.216  0.1706 -0.4920  0.3081
  368MPD2    H7 5569   1.783   2.730  13.258  0.2893 -2.8362 -1.1306
  369TMC3    C1 5570   1.805   2.991  13.276  0.5921  0.9754 -0.7047
  369TMC3    C2 5571   1.832   3.124  13.257  0.0843  0.7113  0.4639
  369TMC3    C3 5572   1.735   3.215  13.287 -0.0184  0.6627  0.4639
  369TMC3    C4 5573   1.689   2.940  13.315 -0.2045 -0.2879 -0.3074
  369TMC3    C5 5574   1.592   3.037  13.336  0.3147 -0.0752 -0.3520
  369TMC3    C6 5575   1.611   3.173  13.305  0.1599 -0.2747 -0.0330
  369TMC3     C 5576   1.902   2.900  13.216  0.3490  0.3148  0.5654
  369TMC3     O 5577   2.006   2.958  13.178  0.0586 -0.4223  0.2050
  369TMC3     H 5578   1.936   3.151  13.247  0.8761 -3.8525 -3.6004
  369TMC3    H1 5579   1.668   2.837  13.341  0.6866 -0.2913  0.4063
  369TMC3    H2 5580   1.535   3.249  13.320  0.0076  0.3931 -4.1691
  369TMC3    C7 5581   1.464   2.991  13.393 -0.7465  0.0720  0.4851
  369TMC3    C8 5582   1.756   3.344  13.231  0.7185 -0.2532 -0.4200
  369TMC3    O1 5583   1.470   2.882  13.449 -0.0253  0.0115 -1.2355
  369TMC3    O2 5584   1.685   3.437  13.273  0.0721  0.2353 -0.3965
  370TMC3    C1 5585   2.015   3.623  16.212 -1.0447  0.9066  0.7601
  370TMC3    C2 5586   1.949   3.566  16.316 -0.3530 -0.1370 -0.4464
  370TMC3    C3 5587   1.893   3.446  16.303  0.1612  0.0517  0.8539
  370TMC3    C4 5588   2.023   3.564  16.090 -0.6426 -0.0862  0.7479
  370TMC3    C5 5589   1.986   3.430  16.094 -0.5646  0.2839 -0.4523
  370TMC3    C6 5590   1.909   3.366  16.190 -1.1133  1.0413 -0.1021
  370TMC3     C 5591   2.119   3.709  16.253 -0.1538 -0.2355 -0.1783
  370TMC3     O 5592   2.176   3.688  16.359  0.3741  0.6558 -0.5200
  370TMC3     H 5593   1.965   3.611  16.414 -0.9569 -1.3190  0.1965
  370TMC3    H1 5594   2.091   3.602  16.015  0.2796  0.5669  1.8989
  370TMC3    H2 5595   1.889   3.260  16.197  0.4822  0.7153 -0.4536
  370TMC3    C7 5596   2.046   3.359  15.985  0.0287  0.1404  0.1527
  370TMC3    C8 5597   1.815   3.393  16.419  0.2530  0.3098  0.3462
  370TMC3    O1 5598   2.065   3.410  15.878  0.5707  0.4100 -0.0172
  370TMC3    O2 5599   1.802   3.274  16.428 -0.1013  0.0754 -0.1863
  371TMC3    C1 5600   3.242   1.768  15.488  0.2663  0.3036 -0.0962
  371TMC3    C2 5601   3.162   1.738  15.597  0.9437 -0.9794 -0.2232
  371TMC3    C3 5602   3.089   1.845  15.642  0.6396  0.0911  0.7354
  371TMC3    C4 5603   3.251   1.901  15.444  0.0446  0.2487 -0.4724
  371TMC3    C5 5604   3.175   2.001  15.495  0.2868  0.2937  0.7857
  371TMC3    C6 5605   3.104   1.980  15.609 -0.0364 -0.1763  0.6343
  371TMC3     C 5606   3.343   1.671  15.450 -0.0640  0.5758  0.6928
  371TMC3     O 5607   3.426   1.717  15.371  0.0079  0.2573 -0.0493
  371TMC3     H 5608   3.150   1.641  15.644  3.0511 -1.3193 -0.3518
  371TMC3    H1 5609   3.295   1.916  15.346 -0.5716  2.5625 -0.3914
  371TMC3    H2 5610   3.055   2.066  15.654  0.9202 -0.5399  2.3616
  371TMC3    C7 5611   3.218   2.134  15.475  0.0119  0.0082 -0.2690
  371TMC3    C8 5612   3.028   1.819  15.774  0.1435  0.3342  0.7845
  371TMC3    O1 5613   3.129   2.209  15.507 -0.3293 -0.4749 -0.2900
  371TMC3    O2 5614   3.041   1.711  15.823 -0.7868  0.3607 -0.5376
  372MPD2     C 5615   2.800   3.006  13.164  0.4418  0.2441  0.2424
  372MPD2    C1 5616   2.890   2.991  13.276  0.0030 -0.5926 -0.2417
  372MPD2    C2 5617   2.850   2.927  13.394 -0.5160 -0.1407 -0.1594
  372MPD2    C3 5618   2.717   2.906  13.412 -0.6731  0.6396 -0.8185
  372MPD2    C4 5619   2.635   2.942  13.307  0.3943 -0.3043 -0.0049
  372MPD2    C5 5620   2.672   2.984  13.189 -0.7151 -0.1890  0.3470
  372MPD2     H 5621   2.927   2.911  13.469  0.0905  0.1276 -0.7206
  372MPD2    H1 5622   2.528   2.929  13.318  0.6572 -1.5862  1.0485
  372MPD2    H2 5623   2.824   3.041  13.064  0.2541  1.2316  0.5433
  372MPD2    H3 5624   2.595   3.010  13.117 -1.9670  0.2739  1.8677
  372MPD2     N 5625   2.667   2.837  13.521  0.2334  0.1141 -0.2065
  372MPD2    H5 5626   2.733   2.785  13.578 -0.0096 -0.8982 -0.8545
  372MPD2    N1 5627   3.027   3.027  13.259  0.3954  0.0696 -0.4735
  372MPD2    H7 5628   3.088   2.996  13.334  0.3518 -0.0716 -0.4958
  373TMC3    C1 5629   2.498   2.764  13.664 -0.7249 -0.2219 -0.2079
  373TMC3    C2 5630   2.400   2.822  13.744  0.7268 -0.5171 -0.7279
  373TMC3    C3 5631   2.384   2.760  13.866  0.4341  0.4157 -0.1831
  373TMC3    C4 5632   2.563   2.640  13.685 -0.8050 -0.1485  0.0560
  373TMC3    C5 5633   2.539   2.585  13.801 -0.2213 -0.8248 -0.6076
  373TMC3    C6 5634   2.464   2.651  13.901 -0.4517 -0.0923 -0.3468
  373TMC3     C 5635   2.533   2.844  13.557 -0.0646  0.5011  0.0242
  373TMC3     O 5636   2.445   2.920  13.516 -0.0822 -0.4117 -0.0295
  373TMC3     H 5637   2.381   2.928  13.732 -1.9992 -0.8175  1.0140
  373TMC3    H1 5638   2.614   2.588  13.605  1.6027  0.8739  0.9193
  373TMC3    H2 5639   2.438   2.606  13.996 -1.2701 -2.4973 -1.7201
  373TMC3    C7 5640   2.573   2.445  13.820  0.8243  0.2847  0.3345
  373TMC3    C8 5641   2.391   2.852  13.969  0.0006  0.3275 -0.2558
  373TMC3    O1 5642   2.552   2.367  13.731 -0.4206  0.0993 -0.0974
  373TMC3    O2 5643   2.290   2.917  13.993 -0.0714  0.0654 -1.1108
  374TMC3    C1 5644   2.483   2.847  10.274 -0.3965  0.6771  0.6887
  374TMC3    C2 5645   2.604   2.912  10.246  0.2356 -0.4411 -0.3798
  374TMC3    C3 5646   2.610   2.994  10.137 -0.2120  0.1548  0.1149
  374TMC3    C4 5647   2.375   2.876  10.194  0.0674  0.1528 -0.1009
  374TMC3    C5 5648   2.386   2.959  10.091 -1.2433 -0.1319  0.0904
  374TMC3    C6 5649   2.503   3.016  10.051  1.1949 -0.7196 -0.3249
  374TMC3     C 5650   2.474   2.751  10.386  0.3529 -0.5238 -0.6671
  374TMC3     O 5651   2.550   2.762  10.484  0.6009 -0.1010 -0.6651
  374TMC3     H 5652   2.692   2.882  10.302 -0.5899  0.6292  1.4938
  374TMC3    H1 5653   2.284   2.821  10.213  0.1622  0.4378  1.1373
  374TMC3    H2 5654   2.495   3.099   9.982  1.8781  0.9514  1.6007
  374TMC3    C7 5655   2.266   3.002  10.023 -0.1095 -1.0407  0.4145
  374TMC3    C8 5656   2.728   3.070  10.107 -0.9383  0.3944  0.2171
  374TMC3    O1 5657   2.261   3.063   9.918  0.2971 -0.3512  0.4384
  374TMC3    O2 5658   2.748   3.083   9.985 -0.4778 -0.0307 -0.0006
  375MPD2     C 5659   3.501   3.820  16.928 -0.1631  0.6980  0.5065
  375MPD2    C1 5660   3.469   3.846  16.802 -0.2516  0.0159  0.4584
  375MPD2    C2 5661   3.519   3.760  16.706 -0.3863 -0.1986  0.1270
  375MPD2    C3 5662   3.610   3.663  16.737  0.1996  0.2621  0.2458
  375MPD2    C4 5663   3.650   3.644  16.866 -0.6604 -0.5228 -0.2170
  375MPD2    C5 5664   3.599   3.725  16.961  0.0485 -0.2079  0.1853
  375MPD2     H 5665   3.493   3.773  16.601  0.6104  2.4497  0.1907
  375MPD2    H1 5666   3.727   3.573  16.894  0.1047  0.4179  0.0642
  375MPD2    H2 5667   3.464   3.879  17.011  1.8298  4.1985 -1.0752
  375MPD2    H3 5668   3.628   3.713  17.065 -1.0882  0.4855  0.5807
  375MPD2     N 5669   3.675   3.581  16.638 -0.3883 -0.5269  0.3609
  375MPD2    H5 5670   3.760   3.539  16.674 -0.0975 -1.4041 -1.3732
  375MPD2    N1 5671   3.371   3.938  16.762  0.0157  0.3125  0.3329
  375MPD2    H7 5672   3.330   3.922  16.670  1.6329 -0.5601 -0.2406
  376TMC3    C1 5673   3.749   3.506  16.417  0.0939  0.5772 -0.4729
  376TMC3    C2 5674   3.875   3.485  16.473 -0.1495  0.3668 -0.1346
  376TMC3    C3 5675   3.968   3.458  16.374 -0.3204  0.1828  0.1755
  376TMC3    C4 5676   3.709   3.477  16.289  0.8100  0.3095 -0.3937
  376TMC3    C5 5677   3.809   3.444  16.205 -0.0261  0.1589  0.8044
  376TMC3    C6 5678   3.939   3.428  16.246  0.0692  0.5899  0.2042
  376TMC3     C 5679   3.650   3.573  16.504  0.6247  0.6299 -0.6556
  376TMC3     O 5680   3.547   3.607  16.453 -0.2390 -0.2693 -1.0592
  376TMC3     H 5681   3.913   3.542  16.557 -0.8800 -2.6027  2.1807
  376TMC3    H1 5682   3.605   3.495  16.265  1.0095 -0.9025 -2.1659
  376TMC3    H2 5683   4.017   3.419  16.172 -1.2988 -0.3448 -1.1060
  376TMC3    C7 5684   3.790   3.455  16.063 -0.6610  0.3522 -0.1084
  376TMC3    C8 5685   4.110   3.461  16.411  0.4552 -0.6753  0.5908
  376TMC3    O1 5686   3.891   3.485  15.992 -0.2087  0.0898 -0.1071
  376TMC3    O2 5687   4.185   3.455  16.315 -0.4532 -0.0058 -0.5290
  377MPD2     C 5688   1.444   3.610  13.109 -0.1058 -0.2199 -0.0434
  377MPD2    C1 5689   1.372   3.648  13.000 -0.2153 -0.4067  0.2074
  377MPD2    C2 5690   1.236   3.635  13.002 -0.0294  0.2501 -0.3899
  377MPD2    C3 5691   1.169   3.585  13.114 -0.2662  0.1902 -0.3992
  377MPD2    C4 5692   1.246   3.544  13.216  0.0225  0.3753 -0.0284
  377MPD2    C5 5693   1.382   3.546  13.215  0.1455  0.0849  0.3263
  377MPD2     H 5694   1.177   3.659  12.914 -0.8831 -1.5209 -0.3077
  377MPD2    H1 5695   1.202   3.500  13.305  0.1817 -1.3816 -0.8307
  377MPD2    H2 5696   1.552   3.614  13.107 -0.2114  3.3518  0.0464
  377MPD2    H3 5697   1.436   3.510  13.302 -0.8759 -0.8999  0.5553
  377MPD2     N 5698   1.027   3.576  13.131  0.2658  0.6043 -0.6352
  377MPD2    H5 5699   0.994   3.515  13.206  0.7556  0.1904 -0.7545
  377MPD2    N1 5700   1.451   3.688  12.897 -0.2658  0.0755  0.1603
  377MPD2    H7 5701   1.551   3.686  12.913 -0.4807  0.5052  1.5672
  378TMC3    C1 5702   1.480   3.850  12.446 -0.2697 -0.6809  0.6166
  378TMC3    C2 5703   1.465   3.872  12.582  0.2485 -0.0470 -0.7850
  378TMC3    C3 5704   1.511   3.778  12.677 -0.0843 -0.0270  0.5744
  378TMC3    C4 5705   1.548   3.738  12.405  0.1999  0.3207 -0.1224
  378TMC3    C5 5706   1.595   3.650  12.501 -0.3233  0.5123  0.7551
  378TMC3    C6 5707   1.584   3.667  12.639  0.4931 -0.0925  0.3642
  378TMC3     C 5708   1.365   3.895  12.364 -0.0622 -0.1578 -0.5077
  378TMC3     O 5709   1.276   3.952  12.428 -0.0705 -0.1979  0.1377
  378TMC3     H 5710   1.395   3.949  12.612  1.1154 -0.2929  1.8825
  378TMC3    H1 5711   1.573   3.722  12.301  0.7018 -0.3002  0.0925
  378TMC3    H2 5712   1.620   3.590  12.706 -0.2197 -1.0227 -0.3128
  378TMC3    C7 5713   1.653   3.515  12.467 -0.5436  0.7292  0.2281
  378TMC3    C8 5714   1.407   3.747  12.777 -0.4270  1.2607 -0.5241
  378TMC3    O1 5715   1.726   3.458  12.542 -0.1141  0.0487  0.2191
  378TMC3    O2 5716   1.293   3.763  12.742  0.0678 -0.1418  0.3115
  379MPD2     C 5717   2.354   1.777  15.956  0.4983 -0.3124 -0.3788
  379MPD2    C1 5718   2.310   1.775  16.086  0.0787  0.2753 -0.1402
  379MPD2    C2 5719   2.402   1.750  16.194  0.6594 -0.1277 -0.4253
  379MPD2    C3 5720   2.532   1.724  16.162 -0.3228 -0.2550  0.3886
  379MPD2    C4 5721   2.571   1.723  16.030  0.1162  0.2563  0.3399
  379MPD2    C5 5722   2.481   1.744  15.923 -0.2980 -0.3104  0.1924
  379MPD2     H 5723   2.371   1.754  16.297  0.7437  2.8315 -0.5346
  379MPD2    H1 5724   2.673   1.694  16.009  0.1926 -1.7118  3.4033
  379MPD2    H2 5725   2.289   1.793  15.870 -0.2668 -0.4992  0.1658
  379MPD2    H3 5726   2.518   1.757  15.823 -2.1773  2.0460 -0.1768
  379MPD2     N 5727   2.629   1.678  16.256 -0.1792 -0.4001  0.7176
  379MPD2    H5 5728   2.716   1.645  16.215  0.1928  2.4677 -0.8207
  379MPD2    N1 5729   2.178   1.812  16.119  0.0603  0.4728  0.7398
  379MPD2    H7 5730   2.128   1.826  16.032 -1.0847 -0.3865  1.2647
  380TMC3    C1 5731   1.981   1.756  16.200 -0.1311  0.4146  0.3399
  380TMC3    C2 5732   1.976   1.622  16.236 -0.0913 -0.9748  0.3268
  380TMC3    C3 5733   1.910   1.535  16.153 -0.6557 -0.3368 -0.1440
  380TMC3    C4 5734   1.898   1.822  16.111 -0.0939  0.6536 -0.1088
  380TMC3    C5 5735   1.813   1.731  16.054 -0.2853 -0.1946 -0.0773
  380TMC3    C6 5736   1.815   1.599  16.073 -0.0297 -0.0480  1.0347
  380TMC3     C 5737   2.112   1.803  16.239 -0.7441  0.8024  0.8571
  380TMC3     O 5738   2.157   1.770  16.348  0.1459 -0.0896  0.1685
  380TMC3     H 5739   2.044   1.578  16.308 -0.2024  1.7576  2.1054
  380TMC3    H1 5740   1.891   1.930  16.108  1.5008  0.8091  2.5166
  380TMC3    H2 5741   1.744   1.541  16.015  1.0837 -0.8826  0.5091
  380TMC3    C7 5742   1.745   1.780  15.932  0.5090  0.2778  0.1282
  380TMC3    C8 5743   1.991   1.462  16.063 -0.3086  0.4056 -0.0946
  380TMC3    O1 5744   1.755   1.899  15.912  0.5855 -0.2475 -0.2780
  380TMC3    O2 5745   1.949   1.442  15.948 -0.4343 -0.4444 -0.0500
  381TMC3    C1 5746   1.748   2.698  16.454 -0.1612  0.3030 -0.8059
  381TMC3    C2 5747   1.861   2.760  16.415  0.8734 -0.0171  0.6365
  381TMC3    C3 5748   1.853   2.899  16.419 -0.3842  0.2780 -0.2426
  381TMC3    C4 5749   1.634   2.761  16.487  0.3375  0.4647 -0.5427
  381TMC3    C5 5750   1.640   2.898  16.491  0.1778 -0.5064  0.2917
  381TMC3    C6 5751   1.750   2.973  16.469  0.0401 -0.5377 -0.3482
  381TMC3     C 5752   1.754   2.555  16.468  0.2421 -0.6248  0.1988
  381TMC3     O 5753   1.853   2.507  16.409  0.1880  0.5982  0.0033
  381TMC3     H 5754   1.954   2.705  16.406  0.4313 -0.8115  0.9561
  381TMC3    H1 5755   1.542   2.706  16.501 -0.5860  2.1068 -0.2036
  381TMC3    H2 5756   1.744   3.080  16.482  2.7806 -0.4246 -0.0486
  381TMC3    C7 5757   1.508   2.959  16.486 -0.2287  0.0980 -0.5583
  381TMC3    C8 5758   1.976   2.969  16.387 -0.2677 -0.8187  0.8914
  381TMC3    O1 5759   1.429   2.895  16.423 -0.4177 -0.5045 -0.5261
  381TMC3    O2 5760   2.045   2.924  16.299 -0.3350 -0.1238 -0.4667
  382MPD2     C 5761   1.199   0.825  16.694  0.7332 -0.6502  0.2957
  382MPD2    C1 5762   1.141   0.864  16.812 -0.2953  0.0709 -0.1238
  382MPD2    C2 5763   1.101   0.772  16.907 -0.4453 -0.2875  1.1156
  382MPD2    C3 5764   1.132   0.641  16.881 -0.1081 -0.0927 -0.0881
  382MPD2    C4 5765   1.184   0.601  16.758 -0.6015  0.7030 -0.0940
  382MPD2    C5 5766   1.214   0.691  16.666 -0.1164 -1.2401 -0.3167
  382MPD2     H 5767   1.048   0.798  16.998 -0.6331  2.4601  0.2138
  382MPD2    H1 5768   1.206   0.498  16.733  0.7766  1.0683 -0.3799
  382MPD2    H2 5769   1.226   0.896  16.617 -1.0689  1.0614  1.2374
  382MPD2    H3 5770   1.259   0.661  16.572  3.5790  0.7058  0.8531
  382MPD2     N 5771   1.113   0.535  16.971  0.2211  0.0179  0.5899
  382MPD2    H5 5772   1.147   0.443  16.945 -0.0968 -0.5569  2.1810
  382MPD2    N1 5773   1.102   0.996  16.840  0.6839  0.1423  0.0200
  382MPD2    H7 5774   1.037   1.005  16.917 -1.6388 -0.2185 -1.8949
  383TMC3    C1 5775   1.042   0.414  17.157  0.3433 -0.3085 -0.0010
  383TMC3    C2 5776   0.919   0.360  17.187  0.9336  1.0238 -0.0099
  383TMC3    C3 5777   0.914   0.224  17.184 -0.2198  0.7851 -0.6985
  383TMC3    C4 5778   1.157   0.352  17.127  0.0638 -0.5853  0.3294
  383TMC3    C5 5779   1.147   0.219  17.118 -0.0246 -0.0633  0.2222
  383TMC3    C6 5780   1.028   0.150  17.146 -0.4878 -0.4940  0.5129
  383TMC3     C 5781   1.038   0.545  17.085 -0.1425 -0.6798  0.0563
  383TMC3     O 5782   0.965   0.630  17.133  0.0211  0.1156 -0.6934
  383TMC3     H 5783   0.829   0.416  17.165 -0.9409 -2.6697 -1.8339
  383TMC3    H1 5784   1.248   0.409  17.139 -1.5228  2.0391 -0.0205
  383TMC3    H2 5785   1.026   0.042  17.142  1.1621 -0.5508  1.3891
  383TMC3    C7 5786   1.274   0.151  17.094  0.0002 -0.2047 -0.3699
  383TMC3    C8 5787   0.783   0.165  17.223  0.1623 -0.2921  0.6471
  383TMC3    O1 5788   1.376   0.219  17.087 -0.0897 -0.3473 -0.0196
  383TMC3    O2 5789   0.685   0.234  17.203 -0.2335  0.0755  0.2233
  384MPD2     C 5790   2.274   1.563  12.305 -0.2787  0.1480  0.0112
  384MPD2    C1 5791   2.351   1.473  12.385 -0.6297 -0.9250 -0.2787
  384MPD2    C2 5792   2.452   1.402  12.323 -0.5536 -0.1875  0.6663
  384MPD2    C3 5793   2.484   1.416  12.192  0.2642  0.0745 -0.1840
  384MPD2    C4 5794   2.417   1.509  12.116 -0.0555 -0.2705  0.0764
  384MPD2    C5 5795   2.310   1.582  12.172 -0.1842  0.1958 -0.4122
  384MPD2     H 5796   2.514   1.331  12.376  1.7551  0.6728 -0.8956
  384MPD2    H1 5797   2.448   1.533  12.015  0.1043 -0.7564  0.0143
  384MPD2    H2 5798   2.187   1.615  12.342  1.3516  1.2369  2.3511
  384MPD2    H3 5799   2.253   1.653  12.113 -1.2246  0.4343  0.8875
  384MPD2     N 5800   2.592   1.337  12.146  0.1836  0.7022  0.0972
  384MPD2    H5 5801   2.634   1.266  12.207  1.2291  0.1810 -1.2352
  384MPD2    N1 5802   2.320   1.455  12.524 -0.3450 -0.5128 -0.3167
  384MPD2    H7 5803   2.249   1.511  12.571  2.0648  1.9899  0.2870
  385TMC3    C1 5804   2.735   1.232  11.996  0.6035  0.0466  0.1843
  385TMC3    C2 5805   2.709   1.149  11.890 -0.0319  0.8880  0.3904
  385TMC3    C3 5806   2.696   1.013  11.914  0.2823  0.6343  0.1166
  385TMC3    C4 5807   2.769   1.172  12.113  0.0112 -0.5068 -0.4488
  385TMC3    C5 5808   2.764   1.032  12.135  0.3565 -0.0846 -0.1198
  385TMC3    C6 5809   2.709   0.952  12.037  0.0900  0.7615 -0.7219
  385TMC3     C 5810   2.642   1.342  12.019  0.5096  0.5882  0.7019
  385TMC3     O 5811   2.598   1.397  11.917 -0.0009  0.4422  0.4604
  385TMC3     H 5812   2.694   1.188  11.789 -2.1409 -1.3658 -0.1661
  385TMC3    H1 5813   2.796   1.235  12.196 -1.5649  1.4266 -1.4213
  385TMC3    H2 5814   2.684   0.849  12.058  1.8514  0.3316 -0.6974
  385TMC3    C7 5815   2.706   1.009  12.268  0.1911 -0.6599  0.2871
  385TMC3    C8 5816   2.688   0.924  11.797 -0.9268  0.4880 -0.2935
  385TMC3    O1 5817   2.632   1.103  12.293  0.2690 -0.0231 -0.5290
  385TMC3    O2 5818   2.640   0.813  11.813 -0.0992  0.2319  0.2651
  386TMC3    C1 5819   2.488   3.772  12.028  0.3420 -0.1027 -0.2710
  386TMC3    C2 5820   2.394   3.713  11.945  0.8218 -0.4766 -0.1700
  386TMC3    C3 5821   2.263   3.755  11.955  0.6223  0.4530 -0.2299
  386TMC3    C4 5822   2.444   3.865  12.122  0.4163 -0.1959 -0.4991
  386TMC3    C5 5823   2.311   3.903  12.114  0.2262 -0.0263  0.2836
  386TMC3    C6 5824   2.213   3.849  12.039 -0.2910 -0.3653  0.4640
  386TMC3     C 5825   2.632   3.743  12.017 -0.8082 -0.1868 -0.5609
  386TMC3     O 5826   2.707   3.823  12.067  0.1252 -0.1164 -0.2209
  386TMC3     H 5827   2.435   3.657  11.862  1.2767  2.2543 -1.7745
  386TMC3    H1 5828   2.509   3.912  12.196 -2.8563  0.4714  1.9481
  386TMC3    H2 5829   2.116   3.897  12.036 -0.7907 -1.4921 -1.2076
  386TMC3    C7 5830   2.261   4.007  12.203 -0.3576 -0.4455 -0.2295
  386TMC3    C8 5831   2.173   3.710  11.854  0.0506 -0.0215  0.4362
  386TMC3    O1 5832   2.159   3.971  12.259  0.2942 -0.4688 -0.0013
  386TMC3    O2 5833   2.223   3.670  11.752  0.1286  0.4007  0.1479
  387MPD2     C 5834   0.122   3.777  10.175 -0.0965 -0.1344 -0.2737
  387MPD2    C1 5835   0.260   3.754  10.189  0.4948 -0.1089 -0.3161
  387MPD2    C2 5836   0.320   3.639  10.128 -0.0207 -0.1371 -0.0692
  387MPD2    C3 5837   0.243   3.548  10.055 -0.3951  0.6702 -0.1019
  387MPD2    C4 5838   0.109   3.576  10.039  0.1039  0.8687 -0.5044
  387MPD2    C5 5839   0.047   3.687  10.095  0.3304  0.1235 -0.8268
  387MPD2     H 5840   0.429   3.632  10.132 -0.0748 -0.9148 -0.0483
  387MPD2    H1 5841   0.049   3.523   9.966  1.0961 -0.8692 -0.0773
  387MPD2    H2 5842   0.075   3.862  10.224  1.0861  0.7623 -0.6990
  387MPD2    H3 5843   4.679   3.696  10.083  0.1405 -0.6397  0.2595
  387MPD2     N 5844   0.311   3.425  10.022  0.0309  0.0614  0.7602
  387MPD2    H5 5845   0.409   3.425  10.049 -0.5340 -3.0965  2.7712
  387MPD2    N1 5846   0.346   3.835  10.265 -0.0825 -0.4862 -0.0373
  387MPD2    H7 5847   0.445   3.821  10.251 -0.0776  1.8090 -2.3255
  388TMC3    C1 5848   0.414   3.934  10.467  0.1905 -0.0156  0.0362
  388TMC3    C2 5849   0.385   4.012  10.582  0.9209 -0.5413  0.8220
  388TMC3    C3 5850   0.462   4.002  10.693 -0.8326  0.7637 -0.5107
  388TMC3    C4 5851   0.516   3.842  10.475 -0.1104  0.2017 -0.0770
  388TMC3    C5 5852   0.585   3.825  10.599 -0.2339  0.2547 -0.4232
  388TMC3    C6 5853   0.560   3.907  10.709 -0.5441  0.7443 -0.6694
  388TMC3     C 5854   0.308   3.912  10.372 -0.4986 -0.3235  0.0547
  388TMC3     O 5855   0.200   3.943  10.419  0.2937  0.5307 -0.2974
  388TMC3     H 5856   0.305   4.086  10.575 -0.1021 -1.5363  2.0213
  388TMC3    H1 5857   0.535   3.777  10.391  1.2366  3.4824 -2.3235
  388TMC3    H2 5858   0.617   3.895  10.800  0.4450  2.4942 -1.0528
  388TMC3    C7 5859   0.642   3.695  10.628 -0.4469  0.1262  0.3602
  388TMC3    C8 5860   0.407   4.079  10.803 -0.2387  0.6128 -0.5282
  388TMC3    O1 5861   0.648   3.676  10.747 -0.2904 -0.1241 -0.0628
  388TMC3    O2 5862   0.313   4.156  10.793 -0.2375  0.1855 -0.2262
  389MPD2     C 5863   3.738   1.853  11.145  0.2902 -0.3123  0.2179
  389MPD2    C1 5864   3.804   1.736  11.105 -0.9157  0.0287  0.3519
  389MPD2    C2 5865   3.822   1.628  11.197 -0.7953 -0.0192  0.1706
  389MPD2    C3 5866   3.796   1.654  11.329 -0.6755  0.1407 -0.3874
  389MPD2    C4 5867   3.753   1.775  11.369  0.1808  0.1740  0.6162
  389MPD2    C5 5868   3.716   1.871  11.281  0.1070  0.5187 -0.1914
  389MPD2     H 5869   3.873   1.541  11.158  2.2192  0.9200  2.0161
  389MPD2    H1 5870   3.732   1.796  11.473 -0.8215  1.7608  0.0985
  389MPD2    H2 5871   3.712   1.932  11.076  2.2167  1.0805  1.1060
  389MPD2    H3 5872   3.676   1.967  11.313  0.2211  0.6887 -0.5668
  389MPD2     N 5873   3.799   1.561  11.431  0.6699  0.3161  0.3956
  389MPD2    H5 5874   3.787   1.600  11.524 -0.3347 -0.1616  0.4638
  389MPD2    N1 5875   3.853   1.738  10.973  0.2587 -0.0675  0.1595
  389MPD2    H7 5876   3.838   1.829  10.931 -1.2303 -0.4077 -0.0645
  390TMC3    C1 5877   3.849   1.359  11.538  0.7603 -0.0633  0.4214
  390TMC3    C2 5878   3.765   1.254  11.548 -0.6625  1.0242  0.4070
  390TMC3    C3 5879   3.691   1.235  11.660 -0.5837 -0.0725 -0.3414
  390TMC3    C4 5880   3.864   1.441  11.652 -0.2521 -0.5500 -0.3203
  390TMC3    C5 5881   3.817   1.400  11.775 -0.4294  0.0691 -0.8657
  390TMC3    C6 5882   3.718   1.303  11.776  0.3325 -0.2812  0.5048
  390TMC3     C 5883   3.833   1.429  11.415  1.1239  0.5318 -0.7472
  390TMC3     O 5884   3.834   1.370  11.308 -0.5989  0.1746  0.0951
  390TMC3     H 5885   3.761   1.187  11.464 -1.5995  0.7806  0.6474
  390TMC3    H1 5886   3.930   1.526  11.647 -0.3682 -0.3445  1.8318
  390TMC3    H2 5887   3.682   1.266  11.871  0.3351 -1.4237  0.0509
  390TMC3    C7 5888   3.847   1.486  11.882 -0.2955 -0.2021  0.4714
  390TMC3    C8 5889   3.599   1.123  11.657  0.0869  0.4490 -0.2176
  390TMC3    O1 5890   3.954   1.547  11.884  0.3513  0.9243  0.7476
  390TMC3    O2 5891   3.596   1.046  11.560  0.1087  0.3655  0.1389
  391MPD2     C 5892   3.347   3.129  11.531  0.1086 -0.1919 -0.1045
  391MPD2    C1 5893   3.456   3.194  11.480 -0.4301 -0.2213 -0.2028
  391MPD2    C2 5894   3.476   3.186  11.346 -0.5170  0.6913  0.2020
  391MPD2    C3 5895   3.400   3.107  11.259  0.5837  0.4947 -0.0596
  391MPD2    C4 5896   3.292   3.040  11.317  0.1421 -0.9132 -0.5931
  391MPD2    C5 5897   3.267   3.053  11.449  0.1927  0.8914 -0.1503
  391MPD2     H 5898   3.543   3.249  11.289  0.3792 -0.8226 -0.4178
  391MPD2    H1 5899   3.226   2.975  11.261 -0.6211 -0.8990  0.2894
  391MPD2    H2 5900   3.329   3.135  11.637 -0.3418 -0.3955 -0.1695
  391MPD2    H3 5901   3.187   2.997  11.496  0.1143  2.6665  1.8239
  391MPD2     N 5902   3.427   3.107  11.121 -0.0032  0.2817  0.0264
  391MPD2    H5 5903   3.517   3.145  11.093  1.0028 -2.0260  0.1739
  391MPD2    N1 5904   3.550   3.266  11.567 -0.5321 -0.3993  0.2491
  391MPD2    H7 5905   3.522   3.291  11.661  2.3571  0.7896  0.7745
  392TMC3    C1 5906   3.375   3.092  10.880 -0.8203  0.2607 -0.6540
  392TMC3    C2 5907   3.277   3.094  10.787  0.6205  0.1906  0.2015
  392TMC3    C3 5908   3.297   3.148  10.662  0.1464 -0.1543 -0.4828
  392TMC3    C4 5909   3.498   3.134  10.850  0.5278 -0.3330 -0.0875
  392TMC3    C5 5910   3.522   3.190  10.727  0.5617  0.5092  1.6780
  392TMC3    C6 5911   3.422   3.198  10.631 -0.6970  0.6744 -0.1657
  392TMC3     C 5912   3.342   3.067  11.020 -0.2516  0.7089 -0.5671
  392TMC3     O 5913   3.236   3.007  11.036  0.7195  0.0496  0.1170
  392TMC3     H 5914   3.181   3.054  10.817  0.0811 -1.2276 -3.4417
  392TMC3    H1 5915   3.572   3.129  10.929 -1.3208  1.2356  1.7269
  392TMC3    H2 5916   3.445   3.245  10.537  0.1230  1.9666  0.6821
  392TMC3    C7 5917   3.642   3.268  10.704  0.3107  0.4491  0.7538
  392TMC3    C8 5918   3.195   3.134  10.563  1.1558 -0.0993  0.4162
  392TMC3    O1 5919   3.695   3.321  10.803  0.1646 -0.6190  0.1998
  392TMC3    O2 5920   3.102   3.062  10.594  0.4365 -0.1183 -0.0867
  393TMC3    C1 5921   2.566   0.369  10.177  0.4009  0.5558 -0.0318
  393TMC3    C2 5922   2.456   0.285  10.183 -0.3691 -0.8280 -0.6276
  393TMC3    C3 5923   2.476   0.161  10.122  0.1672  0.0824 -0.5493
  393TMC3    C4 5924   2.673   0.348  10.090  0.4719  0.1619 -0.0584
  393TMC3    C5 5925   2.677   0.229  10.028 -0.1696 -0.1651 -0.2301
  393TMC3    C6 5926   2.582   0.137  10.042 -0.2016  0.0824  0.5018
  393TMC3     C 5927   2.524   0.507  10.213  0.3120 -0.7313  0.1962
  393TMC3     O 5928   2.403   0.530  10.209  0.2894  0.3907  0.2725
  393TMC3     H 5929   2.381   0.309  10.257  1.2763 -1.3815  1.2340
  393TMC3    H1 5930   2.739   0.428  10.060  1.7754 -0.0882  2.1234
  393TMC3    H2 5931   2.590   0.046   9.983 -1.1885  0.4626 -0.2142
  393TMC3    C7 5932   2.799   0.186   9.951 -0.2028  0.2232 -0.5231
  393TMC3    C8 5933   2.427   0.047  10.187  0.1200  0.7191  0.1809
  393TMC3    O1 5934   2.786   0.112   9.857  0.4935 -0.5809  0.6051
  393TMC3    O2 5935   2.464   4.682  10.140  0.3045  0.3057 -0.2139
  394TMC3    C1 5936   3.983   1.684  10.789 -0.2253  0.4866 -0.1371
  394TMC3    C2 5937   4.005   1.595  10.685 -0.2589 -0.3435  0.5120
  394TMC3    C3 5938   4.047   1.657  10.566 -0.1571 -0.1399  0.3556
  394TMC3    C4 5939   4.000   1.819  10.781 -0.1280  0.4313 -0.7599
  394TMC3    C5 5940   4.053   1.870  10.664 -0.1494 -0.3380  0.1837
  394TMC3    C6 5941   4.069   1.793  10.549 -0.3730  0.2507  0.0816
  394TMC3     C 5942   3.925   1.640  10.912 -0.3462 -0.3403 -0.1562
  394TMC3     O 5943   3.953   1.530  10.947  0.5634  0.1916  0.9112
  394TMC3     H 5944   3.978   1.491  10.699  0.2225 -0.1502  2.9030
  394TMC3    H1 5945   3.973   1.891  10.857  2.3958  1.4166 -0.8245
  394TMC3    H2 5946   4.105   1.829  10.454 -0.1456 -0.0239  0.0660
  394TMC3    C7 5947   4.121   2.002  10.656 -1.1404  0.8213 -0.4207
  394TMC3    C8 5948   4.039   1.574  10.452 -0.0013  0.5369  0.0850
  394TMC3    O1 5949   4.169   2.033  10.548  0.3314  0.3159 -0.1641
  394TMC3    O2 5950   3.993   1.624  10.352 -0.1834  0.1519 -0.1954
  395TMC3    C1 5951   4.190   4.036  14.502 -0.5644  0.2038 -0.8085
  395TMC3    C2 5952   4.078   4.029  14.579 -0.1804  0.6823  0.1919
  395TMC3    C3 5953   4.087   4.039  14.716 -0.7955  0.7530 -0.3892
  395TMC3    C4 5954   4.311   4.040  14.567 -0.2011 -0.1092 -0.6873
  395TMC3    C5 5955   4.311   4.051  14.702  0.6051  0.0408 -0.3986
  395TMC3    C6 5956   4.204   4.044  14.784  0.2462  0.1090  0.2951
  395TMC3     C 5957   4.197   3.993  14.362  0.2004  0.0596 -0.3652
  395TMC3     O 5958   4.270   4.057  14.283  0.6368  0.1900 -0.0438
  395TMC3     H 5959   3.980   4.038  14.533 -0.0603  0.0599 -0.1781
  395TMC3    H1 5960   4.403   4.037  14.509  0.7810 -1.2996  0.9344
  395TMC3    H2 5961   4.207   4.042  14.892  0.3830 -0.8976  0.2689
  395TMC3    C7 5962   4.441   4.069  14.766  0.0169  0.1168  0.2476
  395TMC3    C8 5963   3.972   3.982  14.790 -0.0435 -0.1446  0.2204
  395TMC3    O1 5964   4.446   4.105  14.881 -0.2004 -0.1537 -0.4547
  395TMC3    O2 5965   3.982   3.987  14.917  0.0672  0.0767 -0.0376
  396MPD2     C 5966   4.007   4.718  17.052  0.7245 -0.2139 -0.3431
  396MPD2    C1 5967   4.048   0.066  17.144  0.2107 -0.0575 -0.9179
  396MPD2    C2 5968   4.102   0.187  17.104  0.5542  0.1007  0.0594
  396MPD2    C3 5969   4.106   0.230  16.968  0.2285 -1.0763 -0.4642
  396MPD2    C4 5970   4.065   0.135  16.882  0.0581 -0.2202 -0.7131
  396MPD2    C5 5971   4.014   0.013  16.922 -0.5832 -0.4170  1.0871
  396MPD2     H 5972   4.159   0.254  17.168  1.8054 -1.8396  0.9711
  396MPD2    H1 5973   4.064   0.152  16.775 -0.2941  2.1035 -0.3317
  396MPD2    H2 5974   3.969   4.622  17.086 -2.2102  0.6932 -1.0403
  396MPD2    H3 5975   3.983   4.681  16.847 -0.2831 -0.7305  1.2564
  396MPD2     N 5976   4.161   0.352  16.939  0.1054  0.3941  0.5093
  396MPD2    H5 5977   4.213   0.396  17.014 -0.5954  0.1609  1.1330
  396MPD2    N1 5978   4.048   0.009  17.272  0.1182 -0.1406 -0.6814
  396MPD2    H7 5979   4.026   4.649  17.279 -1.5542  0.1000 -2.6046
  397TMC3    C1 5980   4.128   4.738  17.498 -0.1979  0.7001 -0.1609
  397TMC3    C2 5981   4.265   4.722  17.479  0.0283 -0.6328  0.1742
  397TMC3    C3 5982   4.308   4.597  17.439 -0.6297 -0.7841 -0.3672
  397TMC3    C4 5983   4.052   4.630  17.526 -0.0234 -0.0774 -0.6684
  397TMC3    C5 5984   4.100   4.506  17.499  0.1643 -0.5787  0.5724
  397TMC3    C6 5985   4.225   4.486  17.438 -0.4646 -0.2248 -0.7656
  397TMC3     C 5986   4.086   0.080  17.385  0.3267  0.2575  0.2286
  397TMC3     O 5987   4.112   0.202  17.391 -0.7209 -0.9983 -0.1643
  397TMC3     H 5988   4.308   0.070  17.431 -0.0813 -0.5207  0.2789
  397TMC3    H1 5989   3.946   4.640  17.544  0.3773  0.4503  1.3778
  397TMC3    H2 5990   4.258   4.389  17.402 -2.3219 -2.1203  2.6298
  397TMC3    C7 5991   4.016   4.393  17.519  0.0338 -0.2101 -0.8576
  397TMC3    C8 5992   4.374   4.622  17.313 -0.1317  0.3174  0.2360
  397TMC3    O1 5993   4.037   4.287  17.462 -0.1082  0.6014  0.8918
  397TMC3    O2 5994   4.304   4.575  17.217 -0.4316  0.5948 -0.2818
  398MPD2     C 5995   2.399   2.000   0.025  0.4136  0.0906  0.0419
  398MPD2    C1 5996   2.410   1.977   0.165 -0.6985 -0.2034  0.0891
  398MPD2    C2 5997   2.433   2.078   0.252 -0.5896  0.1838  0.3885
  398MPD2    C3 5998   2.450   2.208   0.219  0.6666  0.0097  1.2369
  398MPD2    C4 5999   2.427   2.233   0.083  0.5392  0.3047  0.0739
  398MPD2    C5 6000   2.400   2.130  17.741  0.0090  0.0585  0.3097
  398MPD2     H 6001   2.418   2.052   0.356  1.6962 -1.1163  0.3860
  398MPD2    H1 6002   2.419   2.334   0.046  1.5036  0.1619 -0.5250
  398MPD2    H2 6003   2.377   1.918  17.713  0.1344  0.8734 -0.8127
  398MPD2    H3 6004   2.385   2.158  17.638 -2.1378  1.3262  0.9614
  398MPD2     N 6005   2.486   2.305   0.314  0.6973 -0.1680 -0.6962
  398MPD2    H5 6006   2.530   2.266   0.397 -0.1639 -0.3950 -0.3518
  398MPD2    N1 6007   2.398   1.844   0.216 -0.1180  0.7476  0.0971
  398MPD2    H7 6008   2.405   1.829   0.316 -0.2544 -1.7460 -0.2536
  399TMC3    C1 6009   2.357   1.611   0.222 -0.0886 -0.7123 -0.1031
  399TMC3    C2 6010   2.451   1.583   0.310 -0.4118  0.0783  0.1532
  399TMC3    C3 6011   2.443   1.462   0.377  0.5964 -0.0863  0.0038
  399TMC3    C4 6012   2.247   1.527   0.205 -0.0008  1.0234  0.3922
  399TMC3    C5 6013   2.239   1.409   0.275  0.1451  0.6929 -0.0485
  399TMC3    C6 6014   2.338   1.373   0.359 -0.4305  0.0215  0.4566
  399TMC3     C 6015   2.366   1.732   0.147 -0.4681  0.2975  0.0423
  399TMC3     O 6016   2.320   1.720   0.033 -0.8395  0.1021 -0.0577
  399TMC3     H 6017   2.538   1.646   0.322 -0.8821  0.8012 -0.2599
  399TMC3    H1 6018   2.170   1.556   0.133 -0.1170  0.9144  0.4730
  399TMC3    H2 6019   2.336   1.283   0.420 -1.6517  0.6512  1.3543
  399TMC3    C7 6020   2.122   1.323   0.271  0.8878 -0.3666 -0.4770
  399TMC3    C8 6021   2.554   1.430   0.464  0.7254 -0.3994  0.3238
  399TMC3    O1 6022   2.138   1.201   0.298  0.5047  0.8506 -0.1378
  399TMC3    O2 6023   2.627   1.524   0.488 -0.5907  0.6979 -0.1160
  400TMC3    C1 6024   0.935   4.267  17.185 -0.3204  0.2665  0.1600
  400TMC3    C2 6025   0.950   4.132  17.159  0.1492 -0.1921 -0.5999
  400TMC3    C3 6026   0.865   4.079  17.063 -0.1549  0.1481 -0.1713
  400TMC3    C4 6027   0.832   4.346  17.118  0.3341 -0.6524 -0.0814
  400TMC3    C5 6028   0.746   4.282  17.038 -0.4648  0.1571  0.8135
  400TMC3    C6 6029   0.756   4.146  17.012 -0.1408 -0.0843 -0.3401
  400TMC3     C 6030   1.033   4.336  17.272  0.8154 -0.3663 -0.2119
  400TMC3     O 6031   1.003   4.446  17.318 -0.0563 -0.2748  0.0648
  400TMC3     H 6032   1.032   4.071  17.194  0.1432 -0.6479 -1.3766
  400TMC3    H1 6033   0.817   4.452  17.136  0.2067 -0.8293  0.8181
  400TMC3    H2 6034   0.689   4.102  16.940  2.4526 -0.0520 -2.7802
  400TMC3    C7 6035   0.654   4.361  16.962 -0.3245  0.6178  0.3676
  400TMC3    C8 6036   0.914   3.956  16.988  0.3683  0.7836  0.3121
  400TMC3    O1 6037   0.557   4.303  16.914  0.1715  0.6355  0.2357
  400TMC3    O2 6038   1.004   3.895  17.048 -0.3593 -0.6474  0.3920
  401MPD2     C 6039   3.592   3.654   1.285 -0.7062 -0.2524  0.5449
  401MPD2    C1 6040   3.704   3.576   1.277  0.2189 -0.8253 -0.5937
  401MPD2    C2 6041   3.695   3.443   1.229 -0.1265  0.5631 -0.4744
  401MPD2    C3 6042   3.574   3.392   1.192 -0.6093  0.1002  0.3263
  401MPD2    C4 6043   3.461   3.471   1.209 -0.4583 -0.1960 -0.4533
  401MPD2    C5 6044   3.472   3.605   1.245 -0.1992  0.2260 -0.1353
  401MPD2     H 6045   3.784   3.382   1.243  0.9746  1.8758 -1.6755
  401MPD2    H1 6046   3.359   3.439   1.189 -0.5017 -0.1033 -0.3885
  401MPD2    H2 6047   3.589   3.756   1.321  1.3203 -0.0049  0.0661
  401MPD2    H3 6048   3.385   3.667   1.263 -1.2236 -1.4269  0.5772
  401MPD2     N 6049   3.573   3.256   1.150  0.0367 -0.1910  0.6045
  401MPD2    H5 6050   3.667   3.218   1.139 -0.1236 -0.9938  2.0186
  401MPD2    N1 6051   3.824   3.620   1.331 -0.8115 -0.8429 -0.0295
  401MPD2    H7 6052   3.894   3.547   1.329 -0.2702 -0.3639  1.0444
  402TMC3    C1 6053   3.505   3.056   1.068 -0.4364 -0.2658  0.1953
  402TMC3    C2 6054   3.582   2.995   1.156  0.0603 -0.1862 -0.8377
  402TMC3    C3 6055   3.654   2.896   1.098 -0.1522 -0.0956 -0.4427
  402TMC3    C4 6056   3.485   3.022   0.942  0.7437  0.2107  0.0898
  402TMC3    C5 6057   3.561   2.928   0.884 -0.6278 -0.5986  0.2018
  402TMC3    C6 6058   3.653   2.866   0.967  0.3317  0.1192  0.0168
  402TMC3     C 6059   3.464   3.185   1.104  0.8501 -0.4735 -0.2094
  402TMC3     O 6060   3.350   3.221   1.073  0.1154 -0.6083 -0.2903
  402TMC3     H 6061   3.594   3.029   1.259  0.5343  0.2362 -1.0341
  402TMC3    H1 6062   3.422   3.086   0.881 -1.6541  0.2617  2.5973
  402TMC3    H2 6063   3.708   2.779   0.936  1.3038  1.0074 -0.7458
  402TMC3    C7 6064   3.603   2.951   0.743  0.6990  0.3246 -0.7242
  402TMC3    C8 6065   3.768   2.842   1.170  0.3399  0.2519  0.9898
  402TMC3    O1 6066   3.524   2.972   0.655 -0.0975  0.2606  0.3776
  402TMC3    O2 6067   3.848   2.773   1.109 -0.4908 -0.1782 -0.0272
  403MPD2     C 6068   2.202   1.267  13.174  0.0511 -0.2749  0.3104
  403MPD2    C1 6069   2.193   1.158  13.255 -0.0289 -0.6159 -0.0399
  403MPD2    C2 6070   2.304   1.118  13.326 -0.5707 -0.3387  0.1366
  403MPD2    C3 6071   2.404   1.212  13.345 -0.2526  0.1978  0.1196
  403MPD2    C4 6072   2.410   1.331  13.273 -0.1122 -0.3601 -0.1432
  403MPD2    C5 6073   2.308   1.355  13.185  0.0454 -0.2615  0.1338
  403MPD2     H 6074   2.295   1.021  13.375 -1.0090 -0.1475  0.4322
  403MPD2    H1 6075   2.501   1.389  13.281 -0.6899  0.2600  2.0996
  403MPD2    H2 6076   2.128   1.283  13.097 -0.1605 -0.5989  0.4471
  403MPD2    H3 6077   2.309   1.440  13.117  2.2344 -1.0702 -0.8369
  403MPD2     N 6078   2.508   1.182  13.439  0.3454 -0.2301  0.1459
  403MPD2    H5 6079   2.567   1.262  13.464 -1.1258  1.0732 -0.5519
  403MPD2    N1 6080   2.069   1.083  13.253  0.3578 -0.1904  0.1055
  403MPD2    H7 6081   1.994   1.126  13.201 -0.0362 -0.1093  0.7346
  404TMC3    C1 6082   1.906   0.923  13.325  0.4345 -0.4219 -0.1884
  404TMC3    C2 6083   1.851   0.881  13.445 -0.0773  0.2127 -0.2209
  404TMC3    C3 6084   1.762   0.773  13.429  0.2829  0.1884 -0.2664
  404TMC3    C4 6085   1.877   0.888  13.201 -0.0895 -0.5878  0.2475
  404TMC3    C5 6086   1.777   0.795  13.188  0.5355  0.8234  0.4701
  404TMC3    C6 6087   1.734   0.730  13.297 -0.3699  0.3401  0.6473
  404TMC3     C 6088   2.031   0.988  13.346 -0.2486  0.1684 -0.1352
  404TMC3     O 6089   2.089   0.946  13.445 -0.4515  0.3029  0.0920
  404TMC3     H 6090   1.867   0.929  13.541  2.4148  0.8289 -0.9495
  404TMC3    H1 6091   1.938   0.924  13.119  0.1145  2.0287  1.5341
  404TMC3    H2 6092   1.681   0.637  13.282 -0.6142  0.3222  1.5833
  404TMC3    C7 6093   1.742   0.760  13.055 -0.1589 -0.0689  0.0808
  404TMC3    C8 6094   1.787   0.678  13.524  0.1014  0.4059 -0.9339
  404TMC3    O1 6095   1.828   0.781  12.971 -0.5467  0.5593  0.5187
  404TMC3    O2 6096   1.712   0.587  13.557  0.0753 -0.1578  0.7048
  405MPD2     C 6097   2.663   1.611  15.106 -0.0166  0.2372  0.9836
  405MPD2    C1 6098   2.566   1.536  15.039 -0.4155 -0.2133  0.2332
  405MPD2    C2 6099   2.452   1.596  14.981  0.5332  0.2803  0.2829
  405MPD2    C3 6100   2.451   1.731  14.965 -0.6122  0.2191  0.2661
  405MPD2    C4 6101   2.552   1.807  15.020 -0.1438 -0.2415  0.1582
  405MPD2    C5 6102   2.654   1.751  15.095  0.0145  0.8760 -0.0460
  405MPD2     H 6103   2.368   1.544  14.936  0.2940 -0.1669  1.2484
  405MPD2    H1 6104   2.549   1.915  15.009  2.0226  0.0442  2.5192
  405MPD2    H2 6105   2.754   1.565  15.144  0.1588  0.5104  0.8975
  405MPD2    H3 6106   2.724   1.821  15.140  0.9569 -0.0151 -0.1333
  405MPD2     N 6107   2.338   1.795  14.900  0.4678 -0.3175 -0.3247
  405MPD2    H5 6108   2.276   1.734  14.849  1.5661 -2.4844  0.9445
  405MPD2    N1 6109   2.572   1.400  15.069  0.0539  0.4637  0.3029
  405MPD2    H7 6110   2.653   1.373  15.124 -0.0758  1.6534  1.0830
  406TMC3    C1 6111   1.968   2.049  14.933 -0.7121  0.0241 -0.1405
  406TMC3    C2 6112   1.895   1.950  14.877  0.4813  0.0659 -0.1434
  406TMC3    C3 6113   1.960   1.852  14.801  0.4235 -0.0355 -0.9457
  406TMC3    C4 6114   2.104   2.044  14.935 -0.1863  0.3749 -1.0642
  406TMC3    C5 6115   2.163   1.945  14.873  0.0999 -0.4847 -0.0069
  406TMC3    C6 6116   2.099   1.851  14.799  0.1374 -0.9201 -0.9113
  406TMC3     C 6117   1.905   2.179  14.941  0.1784 -0.7568 -0.2301
  406TMC3     O 6118   1.925   2.247  15.043  0.0402 -0.2337  0.4895
  406TMC3     H 6119   1.788   1.949  14.893  0.2576  0.6000 -1.6006
  406TMC3    H1 6120   2.160   2.125  14.982  0.4454  0.8030 -2.5667
  406TMC3    H2 6121   2.152   1.783  14.733 -0.5933 -0.4807 -1.9493
  406TMC3    C7 6122   2.302   1.929  14.908  0.0821  0.0650 -0.4972
  406TMC3    C8 6123   1.892   1.725  14.804 -0.5149  0.0311  0.4686
  406TMC3    O1 6124   2.348   2.023  14.974 -0.5855  0.4237  0.0615
  406TMC3    O2 6125   1.770   1.719  14.809 -0.3873  0.4277 -0.0188
  407MPD2     C 6126   4.612   3.010   9.599  0.4432  1.0485  0.0583
  407MPD2    C1 6127   4.670   2.982   9.718  0.0693 -0.1973 -0.3550
  407MPD2    C2 6128   4.601   3.017   9.834  0.5566  0.1898  0.0816
  407MPD2    C3 6129   4.479   3.080   9.833  0.0742  0.2005  0.1658
  407MPD2    C4 6130   4.422   3.116   9.710  0.2004 -0.5486  0.3442
  407MPD2    C5 6131   4.490   3.069   9.597  0.2693  0.4753 -1.0218
  407MPD2     H 6132   4.657   2.992   9.923 -1.8661  1.0357  1.8184
  407MPD2    H1 6133   4.332   3.176   9.699  0.9389  0.2261 -1.4664
  407MPD2    H2 6134   4.660   2.987   9.505 -0.5327  0.4876 -0.3082
  407MPD2    H3 6135   4.440   3.093   9.504  0.8642  0.7216 -1.2799
  407MPD2     N 6136   4.423   3.123   9.950  0.8653  0.2465  0.1751
  407MPD2    H5 6137   4.341   3.181   9.937  0.8474  0.4629  1.2537
  407MPD2    N1 6138   0.059   2.916   9.734  0.8077  0.6429 -0.1439
  407MPD2    H7 6139   0.082   2.896   9.831 -1.9131  0.6430  0.5093
  408TMC3    C1 6140   0.266   2.847   9.673 -0.1936 -0.2130 -0.8338
  408TMC3    C2 6141   0.266   2.731   9.753  0.5183  0.1215  0.3991
  408TMC3    C3 6142   0.379   2.689   9.808  0.1315 -0.5481  0.2042
  408TMC3    C4 6143   0.375   2.920   9.657  0.0347 -0.2961  0.4723
  408TMC3    C5 6144   0.485   2.876   9.723 -0.2033 -0.2264  0.6019
  408TMC3    C6 6145   0.490   2.771   9.808  0.0921  0.3127  0.1379
  408TMC3     C 6146   0.144   2.908   9.626  0.5640 -0.0729  0.0851
  408TMC3     O 6147   0.151   2.974   9.521 -0.3583 -0.3998 -0.4393
  408TMC3     H 6148   0.186   2.660   9.737  1.2203 -0.3711 -0.8700
  408TMC3    H1 6149   0.372   3.016   9.606  0.6798 -0.4250  0.1862
  408TMC3    H2 6150   0.586   2.737   9.843  0.2296  0.1499 -0.3933
  408TMC3    C7 6151   0.587   2.967   9.759  0.1439 -0.5183 -0.2932
  408TMC3    C8 6152   0.373   2.561   9.877  0.5153 -0.2359 -0.3002
  408TMC3    O1 6153   0.648   2.954   9.864  0.8054  0.1972  0.0830
  408TMC3    O2 6154   0.281   2.490   9.847 -0.4779  0.2092  0.3097
  409MPD2     C 6155   4.410   3.970  16.888  0.4602  0.3553 -1.2272
  409MPD2    C1 6156   4.441   4.023  17.018 -0.3778  0.8903  0.2269
  409MPD2    C2 6157   4.516   4.136  17.022 -0.1136  0.0124  0.9235
  409MPD2    C3 6158   4.539   4.205  16.903  0.1513 -0.5170 -0.7011
  409MPD2    C4 6159   4.507   4.149  16.779 -0.5581 -0.5579 -0.4001
  409MPD2    C5 6160   4.437   4.032  16.770 -0.8266  1.5365 -0.2213
  409MPD2     H 6161   4.540   4.185  17.116  1.8554 -1.5668  1.2641
  409MPD2    H1 6162   4.526   4.210  16.691 -0.9541  0.1079 -0.0216
  409MPD2    H2 6163   4.363   3.874  16.874 -1.6279  1.2751 -0.4773
  409MPD2    H3 6164   4.423   3.976  16.678  1.5447 -0.6497  0.7380
  409MPD2     N 6165   4.605   4.324  16.898 -0.3546 -0.6461 -0.6982
  409MPD2    H5 6166   4.617   4.376  16.812 -2.8743 -1.2698 -1.4170
  409MPD2    N1 6167   4.428   3.957  17.142  0.5441  0.2771  0.1521
  409MPD2    H7 6168   4.462   4.007  17.223 -0.1881  0.4463  0.3568
  410TMC3    C1 6169   0.009   4.502  16.968 -0.1767  0.1958 -0.8494
  410TMC3    C2 6170   0.107   4.551  17.052 -0.4953  0.3849 -0.6081
  410TMC3    C3 6171   0.176   4.663  17.011  0.2368  0.5886 -0.7008
  410TMC3    C4 6172   4.726   4.561  16.848 -0.6799 -0.0864  0.7286
  410TMC3    C5 6173   0.064   4.673  16.814  0.0869 -0.5445 -0.4700
  410TMC3    C6 6174   0.157   4.723  16.895  1.0186 -0.6836 -0.2877
  410TMC3     C 6175   4.679   4.378  17.002 -0.3775 -0.2098  0.5335
  410TMC3     O 6176   4.708   4.329  17.113 -0.3429  0.2028 -0.7495
  410TMC3     H 6177   0.117   4.513  17.153 -0.8304 -2.3335 -1.5993
  410TMC3    H1 6178   4.640   4.534  16.788  1.0425 -3.0733 -0.3818
  410TMC3    H2 6179   0.240   0.036  16.848  0.7210 -1.7066 -1.9630
  410TMC3    C7 6180   0.077   4.701  16.670  0.8882  0.1908 -0.5903
  410TMC3    C8 6181   0.300   4.704  17.080 -0.5857  0.0691  0.8235
  410TMC3    O1 6182   0.042   4.599  16.611  0.1406  0.2216  0.3543
  410TMC3    O2 6183   0.340   0.081  17.064  0.0031 -0.3301  0.5629
  411MPD2     C 6184   0.208   0.510  14.906 -0.0529 -0.0327 -0.3584
  411MPD2    C1 6185   0.083   0.453  14.922 -0.0879 -0.2352 -0.4642
  411MPD2    C2 6186   0.068   0.321  14.891 -0.2541 -0.3281 -0.2313
  411MPD2    C3 6187   0.171   0.246  14.842  0.7758  0.7342 -0.3595
  411MPD2    C4 6188   0.292   0.303  14.819  0.0663  0.2220 -0.4460
  411MPD2    C5 6189   0.311   0.433  14.856  0.4137 -0.3569  0.0669
  411MPD2     H 6190   4.711   0.271  14.897 -1.5237  1.8187 -3.0961
  411MPD2    H1 6191   0.386   0.250  14.810 -0.8184 -1.3607 -0.3091
  411MPD2    H2 6192   0.227   0.613  14.933  0.6130  0.0323 -1.0743
  411MPD2    H3 6193   0.410   0.477  14.856 -0.2970  1.2407  1.0046
  411MPD2     N 6194   0.156   0.103  14.827 -0.4492 -0.4578 -0.3912
  411MPD2    H5 6195   0.239   0.061  14.786 -0.6961 -1.5701  0.2588
  411MPD2    N1 6196   4.709   0.531  14.950 -0.1080  0.2302 -0.2383
  411MPD2    H7 6197   4.625   0.477  14.966  1.3010 -1.3779  1.6973
  412TMC3    C1 6198   0.075   4.624  14.828 -0.6328  0.1049  0.0461
  412TMC3    C2 6199   4.737   4.542  14.893 -0.3351 -0.0550 -0.1029
  412TMC3    C3 6200   4.689   4.424  14.842  0.9974  0.9515 -1.1488
  412TMC3    C4 6201   0.105   4.605  14.694 -0.6293  0.0257  0.6093
  412TMC3    C5 6202   0.064   4.489  14.643 -0.2873 -0.2827  0.3619
  412TMC3    C6 6203   4.729   4.397  14.711 -0.3089 -0.0040  0.4168
  412TMC3     C 6204   0.051   0.021  14.869 -0.3223  0.6070 -1.1373
  412TMC3     O 6205   4.703   0.051  14.951 -0.0490  0.2775  0.3535
  412TMC3     H 6206   4.713   4.559  14.997 -0.9782 -0.4060 -0.1961
  412TMC3    H1 6207   0.168   4.672  14.637  0.5852 -1.1892  0.4977
  412TMC3    H2 6208   4.701   4.305  14.662  1.4825  0.0520 -0.6964
  412TMC3    C7 6209   0.005   4.510  14.511 -0.8345  0.3961 -0.0397
  412TMC3    C8 6210   4.549   4.411  14.865 -0.2225  0.2189 -0.3751
  412TMC3    O1 6211   4.644   4.445  14.498 -0.6920  0.1741  0.1574
  412TMC3    O2 6212   4.505   4.410  14.979 -0.4202 -0.7144  0.0675
  413MPD2     C 6213   1.726   3.201  15.676 -0.0737  0.3448 -0.0984
  413MPD2    C1 6214   1.648   3.143  15.574  0.0265 -0.0163  0.0719
  413MPD2    C2 6215   1.700   3.029  15.516  0.1601  0.1426  0.2989
  413MPD2    C3 6216   1.816   2.962  15.555 -0.6676 -0.3097 -0.6371
  413MPD2    C4 6217   1.873   3.009  15.669  0.1081  0.2158  0.3915
  413MPD2    C5 6218   1.836   3.132  15.723  0.3595 -0.4291 -0.1404
  413MPD2     H 6219   1.649   2.985  15.431  0.2706 -0.2432  0.4330
  413MPD2    H1 6220   1.962   2.970  15.718  0.1233  0.8481  0.8700
  413MPD2    H2 6221   1.698   3.291  15.730  0.0746  0.4267 -0.1604
  413MPD2    H3 6222   1.888   3.172  15.809 -0.4413 -0.1234  0.2053
  413MPD2     N 6223   1.869   2.847  15.492 -0.3179  0.1149  0.4646
  413MPD2    H5 6224   1.829   2.829  15.400 -0.0267  1.9325 -0.0332
  413MPD2    N1 6225   1.520   3.199  15.544 -0.2950 -1.1170 -0.0907
  413MPD2    H7 6226   1.486   3.259  15.617 -0.7348  2.5679 -3.3384
  414TMC3    C1 6227   1.988   2.643  15.457  0.3464 -0.2539  0.0143
  414TMC3    C2 6228   2.032   2.523  15.522  0.6087 -0.3049 -0.7153
  414TMC3    C3 6229   2.040   2.409  15.449  0.6624  0.3410 -0.4730
  414TMC3    C4 6230   1.969   2.643  15.322  0.2939  0.2258 -0.2955
  414TMC3    C5 6231   1.990   2.533  15.249 -0.1158 -0.3045 -0.9385
  414TMC3    C6 6232   2.018   2.413  15.311 -0.0389  0.1535 -0.4622
  414TMC3     C 6233   1.965   2.759  15.539  0.6888 -0.1091  0.2830
  414TMC3     O 6234   2.025   2.753  15.651 -0.0921 -0.2421 -0.1953
  414TMC3     H 6235   2.030   2.514  15.630 -0.4081  1.4793 -0.5963
  414TMC3    H1 6236   1.932   2.731  15.270 -1.4273 -0.4867 -0.2547
  414TMC3    H2 6237   2.028   2.321  15.254  1.3643 -1.1138  1.8483
  414TMC3    C7 6238   2.094   2.562  15.151 -0.0965 -0.1160  0.3515
  414TMC3    C8 6239   2.076   2.278  15.504 -0.3458 -0.3163  0.2375
  414TMC3    O1 6240   2.169   2.661  15.161 -0.2373  0.5446  0.5826
  414TMC3    O2 6241   2.058   2.180  15.429 -0.7551  0.1324  0.6214
  415TMC3    C1 6242   1.513   0.257   9.917  0.0803  0.1058 -0.2361
  415TMC3    C2 6243   1.606   0.270   9.820 -0.5863 -0.2950 -0.7793
  415TMC3    C3 6244   1.701   0.369   9.828  0.1040 -0.3749 -0.5955
  415TMC3    C4 6245   1.534   0.321  10.038  0.1847 -0.3273 -0.1205
  415TMC3    C5 6246   1.648   0.405  10.049  0.1602  0.6304 -0.0489
  415TMC3    C6 6247   1.725   0.431   9.945 -0.1777 -0.0146  0.3724
  415TMC3     C 6248   1.417   0.141   9.922  0.1244  0.2221  0.0394
  415TMC3     O 6249   1.373   0.113  10.033 -0.2348 -0.8368  0.2628
  415TMC3     H 6250   1.592   0.222   9.724 -0.4022 -1.7880 -0.0607
  415TMC3    H1 6251   1.462   0.318  10.118 -0.3280 -1.4425 -0.6208
  415TMC3    H2 6252   1.781   0.523   9.960  0.3565 -0.3362  0.3593
  415TMC3    C7 6253   1.663   0.482  10.172  0.6451 -0.1142  0.2048
  415TMC3    C8 6254   1.788   0.386   9.712 -0.7756 -0.5298  0.2049
  415TMC3    O1 6255   1.722   0.587  10.171 -0.3627  0.0773  0.9236
  415TMC3    O2 6256   1.746   0.378   9.599 -0.1509 -0.2156  0.0534
  416MPD2     C 6257   3.907   4.315  11.652  0.6338 -0.2873  0.5104
  416MPD2    C1 6258   3.792   4.278  11.583  0.3363  0.5569 -0.0316
  416MPD2    C2 6259   3.813   4.236  11.452 -0.3174  0.5577  0.7445
  416MPD2    C3 6260   3.933   4.244  11.384  0.4939  0.6428  0.6548
  416MPD2    C4 6261   4.034   4.298  11.455 -0.1023  0.1076 -0.2695
  416MPD2    C5 6262   4.022   4.324  11.592 -0.1254  0.2752  1.1283
  416MPD2     H 6263   3.730   4.189  11.399  1.7332  0.2500 -2.2181
  416MPD2    H1 6264   4.131   4.297  11.407 -0.5649 -0.2692 -1.1879
  416MPD2    H2 6265   3.892   4.346  11.755  1.0089 -1.1817  0.8341
  416MPD2    H3 6266   4.098   4.376  11.649 -1.0024  1.3266  1.3498
  416MPD2     N 6267   3.966   4.214  11.249 -0.0645  0.2089 -0.2676
  416MPD2    H5 6268   4.052   4.259  11.217 -1.2259  0.9664 -2.3621
  416MPD2    N1 6269   3.673   4.290  11.658  0.1238  0.5171  0.4429
  416MPD2    H7 6270   3.687   4.304  11.757 -1.2170  0.8731  0.5798
  417TMC3    C1 6271   3.434   4.303  11.679  0.2024 -0.5968 -0.7554
  417TMC3    C2 6272   3.451   4.355  11.807  0.8024  0.0536 -0.1299
  417TMC3    C3 6273   3.347   4.425  11.865 -0.4471 -0.0579 -0.1748
  417TMC3    C4 6274   3.319   4.316  11.611 -0.2205  0.2357 -0.4035
  417TMC3    C5 6275   3.218   4.380  11.681  0.5715  0.7211 -0.1516
  417TMC3    C6 6276   3.222   4.424  11.813  0.1921  0.3185 -0.3176
  417TMC3     C 6277   3.551   4.260  11.602  0.5659 -0.6765 -0.3384
  417TMC3     O 6278   3.523   4.215  11.495  0.0157  0.1917 -0.2601
  417TMC3     H 6279   3.543   4.334  11.860  0.4517 -2.3862 -0.4985
  417TMC3    H1 6280   3.308   4.287  11.507  0.0934 -2.8370  0.4300
  417TMC3    H2 6281   3.141   4.480  11.859  0.7310  0.9905 -0.1844
  417TMC3    C7 6282   3.096   4.411  11.607  1.2420  0.0877  0.1123
  417TMC3    C8 6283   3.374   4.466  12.007 -0.6603  1.5603  0.0212
  417TMC3    O1 6284   3.108   4.406  11.485  0.5443 -0.0642  0.2058
  417TMC3    O2 6285   3.267   4.505  12.057 -0.4242 -0.2781 -0.5209
  418TMC3    C1 6286   2.684   2.671   0.459 -0.3369 -0.0074  0.6302
  418TMC3    C2 6287   2.591   2.622   0.375 -0.4201  0.3764 -0.1995
  418TMC3    C3 6288   2.519   2.513   0.410 -0.4305 -0.0536 -0.3700
  418TMC3    C4 6289   2.708   2.601   0.576  0.2015  0.0965  0.5225
  418TMC3    C5 6290   2.639   2.487   0.611  1.0189  0.4853 -0.6037
  418TMC3    C6 6291   2.543   2.446   0.525  0.2870  0.4100  0.8181
  418TMC3     C 6292   2.791   2.751   0.402 -0.3765  0.2761 -0.5103
  418TMC3     O 6293   2.765   2.859   0.348  0.5167  0.2832 -0.2817
  418TMC3     H 6294   2.583   2.669   0.277  0.7546  0.3324 -0.3182
  418TMC3    H1 6295   2.790   2.637   0.636 -0.9485  1.0930  1.4892
  418TMC3    H2 6296   2.483   2.359   0.550  2.2310 -0.4553  2.4826
  418TMC3    C7 6297   2.670   2.401   0.723  0.3743  0.0905 -0.2204
  418TMC3    C8 6298   2.478   2.440   0.294  0.4944  0.1123 -0.2129
  418TMC3    O1 6299   2.627   2.287   0.721  0.5229 -0.7271  0.5401
  418TMC3    O2 6300   2.425   2.501   0.202  0.3001 -0.3663 -0.1496
  419MPD2     C 6301   1.013   4.137  12.523  0.4766  0.1245 -0.1819
  419MPD2    C1 6302   0.959   4.259  12.515 -0.4018 -0.3972 -0.0648
  419MPD2    C2 6303   0.928   4.330  12.627  0.3696  0.6393  0.0301
  419MPD2    C3 6304   0.953   4.276  12.752 -0.2185  0.1730 -0.5487
  419MPD2    C4 6305   1.015   4.152  12.761  0.1892 -0.6739  0.3973
  419MPD2    C5 6306   1.040   4.080  12.647  0.2617  0.4371  0.4808
  419MPD2     H 6307   0.893   4.433  12.618 -1.0631 -0.0434 -2.2253
  419MPD2    H1 6308   1.037   4.102  12.855 -1.0998 -0.4479  0.8282
  419MPD2    H2 6309   1.029   4.076  12.435 -1.2443  0.3683 -0.6656
  419MPD2    H3 6310   1.091   3.986  12.660  0.1712  0.0517 -2.0985
  419MPD2     N 6311   0.908   4.355  12.869  0.5275  0.7744 -0.5706
  419MPD2    H5 6312   0.877   4.450  12.851  0.4788  0.3082 -2.9068
  419MPD2    N1 6313   0.928   4.320  12.398  0.0632  0.4203 -0.3968
  419MPD2    H7 6314   0.875   4.406  12.407  2.9204  2.3757 -2.3153
  420TMC3    C1 6315   0.896   4.450  13.083  0.5113 -0.4872 -0.0033
  420TMC3    C2 6316   0.777   4.493  13.064 -0.8039 -0.3744  0.3491
  420TMC3    C3 6317   0.723   4.577  13.160  0.2872 -0.2111  0.3062
  420TMC3    C4 6318   0.965   4.479  13.196 -0.4723  0.0711 -0.3355
  420TMC3    C5 6319   0.909   4.554  13.295  0.0086 -0.1229  0.4022
  420TMC3    C6 6320   0.788   4.618  13.272 -0.3050 -0.0003  0.4276
  420TMC3     C 6321   0.935   4.333  13.003  0.7618 -0.0768  0.9448
  420TMC3     O 6322   0.992   4.238  13.054  0.6938  0.1607 -0.0938
  420TMC3     H 6323   0.717   4.469  12.978 -0.5467 -1.4499  0.4761
  420TMC3    H1 6324   1.036   4.404  13.229 -0.9267 -0.2848 -0.1681
  420TMC3    H2 6325   0.750   4.695  13.339  1.0126  1.7953 -0.8983
  420TMC3    C7 6326   0.977   4.559  13.419 -0.0071  0.8238  0.0667
  420TMC3    C8 6327   0.592   4.626  13.136  0.1393 -0.4151 -0.6439
  420TMC3    O1 6328   0.907   4.581  13.518 -0.3029  0.0876 -0.2532
  420TMC3    O2 6329   0.560   4.736  13.178 -0.0114 -0.2855 -0.1459
  421TMC3    C1 6330   2.614   1.090  13.621 -0.2572  0.1312 -0.0388
  421TMC3    C2 6331   2.594   1.187  13.709  0.3394  0.0594  0.9463
  421TMC3    C3 6332   2.666   1.180  13.830 -0.0553 -0.2562  0.5388
  421TMC3    C4 6333   2.691   0.980  13.654 -0.2835  0.5769  0.3911
  421TMC3    C5 6334   2.761   0.974  13.764 -0.1416 -0.0866 -0.2544
  421TMC3    C6 6335   2.750   1.070  13.861 -0.1227  0.2029  0.5143
  421TMC3     C 6336   2.522   1.062  13.508 -0.3739  0.3577 -0.8106
  421TMC3     O 6337   2.467   0.950  13.506 -0.0416  0.0641  0.4056
  421TMC3     H 6338   2.539   1.279  13.693 -0.1188 -0.6136 -1.2977
  421TMC3    H1 6339   2.693   0.892  13.590 -1.2852 -0.9848  2.4933
  421TMC3    H2 6340   2.810   1.060  13.951  0.5593 -0.7859 -0.0442
  421TMC3    C7 6341   2.814   0.841  13.797  0.3004  0.5205 -0.2794
  421TMC3    C8 6342   2.635   1.273  13.938 -0.2177  0.2427 -0.4246
  421TMC3    O1 6343   2.764   0.741  13.750 -0.5742 -0.1108 -0.4934
  421TMC3    O2 6344   2.631   1.393  13.918 -0.3400 -0.2578 -0.4676
  422TMC3    C1 6345   4.119   2.794  12.658 -0.0035 -0.4507  0.1359
  422TMC3    C2 6346   4.144   2.885  12.758 -0.0601  0.2819 -0.0343
  422TMC3    C3 6347   4.103   2.851  12.882 -0.6584 -0.6098 -0.0359
  422TMC3    C4 6348   4.046   2.681  12.682  0.8109  0.9872 -0.1669
  422TMC3    C5 6349   4.024   2.650  12.813  0.5471  0.3471 -0.6548
  422TMC3    C6 6350   4.040   2.735  12.915 -0.3165 -0.0739  0.7171
  422TMC3     C 6351   4.178   2.816  12.527 -0.3869  0.0453 -0.3017
  422TMC3     O 6352   4.244   2.920  12.507 -0.1693  0.4840 -0.0851
  422TMC3     H 6353   4.176   2.986  12.734 -1.4609  0.3382 -1.7275
  422TMC3    H1 6354   4.024   2.610  12.603  0.9447  1.7741 -0.9105
  422TMC3    H2 6355   4.030   2.702  13.018  0.6278 -0.4297  0.6898
  422TMC3    C7 6356   3.968   2.515  12.833  0.0298 -0.3288 -0.3304
  422TMC3    C8 6357   4.136   2.948  12.986 -0.1617  0.3314  0.5772
  422TMC3    O1 6358   3.989   2.437  12.740 -0.5775  0.3773  0.7504
  422TMC3    O2 6359   4.207   3.047  12.958  0.3593  0.2061  0.2488
  423MPD2     C 6360   1.049   3.826   0.241 -0.1266 -0.8504  0.2037
  423MPD2    C1 6361   1.170   3.781   0.288 -0.1819  0.2104  1.0099
  423MPD2    C2 6362   1.244   3.700   0.202  0.2822 -0.6916  0.0451
  423MPD2    C3 6363   1.210   3.691   0.068 -0.1074  0.1796  0.2656
  423MPD2    C4 6364   1.086   3.736   0.024  0.0310 -0.0018 -0.2864
  423MPD2    C5 6365   1.008   3.799   0.115 -0.8774 -0.2516 -0.1324
  423MPD2     H 6366   1.341   3.671   0.241 -0.8588 -1.6514  2.1784
  423MPD2    H1 6367   1.055   3.715  17.678 -1.4300  0.9747 -0.0413
  423MPD2    H2 6368   0.974   3.875   0.302  0.3987  0.9448 -0.5824
  423MPD2    H3 6369   0.910   3.837   0.087 -1.5290 -2.3863 -0.7391
  423MPD2     N 6370   1.288   3.612  17.736  0.0243  0.2245 -0.4018
  423MPD2    H5 6371   1.269   3.606  17.636  1.1436 -1.3732 -0.5183
  423MPD2    N1 6372   1.222   3.821   0.406  0.2081  0.2829  0.4580
  423MPD2    H7 6373   1.298   3.764   0.442  2.9069  3.8266  0.4452
  424TMC3    C1 6374   1.272   3.963   0.588  0.5991  0.0799 -0.3500
  424TMC3    C2 6375   1.399   3.916   0.593  0.5684  0.9676 -0.3269
  424TMC3    C3 6376   1.468   3.939   0.713  0.6984 -0.2648  0.2006
  424TMC3    C4 6377   1.215   4.039   0.684 -0.2730  0.2249 -0.8806
  424TMC3    C5 6378   1.288   4.069   0.795 -0.4899  0.1180  0.0293
  424TMC3    C6 6379   1.413   4.022   0.807 -0.1733  0.0369 -0.1075
  424TMC3     C 6380   1.176   3.930   0.475 -0.2924 -0.0188 -0.3130
  424TMC3     O 6381   1.091   4.020   0.455  0.1360  0.3701  0.4585
  424TMC3     H 6382   1.449   3.862   0.514 -2.0455  0.2411 -1.4835
  424TMC3    H1 6383   1.111   4.068   0.674  0.0449  1.2594 -1.1602
  424TMC3    H2 6384   1.459   4.037   0.904  0.9006 -0.8929 -0.4649
  424TMC3    C7 6385   1.234   4.164   0.889  0.1933  0.3357 -0.5098
  424TMC3    C8 6386   1.590   3.866   0.750  0.6358  0.2791  0.4519
  424TMC3    O1 6387   1.282   4.158   1.002 -0.0862  0.3590  0.1199
  424TMC3    O2 6388   1.617   3.769   0.684  0.1396  0.2776 -0.2549
  425MPD2     C 6389   0.567   2.975  17.394 -0.2346  0.1655 -0.5989
  425MPD2    C1 6390   0.510   2.873  17.476  0.0200 -0.0105 -0.1133
  425MPD2    C2 6391   0.391   2.907  17.545  0.4460  0.2740 -0.1422
  425MPD2    C3 6392   0.340   3.035  17.540 -0.1411 -0.0798 -0.1836
  425MPD2    C4 6393   0.399   3.134  17.467 -1.4330  0.7849  0.8421
  425MPD2    C5 6394   0.511   3.101  17.395 -0.2221 -0.4685  0.4185
  425MPD2     H 6395   0.350   2.832  17.611 -0.0072  0.5655 -0.0907
  425MPD2    H1 6396   0.361   3.235  17.451 -0.7783  0.9712  0.4418
  425MPD2    H2 6397   0.640   2.948  17.318 -0.1407  1.9598 -1.1364
  425MPD2    H3 6398   0.569   3.172  17.338 -0.3120 -0.7546 -0.0277
  425MPD2     N 6399   0.209   3.052  17.594  0.2382 -0.9713 -0.6481
  425MPD2    H5 6400   0.167   2.978  17.650  0.0737 -0.4290 -0.0590
  425MPD2    N1 6401   0.566   2.746  17.466 -0.3411 -0.0100 -0.5940
  425MPD2    H7 6402   0.642   2.742  17.399  0.1376 -1.3134  0.0303
  426TMC3    C1 6403   0.610   2.517  17.515  0.3454 -0.7056 -0.5216
  426TMC3    C2 6404   0.614   2.487  17.376 -0.0617  0.1022  0.4514
  426TMC3    C3 6405   0.642   2.360  17.349  0.4313  0.0930  0.5881
  426TMC3    C4 6406   0.617   2.418  17.607  0.2101 -0.1060  0.3862
  426TMC3    C5 6407   0.615   2.283  17.573 -0.7555  0.0024 -0.6464
  426TMC3    C6 6408   0.628   2.249  17.438  0.8091 -0.1004 -0.6959
  426TMC3     C 6409   0.540   2.639  17.551 -0.4573  0.4154  0.7711
  426TMC3     O 6410   0.448   2.629  17.632 -0.5378  0.5426  0.4231
  426TMC3     H 6411   0.617   2.558  17.294  1.1454  0.2687  0.6463
  426TMC3    H1 6412   0.601   2.450  17.709  0.8387 -0.6864  0.6589
  426TMC3    H2 6413   0.628   2.152  17.389  0.8762 -1.1917  1.4432
  426TMC3    C7 6414   0.548   2.191  17.661  1.1677  0.0856  0.2801
  426TMC3    C8 6415   0.613   2.327  17.213  0.0628  0.1245  0.5968
  426TMC3    O1 6416   0.552   2.076  17.618  0.1370  0.0737 -0.0601
  426TMC3    O2 6417   0.688   2.264  17.145 -0.3274 -0.0135 -0.1474
  427MPD2     C 6418   4.035   0.249  14.912  0.3993  0.2421  0.2341
  427MPD2    C1 6419   4.009   0.132  14.990  0.4281 -0.4669  0.3458
  427MPD2    C2 6420   3.884   0.090  15.012  0.3350  0.0585  0.7090
  427MPD2    C3 6421   3.782   0.176  14.971  0.7787  1.0585  0.2912
  427MPD2    C4 6422   3.807   0.290  14.910  1.5301 -0.8191  0.1273
  427MPD2    C5 6423   3.933   0.332  14.876  0.7969 -0.6356  0.0252
  427MPD2     H 6424   3.875   4.737  15.068  0.2286  0.3639  1.1983
  427MPD2    H1 6425   3.720   0.352  14.893  3.7210  2.1393 -0.3200
  427MPD2    H2 6426   4.136   0.275  14.882  1.1115 -0.6879  1.7993
  427MPD2    H3 6427   3.956   0.421  14.819  1.3084  0.2866  1.6627
  427MPD2     N 6428   3.641   0.159  14.994  0.1689 -0.8460 -0.0194
  427MPD2    H5 6429   3.576   0.232  14.968  1.7703  0.4829 -0.2876
  427MPD2    N1 6430   4.107   0.045  15.047 -1.0141 -0.0108  0.0325
  427MPD2    H7 6431   4.067   4.701  15.089 -2.0438 -0.3409 -1.6021
  428TMC3    C1 6432   4.310   4.695  15.112  0.0691 -0.5295 -0.7033
  428TMC3    C2 6433   4.249   4.577  15.152 -0.1538 -0.0665 -0.2986
  428TMC3    C3 6434   4.314   4.494  15.247 -0.3972  0.7133  1.0023
  428TMC3    C4 6435   4.439   4.724  15.140 -0.2339  0.1527  0.0332
  428TMC3    C5 6436   4.504   4.635  15.227  0.1113  0.3720 -1.2955
  428TMC3    C6 6437   4.446   4.521  15.276  0.1023 -0.4078  0.2122
  428TMC3     C 6438   4.240   0.057  15.040 -0.2881 -0.6278  0.6988
  428TMC3     O 6439   4.304   0.148  14.990  0.0349  0.4971 -0.3415
  428TMC3     H 6440   4.164   4.543  15.093  0.7785  0.8691 -2.1889
  428TMC3    H1 6441   4.486   0.074  15.100  0.8156 -0.0848  0.7341
  428TMC3    H2 6442   4.509   4.459  15.339  0.2024 -0.4737  0.0474
  428TMC3    C7 6443   4.611   4.692  15.312  0.2977  0.1520  0.4167
  428TMC3    C8 6444   4.264   4.357  15.257  0.0458  0.5121  0.6371
  428TMC3    O1 6445   4.646   4.637  15.417  0.1580 -0.1284  0.0786
  428TMC3    O2 6446   4.185   4.320  15.171 -0.2573  0.1534  0.2345
  429MPD2     C 6447   0.156   0.304  17.452  0.5433  0.5990  1.0731
  429MPD2    C1 6448   0.265   0.223  17.437 -0.3865  0.3293 -0.0218
  429MPD2    C2 6449   0.365   0.261  17.345 -0.1408  0.1614  0.0302
  429MPD2    C3 6450   0.355   0.378  17.273 -0.9965 -0.4284  0.7388
  429MPD2    C4 6451   0.242   0.454  17.284 -0.2839 -0.4731 -0.5463
  429MPD2    C5 6452   0.145   0.414  17.375 -0.3164 -0.2197  0.2458
  429MPD2     H 6453   0.448   0.193  17.329 -0.3931 -0.0555 -0.3412
  429MPD2    H1 6454   0.220   0.539  17.221 -0.8645  0.4007  0.8556
  429MPD2    H2 6455   0.068   0.269  17.505  1.0501 -1.4816  0.5230
  429MPD2    H3 6456   0.065   0.486  17.387  0.5779  1.0239 -1.3247
  429MPD2     N 6457   0.461   0.410  17.186 -0.1897 -0.3220 -0.2757
  429MPD2    H5 6458   0.531   0.338  17.173 -0.1430 -0.7705  2.4748
  429MPD2    N1 6459   0.282   0.101  17.513 -0.1109  0.7541 -0.3696
  429MPD2    H7 6460   0.358   0.046  17.474 -0.4412 -0.6023  0.9062
  430TMC3    C1 6461   0.578   0.520  17.023 -0.5171 -0.1150 -0.2187
  430TMC3    C2 6462   0.634   0.634  16.970  0.3837  0.2114  0.1349
  430TMC3    C3 6463   0.742   0.624  16.889 -0.4519 -0.1785  0.5929
  430TMC3    C4 6464   0.616   0.396  16.978  0.8931 -0.0765  0.1288
  430TMC3    C5 6465   0.710   0.388  16.887 -0.2176  0.3101 -0.3220
  430TMC3    C6 6466   0.783   0.495  16.841  0.6835 -0.3780  0.0102
  430TMC3     C 6467   0.471   0.531  17.119  0.2203  0.7663  0.0302
  430TMC3     O 6468   0.406   0.635  17.118  0.0465  0.1931 -0.4640
  430TMC3     H 6469   0.594   0.730  17.000  2.4731  1.3489 -0.7401
  430TMC3    H1 6470   0.573   0.299  17.000 -1.6667  1.5980  2.4110
  430TMC3    H2 6471   0.856   0.497  16.761  1.0197  0.8384  0.3418
  430TMC3    C7 6472   0.738   0.255  16.844 -0.0009  0.4310  0.2732
  430TMC3    C8 6473   0.758   0.731  16.785 -0.4247  0.5941  0.1444
  430TMC3    O1 6474   0.839   0.196  16.881  1.1609 -0.2397  0.1612
  430TMC3    O2 6475   0.755   0.695  16.668 -0.3613 -0.3391  1.0226
  431MPD2     C 6476   0.598   0.084  12.783  0.5907 -0.0381  0.1745
  431MPD2    C1 6477   0.671   0.156  12.685  0.0759 -0.1421  0.5350
  431MPD2    C2 6478   0.701   0.103  12.557  0.2790 -0.0908 -0.3473
  431MPD2    C3 6479   0.661   4.716  12.527 -0.1441  0.1778  0.2098
  431MPD2    C4 6480   0.579   4.652  12.616 -0.3097  0.0316  0.8872
  431MPD2    C5 6481   0.551   4.700  12.741 -0.7932 -0.0937 -0.1783
  431MPD2     H 6482   0.765   0.166  12.497 -1.7697  0.8197 -1.5638
  431MPD2    H1 6483   0.545   4.550  12.600  0.9787 -0.0073 -1.6027
  431MPD2    H2 6484   0.563   0.123  12.877  1.1003  1.3419 -0.2108
  431MPD2    H3 6485   0.472   4.649  12.795 -0.7409 -0.6241 -0.6072
  431MPD2     N 6486   0.703   4.653  12.410  0.0336  0.4902 -0.1515
  431MPD2    H5 6487   0.684   4.553  12.413 -0.2087  0.4801 -1.8767
  431MPD2    N1 6488   0.725   0.283  12.717 -0.2116 -0.1973 -0.1836
  431MPD2    H7 6489   0.768   0.340  12.645 -0.0706 -0.0571  0.0102
  432TMC3    C1 6490   0.827   4.619  12.213  0.8341 -0.3905  0.0636
  432TMC3    C2 6491   0.921   4.672  12.129 -0.2410  0.2114 -0.1889
  432TMC3    C3 6492   1.013   4.587  12.072 -0.1989 -0.7968 -0.1629
  432TMC3    C4 6493   0.828   4.488  12.248  0.6292 -0.4751  0.1759
  432TMC3    C5 6494   0.918   4.409  12.188  0.1242 -0.1576 -1.7821
  432TMC3    C6 6495   1.010   4.455  12.103 -0.2701 -0.0608 -0.4380
  432TMC3     C 6496   0.767   4.714  12.306 -0.6921  0.1545  0.7609
  432TMC3     O 6497   0.788   0.094  12.289  1.0344  0.8111  0.2717
  432TMC3     H 6498   0.922   0.038  12.107  0.3052  0.7126  2.2009
  432TMC3    H1 6499   0.730   4.452  12.276  0.0320  0.8268 -0.2439
  432TMC3    H2 6500   1.080   4.392  12.050  0.8567 -0.1369  1.1612
  432TMC3    C7 6501   0.975   4.298  12.273  0.3132  0.0212 -0.4661
  432TMC3    C8 6502   1.085   4.637  11.958 -0.1081 -0.4179 -0.0098
  432TMC3    O1 6503   1.045   4.213  12.227  0.2515  0.2284  0.4028
  432TMC3    O2 6504   1.099   4.564  11.860 -0.2135 -0.0064  0.0951
  433MPD2     C 6505   4.307   3.563  10.885  0.6178  0.0067 -0.1428
  433MPD2    C1 6506   4.206   3.493  10.954 -0.9834 -0.1805 -0.2091
  433MPD2    C2 6507   4.194   3.504  11.089 -0.4575 -0.9399 -0.0614
  433MPD2    C3 6508   4.287   3.576  11.162  0.5261  0.6478  0.6721
  433MPD2    C4 6509   4.391   3.643  11.098 -0.7675  0.4056 -0.2631
  433MPD2    C5 6510   4.404   3.626  10.963  0.0105 -0.3058 -0.4901
  433MPD2     H 6511   4.128   3.440  11.147 -0.2371  0.0277  1.2584
  433MPD2    H1 6512   4.478   3.695  11.137  0.5963 -2.2149  0.2259
  433MPD2    H2 6513   4.334   3.538  10.783 -1.2667 -2.3131 -0.0761
  433MPD2    H3 6514   4.493   3.671  10.920 -1.3294  0.2897 -2.5942
  433MPD2     N 6515   4.275   3.555  11.305 -0.0584 -0.6812 -0.7875
  433MPD2    H5 6516   4.190   3.515  11.344 -0.3425  2.7854  2.1424
  433MPD2    N1 6517   4.136   3.399  10.884  0.2454  0.0513  0.1212
  433MPD2    H7 6518   4.166   3.383  10.788  0.7841 -0.0946  0.3133
  434TMC3    C1 6519   4.052   3.199  10.846  0.2522  0.1568 -0.1176
  434TMC3    C2 6520   4.060   3.082  10.906  0.2768  0.1996  0.8929
  434TMC3    C3 6521   4.129   2.981  10.855  0.5973 -0.0655 -0.1151
  434TMC3    C4 6522   4.086   3.209  10.708  0.3939  0.0621  0.2301
  434TMC3    C5 6523   4.140   3.099  10.653 -0.0869 -0.9787 -0.4342
  434TMC3    C6 6524   4.172   2.986  10.729 -0.1990 -0.0077 -0.0072
  434TMC3     C 6525   4.038   3.320  10.929  0.6095 -0.2112 -0.3283
  434TMC3     O 6526   3.973   3.319  11.036  0.5632  0.2004 -0.3860
  434TMC3     H 6527   4.048   3.083  11.014 -0.6267 -0.4126  0.8001
  434TMC3    H1 6528   4.055   3.293  10.646 -2.3969 -0.4964  0.8420
  434TMC3    H2 6529   4.225   2.898  10.692 -1.4860 -0.1860 -1.4034
  434TMC3    C7 6530   4.148   3.089  10.509 -0.3073 -0.0584  0.5318
  434TMC3    C8 6531   4.193   2.891  10.952 -0.0614 -0.1612 -0.0862
  434TMC3    O1 6532   4.137   3.193  10.446 -0.1425  0.6468 -0.2155
  434TMC3    O2 6533   4.133   2.873  11.061 -0.0408  0.4697 -0.1815
  435MPD2     C 6534   2.342   3.459  15.476 -0.8976  0.0722  0.6495
  435MPD2    C1 6535   2.280   3.461  15.595  0.2932  0.7460  0.5251
  435MPD2    C2 6536   2.345   3.406  15.707 -0.3953 -0.7318 -0.7129
  435MPD2    C3 6537   2.477   3.372  15.696  0.5938 -0.9122 -0.7418
  435MPD2    C4 6538   2.543   3.382  15.575  0.1185  0.7322 -0.1443
  435MPD2    C5 6539   2.471   3.426  15.467 -0.1774  0.1023 -0.5788
  435MPD2     H 6540   2.299   3.406  15.806  0.7888 -2.4077 -0.1686
  435MPD2    H1 6541   2.651   3.373  15.562  0.1368  1.0236 -0.2095
  435MPD2    H2 6542   2.285   3.498  15.392 -2.0751 -1.1865  0.8688
  435MPD2    H3 6543   2.518   3.436  15.370 -1.0620 -0.9800 -1.1133
  435MPD2     N 6544   2.538   3.337  15.821 -0.2448 -0.7019  0.1264
  435MPD2    H5 6545   2.477   3.301  15.894 -0.5748  0.6348  0.4957
  435MPD2    N1 6546   2.142   3.500  15.616  0.5490  0.4655 -0.4513
  435MPD2    H7 6547   2.115   3.488  15.714  1.6919 -1.1572 -0.3256
  436TMC3    C1 6548   1.842   3.702  15.772 -0.1700  0.2816 -0.5342
  436TMC3    C2 6549   1.952   3.650  15.715 -0.4874 -0.4326  0.4613
  436TMC3    C3 6550   1.940   3.588  15.599 -0.1878  0.5575  0.2474
  436TMC3    C4 6551   1.714   3.677  15.723  0.4683 -0.5968 -0.4489
  436TMC3    C5 6552   1.709   3.604  15.609 -0.2424  0.7916 -0.2280
  436TMC3    C6 6553   1.819   3.560  15.542 -0.2746 -0.7792 -0.1508
  436TMC3     C 6554   1.857   3.773  15.895 -0.2931  0.1617  0.0607
  436TMC3     O 6555   1.964   3.836  15.903 -0.2340 -0.3366 -0.5535
  436TMC3     H 6556   2.046   3.676  15.764 -0.9184 -0.2172  1.1696
  436TMC3    H1 6557   1.623   3.690  15.781  0.4293 -0.4772 -0.5362
  436TMC3    H2 6558   1.826   3.490  15.460 -0.7368 -1.1753  0.1517
  436TMC3    C7 6559   1.581   3.577  15.547  0.3382  0.3630 -0.5116
  436TMC3    C8 6560   2.053   3.549  15.529  0.1889 -0.4702  0.1406
  436TMC3    O1 6561   1.484   3.617  15.608  0.7922 -0.6088 -0.2086
  436TMC3    O2 6562   2.062   3.542  15.409  0.7421  0.0476 -0.0238
  437TMC3    C1 6563   0.285   0.798  12.893 -0.2620 -0.1227 -0.1846
  437TMC3    C2 6564   0.160   0.857  12.899 -0.6013  0.3754  0.4894
  437TMC3    C3 6565   0.145   0.974  12.834 -0.4793  0.2444  0.5966
  437TMC3    C4 6566   0.387   0.859  12.829 -0.0371 -0.3560  0.3792
  437TMC3    C5 6567   0.368   0.978  12.761 -0.5630  0.1319 -0.6188
  437TMC3    C6 6568   0.240   1.036  12.752  0.0484 -0.3602 -0.4180
  437TMC3     C 6569   0.321   0.672  12.961  0.3381 -0.2858  1.1722
  437TMC3     O 6570   0.413   0.607  12.909 -0.6524  0.6292 -0.1309
  437TMC3     H 6571   0.075   0.808  12.946 -0.0617  0.4645  1.5423
  437TMC3    H1 6572   0.486   0.817  12.822  0.2260  0.4254 -0.6961
  437TMC3    H2 6573   0.209   1.112  12.681 -0.4921  0.8055  1.0619
  437TMC3    C7 6574   0.477   1.071  12.724 -0.5489 -0.3294  0.6906
  437TMC3    C8 6575   0.012   1.033  12.835 -0.2590 -0.1592  0.4475
  437TMC3    O1 6576   0.437   1.169  12.669  0.4544 -0.4862  0.0892
  437TMC3    O2 6577   4.657   0.963  12.857  0.2146  0.6254 -0.2423
  438MPD2     C 6578   3.173   1.802  16.621 -0.1817  0.3789 -0.1428
  438MPD2    C1 6579   3.250   1.720  16.704  0.0790 -1.1613 -0.0692
  438MPD2    C2 6580   3.274   1.746  16.836 -0.4068 -0.5481  0.2536
  438MPD2    C3 6581   3.199   1.844  16.897  0.3045  0.3886 -0.7329
  438MPD2    C4 6582   3.117   1.927  16.828  0.1993 -0.1973  0.4005
  438MPD2    C5 6583   3.112   1.907  16.691 -0.0548 -0.0751 -0.4351
  438MPD2     H 6584   3.363   1.704  16.882  1.1046  0.1397 -2.0363
  438MPD2    H1 6585   3.059   2.003  16.877  1.3379  1.2686 -0.5098
  438MPD2    H2 6586   3.153   1.784  16.516  1.7205 -2.2076 -0.0788
  438MPD2    H3 6587   3.051   1.969  16.625 -1.0249 -0.4647  0.0906
  438MPD2     N 6588   3.214   1.868  17.038 -0.0162 -0.4054  0.2302
  438MPD2    H5 6589   3.169   1.952  17.071  1.5415  0.8779 -0.9153
  438MPD2    N1 6590   3.316   1.608  16.657  0.1854 -0.1158  0.0904
  438MPD2    H7 6591   3.383   1.564  16.719 -0.2367 -1.2208 -0.2321
  439TMC3    C1 6592   3.410   1.457  16.509  0.4050 -0.2909  0.3947
  439TMC3    C2 6593   3.399   1.394  16.386 -1.0515 -0.4799 -0.2718
  439TMC3    C3 6594   3.449   1.267  16.372 -0.5676  0.0503 -0.7457
  439TMC3    C4 6595   3.480   1.399  16.614  0.2706 -0.4212 -0.3311
  439TMC3    C5 6596   3.535   1.277  16.587 -0.7952 -0.7992 -0.6735
  439TMC3    C6 6597   3.514   1.198  16.474 -0.1243  0.3455 -0.9682
  439TMC3     C 6598   3.316   1.558  16.530  0.0042  0.4151 -0.5559
  439TMC3     O 6599   3.243   1.589  16.436 -0.1265 -0.2452 -0.2486
  439TMC3     H 6600   3.365   1.453  16.301 -2.1056 -2.0245 -0.9315
  439TMC3    H1 6601   3.495   1.449  16.709  0.4541  0.7683 -0.9832
  439TMC3    H2 6602   3.555   1.098  16.463  1.3116  0.7611  0.6058
  439TMC3    C7 6603   3.635   1.232  16.685  0.6491 -0.4846  0.0536
  439TMC3    C8 6604   3.511   1.234  16.248 -0.2303  0.4684 -0.0993
  439TMC3    O1 6605   3.636   1.293  16.795 -0.1941  0.5924 -0.0012
  439TMC3    O2 6606   3.609   1.162  16.249  0.4272  1.3814  0.4083
  440MPD2     C 6607   1.698   1.874  15.181  0.2498  0.6576 -0.1709
  440MPD2    C1 6608   1.802   1.954  15.237  0.3632 -0.1077 -0.5914
  440MPD2    C2 6609   1.930   1.899  15.256  0.0006  0.4731  0.1778
  440MPD2    C3 6610   1.956   1.767  15.218  0.0036  0.2154  1.0384
  440MPD2    C4 6611   1.858   1.691  15.169 -0.0802  0.2804  0.5003
  440MPD2    C5 6612   1.729   1.746  15.154  0.5479  0.5475 -0.0266
  440MPD2     H 6613   2.004   1.962  15.303  2.4480 -0.2389 -2.7151
  440MPD2    H1 6614   1.880   1.592  15.131 -0.3908  0.4402 -0.1128
  440MPD2    H2 6615   1.595   1.905  15.166  0.5260  1.8352  0.3700
  440MPD2    H3 6616   1.651   1.690  15.102 -0.8090  1.6151  0.8509
  440MPD2     N 6617   2.082   1.705  15.231  0.1684  0.6722  0.3660
  440MPD2    H5 6618   2.078   1.604  15.220  1.2155  0.3389  2.8990
  440MPD2    N1 6619   1.775   2.090  15.281  0.5402 -0.0713 -0.9031
  440MPD2    H7 6620   1.853   2.137  15.325 -0.7634  2.3213 -1.1711
  441TMC3    C1 6621   2.312   1.688  15.318 -1.2147  0.4110  0.0790
  441TMC3    C2 6622   2.426   1.757  15.334  0.4032  0.5380  0.1021
  441TMC3    C3 6623   2.512   1.721  15.437  0.2212  0.1003  0.1348
  441TMC3    C4 6624   2.275   1.590  15.405 -0.5881 -0.3744 -0.5718
  441TMC3    C5 6625   2.362   1.559  15.507  0.4585 -0.2189  0.9358
  441TMC3    C6 6626   2.484   1.611  15.508  0.4198 -0.2514  1.2541
  441TMC3     C 6627   2.191   1.770  15.280  0.3225 -0.1345 -0.6314
  441TMC3     O 6628   2.214   1.889  15.308 -0.8215  0.2658 -0.8768
  441TMC3     H 6629   2.453   1.837  15.266  0.7274  1.1307  0.9273
  441TMC3    H1 6630   2.179   1.543  15.389 -0.2187 -0.9985 -0.9494
  441TMC3    H2 6631   2.548   1.595  15.594 -0.4818 -1.2047  1.7527
  441TMC3    C7 6632   2.297   1.496  15.627 -0.1655 -0.0960 -0.9746
  441TMC3    C8 6633   2.538   1.832  15.520  0.3870  0.9365  0.6423
  441TMC3    O1 6634   2.172   1.495  15.636  0.3781 -0.4945  0.9477
  441TMC3    O2 6635   2.637   1.825  15.591 -0.3084  0.0712  0.0730
  442MPD2     C 6636   0.407   2.564  16.529  0.3411  0.3290  0.0059
  442MPD2    C1 6637   0.278   2.520  16.539 -0.3615  1.0786  0.1127
  442MPD2    C2 6638   0.233   2.417  16.459 -0.2308  0.1169  0.1734
  442MPD2    C3 6639   0.316   2.370  16.360  0.2060  0.6808  0.0189
  442MPD2    C4 6640   0.445   2.417  16.347  0.1765 -0.4525 -0.5859
  442MPD2    C5 6641   0.483   2.513  16.431  0.5187  0.1068 -0.6740
  442MPD2     H 6642   0.128   2.388  16.466 -0.6543  1.3417 -1.1297
  442MPD2    H1 6643   0.514   2.373  16.276  2.4764  1.2240  0.6374
  442MPD2    H2 6644   0.449   2.647  16.583  1.1405 -0.3358  0.4002
  442MPD2    H3 6645   0.581   2.558  16.414  0.8070  0.1541  1.1715
  442MPD2     N 6646   0.275   2.279  16.260  0.0361 -0.4441  0.0684
  442MPD2    H5 6647   0.341   2.259  16.185 -2.6877 -1.3242 -2.0973
  442MPD2    N1 6648   0.172   2.591  16.608 -0.6894 -0.5159  0.1253
  442MPD2    H7 6649   0.082   2.546  16.597 -1.1254  0.1972  0.8528
  443TMC3    C1 6650   0.068   2.748  16.743 -0.1549  0.0999  0.5488
  443TMC3    C2 6651   4.709   2.784  16.654  0.1588  0.1476 -0.4150
  443TMC3    C3 6652   4.580   2.800  16.706  0.0764 -0.4499 -0.2614
  443TMC3    C4 6653   0.036   2.714  16.872  0.4223 -0.4664  0.1480
  443TMC3    C5 6654   4.645   2.725  16.919  0.3149 -0.0580 -0.4105
  443TMC3    C6 6655   4.541   2.757  16.833  0.4972 -0.2022  0.0044
  443TMC3     C 6656   0.193   2.699  16.685 -0.1761 -0.0751 -0.3677
  443TMC3     O 6657   0.298   2.762  16.712 -0.1057 -0.2967  0.6922
  443TMC3     H 6658   0.009   2.796  16.553  0.0827 -0.5382 -0.5286
  443TMC3    H1 6659   0.103   2.665  16.942 -0.2373 -1.6805 -0.0670
  443TMC3    H2 6660   4.438   2.735  16.859  0.9424 -2.2104  0.1251
  443TMC3    C7 6661   4.602   2.627  17.016 -0.1828 -0.3416 -0.9615
  443TMC3    C8 6662   4.475   2.784  16.608  0.5140 -0.3436 -0.9140
  443TMC3    O1 6663   4.654   2.517  17.016  0.3983 -0.6886 -0.5114
  443TMC3    O2 6664   4.401   2.688  16.618 -0.0721  0.0059  0.1444
  444MPD2     C 6665   0.487   1.971  17.138  0.2239 -0.3509  1.4160
  444MPD2    C1 6666   0.378   1.919  17.071  0.3552  0.9411  0.3115
  444MPD2    C2 6667   0.396   1.829  16.968  0.6649  0.4827 -0.5941
  444MPD2    C3 6668   0.524   1.805  16.922 -0.1758 -0.4154  0.2934
  444MPD2    C4 6669   0.632   1.868  16.983 -0.0273  0.0954 -0.0456
  444MPD2    C5 6670   0.613   1.938  17.101 -0.0005 -0.3199  0.8424
  444MPD2     H 6671   0.311   1.778  16.924 -1.3055  2.8691  0.3966
  444MPD2    H1 6672   0.733   1.837  16.962  1.2209  0.8548  4.7319
  444MPD2    H2 6673   0.471   2.043  17.217  1.6603 -0.7163  2.0506
  444MPD2    H3 6674   0.707   1.960  17.152  1.3473  2.6267 -2.9154
  444MPD2     N 6675   0.533   1.704  16.822  0.5565 -0.2514  0.0419
  444MPD2    H5 6676   0.446   1.664  16.789  0.6327  0.2704 -0.7851
  444MPD2    N1 6677   0.247   1.956  17.104  0.3628  0.2306  0.0817
  444MPD2    H7 6678   0.171   1.921  17.046 -0.3961  1.1736  0.5108
  445TMC3    C1 6679   0.636   1.555  16.676  0.5872  0.5985  0.0547
  445TMC3    C2 6680   0.517   1.539  16.598 -0.0415 -0.5206  0.7535
  445TMC3    C3 6681   0.524   1.437  16.504  0.5021  0.1001 -0.2362
  445TMC3    C4 6682   0.744   1.478  16.638  0.2137  0.6702  0.4769
  445TMC3    C5 6683   0.740   1.387  16.549 -0.9605  0.4856 -0.0704
  445TMC3    C6 6684   0.626   1.351  16.487 -0.4181 -0.2339  0.0653
  445TMC3     C 6685   0.651   1.643  16.783 -0.2440 -1.0353  0.2844
  445TMC3     O 6686   0.763   1.652  16.837  0.5093 -0.0435  0.0312
  445TMC3     H 6687   0.437   1.612  16.597  1.9075  1.6445 -0.2895
  445TMC3    H1 6688   0.830   1.474  16.705  0.2085 -3.3191  0.2406
  445TMC3    H2 6689   0.624   1.270  16.415  1.8391  0.4795 -0.7821
  445TMC3    C7 6690   0.859   1.299  16.528 -0.5995 -0.1343 -0.3744
  445TMC3    C8 6691   0.419   1.441  16.405 -0.0702 -0.4998  0.5032
  445TMC3    O1 6692   0.967   1.351  16.552  0.6742  0.6970  0.1958
  445TMC3    O2 6693   0.333   1.524  16.422 -0.1395 -0.2262 -0.2737
  446MPD2     C 6694   3.896   2.580  11.476  0.1259 -1.1846  0.0322
  446MPD2    C1 6695   3.885   2.632  11.347 -0.2105 -0.0535 -0.6720
  446MPD2    C2 6696   3.964   2.736  11.301  0.6817 -0.4659  0.2028
  446MPD2    C3 6697   4.048   2.803  11.390 -0.4456 -0.1808  0.2559
  446MPD2    C4 6698   4.038   2.760  11.520  0.3968  0.0592 -0.0280
  446MPD2    C5 6699   3.969   2.654  11.562 -0.4803 -0.0660  0.0112
  446MPD2     H 6700   3.962   2.779  11.201  1.4810  2.1805  1.3152
  446MPD2    H1 6701   4.086   2.808  11.604 -0.9087  0.6395  0.3954
  446MPD2    H2 6702   3.833   2.501  11.515  0.5807 -1.4888  0.1428
  446MPD2    H3 6703   3.972   2.640  11.669 -0.1390 -0.1262 -0.0057
  446MPD2     N 6704   4.148   2.894  11.351 -0.0110  0.7509 -0.0680
  446MPD2    H5 6705   4.154   2.911  11.251  0.3816  0.0480 -0.1682
  446MPD2    N1 6706   3.795   2.581  11.250  0.3966  0.5187  0.2425
  446MPD2    H7 6707   3.786   2.626  11.160 -2.6689  0.3834  0.5071
  447TMC3    C1 6708   4.359   3.008  11.365 -0.2261 -0.1031 -0.0047
  447TMC3    C2 6709   4.351   3.069  11.241 -0.4497  0.4150 -0.3583
  447TMC3    C3 6710   4.449   3.150  11.207 -0.9261  0.2572 -0.0782
  447TMC3    C4 6711   4.467   3.027  11.443  0.3232  0.8202  0.4579
  447TMC3    C5 6712   4.569   3.100  11.397 -0.5702 -0.8959 -0.0428
  447TMC3    C6 6713   4.569   3.162  11.279 -0.0588 -0.1536 -0.1475
  447TMC3     C 6714   4.256   2.923  11.429  0.0179 -0.2091 -0.4231
  447TMC3     O 6715   4.287   2.888  11.541  0.6051 -0.1716 -0.3062
  447TMC3     H 6716   4.260   3.075  11.183  0.0529  0.2174 -1.1700
  447TMC3    H1 6717   4.474   3.000  11.547  0.0933 -0.0373  0.2538
  447TMC3    H2 6718   4.653   3.221  11.245 -0.0926 -0.5127 -0.8672
  447TMC3    C7 6719   4.701   3.096  11.459  0.1068  0.1477 -0.2000
  447TMC3    C8 6720   4.442   3.211  11.077 -0.5987  0.0499 -0.1498
  447TMC3    O1 6721   0.044   3.185  11.443 -0.2357 -0.0943  0.9681
  447TMC3    O2 6722   4.370   3.163  10.994 -0.2974  0.4001  0.3515
  448TMC3    C1 6723   3.305   3.142  17.074 -0.7722  0.2592 -0.8000
  448TMC3    C2 6724   3.318   3.063  16.973  0.0735  0.5672 -0.7184
  448TMC3    C3 6725   3.396   2.955  16.979 -0.0965 -0.1762 -0.1414
  448TMC3    C4 6726   3.352   3.106  17.200  0.0956 -0.1104  0.3948
  448TMC3    C5 6727   3.426   2.990  17.214  0.7106  0.0882 -0.9300
  448TMC3    C6 6728   3.446   2.909  17.098  0.4378  0.0862 -0.2547
  448TMC3     C 6729   3.211   3.245  17.078 -0.5658 -0.8926  0.4118
  448TMC3     O 6730   3.213   3.335  17.159 -0.8293 -0.1592  0.4341
  448TMC3     H 6731   3.285   3.093  16.874 -0.6909 -0.9364 -0.9260
  448TMC3    H1 6732   3.351   3.175  17.283  3.6621  0.6593 -0.1949
  448TMC3    H2 6733   3.502   2.817  17.109 -0.4385 -0.8960 -4.2792
  448TMC3    C7 6734   3.491   2.959  17.337  0.4822  0.3081 -0.3884
  448TMC3    C8 6735   3.389   2.849  16.879  0.4150  0.2171 -0.9229
  448TMC3    O1 6736   3.589   2.885  17.342  0.5564  0.0861  0.2053
  448TMC3    O2 6737   3.482   2.771  16.890  0.1673  0.6752  0.2523
  449MPD2     C 6738   4.403   1.710  13.937 -0.2911 -0.5109 -0.6880
  449MPD2    C1 6739   4.270   1.716  13.950 -0.4420 -0.3208  0.7630
  449MPD2    C2 6740   4.203   1.624  14.031  0.4050 -0.1588  0.5708
  449MPD2    C3 6741   4.266   1.525  14.090 -0.1757 -0.0918  0.5111
  449MPD2    C4 6742   4.403   1.512  14.082 -0.5469 -0.0282 -0.0844
  449MPD2    C5 6743   4.470   1.610  14.006 -0.3504 -0.7723 -0.0182
  449MPD2     H 6744   4.094   1.623  14.032  0.4049 -0.5045  0.2487
  449MPD2    H1 6745   4.465   1.437  14.129 -0.3868  1.4069  1.9729
  449MPD2    H2 6746   4.466   1.778  13.881 -2.0552 -0.7669 -2.9450
  449MPD2    H3 6747   4.577   1.597  13.997 -0.2692 -1.7368  2.3365
  449MPD2     N 6748   4.183   1.430  14.156  0.5036 -1.0225 -0.2284
  449MPD2    H5 6749   4.083   1.442  14.142  0.9882  0.9104 -2.1255
  449MPD2    N1 6750   4.190   1.815  13.890  0.1170 -0.0785 -0.9251
  449MPD2    H7 6751   4.090   1.815  13.907  0.5065 -0.4361  1.4070
  450TMC3    C1 6752   4.096   1.957  13.728  0.3075 -0.8661  0.3454
  450TMC3    C2 6753   4.090   1.907  13.599 -0.6037 -0.3346 -0.1408
  450TMC3    C3 6754   3.975   1.857  13.547 -0.1751  0.5290  0.3264
  450TMC3    C4 6755   3.981   1.949  13.800  0.4006 -0.6450 -0.3471
  450TMC3    C5 6756   3.860   1.913  13.741  0.1444 -0.1037 -0.6289
  450TMC3    C6 6757   3.850   1.876  13.608  1.2005 -0.0843 -0.0967
  450TMC3     C 6758   4.224   1.909  13.798 -0.4675 -0.5093 -0.2758
  450TMC3     O 6759   4.335   1.930  13.750 -0.2405  0.4687  0.1418
  450TMC3     H 6760   4.190   1.910  13.557 -1.0216 -2.6488 -1.2775
  450TMC3    H1 6761   3.978   1.961  13.908 -0.9935  1.5662 -0.6445
  450TMC3    H2 6762   3.759   1.838  13.564  0.4908 -0.1396  1.4285
  450TMC3    C7 6763   3.814   1.808  13.826  0.0965  0.4321  1.2998
  450TMC3    C8 6764   3.987   1.730  13.469 -0.4478 -0.6414 -0.1634
  450TMC3    O1 6765   3.910   1.751  13.877 -0.2095  0.3471  0.0186
  450TMC3    O2 6766   3.885   1.670  13.444 -0.0032 -0.5452  0.3416
  451MPD2     C 6767   1.003   0.192   1.259 -0.4215  0.4359 -0.4105
  451MPD2    C1 6768   1.064   0.269   1.164  0.6431  0.2935  0.1813
  451MPD2    C2 6769   1.156   0.213   1.079 -0.1738  0.7272  0.6771
  451MPD2    C3 6770   1.187   0.079   1.080 -0.0272 -0.3648  0.3806
  451MPD2    C4 6771   1.124   0.000   1.176  0.0500  0.5980  0.0043
  451MPD2    C5 6772   1.035   0.060   1.265 -0.1448  0.6980 -0.0591
  451MPD2     H 6773   1.188   0.280   1.001  0.8594 -1.3836 -0.7093
  451MPD2    H1 6774   1.135   4.632   1.180  0.2094  0.5490 -1.6049
  451MPD2    H2 6775   0.938   0.232   1.336 -1.2387 -0.3106 -0.7104
  451MPD2    H3 6776   0.998   4.736   1.344  0.4865 -0.6076 -0.8085
  451MPD2     N 6777   1.272   0.021   0.980  1.1778  0.0946 -0.2615
  451MPD2    H5 6778   1.289   0.081   0.900 -0.9439  1.1276  0.0689
  451MPD2    N1 6779   1.020   0.405   1.154  0.3430  0.9095  0.3904
  451MPD2    H7 6780   0.952   0.449   1.217  0.6608  0.5330  0.9998
  452TMC3    C1 6781   1.387   4.610   0.836 -0.5622  0.8086  0.5611
  452TMC3    C2 6782   1.412   4.479   0.792  0.4422  0.1268 -0.3852
  452TMC3    C3 6783   1.506   4.458   0.697  0.2009  0.3043  0.1178
  452TMC3    C4 6784   1.475   4.710   0.794 -0.2668  0.3036 -0.5559
  452TMC3    C5 6785   1.583   4.681   0.716 -0.7508 -0.1165 -0.9730
  452TMC3    C6 6786   1.596   4.558   0.657  0.6205  0.3981  0.0705
  452TMC3     C 6787   1.310   4.628   0.967 -0.5552  0.1062  0.5415
  452TMC3     O 6788   1.298   4.531   1.037  0.5524  0.4835 -0.1121
  452TMC3     H 6789   1.350   4.404   0.840  0.0081  1.2508  0.8199
  452TMC3    H1 6790   1.453   0.069   0.835 -1.4841 -0.4582  0.6248
  452TMC3    H2 6791   1.666   4.534   0.577  0.3336 -3.1866  0.8626
  452TMC3    C7 6792   1.654   0.055   0.660  0.5723  0.7397  0.1963
  452TMC3    C8 6793   1.469   4.353   0.609 -0.1314 -0.3757  0.1776
  452TMC3    O1 6794   1.581   0.155   0.670 -0.4213 -0.3277 -0.0133
  452TMC3    O2 6795   1.348   4.347   0.597 -0.1793 -0.0919  0.3765
  453TMC3    C1 6796   1.830   2.001  11.720 -0.1080 -0.7115 -0.0135
  453TMC3    C2 6797   1.714   1.956  11.769  0.1217  0.1592 -0.3289
  453TMC3    C3 6798   1.650   1.855  11.701  0.2363  0.6977  0.1223
  453TMC3    C4 6799   1.886   1.957  11.599  0.9941  0.2075 -0.1714
  453TMC3    C5 6800   1.823   1.846  11.538 -0.2416  0.4259  0.4208
  453TMC3    C6 6801   1.699   1.801  11.585  0.1218  0.2351  0.0680
  453TMC3     C 6802   1.911   2.082  11.802 -0.6321 -0.3699  0.4471
  453TMC3     O 6803   1.916   2.048  11.919 -0.3281 -0.0879 -0.5218
  453TMC3     H 6804   1.676   1.999  11.862 -0.4257  0.4802 -0.6960
  453TMC3    H1 6805   1.978   1.999  11.561  2.4359 -2.7318  0.0860
  453TMC3    H2 6806   1.652   1.711  11.547 -0.1127  1.4807 -2.6244
  453TMC3    C7 6807   1.869   1.805  11.409  0.1367  0.6303 -0.3873
  453TMC3    C8 6808   1.577   1.756  11.780  0.3833 -0.2493 -0.6892
  453TMC3    O1 6809   1.987   1.841  11.382  0.0571 -0.1155  0.0459
  453TMC3    O2 6810   1.483   1.708  11.726  0.1060  0.4499 -0.0321
  454MPD2     C 6811   1.206   1.795  16.395 -0.0733 -0.0691  1.1353
  454MPD2    C1 6812   1.131   1.825  16.279 -0.3058 -0.3616  0.4461
  454MPD2    C2 6813   1.051   1.937  16.290  0.0917  0.2236 -0.0649
  454MPD2    C3 6814   1.039   2.011  16.409 -0.2038 -0.1219 -0.7007
  454MPD2    C4 6815   1.121   1.980  16.517 -0.1013 -0.0337  0.1718
  454MPD2    C5 6816   1.208   1.881  16.502  0.4366 -0.0444 -0.7377
  454MPD2     H 6817   0.981   1.953  16.210  0.8801 -0.3527 -0.8744
  454MPD2    H1 6818   1.119   2.044  16.604  0.1895 -1.4479  1.2120
  454MPD2    H2 6819   1.268   1.706  16.393 -0.2193 -0.2138  2.6783
  454MPD2    H3 6820   1.273   1.878  16.588  1.3305  1.2279 -1.3552
  454MPD2     N 6821   0.941   2.109  16.421 -0.1922  0.1039 -0.1598
  454MPD2    H5 6822   0.906   2.131  16.514  0.4983 -0.5471  0.2512
  454MPD2    N1 6823   1.125   1.752  16.158 -0.0938 -0.2739  0.5577
  454MPD2    H7 6824   1.063   1.798  16.092  0.4681 -1.1490 -0.5772
  455TMC3    C1 6825   0.740   2.186  16.349  0.0008  0.6781 -0.3583
  455TMC3    C2 6826   0.730   2.203  16.487 -0.0734  0.0082 -0.1848
  455TMC3    C3 6827   0.615   2.158  16.543 -0.4231 -0.0140  0.1033
  455TMC3    C4 6828   0.651   2.122  16.274 -0.3220 -0.5154 -0.6240
  455TMC3    C5 6829   0.540   2.070  16.341 -0.3193  0.0781  0.8942
  455TMC3    C6 6830   0.526   2.080  16.477 -0.2295 -0.8549  0.6486
  455TMC3     C 6831   0.873   2.159  16.313 -0.5615  0.2308 -0.5021
  455TMC3     O 6832   0.890   2.154  16.191 -0.2242 -0.4216 -0.0083
  455TMC3     H 6833   0.794   2.274  16.538  0.1158 -0.5984  0.4217
  455TMC3    H1 6834   0.656   2.090  16.171  3.2958  0.9303 -0.8767
  455TMC3    H2 6835   0.468   2.010  16.536 -2.8735  0.7767 -0.0412
  455TMC3    C7 6836   0.528   1.934  16.295  0.2139  0.6227  0.6899
  455TMC3    C8 6837   0.602   2.181  16.690  0.0700 -0.2531  0.7255
  455TMC3    O1 6838   0.424   1.893  16.249  0.2664 -0.2974  0.2151
  455TMC3    O2 6839   0.703   2.204  16.758  0.5305  0.0581 -0.0975
  456MPD2     C 6840   3.646   1.657  16.130 -0.7060 -0.0348 -0.1005
  456MPD2    C1 6841   3.695   1.600  16.248 -0.1046 -0.1621  0.0028
  456MPD2    C2 6842   3.657   1.653  16.373 -0.0428 -0.6782  0.6450
  456MPD2    C3 6843   3.589   1.772  16.374 -0.2973  0.1917 -0.6754
  456MPD2    C4 6844   3.553   1.829  16.258  0.6217  0.3766 -0.1261
  456MPD2    C5 6845   3.572   1.769  16.135  0.5208  0.0665 -0.4703
  456MPD2     H 6846   3.706   1.617  16.463 -0.0613  2.1899  1.7765
  456MPD2    H1 6847   3.487   1.915  16.247  0.6941  0.5676  0.9664
  456MPD2    H2 6848   3.670   1.619  16.031 -0.9598 -0.2959 -0.0611
  456MPD2    H3 6849   3.542   1.817  16.043  0.9829 -0.4395 -0.8876
  456MPD2     N 6850   3.549   1.825  16.497  0.2394  0.1847 -0.3016
  456MPD2    H5 6851   3.562   1.777  16.585  0.8471  0.1161 -0.4274
  456MPD2    N1 6852   3.772   1.481  16.237  0.6916 -0.4810  0.0756
  456MPD2    H7 6853   3.788   1.450  16.142 -0.1165  0.8759 -0.4856
  457TMC3    C1 6854   3.462   1.990  16.653 -0.1148 -0.2147 -0.1898
  457TMC3    C2 6855   3.388   2.103  16.671 -0.2090 -0.4588  0.3920
  457TMC3    C3 6856   3.391   2.166  16.791  0.8668 -0.0967  0.3932
  457TMC3    C4 6857   3.555   1.968  16.750  0.8950  0.0605  0.2719
  457TMC3    C5 6858   3.561   2.029  16.873  0.1481  0.3693  0.0633
  457TMC3    C6 6859   3.472   2.128  16.896 -0.2645  0.2890  0.2523
  457TMC3     C 6860   3.468   1.939  16.515 -0.1604 -0.3622 -0.3318
  457TMC3     O 6861   3.401   2.002  16.436  0.0760 -0.0404 -0.7139
  457TMC3     H 6862   3.311   2.124  16.597  1.7008  0.3030 -1.3674
  457TMC3    H1 6863   3.637   1.899  16.729  1.1402  0.5591 -0.4052
  457TMC3    H2 6864   3.471   2.174  16.994 -4.5074 -0.8788  0.7422
  457TMC3    C7 6865   3.671   2.018  16.964 -0.1467  0.7631 -0.0183
  457TMC3    C8 6866   3.338   2.301  16.806  0.0085  0.5951 -0.1425
  457TMC3    O1 6867   3.702   1.908  16.992 -0.4508  0.0892 -0.1922
  457TMC3    O2 6868   3.339   2.350  16.921  0.0600  0.2282  0.6123
  458MPD2     C 6869   0.918   1.291  12.850 -0.4316  0.0851 -1.0221
  458MPD2    C1 6870   0.933   1.153  12.865  0.4329 -0.3564  0.4721
  458MPD2    C2 6871   0.833   1.060  12.821  0.0206 -0.5640  0.1520
  458MPD2    C3 6872   0.717   1.123  12.776 -0.2898 -0.2598 -0.2866
  458MPD2    C4 6873   0.706   1.259  12.772  0.2274 -0.3420  0.0257
  458MPD2    C5 6874   0.805   1.343  12.803 -0.0811 -0.0984  0.1166
  458MPD2     H 6875   0.833   0.952  12.827 -1.0263 -0.4478  2.0018
  458MPD2    H1 6876   0.609   1.302  12.747  0.7016 -1.5380 -3.8468
  458MPD2    H2 6877   0.994   1.362  12.882 -1.4231  0.5930  0.1919
  458MPD2    H3 6878   0.804   1.450  12.785 -0.1894 -0.4892 -2.2665
  458MPD2     N 6879   0.605   1.034  12.764  0.0757 -0.5380 -0.8089
  458MPD2    H5 6880   0.616   0.937  12.793 -0.6447  0.6776  3.4831
  458MPD2    N1 6881   1.050   1.109  12.935 -0.3475  0.6236 -0.1389
  458MPD2    H7 6882   1.113   1.172  12.983  1.8249 -1.7753  0.1497
  459TMC3    C1 6883   1.199   0.960  13.033 -0.4463 -0.1147  0.9135
  459TMC3    C2 6884   1.300   1.049  12.995 -0.0208 -0.7999 -0.1103
  459TMC3    C3 6885   1.411   1.028  13.068  0.2644 -0.0280  0.9908
  459TMC3    C4 6886   1.205   0.865  13.132  0.0362 -0.3825 -0.3914
  459TMC3    C5 6887   1.319   0.864  13.211  0.1094  0.7809  0.1142
  459TMC3    C6 6888   1.432   0.926  13.161  0.3369 -0.6791 -0.6645
  459TMC3     C 6889   1.074   0.975  12.962 -0.7337  0.2848 -0.3284
  459TMC3     O 6890   1.014   0.871  12.939  0.4029  0.3480  0.6076
  459TMC3     H 6891   1.289   1.121  12.916 -0.8958  1.1573  1.7901
  459TMC3    H1 6892   1.115   0.809  13.156  0.4597 -0.4716  1.0016
  459TMC3    H2 6893   1.525   0.910  13.214 -0.9067  0.3367  1.8534
  459TMC3    C7 6894   1.353   0.743  13.280  0.3051  0.2719  0.0333
  459TMC3    C8 6895   1.524   1.113  13.056 -0.5158 -0.2036  0.1273
  459TMC3    O1 6896   1.451   0.681  13.247 -0.2689  0.2098 -0.7146
  459TMC3    O2 6897   1.632   1.072  13.100 -0.0913 -0.5670  0.2507
  460MPD2     C 6898   4.701   3.444  10.942 -0.6793 -0.3652 -0.1156
  460MPD2    C1 6899   4.595   3.352  10.931  0.6575 -0.0215 -0.0989
  460MPD2    C2 6900   4.545   3.317  10.803  0.2682  0.2562 -0.6089
  460MPD2    C3 6901   4.591   3.386  10.693 -0.1898 -0.5052 -1.0186
  460MPD2    C4 6902   4.687   3.485  10.710 -0.3976  0.2339  0.1256
  460MPD2    C5 6903   0.004   3.512  10.831 -0.1763 -0.0459  0.0622
  460MPD2     H 6904   4.466   3.243  10.795 -0.3663  0.9391 -0.6929
  460MPD2    H1 6905   4.717   3.563  10.640 -0.4882  0.0923 -0.0723
  460MPD2    H2 6906   0.003   3.473  11.038 -2.4540  0.4947  0.3944
  460MPD2    H3 6907   0.076   3.593  10.837  1.1562 -1.3675  1.9942
  460MPD2     N 6908   4.531   3.374  10.570 -0.5651 -0.0974 -0.0575
  460MPD2    H5 6909   4.549   3.448  10.503 -0.2633 -0.1811 -0.0692
  460MPD2    N1 6910   4.553   3.293  11.049 -0.0325 -0.6504  0.4438
  460MPD2    H7 6911   4.599   3.320  11.135 -1.2377  0.5099  0.7361
  461TMC3    C1 6912   4.427   3.279  10.386  0.0397 -0.3473  0.2394
  461TMC3    C2 6913   4.439   3.173  10.306  0.5116  0.6579 -0.1605
  461TMC3    C3 6914   4.398   3.183  10.174  0.3769  0.0320  0.3128
  461TMC3    C4 6915   4.384   3.404  10.352  0.0043 -0.0589  0.0838
  461TMC3    C5 6916   4.353   3.405  10.223  0.3176 -0.0435  0.0873
  461TMC3    C6 6917   4.358   3.303  10.137 -0.4009 -0.4605  0.2065
  461TMC3     C 6918   4.479   3.257  10.515  0.8288  0.2235  0.2703
  461TMC3     O 6919   4.473   3.143  10.560  0.0327  0.8583 -0.0510
  461TMC3     H 6920   4.489   3.081  10.332  2.6192  1.5788 -0.9791
  461TMC3    H1 6921   4.345   3.479  10.419  0.4498  1.0507 -0.9108
  461TMC3    H2 6922   4.343   3.327  10.032 -0.8133 -1.2969  0.0743
  461TMC3    C7 6923   4.280   3.521  10.176  0.2639  0.0907  0.4052
  461TMC3    C8 6924   4.464   3.099  10.076 -0.2577  0.9333  0.0111
  461TMC3    O1 6925   4.200   3.502  10.084  0.4419  0.3147 -0.1110
  461TMC3    O2 6926   4.543   3.015  10.122 -0.9345  0.1340  0.0085
  462TMC3    C1 6927   0.528   0.147   0.368 -0.1209 -0.5865  0.4900
  462TMC3    C2 6928   0.568   0.215   0.254  0.0246  0.4025 -0.1921
  462TMC3    C3 6929   0.460   0.247   0.173 -0.6788  0.0018 -0.0492
  462TMC3    C4 6930   0.402   0.106   0.396  0.3092 -0.3041 -1.0765
  462TMC3    C5 6931   0.303   0.154   0.318 -0.0697 -1.0999  0.0959
  462TMC3    C6 6932   0.332   0.229   0.208 -0.8461  0.4440 -0.7974
  462TMC3     C 6933   0.638   0.092   0.454 -0.0109 -0.1046  0.5494
  462TMC3     O 6934   0.728   0.024   0.411  0.2465  0.0011  0.0478
  462TMC3     H 6935   0.672   0.244   0.242  0.7610 -2.5019 -0.8438
  462TMC3    H1 6936   0.372   0.056   0.487  0.2513 -2.5510 -2.3217
  462TMC3    H2 6937   0.257   0.253   0.134  1.0524 -0.1527 -2.9067
  462TMC3    C7 6938   0.193   0.063   0.303  0.4919 -0.6558 -0.2163
  462TMC3    C8 6939   0.473   0.304   0.039  0.6626 -0.7125 -0.4820
  462TMC3    O1 6940   0.206   4.705   0.371 -0.0880 -0.5106  0.6639
  462TMC3    O2 6941   0.392   0.386   0.001 -0.5083 -0.1796 -0.1279
  463MPD2     C 6942   2.486   2.792   1.491 -0.4727 -0.0063  0.0749
  463MPD2    C1 6943   2.421   2.913   1.480  0.1956 -0.4506  0.3896
  463MPD2    C2 6944   2.498   3.022   1.460  0.4038 -0.2243 -0.9464
  463MPD2    C3 6945   2.639   3.007   1.468  0.2405 -0.3362 -0.1347
  463MPD2    C4 6946   2.706   2.883   1.486 -0.4556  0.3317  0.4032
  463MPD2    C5 6947   2.625   2.776   1.495  0.2783  0.1845  0.2175
  463MPD2     H 6948   2.453   3.118   1.438  2.5233  1.2155  0.8908
  463MPD2    H1 6949   2.814   2.877   1.490 -0.4468 -1.1025 -1.4897
  463MPD2    H2 6950   2.434   2.697   1.485 -0.4332  0.0572 -1.2138
  463MPD2    H3 6951   2.665   2.675   1.496 -2.2969 -0.8304  0.8458
  463MPD2     N 6952   2.730   3.109   1.448  0.2590  0.3654  0.4537
  463MPD2    H5 6953   2.828   3.085   1.438 -0.3170 -2.0053  0.4900
  463MPD2    N1 6954   2.276   2.925   1.469 -0.1135 -0.3111 -0.4706
  463MPD2    H7 6955   2.244   3.021   1.473  0.5574 -0.1002 -0.0984
  464TMC3    C1 6956   2.044   2.884   1.458 -0.2475 -0.0226  0.3169
  464TMC3    C2 6957   2.027   2.997   1.381  0.0910  0.9120 -0.3514
  464TMC3    C3 6958   1.903   3.049   1.375  0.0608  0.1819 -0.8677
  464TMC3    C4 6959   1.942   2.821   1.519  0.2510 -0.4872 -0.1046
  464TMC3    C5 6960   1.814   2.867   1.497 -0.0379  0.4251  1.1651
  464TMC3    C6 6961   1.792   2.982   1.425  0.8794  0.0504  0.2068
  464TMC3     C 6962   2.182   2.827   1.468 -0.0299  0.5313 -0.4584
  464TMC3     O 6963   2.191   2.710   1.495  0.1003 -0.6064 -0.1139
  464TMC3     H 6964   2.114   3.049   1.343  0.7820 -0.0889 -0.1365
  464TMC3    H1 6965   1.953   2.735   1.584  1.2501  0.9880  1.6495
  464TMC3    H2 6966   1.693   3.020   1.405  0.8683  2.0597  4.0748
  464TMC3    C7 6967   1.708   2.789   1.560 -0.4127 -0.4117  0.2436
  464TMC3    C8 6968   1.881   3.187   1.316 -0.0472 -0.1522 -0.5534
  464TMC3    O1 6969   1.734   2.693   1.631 -0.1030  0.2225 -0.5297
  464TMC3    O2 6970   1.772   3.204   1.259 -0.4428  0.0202 -0.1152
  465MPD2     C 6971   2.849   2.201  16.835 -0.2262 -0.7701 -0.2491
  465MPD2    C1 6972   2.734   2.157  16.892  0.2490 -0.2840 -0.0173
  465MPD2    C2 6973   2.619   2.134  16.812  1.0880 -0.4948  0.4905
  465MPD2    C3 6974   2.632   2.148  16.669 -0.0808 -0.1535  1.1137
  465MPD2    C4 6975   2.756   2.188  16.613 -0.3199 -0.9994  0.2616
  465MPD2    C5 6976   2.861   2.208  16.695 -0.1251 -0.7030 -0.7411
  465MPD2     H 6977   2.524   2.102  16.851  0.0963  1.7688 -0.0707
  465MPD2    H1 6978   2.765   2.215  16.509  0.4063  1.2626  0.9099
  465MPD2    H2 6979   2.936   2.210  16.899 -0.1186 -2.1432 -0.2078
  465MPD2    H3 6980   2.953   2.242  16.649 -0.4318 -0.8040 -1.4416
  465MPD2     N 6981   2.521   2.112  16.587 -0.3866 -0.0201 -0.2696
  465MPD2    H5 6982   2.444   2.067  16.636  0.9760 -2.4991 -0.4316
  465MPD2    N1 6983   2.723   2.172  17.033  0.4535 -0.3093 -0.0541
  465MPD2    H7 6984   2.627   2.161  17.065 -0.7753  3.1800 -2.5548
  466TMC3    C1 6985   2.165   2.084  16.559 -0.6689 -0.0665  0.3029
  466TMC3    C2 6986   2.117   2.212  16.539  0.0546  1.0949 -0.3304
  466TMC3    C3 6987   2.187   2.289  16.452  0.2531 -0.6805 -0.4783
  466TMC3    C4 6988   2.283   2.047  16.492 -0.4619 -0.4303 -0.2417
  466TMC3    C5 6989   2.351   2.141  16.424  0.7854  0.1562 -0.5779
  466TMC3    C6 6990   2.297   2.259  16.383 -0.6535  0.3474 -0.3545
  466TMC3     C 6991   2.183   2.052  16.697  1.0845 -0.1754 -0.0661
  466TMC3     O 6992   2.289   2.002  16.733 -0.4130  0.1662  0.4216
  466TMC3     H 6993   2.023   2.246  16.581 -0.3102 -0.5166  0.1439
  466TMC3    H1 6994   2.330   1.952  16.514  1.6506  0.4982 -0.7437
  466TMC3    H2 6995   2.361   2.336  16.341  1.1580 -1.0718 -0.1931
  466TMC3    C7 6996   2.495   2.143  16.452 -0.1377 -0.3558  0.0925
  466TMC3    C8 6997   2.168   2.435  16.459 -0.1295  0.2952 -0.0024
  466TMC3    O1 6998   2.564   2.206  16.374  0.2494  0.3079  0.2135
  466TMC3    O2 6999   2.197   2.499  16.358  0.1931  0.5296 -0.1973
  467TMC3    C1 7000   3.483   4.695  14.163  0.4505 -0.1425  0.3717
  467TMC3    C2 7001   3.422   0.001  14.050 -0.2768  0.3756 -0.1214
  467TMC3    C3 7002   3.313   0.080  14.069  0.6383 -0.2094  0.4818
  467TMC3    C4 7003   3.432   4.708  14.286  0.7198  0.1216 -0.2717
  467TMC3    C5 7004   3.318   0.042  14.296  0.5623 -0.2079  0.1649
  467TMC3    C6 7005   3.265   0.107  14.192  0.4778 -0.6326  0.0727
  467TMC3     C 7006   3.628   4.667  14.164  0.7679 -0.2486 -0.8480
  467TMC3     O 7007   3.683   4.676  14.274  0.5916 -0.4168 -0.3921
  467TMC3     H 7008   3.476   4.736  13.956  1.6649  0.9048  0.9887
  467TMC3    H1 7009   3.471   4.646  14.366  2.6470  0.5336 -0.8689
  467TMC3    H2 7010   3.195   0.189  14.202  2.1914  0.8422  0.1657
  467TMC3    C7 7011   3.239   0.025  14.415  0.3955  0.2381  0.2390
  467TMC3    C8 7012   3.337   0.208  14.003 -0.3205 -0.2329  0.5387
  467TMC3    O1 7013   3.296   4.737  14.519 -0.2612  0.2216 -0.3566
  467TMC3    O2 7014   3.366   0.296  14.083 -0.3269 -0.1762 -0.2473
  468MPD2     C 7015   1.552   2.943  10.883  0.1781  0.8203 -0.2243
  468MPD2    C1 7016   1.613   2.961  11.002  0.1382 -0.0434 -0.8632
  468MPD2    C2 7017   1.652   2.849  11.074  0.3314 -0.1607  0.1958
  468MPD2    C3 7018   1.647   2.724  11.017 -0.1119 -0.5973  0.1566
  468MPD2    C4 7019   1.585   2.711  10.895  0.9536 -0.5647 -0.2300
  468MPD2    C5 7020   1.535   2.820  10.834  0.3113  0.0975  0.6252
  468MPD2     H 7021   1.685   2.858  11.177  0.9318  0.8520 -0.0826
  468MPD2    H1 7022   1.577   2.611  10.856 -1.9617 -0.3588 -0.1591
  468MPD2    H2 7023   1.530   3.020  10.809  1.5364 -1.0009 -2.4998
  468MPD2    H3 7024   1.487   2.801  10.739  0.6071  0.5091  0.3891
  468MPD2     N 7025   1.653   2.599  11.091 -0.9826  0.4558  0.7582
  468MPD2    H5 7026   1.637   2.515  11.038  0.3575  1.4964 -1.2814
  468MPD2    N1 7027   1.643   3.081  11.073 -0.4215  0.5907  0.8254
  468MPD2    H7 7028   1.695   3.063  11.158 -2.0322 -0.2552  1.6289
  469TMC3    C1 7029   1.684   3.312  11.093  0.2770 -0.0280  0.0875
  469TMC3    C2 7030   1.715   3.293  11.221 -0.1045  0.0410  0.3755
  469TMC3    C3 7031   1.780   3.396  11.284  0.6510 -0.4557 -0.1348
  469TMC3    C4 7032   1.725   3.417  11.012 -0.3472 -0.2116  0.1534
  469TMC3    C5 7033   1.782   3.520  11.079  1.0990 -0.0446  0.2885
  469TMC3    C6 7034   1.819   3.513  11.213 -0.5819  0.1829  0.1126
  469TMC3     C 7035   1.610   3.206  11.028  0.3160 -0.1933 -0.2173
  469TMC3     O 7036   1.531   3.240  10.940 -0.5619  0.4408 -0.0954
  469TMC3     H 7037   1.659   3.219  11.278  1.1818 -0.5104  0.9260
  469TMC3    H1 7038   1.695   3.430  10.908 -0.3837 -0.5134  0.1267
  469TMC3    H2 7039   1.875   3.588  11.268 -3.1106  2.2600 -0.1243
  469TMC3    C7 7040   1.755   3.654  11.019  0.2189  0.1818 -0.6147
  469TMC3    C8 7041   1.766   3.406  11.429  0.4211  0.3505 -0.6340
  469TMC3    O1 7042   1.754   3.657  10.897 -0.4816  0.8876  0.4401
  469TMC3    O2 7043   1.706   3.313  11.480  0.3135 -0.1923  0.0086
  470TMC3    C1 7044   4.438   0.031   1.188 -0.2944 -0.0524 -0.0360
  470TMC3    C2 7045   4.431   0.170   1.209  0.3791 -0.6655 -0.3639
  470TMC3    C3 7046   4.546   0.227   1.251 -0.6272  0.4824 -0.6777
  470TMC3    C4 7047   4.542   4.694   1.234 -0.0967  0.4287 -0.2908
  470TMC3    C5 7048   4.648   0.019   1.288 -0.4338  0.0013  0.4129
  470TMC3    C6 7049   4.657   0.153   1.290 -0.4915 -0.1403  0.0119
  470TMC3     C 7050   4.313   4.701   1.152  0.2414  0.3192 -0.2115
  470TMC3     O 7051   4.311   4.590   1.199 -0.0115 -0.3617 -0.8695
  470TMC3     H 7052   4.344   0.228   1.181  0.1178 -0.4440  0.9138
  470TMC3    H1 7053   4.532   4.588   1.213 -0.4080  0.9319 -2.7144
  470TMC3    H2 7054   0.005   0.208   1.324  0.1388  0.0134 -1.8548
  470TMC3    C7 7055   0.030   4.688   1.331 -0.1148 -0.0124 -0.3704
  470TMC3    C8 7056   4.557   0.371   1.266 -1.0709 -0.7707 -0.0048
  470TMC3    O1 7057   0.136   0.012   1.336 -0.0943 -0.1091 -0.1871
  470TMC3    O2 7058   4.655   0.408   1.330  0.3340 -0.0259 -0.4736
  471MPD2     C 7059   0.430   1.099  16.665  0.1100 -0.0606  0.4592
  471MPD2    C1 7060   0.462   0.980  16.611  0.1106  0.2931 -0.0730
  471MPD2    C2 7061   0.569   0.907  16.658 -0.4806  0.5429  0.2184
  471MPD2    C3 7062   0.638   0.945  16.767 -0.1348  0.3404 -0.2869
  471MPD2    C4 7063   0.606   1.062  16.831  0.4250 -0.3131 -0.4538
  471MPD2    C5 7064   0.504   1.142  16.776 -0.1884 -0.3397  0.2413
  471MPD2     H 7065   0.578   0.805  16.621  1.5275  0.7935  0.0311
  471MPD2    H1 7066   0.661   1.086  16.922  1.4912 -0.9875 -0.9258
  471MPD2    H2 7067   0.346   1.159  16.632 -0.5840 -2.6300 -2.4976
  471MPD2    H3 7068   0.467   1.229  16.828  1.0834  0.1134  0.3944
  471MPD2     N 7069   0.733   0.860  16.830  0.3156 -0.2237 -0.0407
  471MPD2    H5 7070   0.757   0.881  16.926  0.9551  1.0352 -0.4857
  471MPD2    N1 7071   0.397   0.933  16.497  0.0490  0.3593 -0.0323
  471MPD2    H7 7072   0.442   0.854  16.451 -1.9754 -1.2515  0.7503
  472TMC3    C1 7073   0.252   0.878  16.334 -0.7389  0.1352  0.0076
  472TMC3    C2 7074   0.148   0.907  16.247  0.0777 -0.3720 -0.1483
  472TMC3    C3 7075   0.095   0.806  16.173  0.1329  0.4848 -1.0052
  472TMC3    C4 7076   0.292   0.746  16.351 -0.2732  0.0468 -0.8427
  472TMC3    C5 7077   0.238   0.644  16.278  0.5255  0.3103 -0.8115
  472TMC3    C6 7078   0.134   0.673  16.189 -0.2824  0.7964  0.0099
  472TMC3     C 7079   0.280   0.971  16.441 -0.4063  0.3096 -0.0385
  472TMC3     O 7080   0.208   1.066  16.477 -0.4463 -0.1054 -0.4405
  472TMC3     H 7081   0.084   0.994  16.251 -0.4044 -0.6922 -0.7484
  472TMC3    H1 7082   0.381   0.710  16.401 -1.7522 -1.5154  0.6606
  472TMC3    H2 7083   0.080   0.594  16.138 -1.4229  0.7052  1.3575
  472TMC3    C7 7084   0.224   0.517  16.357  0.1604  0.2595  1.2503
  472TMC3    C8 7085   4.696   0.825  16.135 -0.7647  0.8552 -0.2493
  472TMC3    O1 7086   0.257   0.522  16.475 -0.8799  0.1957  0.2568
  472TMC3    O2 7087   4.672   0.895  16.041  0.0554 -0.3561 -0.1483
  473MPD2     C 7088   4.119   2.700  13.805 -0.1228 -0.8089  0.1913
  473MPD2    C1 7089   4.225   2.782  13.770 -0.3700 -0.3447  0.2435
  473MPD2    C2 7090   4.269   2.879  13.853  0.4129  0.8000 -0.0925
  473MPD2    C3 7091   4.212   2.899  13.977  0.4682  0.4430 -0.2070
  473MPD2    C4 7092   4.092   2.829  14.003  0.0553  0.0787  0.1072
  473MPD2    C5 7093   4.046   2.734  13.915  0.1523  0.5182 -0.2592
  473MPD2     H 7094   4.365   2.922  13.828  0.9587  0.4592  1.4537
  473MPD2    H1 7095   4.045   2.836  14.100 -0.3858  1.4291 -0.2104
  473MPD2    H2 7096   4.089   2.609  13.754 -2.0613 -0.8761  1.4724
  473MPD2    H3 7097   3.957   2.682  13.950  0.2558 -0.7485 -1.8621
  473MPD2     N 7098   4.266   3.002  14.057  0.1639 -0.3744 -0.0912
  473MPD2    H5 7099   4.344   3.059  14.029  1.0485 -1.0113  1.0699
  473MPD2    N1 7100   4.300   2.756  13.649 -0.4310  0.1674  0.0990
  473MPD2    H7 7101   4.375   2.823  13.632 -1.2706  1.1530  0.2223
  474TMC3    C1 7102   4.310   3.105  14.258 -0.0507  0.2022 -0.1285
  474TMC3    C2 7103   4.379   3.203  14.186 -0.8634  0.1914 -0.7665
  474TMC3    C3 7104   4.494   3.261  14.239 -0.4235 -0.4676 -0.3890
  474TMC3    C4 7105   4.349   3.082  14.394  0.1579  0.0288  0.8107
  474TMC3    C5 7106   4.465   3.138  14.443  0.7286 -0.4161  0.0756
  474TMC3    C6 7107   4.543   3.229  14.369  0.2485 -0.6892 -0.3726
  474TMC3     C 7108   4.225   3.022  14.191  0.3391  0.2077  0.5406
  474TMC3     O 7109   4.158   2.946  14.258 -0.1590  0.1781 -0.3632
  474TMC3     H 7110   4.347   3.235  14.087  2.3086  1.3805 -1.4080
  474TMC3    H1 7111   4.296   3.007  14.452  0.6714 -0.0597  1.1648
  474TMC3    H2 7112   4.632   3.275  14.410  1.9407 -2.7000 -1.7688
  474TMC3    C7 7113   4.485   3.113  14.583  0.2089 -0.7452  1.0846
  474TMC3    C8 7114   4.566   3.356  14.157 -0.1372 -0.5636  0.2750
  474TMC3    O1 7115   4.391   3.061  14.640 -0.3533  0.3648  0.1419
  474TMC3    O2 7116   4.547   3.349  14.035 -0.6008 -0.0421  0.0025
  475MPD2     C 7117   3.286   0.236   9.824 -0.3813 -0.6633  0.0625
  475MPD2    C1 7118   3.254   0.345   9.899 -0.2982  0.0781 -0.6062
  475MPD2    C2 7119   3.129   0.346   9.962 -0.5901  0.6967 -0.6597
  475MPD2    C3 7120   3.031   0.253   9.934 -0.6336 -0.3343  0.5275
  475MPD2    C4 7121   3.067   0.144   9.858 -0.0136 -0.4709  0.4154
  475MPD2    C5 7122   3.192   0.136   9.806 -0.2417 -0.1110 -0.0228
  475MPD2     H 7123   3.106   0.423  10.035  0.0106  0.5525 -0.3208
  475MPD2    H1 7124   3.012   0.051   9.842  1.0542 -0.7794 -1.4790
  475MPD2    H2 7125   3.376   0.225   9.764 -1.1926 -0.5649 -1.1495
  475MPD2    H3 7126   3.213   0.055   9.738 -0.6109  2.5192 -3.2927
  475MPD2     N 7127   2.908   0.261   9.988 -0.2003  0.1577 -0.1294
  475MPD2    H5 7128   2.901   0.329  10.064  1.0203  1.2075 -0.9493
  475MPD2    N1 7129   3.351   0.449   9.909 -0.1929 -0.2324 -0.4488
  475MPD2    H7 7130   3.420   0.450   9.835  0.4917 -0.4652  0.1903
  476TMC3    C1 7131   3.433   0.664   9.941  0.3735  0.2157  0.5465
  476TMC3    C2 7132   3.395   0.703   9.812  0.1250  0.2815 -0.1865
  476TMC3    C3 7133   3.387   0.836   9.785 -0.2834 -1.0021  0.6299
  476TMC3    C4 7134   3.472   0.759  10.039  0.1366  0.2379 -0.0879
  476TMC3    C5 7135   3.478   0.890   9.998  0.7901  0.3423 -0.4837
  476TMC3    C6 7136   3.438   0.930   9.871 -0.6613  0.2711  0.0952
  476TMC3     C 7137   3.359   0.556  10.000  0.0048  0.5859 -0.4549
  476TMC3     O 7138   3.292   0.557  10.102 -0.3078 -0.1313 -0.0686
  476TMC3     H 7139   3.354   0.632   9.741 -0.9426 -0.0292  0.7396
  476TMC3    H1 7140   3.482   0.731  10.143 -2.5539  0.0552  0.1054
  476TMC3    H2 7141   3.431   1.037   9.853  0.6135  0.0844 -1.4687
  476TMC3    C7 7142   3.569   0.974  10.068  0.0508 -0.1169 -1.7358
  476TMC3    C8 7143   3.276   0.891   9.726  0.2358  0.3792 -0.2519
  476TMC3    O1 7144   3.639   1.051   9.997 -0.3188  0.3234 -0.2262
  476TMC3    O2 7145   3.268   1.013   9.707 -0.3548 -0.3691  0.2469
  477MPD2     C 7146   0.264   2.405  11.796  0.1164 -0.2886 -0.1835
  477MPD2    C1 7147   0.147   2.360  11.851  0.1574  0.4939  0.2435
  477MPD2    C2 7148   0.155   2.294  11.970 -0.1971 -0.2770  0.9494
  477MPD2    C3 7149   0.276   2.250  12.031  0.4914 -0.1575 -0.2768
  477MPD2    C4 7150   0.392   2.289  11.972  0.8311  0.0759  0.0787
  477MPD2    C5 7151   0.380   2.372  11.864 -0.4164 -0.3314  0.2162
  477MPD2     H 7152   0.065   2.260  12.021  0.4651 -2.0563  0.9266
  477MPD2    H1 7153   0.490   2.261  12.008  1.6390  0.5685 -1.7276
  477MPD2    H2 7154   0.278   2.450  11.699  0.5009  0.2490  0.1223
  477MPD2    H3 7155   0.469   2.410  11.815 -1.9399  2.5706 -0.3039
  477MPD2     N 7156   0.277   2.174  12.151  0.4910 -0.1656  0.0199
  477MPD2    H5 7157   0.184   2.163  12.188  0.3864  0.7832  0.0383
  477MPD2    N1 7158   0.019   2.394  11.790 -0.0299  0.1660  0.0770
  477MPD2    H7 7159   0.018   2.439  11.699  2.7015  1.2815  0.5821
  478TMC3    C1 7160   4.526   2.418  11.750  0.6751 -0.1608  0.1505
  478TMC3    C2 7161   4.409   2.456  11.811  0.5062 -0.6620 -0.3560
  478TMC3    C3 7162   4.325   2.543  11.744 -0.8689  0.7331 -0.3281
  478TMC3    C4 7163   4.561   2.463  11.624  0.3233  0.3307  0.4524
  478TMC3    C5 7164   4.469   2.542  11.555  0.1987  0.5722  0.2649
  478TMC3    C6 7165   4.354   2.586  11.617  0.7547  0.6306  0.2196
  478TMC3     C 7166   4.634   2.367  11.838  0.7885 -0.1331  0.2471
  478TMC3     O 7167   4.603   2.329  11.950 -0.0635  0.2527 -0.1154
  478TMC3     H 7168   4.393   2.445  11.917 -0.2934  0.4899 -0.3640
  478TMC3    H1 7169   4.652   2.426  11.578 -0.2429 -1.6642  0.9178
  478TMC3    H2 7170   4.286   2.652  11.564  0.4165 -0.8518 -1.1780
  478TMC3    C7 7171   4.526   2.625  11.450 -0.2161 -0.2406 -0.1627
  478TMC3    C8 7172   4.242   2.627  11.830  0.3395 -0.6942 -0.0472
  478TMC3    O1 7173   4.643   2.651  11.463 -0.1017 -0.0048 -0.9327
  478TMC3    O2 7174   4.194   2.572  11.930  0.5877 -0.3057 -0.1525
  479MPD2     C 7175   4.738   0.292  15.239 -0.6949 -0.8054 -0.4803
  479MPD2    C1 7176   4.726   0.176  15.317 -0.2215  0.0345  0.5020
  479MPD2    C2 7177   0.040   0.173  15.442  0.8492 -0.0037  0.8082
  479MPD2    C3 7178   0.094   0.288  15.498 -0.0337 -0.1270  0.0226
  479MPD2    C4 7179   0.103   0.401  15.415  0.6377 -0.6912  0.0847
  479MPD2    C5 7180   0.059   0.399  15.288 -0.0998 -0.1521  0.5901
  479MPD2     H 7181   0.040   0.077  15.492  1.2827 -0.3962  0.0767
  479MPD2    H1 7182   0.137   0.499  15.448 -2.1885  1.1567 -2.4820
  479MPD2    H2 7183   4.696   0.311  15.141 -1.8960  1.3947  0.4787
  479MPD2    H3 7184   0.057   0.488  15.226 -1.2621  0.6899  1.8144
  479MPD2     N 7185   0.133   0.310  15.636 -0.6158  0.9232  0.5047
  479MPD2    H5 7186   0.173   0.402  15.653  0.6861  0.4224  0.1196
  479MPD2    N1 7187   4.657   0.072  15.255  0.3218 -0.0156 -0.1002
  479MPD2    H7 7188   4.633   0.086  15.157  1.8055  1.0468 -0.3045
  480TMC3    C1 7189   4.681   4.668  15.830 -0.2625 -0.0101  0.4609
  480TMC3    C2 7190   4.555   4.714  15.814 -1.0468 -0.4824  0.2362
  480TMC3    C3 7191   4.532   0.093  15.746 -0.0127 -0.3104 -0.4087
  480TMC3    C4 7192   0.042   4.734  15.772  0.2057 -0.1987  0.4899
  480TMC3    C5 7193   0.014   0.125  15.720  0.4328  0.3349  0.0125
  480TMC3    C6 7194   4.630   0.177  15.708  0.2497  0.4118  0.5772
  480TMC3     C 7195   4.710   4.573  15.937  0.6824 -0.5485  0.3983
  480TMC3     O 7196   0.084   4.522  15.939 -0.2254 -0.2173  0.3360
  480TMC3     H 7197   4.470   4.655  15.848 -2.3737  1.0496 -0.3887
  480TMC3    H1 7198   0.142   4.700  15.795  0.4661  0.7687  0.8022
  480TMC3    H2 7199   4.624   0.280  15.674  0.5966  0.0596 -0.5350
  480TMC3    C7 7200   0.117   0.218  15.735  0.0758  0.6019  0.3851
  480TMC3    C8 7201   4.410   0.091  15.666 -0.7873  0.6226 -0.4637
  480TMC3    O1 7202   0.177   0.206  15.842  0.4681  0.6145 -0.0826
  480TMC3    O2 7203   4.315   0.023  15.699 -0.4850  0.0409  0.4670
  481MPD2     C 7204   1.696   4.355  14.589 -0.1738  0.0783  0.2952
  481MPD2    C1 7205   1.561   4.313  14.584 -0.7227  0.0747  0.1944
  481MPD2    C2 7206   1.507   4.246  14.694 -0.2360  0.6089 -0.8063
  481MPD2    C3 7207   1.579   4.233  14.807  0.1623  0.1214  0.2048
  481MPD2    C4 7208   1.702   4.292  14.823 -0.0917 -0.2054 -0.6163
  481MPD2    C5 7209   1.764   4.342  14.708 -0.2223 -0.5229  0.3391
  481MPD2     H 7210   1.409   4.199  14.691  0.4759 -0.8494 -1.4282
  481MPD2    H1 7211   1.749   4.284  14.920 -3.3976 -0.8400  0.9205
  481MPD2    H2 7212   1.752   4.409  14.514  2.7892 -0.7074  1.9492
  481MPD2    H3 7213   1.869   4.368  14.706  0.2087 -2.1829  1.5321
  481MPD2     N 7214   1.523   4.177  14.928  0.2295 -0.0356  0.9377
  481MPD2    H5 7215   1.593   4.164  15.000  1.0101 -1.4970 -0.0834
  481MPD2    N1 7216   1.484   4.343  14.465  0.3465  0.4270 -0.2058
  481MPD2    H7 7217   1.531   4.391  14.389  1.3945 -1.0112 -0.4692
  482TMC3    C1 7218   1.276   4.391  14.332 -0.1043 -0.5857 -0.0985
  482TMC3    C2 7219   1.147   4.363  14.321  0.2200  0.0078 -1.0312
  482TMC3    C3 7220   1.086   4.351  14.200  0.4165  0.1602  0.2572
  482TMC3    C4 7221   1.352   4.416  14.214 -0.9150  0.4393 -0.1727
  482TMC3    C5 7222   1.287   4.401  14.090 -0.5348  0.1362  0.8381
  482TMC3    C6 7223   1.154   4.369  14.083 -0.7697 -1.4782 -0.4996
  482TMC3     C 7224   1.344   4.335  14.449  0.0821  0.1943  0.1725
  482TMC3     O 7225   1.259   4.281  14.527  0.4647 -0.1154  0.2814
  482TMC3     H 7226   1.085   4.344  14.408  1.6459  0.1702  0.0210
  482TMC3    H1 7227   1.458   4.439  14.212 -0.9134  0.5530  1.1301
  482TMC3    H2 7228   1.096   4.341  13.996 -3.1045 -0.5039  0.7370
  482TMC3    C7 7229   1.354   4.426  13.966 -0.8875 -0.6263 -0.0742
  482TMC3    C8 7230   0.993   4.237  14.197  0.3674 -0.0118 -0.1203
  482TMC3    O1 7231   1.475   4.445  13.959  0.4171  0.5907  0.7473
  482TMC3    O2 7232   0.999   4.149  14.284 -0.4882 -0.0877  0.3748
  483TMC3    C1 7233   4.008   3.758   1.356 -0.7963  0.1867 -0.1025
  483TMC3    C2 7234   4.080   3.864   1.300  0.0394 -1.0234  0.2870
  483TMC3    C3 7235   4.217   3.871   1.316 -0.0587  0.9112  0.3920
  483TMC3    C4 7236   4.073   3.651   1.404  0.2449 -0.3116 -0.5143
  483TMC3    C5 7237   4.211   3.651   1.413  0.8171 -0.1138  0.6936
  483TMC3    C6 7238   4.284   3.765   1.375 -0.3230  0.5236  0.5015
  483TMC3     C 7239   3.862   3.749   1.344  0.4360 -0.1088 -0.0298
  483TMC3     O 7240   3.811   3.853   1.307  0.0734  0.2469 -0.7074
  483TMC3     H 7241   4.035   3.953   1.259  0.8734  0.5313  2.7062
  483TMC3    H1 7242   4.020   3.585   1.471 -0.9693  1.9615  0.7597
  483TMC3    H2 7243   4.392   3.768   1.383 -0.0717 -2.5938 -1.7226
  483TMC3    C7 7244   4.284   3.526   1.452  0.3489 -1.1472 -1.0729
  483TMC3    C8 7245   4.283   3.934   1.210 -0.4356  0.1695  0.0166
  483TMC3    O1 7246   4.404   3.537   1.428 -0.6235  0.6676  0.0830
  483TMC3    O2 7247   4.215   3.948   1.111  0.0200 -0.8789  0.6467
  484MPD2     C 7248   1.558   1.443  12.912  0.0179  0.1714 -0.2288
  484MPD2    C1 7249   1.602   1.317  12.941  0.5346 -0.0908  0.2431
  484MPD2    C2 7250   1.734   1.269  12.914  0.3331  0.7261  0.1090
  484MPD2    C3 7251   1.825   1.358  12.860  0.3052 -0.1533 -0.0565
  484MPD2    C4 7252   1.779   1.486  12.826  0.3115  0.6093 -0.2932
  484MPD2    C5 7253   1.649   1.524  12.848  1.0544  0.2550  0.9326
  484MPD2     H 7254   1.765   1.169  12.942  0.7439  1.0950  0.9652
  484MPD2    H1 7255   1.844   1.562  12.785 -0.5586  2.3879  1.6564
  484MPD2    H2 7256   1.454   1.467  12.933  0.5734  0.7845  1.8163
  484MPD2    H3 7257   1.622   1.625  12.821  1.9214  0.1993 -0.1277
  484MPD2     N 7258   1.959   1.331  12.838  0.3184  0.4804 -0.7938
  484MPD2    H5 7259   2.018   1.401  12.794  0.5804  0.9267  0.2472
  484MPD2    N1 7260   1.499   1.230  12.991 -0.0518 -0.1677 -0.4362
  484MPD2    H7 7261   1.407   1.273  12.993 -0.7065 -1.4865 -2.7221
  485TMC3    C1 7262   2.169   1.228  12.829 -0.6133  0.2342 -0.0887
  485TMC3    C2 7263   2.257   1.138  12.889  0.1963  0.5604 -1.2606
  485TMC3    C3 7264   2.390   1.171  12.881 -0.5903 -0.7003  0.1980
  485TMC3    C4 7265   2.211   1.324  12.742 -0.9855  0.5826 -0.2622
  485TMC3    C5 7266   2.342   1.349  12.740  0.0650 -0.7585 -0.8560
  485TMC3    C6 7267   2.432   1.280  12.818  0.1979  0.3701  0.0187
  485TMC3     C 7268   2.025   1.213  12.854 -0.2965 -0.1288 -0.1604
  485TMC3     O 7269   1.977   1.104  12.877  0.0978  0.3336 -0.3088
  485TMC3     H 7270   2.220   1.046  12.931 -1.3262  1.5010 -0.5426
  485TMC3    H1 7271   2.140   1.385  12.687 -0.6885  1.7495  0.6463
  485TMC3    H2 7272   2.538   1.301  12.808 -0.2210  2.5794  0.3135
  485TMC3    C7 7273   2.398   1.374  12.609  0.0441  0.2814  0.4059
  485TMC3    C8 7274   2.484   1.053  12.864 -0.0133  0.2679  0.6653
  485TMC3    O1 7275   2.505   1.313  12.591  0.2974  0.3179 -0.2737
  485TMC3    O2 7276   2.484   0.956  12.940  0.0050  0.0199  0.5477
  486MPD2     C 7277   3.888   0.275  13.139  0.3620 -0.2729  0.0092
  486MPD2    C1 7278   3.774   0.208  13.090 -0.3000 -0.6565  0.0569
  486MPD2    C2 7279   3.655   0.281  13.076 -0.5395  0.7958  0.4593
  486MPD2    C3 7280   3.642   0.414  13.101  0.3358 -0.2320 -0.3034
  486MPD2    C4 7281   3.753   0.474  13.154  0.1636 -0.1717 -0.3293
  486MPD2    C5 7282   3.877   0.405  13.174 -0.1426  0.1679  0.0970
  486MPD2     H 7283   3.566   0.238  13.032  0.4233 -0.8208  0.0773
  486MPD2    H1 7284   3.755   0.582  13.166  0.6313 -0.3704  1.4156
  486MPD2    H2 7285   3.980   0.222  13.156  0.5970 -0.4104 -1.6875
  486MPD2    H3 7286   3.964   0.463  13.205 -0.5885  0.5589  0.6235
  486MPD2     N 7287   3.515   0.471  13.077  0.5578  0.1441 -0.9706
  486MPD2    H5 7288   3.450   0.402  13.040  0.4796 -1.2355  1.6990
  486MPD2    N1 7289   3.785   0.072  13.068  0.1408  0.0378  0.3726
  486MPD2    H7 7290   3.868   0.022  13.098  0.2071  0.7822  1.4176
  487TMC3    C1 7291   3.709   4.589  13.062  0.4004 -0.8157 -0.7488
  487TMC3    C2 7292   3.623   4.496  12.999  1.2607 -0.1246 -0.0068
  487TMC3    C3 7293   3.636   4.362  13.028  0.0844  0.7750 -0.4695
  487TMC3    C4 7294   3.792   4.548  13.169 -0.6735  0.5153 -0.7208
  487TMC3    C5 7295   3.800   4.408  13.186  0.3042  0.1196  0.4277
  487TMC3    C6 7296   3.738   4.314  13.105 -0.3197  0.2536  0.2306
  487TMC3     C 7297   3.683   4.731  13.027 -0.2059  0.0651 -0.2203
  487TMC3     O 7298   3.578   0.020  12.973 -0.1339 -0.3634 -0.4302
  487TMC3     H 7299   3.536   4.526  12.941  1.4491  2.6295  1.1405
  487TMC3    H1 7300   3.848   4.616  13.232 -0.7627 -0.3824  0.3160
  487TMC3    H2 7301   3.728   4.215  13.149 -1.4224 -0.4624 -1.6165
  487TMC3    C7 7302   3.838   4.376  13.320 -0.2870 -0.3136  0.1611
  487TMC3    C8 7303   3.509   4.307  13.056  0.3770 -0.1817 -0.2901
  487TMC3    O1 7304   3.820   4.462  13.402  0.0069 -0.1212 -0.3014
  487TMC3    O2 7305   3.430   4.386  13.105  0.0195 -0.3930 -0.1775
  488MPD2     C 7306   4.238   1.748  16.404  0.5935 -0.2102  0.6516
  488MPD2    C1 7307   4.339   1.832  16.445 -0.5222 -0.4595 -0.0072
  488MPD2    C2 7308   4.363   1.842  16.582  0.5881 -0.5179  0.3271
  488MPD2    C3 7309   4.284   1.782  16.681 -0.0450 -0.2850 -0.3612
  488MPD2    C4 7310   4.179   1.700  16.631  0.5776 -0.8318  0.5794
  488MPD2    C5 7311   4.158   1.688  16.495 -0.0673  0.6116 -0.0272
  488MPD2     H 7312   4.446   1.903  16.616  0.1831  0.0039  0.3800
  488MPD2    H1 7313   4.111   1.643  16.693 -1.6730 -1.5136 -2.5255
  488MPD2    H2 7314   4.207   1.728  16.302  1.3683  0.1461  0.3477
  488MPD2    H3 7315   4.082   1.624  16.453  0.9790 -1.2394  0.9192
  488MPD2     N 7316   4.295   1.826  16.812  0.1082 -0.1979 -0.5247
  488MPD2    H5 7317   4.356   1.906  16.826 -0.8688  0.2017  1.5094
  488MPD2    N1 7318   4.408   1.912  16.353  0.1424  0.1746  0.2637
  488MPD2    H7 7319   4.464   1.987  16.394 -0.7653  1.6733 -1.2089
  489TMC3    C1 7320   4.256   1.828  17.048  0.5960  0.0672  0.0528
  489TMC3    C2 7321   4.274   1.964  17.042  0.6693 -0.3744  0.0806
  489TMC3    C3 7322   4.263   2.031  17.160  0.9206  0.2291  0.2501
  489TMC3    C4 7323   4.219   1.765  17.164  0.2352  0.2323 -0.6448
  489TMC3    C5 7324   4.203   1.840  17.278 -0.5496  0.1712  0.0816
  489TMC3    C6 7325   4.228   1.972  17.273  0.2794  0.5361 -0.1612
  489TMC3     C 7326   4.237   1.758  16.924 -0.1854 -0.0935  0.4248
  489TMC3     O 7327   4.183   1.650  16.923  0.1022  0.0848 -0.5466
  489TMC3     H 7328   4.307   2.016  16.952 -3.1532  1.1080 -0.4611
  489TMC3    H1 7329   4.220   1.657  17.169  0.1935  0.3473  1.8754
  489TMC3    H2 7330   4.211   2.034  17.361 -0.6796 -0.5402  0.4144
  489TMC3    C7 7331   4.180   1.780  17.406 -0.2624 -0.1999 -0.2143
  489TMC3    C8 7332   4.332   2.158  17.154 -0.3130  0.7116  0.5733
  489TMC3    O1 7333   4.210   1.853  17.500  0.3065  0.0931 -0.1938
  489TMC3    O2 7334   4.421   2.180  17.075 -0.1903  0.1948  0.4618
  490MPD2     C 7335   0.360   1.635  17.366 -0.0019 -0.1853 -0.4547
  490MPD2    C1 7336   0.330   1.612  17.499  0.1999 -0.6395  0.4495
  490MPD2    C2 7337   0.425   1.651  17.595  0.0817  0.1766 -0.0532
  490MPD2    C3 7338   0.545   1.712  17.563 -0.5247 -1.3381 -0.4491
  490MPD2    C4 7339   0.571   1.741  17.430  0.4427 -1.1178  0.1452
  490MPD2    C5 7340   0.476   1.705  17.338  0.3922 -0.1189 -0.4238
  490MPD2     H 7341   0.395   1.651  17.699 -1.6365  2.2760 -0.5366
  490MPD2    H1 7342   0.659   1.796  17.398 -0.2454  0.2143  0.5292
  490MPD2    H2 7343   0.295   1.607  17.283 -1.4961 -1.3360  1.0938
  490MPD2    H3 7344   0.513   1.723  17.238 -1.4298  2.5513 -0.6101
  490MPD2     N 7345   0.640   1.759  17.653 -0.4111 -0.4543 -0.0379
  490MPD2    H5 7346   0.721   1.797  17.604 -1.2484 -1.7929 -2.4402
  490MPD2    N1 7347   0.226   1.529  17.544 -0.5837  0.3363 -0.0331
  490MPD2    H7 7348   0.211   1.530  17.644  2.2865  1.0074  0.3888
  491TMC3    C1 7349   0.051   1.365  17.535 -0.2722  0.3939  0.4995
  491TMC3    C2 7350   0.056   1.353  17.673 -1.1595  0.6123 -0.1957
  491TMC3    C3 7351   4.711   1.259  17.729 -0.5361  0.7232  0.2714
  491TMC3    C4 7352   4.718   1.277  17.457 -0.3821  0.2503  0.7641
  491TMC3    C5 7353   4.650   1.178  17.518  0.0173  0.3179 -0.0155
  491TMC3    C6 7354   4.640   1.172  17.651  0.7747  0.3583 -0.5404
  491TMC3     C 7355   0.141   1.454  17.462 -0.6410 -0.0251  0.4426
  491TMC3     O 7356   0.146   1.449  17.337  0.5305 -0.2465  0.1453
  491TMC3     H 7357   0.115   1.423  17.730 -1.9577  2.9825 -2.2606
  491TMC3    H1 7358   4.734   1.277  17.350  0.9261  0.4383  0.9613
  491TMC3    H2 7359   4.587   1.100  17.712  2.5874  0.2115  0.8666
  491TMC3    C7 7360   4.586   1.083  17.427  0.6036  0.6226  0.9583
  491TMC3    C8 7361   4.739   1.235   0.108  0.2189  0.9070 -0.8558
  491TMC3    O1 7362   4.600   1.101  17.309  0.0284  0.2823  0.4717
  491TMC3    O2 7363   4.720   1.322   0.189  0.0232  0.3670 -0.5440
  492MPD2     C 7364   4.556   1.589  12.101  0.0802 -0.2255 -0.3255
  492MPD2    C1 7365   4.507   1.497  12.006 -0.3812  0.7671 -0.6184
  492MPD2    C2 7366   4.442   1.380  12.049  0.1727  0.2042  0.3335
  492MPD2    C3 7367   4.454   1.354  12.191  0.2353 -0.3712  0.4219
  492MPD2    C4 7368   4.515   1.435  12.280  0.3427 -0.2166 -0.6086
  492MPD2    C5 7369   4.562   1.554  12.233 -0.2816 -0.2941  0.6241
  492MPD2     H 7370   4.408   1.307  11.976 -0.0655  0.2405  0.4084
  492MPD2    H1 7371   4.517   1.411  12.385  0.6765 -0.4373 -0.6661
  492MPD2    H2 7372   4.608   1.679  12.072  0.1388  0.0406  0.5958
  492MPD2    H3 7373   4.614   1.615  12.307  0.0956  2.3031 -1.7948
  492MPD2     N 7374   4.403   1.229  12.242 -0.7072 -0.1969  0.2631
  492MPD2    H5 7375   4.417   1.204  12.340  0.4737  1.9646  0.6332
  492MPD2    N1 7376   4.533   1.523  11.869 -0.5763  0.3118 -0.2408
  492MPD2    H7 7377   4.569   1.616  11.848  0.7172 -0.1674 -0.1704
  493TMC3    C1 7378   4.560   1.501  11.634 -0.4723  0.5016  0.0440
  493TMC3    C2 7379   4.524   1.630  11.614  0.5618  0.8369  0.6981
  493TMC3    C3 7380   4.505   1.670  11.485  0.8823 -0.3443  0.3497
  493TMC3    C4 7381   4.585   1.419  11.528  0.6317 -0.6090 -0.5780
  493TMC3    C5 7382   4.576   1.469  11.403  0.0460  0.0813  0.0824
  493TMC3    C6 7383   4.540   1.598  11.376  0.0338 -0.7758  0.1653
  493TMC3     C 7384   4.525   1.439  11.763 -0.3120  0.4374  0.2020
  493TMC3     O 7385   4.486   1.320  11.761 -0.0956 -0.3120  0.1423
  493TMC3     H 7386   4.492   1.693  11.696 -2.9842  0.0524 -0.0902
  493TMC3    H1 7387   4.604   1.316  11.557 -0.7237 -0.7040 -0.0069
  493TMC3    H2 7388   4.535   1.631  11.273 -2.2258 -2.1159 -0.1598
  493TMC3    C7 7389   4.577   1.371  11.293 -0.6764  0.3110  0.0966
  493TMC3    C8 7390   4.482   1.807  11.475  0.2574 -0.0892 -0.4408
  493TMC3    O1 7391   4.564   1.416  11.179  0.4612 -0.5301 -0.1612
  493TMC3    O2 7392   4.421   1.863  11.563 -0.5473 -0.1106 -0.3494
  494TMC3    C1 7393   1.154   3.357   0.471 -0.1074 -0.4263 -1.0320
  494TMC3    C2 7394   1.192   3.224   0.494 -0.0322 -0.8588 -0.2266
  494TMC3    C3 7395   1.166   3.132   0.388  0.2868  0.3580  0.2053
  494TMC3    C4 7396   1.097   3.398   0.353  0.7769  0.2498 -0.0608
  494TMC3    C5 7397   1.086   3.308   0.256  0.2460  0.5933 -0.2194
  494TMC3    C6 7398   1.114   3.178   0.274 -0.4572  0.6096 -0.7480
  494TMC3     C 7399   1.149   3.440   0.592  0.4099 -0.6886 -0.5924
  494TMC3     O 7400   1.227   3.409   0.680 -0.1677  0.0324  0.0389
  494TMC3     H 7401   1.265   3.200   0.571  0.5850 -0.2436 -0.6192
  494TMC3    H1 7402   1.058   3.497   0.331 -0.0801 -0.1304 -0.2745
  494TMC3    H2 7403   1.098   3.110   0.190 -0.5990  0.8425 -0.9097
  494TMC3    C7 7404   1.041   3.350   0.121 -0.0412 -0.6936  0.3998
  494TMC3    C8 7405   1.198   2.994   0.408  0.4436  1.0801  0.3698
  494TMC3    O1 7406   1.123   3.309   0.036 -0.0750  0.0998 -0.0390
  494TMC3    O2 7407   1.275   2.966   0.500 -0.4261  0.2970  0.2437
  495TMC3    C1 7408   4.560   0.705  14.959  0.6368  0.1641  0.1728
  495TMC3    C2 7409   4.498   0.634  14.861 -0.9501  0.1282  0.1357
  495TMC3    C3 7410   4.371   0.590  14.878 -0.2271 -0.1956 -0.0218
  495TMC3    C4 7411   4.504   0.707  15.085  0.1080  0.0093  0.0592
  495TMC3    C5 7412   4.379   0.648  15.100  0.4381  0.1480  0.1260
  495TMC3    C6 7413   4.306   0.598  14.994  1.1025  0.3757 -0.4652
  495TMC3     C 7414   4.701   0.668  14.950 -0.4831 -0.1923 -0.1900
  495TMC3     O 7415   0.048   0.753  14.934  0.3140  0.3733 -0.8758
  495TMC3     H 7416   4.541   0.626  14.761  0.3580 -1.2987  0.8201
  495TMC3    H1 7417   4.540   0.766  15.167 -0.9753  0.9660 -0.1512
  495TMC3    H2 7418   4.212   0.548  15.009  1.5888 -0.4436 -0.1473
  495TMC3    C7 7419   4.376   0.576  15.223 -0.2261  0.1286  0.0674
  495TMC3    C8 7420   4.330   0.486  14.789 -0.4378 -0.2534 -0.1214
  495TMC3    O1 7421   4.472   0.574  15.305  0.6626 -0.6499 -0.1109
  495TMC3    O2 7422   4.208   0.467  14.793 -0.1782  0.0946  0.4598
  496MPD2     C 7423   1.715   0.709  15.616 -0.3424  0.1681 -0.2643
  496MPD2    C1 7424   1.752   0.582  15.577  0.1922 -0.2682  0.1936
  496MPD2    C2 7425   1.649   0.485  15.556 -0.2546 -0.7020 -0.3528
  496MPD2    C3 7426   1.517   0.509  15.577  1.1610 -0.1309 -0.2124
  496MPD2    C4 7427   1.488   0.627  15.635 -0.3360 -0.5471  0.1429
  496MPD2    C5 7428   1.582   0.723  15.647 -0.2055 -0.2261  0.0797
  496MPD2     H 7429   1.676   0.387  15.516 -3.1541 -1.2207 -1.0449
  496MPD2    H1 7430   1.386   0.644  15.667 -0.4876  2.2812 -1.7622
  496MPD2    H2 7431   1.786   0.785  15.648  0.5750 -0.3086 -1.1673
  496MPD2    H3 7432   1.550   0.814  15.696 -1.9157 -1.6914  1.7179
  496MPD2     N 7433   1.415   0.410  15.563  0.3411 -0.0654  0.2760
  496MPD2    H5 7434   1.326   0.433  15.606 -0.5990 -0.9030 -1.2442
  496MPD2    N1 7435   1.886   0.539  15.573 -0.4083 -0.8515  0.4479
  496MPD2    H7 7436   1.956   0.610  15.595 -1.7360  0.3115  0.9034
  497TMC3    C1 7437   1.324   0.202  15.560  0.2329  0.7020 -0.4917
  497TMC3    C2 7438   1.192   0.221  15.539 -0.0787  0.8330 -0.2844
  497TMC3    C3 7439   1.105   0.138  15.614  1.0407  0.0432  0.3081
  497TMC3    C4 7440   1.367   0.125  15.667 -0.1827  0.8459 -0.2515
  497TMC3    C5 7441   1.280   0.067  15.753 -0.0529  0.3510 -0.0260
  497TMC3    C6 7442   1.147   0.063  15.720  0.3022  0.4008 -0.2217
  497TMC3     C 7443   1.425   0.287  15.504 -0.9188 -0.7737  0.5078
  497TMC3     O 7444   1.519   0.230  15.442 -0.2030  1.1630  0.3147
  497TMC3     H 7445   1.148   0.293  15.471 -1.3350  0.8767  0.5693
  497TMC3    H1 7446   1.471   0.111  15.692 -0.1860 -0.1532 -0.8129
  497TMC3    H2 7447   1.088   4.737  15.783  0.5916 -0.7473 -1.1494
  497TMC3    C7 7448   1.322   4.721  15.865 -0.8015  0.0826  0.6967
  497TMC3    C8 7449   0.962   0.142  15.575  0.4062  0.4857 -0.3632
  497TMC3    O1 7450   1.236   4.650  15.916  1.2562 -0.2420 -0.0106
  497TMC3    O2 7451   0.936   0.179  15.459  0.1401  0.2770 -0.4244
  498MPD2     C 7452   2.204   0.594   9.493 -0.3322  0.2376 -0.4861
  498MPD2    C1 7453   2.182   0.629   9.624 -0.2275 -0.2200 -0.2390
  498MPD2    C2 7454   2.093   0.568   9.709  0.0219 -0.2800 -0.2656
  498MPD2    C3 7455   2.012   0.466   9.664  0.4356  0.1491  0.3747
  498MPD2    C4 7456   2.021   0.437   9.526  0.0760  0.4443 -0.1116
  498MPD2    C5 7457   2.121   0.491   9.451 -0.2383 -0.6384 -0.6291
  498MPD2     H 7458   2.076   0.606   9.809  0.0676 -1.7575  0.3093
  498MPD2    H1 7459   1.963   0.355   9.484  0.1763  1.2516 -1.8206
  498MPD2    H2 7460   2.292   0.629   9.440 -0.3968  0.1544 -0.6489
  498MPD2    H3 7461   2.140   0.449   9.353 -1.7011  1.8671 -1.9955
  498MPD2     N 7462   1.912   0.419   9.752 -0.1615 -0.4100  1.0983
  498MPD2    H5 7463   1.931   0.412   9.851  1.5561  2.0625  0.9294
  498MPD2    N1 7464   2.249   0.729   9.695  1.1159  0.4916 -0.2793
  498MPD2    H7 7465   2.221   0.754   9.790 -1.9173 -0.1148 -0.9894
  499TMC3    C1 7466   2.378   0.916   9.741 -0.7942  0.7661  0.1744
  499TMC3    C2 7467   2.507   0.956   9.750  0.1920  0.8168 -0.5172
  499TMC3    C3 7468   2.535   1.047   9.843  0.0151 -0.3873 -0.5780
  499TMC3    C4 7469   2.265   0.973   9.807  0.2207  0.0729  0.3744
  499TMC3    C5 7470   2.304   1.072   9.895  0.6131 -0.1251 -0.2723
  499TMC3    C6 7471   2.437   1.116   9.910 -0.2709  0.0825  0.3112
  499TMC3     C 7472   2.357   0.798   9.655  0.6065  0.1221 -1.1602
  499TMC3     O 7473   2.442   0.776   9.566  0.0911  0.2256 -0.4985
  499TMC3     H 7474   2.583   0.901   9.696 -0.6666 -2.5286  1.6555
  499TMC3    H1 7475   2.162   0.952   9.778  0.4770 -0.9174  0.1857
  499TMC3    H2 7476   2.460   1.182   9.994 -1.4034 -0.0609  0.7343
  499TMC3    C7 7477   2.199   1.142   9.961 -0.1059 -0.4947  0.8155
  499TMC3    C8 7478   2.665   1.059   9.891  0.1716  0.0698  0.1780
  499TMC3    O1 7479   2.230   1.250  10.006  0.1729 -0.8498 -0.0384
  499TMC3    O2 7480   2.698   1.159   9.951 -0.3135  0.2147  1.0253
  500MPD2     C 7481   3.261   2.455  10.288  0.3582 -0.7833  0.0824
  500MPD2    C1 7482   3.314   2.328  10.286 -0.6219 -0.2239  0.0010
  500MPD2    C2 7483   3.226   2.223  10.265  0.3895  0.6345  0.2368
  500MPD2    C3 7484   3.086   2.243  10.246 -0.5082 -0.7994  0.4055
  500MPD2    C4 7485   3.039   2.374  10.234  0.0172 -0.8603 -0.3744
  500MPD2    C5 7486   3.127   2.475  10.253 -0.6645  0.0415  0.5721
  500MPD2     H 7487   3.264   2.122  10.267 -2.0896 -0.2496  3.3462
  500MPD2    H1 7488   2.937   2.400  10.210  1.0687  1.1145 -2.8106
  500MPD2    H2 7489   3.324   2.540  10.312 -0.5165 -0.0619 -0.2064
  500MPD2    H3 7490   3.084   2.575  10.243  0.7079  0.5402 -0.3374
  500MPD2     N 7491   2.996   2.127  10.240 -0.1943 -0.0858  0.0652
  500MPD2    H5 7492   2.900   2.160  10.239  0.4160  1.6958  2.5501
  500MPD2    N1 7493   3.453   2.298  10.298  0.7301  0.4445  0.4366
  500MPD2    H7 7494   3.471   2.199  10.310  1.3128  0.6332  1.1461
  501TMC3    C1 7495   3.687   2.328  10.298 -0.7079  0.3084  0.3493
  501TMC3    C2 7496   3.792   2.392  10.237 -0.5475 -0.0132 -0.2777
  501TMC3    C3 7497   3.911   2.379  10.297 -0.4753  0.4661 -0.6072
  501TMC3    C4 7498   3.710   2.258  10.410 -0.1586  0.0024 -0.1491
  501TMC3    C5 7499   3.838   2.230  10.461  0.3207 -0.0460 -0.0257
  501TMC3    C6 7500   3.937   2.290  10.390 -0.2890  0.3147 -0.7603
  501TMC3     C 7501   3.554   2.389  10.280  0.6806 -0.1254  0.4217
  501TMC3     O 7502   3.550   2.503  10.242  0.0502 -0.0625 -0.4927
  501TMC3     H 7503   3.772   2.476  10.171 -0.2118  0.8164  0.6681
  501TMC3    H1 7504   3.629   2.230  10.477  0.2526 -1.6725 -0.3589
  501TMC3    H2 7505   4.037   2.269  10.428 -0.6781 -0.3151 -0.0750
  501TMC3    C7 7506   3.844   2.239  10.605  0.0833 -0.5820  0.2757
  501TMC3    C8 7507   3.977   2.506  10.322 -0.1392  0.3672  0.4547
  501TMC3    O1 7508   3.770   2.162  10.669  0.7841 -0.0589 -0.2340
  501TMC3    O2 7509   4.037   2.510  10.428  0.0504 -0.4206  0.0424
  502TMC3    C1 7510   4.133   1.592  15.090 -0.2899  0.0374  0.1199
  502TMC3    C2 7511   4.109   1.715  15.046 -0.3898 -0.0588  0.2869
  502TMC3    C3 7512   3.983   1.741  15.005  0.0078  0.3277 -0.0343
  502TMC3    C4 7513   4.040   1.492  15.093 -0.7804 -0.0116  0.2317
  502TMC3    C5 7514   3.918   1.519  15.044  0.6129 -0.6009  0.1180
  502TMC3    C6 7515   3.883   1.645  15.003  0.0323 -0.0686 -0.2631
  502TMC3     C 7516   4.250   1.583  15.171 -0.1183 -0.1293  0.6808
  502TMC3     O 7517   4.345   1.660  15.156 -0.3507  0.3059 -0.1982
  502TMC3     H 7518   4.178   1.795  15.071 -1.5826  0.8488  0.7360
  502TMC3    H1 7519   4.077   1.393  15.115 -0.0143  0.5603  1.5002
  502TMC3    H2 7520   3.778   1.670  14.989 -0.1253  0.3531  1.6896
  502TMC3    C7 7521   3.807   1.426  15.055  0.1107  0.1728 -0.7078
  502TMC3    C8 7522   3.954   1.880  14.975  0.1620  0.6465 -0.0642
  502TMC3    O1 7523   3.693   1.466  15.046 -0.7419  0.3722  0.2727
  502TMC3    O2 7524   4.054   1.943  14.951  0.3032 -0.1621  0.0818
  503MPD2     C 7525   1.440   1.927  16.967  0.3188  0.5784  0.1524
  503MPD2    C1 7526   1.463   1.958  17.097 -0.1279  0.6214 -0.0097
  503MPD2    C2 7527   1.586   1.924  17.151 -0.6234  0.4284  0.5730
  503MPD2    C3 7528   1.685   1.859  17.079  0.0840  0.2166  0.3302
  503MPD2    C4 7529   1.658   1.824  16.949  0.2743  0.2231 -0.2374
  503MPD2    C5 7530   1.537   1.859  16.897  0.3789 -0.4373 -0.2933
  503MPD2     H 7531   1.615   1.950  17.253 -1.3696 -0.8186  1.1037
  503MPD2    H1 7532   1.728   1.767  16.888  0.4206  1.5158 -1.2886
  503MPD2    H2 7533   1.360   1.958  16.900 -0.0692 -0.6866  0.0326
  503MPD2    H3 7534   1.522   1.833  16.793  1.0052  1.0761 -0.7658
  503MPD2     N 7535   1.806   1.833  17.150  0.2245  0.2113  0.3706
  503MPD2    H5 7536   1.822   1.866  17.245  1.0160  0.7267  0.0566
  503MPD2    N1 7537   1.385   2.048  17.167  0.5972 -0.4539  0.3778
  503MPD2    H7 7538   1.419   2.069  17.260  1.2615 -1.0847  0.2761
  504TMC3    C1 7539   2.039   1.818  17.195  0.3611  0.2685 -0.2368
  504TMC3    C2 7540   2.021   1.866  17.327  0.1992 -0.4403 -0.1200
  504TMC3    C3 7541   2.128   1.914  17.398  0.3357 -0.1586  0.1704
  504TMC3    C4 7542   2.160   1.833  17.137 -0.3021 -0.0740  1.1095
  504TMC3    C5 7543   2.262   1.876  17.210 -0.3293 -0.9438  0.4723
  504TMC3    C6 7544   2.250   1.917  17.334 -0.0693  0.2751  0.0765
  504TMC3     C 7545   1.929   1.799  17.091 -0.3613 -0.2842  0.1557
  504TMC3     O 7546   1.956   1.758  16.981  0.7704  0.5777  0.3612
  504TMC3     H 7547   1.921   1.868  17.369 -0.0354 -1.6791 -0.6105
  504TMC3    H1 7548   2.163   1.829  17.029 -1.0318 -0.0910  1.0874
  504TMC3    H2 7549   2.335   1.962  17.384 -0.4980  0.9858  0.1602
  504TMC3    C7 7550   2.384   1.826  17.148  0.2202 -0.0981 -0.0045
  504TMC3    C8 7551   2.115   2.003  17.508  0.0854 -0.0236 -0.1566
  504TMC3    O1 7552   2.370   1.754  17.052  0.0453  0.1812 -0.1467
  504TMC3    O2 7553   2.146   2.120  17.488  0.3270  0.3843 -0.1495
  505MPD2     C 7554   1.764   4.426  10.747  0.5946 -0.3870  0.3992
  505MPD2    C1 7555   1.632   4.459  10.773 -0.7872  0.1189 -0.6365
  505MPD2    C2 7556   1.530   4.393  10.699 -0.2134  0.3949 -0.4427
  505MPD2    C3 7557   1.560   4.301  10.596  0.3467 -0.0597  0.5734
  505MPD2    C4 7558   1.694   4.271  10.581  0.4888 -0.0012  0.1368
  505MPD2    C5 7559   1.790   4.332  10.649 -0.6138 -0.0891 -0.5081
  505MPD2     H 7560   1.427   4.427  10.709 -0.1493  0.5625 -0.3611
  505MPD2    H1 7561   1.720   4.195  10.508 -0.4302  0.4563 -0.6641
  505MPD2    H2 7562   1.838   4.463  10.818  0.4130  0.5926  0.0725
  505MPD2    H3 7563   1.894   4.307  10.635 -0.9674 -1.7815 -0.0788
  505MPD2     N 7564   1.466   4.253  10.499  0.2523 -0.3465 -0.9349
  505MPD2    H5 7565   1.507   4.189  10.431  0.4235 -2.1950  0.9077
  505MPD2    N1 7566   1.604   4.557  10.872 -0.3556 -0.4318  0.6594
  505MPD2    H7 7567   1.681   4.613  10.907  0.7417 -0.0655 -2.3324
  506TMC3    C1 7568   1.458   4.727  10.974  0.2742 -0.6372 -0.0562
  506TMC3    C2 7569   1.520   0.106  10.931  0.5930 -0.6105  0.3264
  506TMC3    C3 7570   1.463   0.230  10.957  0.6775  0.0337 -0.3178
  506TMC3    C4 7571   1.333   0.005  11.031 -0.4917 -0.7171 -0.3670
  506TMC3    C5 7572   1.271   0.124  11.035  0.6408 -0.4067 -0.4624
  506TMC3    C6 7573   1.340   0.242  11.009  0.1672 -0.5174  0.8618
  506TMC3     C 7574   1.475   4.596  10.909  0.0095  0.3428  0.4168
  506TMC3     O 7575   1.371   4.541  10.889  0.1958 -0.0794  0.4223
  506TMC3     H 7576   1.613   0.086  10.879 -0.1198 -0.7684 -0.8917
  506TMC3    H1 7577   1.280   4.663  11.078 -0.6361 -0.6886 -0.4804
  506TMC3    H2 7578   1.293   0.336  11.033  3.8006  0.9664  2.1565
  506TMC3    C7 7579   1.157   0.127  10.949  0.8330 -0.2411 -0.3345
  506TMC3    C8 7580   1.502   0.347  10.876 -0.2553  0.4746 -0.0754
  506TMC3    O1 7581   1.078   0.220  10.956 -0.0218  0.1442 -0.1878
  506TMC3    O2 7582   1.472   0.457  10.928 -0.3222 -0.3735  0.0919
  507TMC3    C1 7583   2.410   1.124  15.328  0.1582 -0.1620 -0.0517
  507TMC3    C2 7584   2.289   1.069  15.287  0.1495 -0.4975  0.4848
  507TMC3    C3 7585   2.264   1.072  15.150 -0.2711  0.6368  0.1136
  507TMC3    C4 7586   2.495   1.192  15.242  0.2971  0.0188 -0.3810
  507TMC3    C5 7587   2.466   1.184  15.109 -0.1542  0.6711 -0.2255
  507TMC3    C6 7588   2.357   1.115  15.065  0.1561  0.2076 -0.2025
  507TMC3     C 7589   2.446   1.124  15.465  0.6638  0.9308  0.5697
  507TMC3     O 7590   2.560   1.163  15.489 -0.0375 -0.1922  0.2101
  507TMC3     H 7591   2.222   1.008  15.346 -0.6804  1.1877  1.2590
  507TMC3    H1 7592   2.581   1.250  15.273 -0.7098  2.3652 -1.9448
  507TMC3    H2 7593   2.341   1.111  14.958 -0.3460  0.1910 -0.1277
  507TMC3    C7 7594   2.473   1.309  15.036  0.9936 -0.0449 -0.3179
  507TMC3    C8 7595   2.127   1.087  15.102 -0.1350 -0.2131  0.9153
  507TMC3    O1 7596   2.367   1.329  14.987 -0.1189  0.0164 -0.6969
  507TMC3    O2 7597   2.032   1.030  15.159  0.0439  0.1216  0.2123
  508MPD2     C 7598   3.514   3.339  15.857 -0.2193  0.0119 -0.0410
  508MPD2    C1 7599   3.621   3.424  15.889  0.4632 -0.2135 -0.3955
  508MPD2    C2 7600   3.693   3.481  15.788  0.2815 -0.2188 -0.8408
  508MPD2    C3 7601   3.655   3.463  15.656 -0.0219  0.0397 -0.4098
  508MPD2    C4 7602   3.542   3.382  15.631 -0.3024 -0.9620 -0.2296
  508MPD2    C5 7603   3.470   3.328  15.733 -0.4869 -0.2609  0.7807
  508MPD2     H 7604   3.775   3.548  15.812  0.6227 -1.3028  0.9979
  508MPD2    H1 7605   3.500   3.371  15.532 -0.7876  0.2065 -0.1521
  508MPD2    H2 7606   3.460   3.285  15.934  1.7980 -1.5089  0.2916
  508MPD2    H3 7607   3.389   3.262  15.705 -0.3575  0.3142 -0.9166
  508MPD2     N 7608   3.721   3.545  15.559  0.0342  0.2960 -0.2667
  508MPD2    H5 7609   3.780   3.618  15.596  0.3269 -0.1681  0.1887
  508MPD2    N1 7610   3.663   3.421  16.022  0.0328 -0.2802 -0.4601
  508MPD2    H7 7611   3.605   3.377  16.093 -2.3449  0.2455 -2.0786
  509TMC3    C1 7612   3.573   3.843  15.391  0.1892 -0.0114  0.1980
  509TMC3    C2 7613   3.669   3.915  15.463  0.2193 -0.1625 -0.5087
  509TMC3    C3 7614   3.788   3.854  15.488 -0.1104  0.3297  0.1533
  509TMC3    C4 7615   3.607   3.721  15.336 -0.3911  0.5823 -0.3127
  509TMC3    C5 7616   3.729   3.659  15.364 -0.4505 -0.3559  0.4909
  509TMC3    C6 7617   3.821   3.735  15.437 -0.1925 -0.0436 -0.5311
  509TMC3     C 7618   3.443   3.893  15.346 -0.2878  0.3789 -0.5832
  509TMC3     O 7619   3.362   3.808  15.304  0.2473 -0.4300  0.0843
  509TMC3     H 7620   3.632   3.986  15.537 -0.6883 -0.8867 -0.2600
  509TMC3    H1 7621   3.532   3.670  15.277  2.1874 -3.1776 -0.2667
  509TMC3    H2 7622   3.910   3.681  15.469  0.5101 -0.0176 -2.4055
  509TMC3    C7 7623   3.705   3.535  15.425 -0.8109 -0.2627  0.6167
  509TMC3    C8 7624   3.854   3.879  15.611 -0.4384  0.9122 -0.8605
  509TMC3    O1 7625   3.640   3.448  15.365 -0.2256 -0.5854  0.2035
  509TMC3    O2 7626   3.895   3.776  15.670 -0.3830  0.2629 -0.1948
  510MPD2     C 7627   1.145   0.812  14.712 -1.0222 -0.6983  0.4737
  510MPD2    C1 7628   1.202   0.701  14.771 -0.1715  0.4382  0.2673
  510MPD2    C2 7629   1.313   0.647  14.711 -0.4377  0.4637 -0.6027
  510MPD2    C3 7630   1.366   0.698  14.592  0.0955  0.4143 -0.5073
  510MPD2    C4 7631   1.316   0.815  14.540 -0.1135  0.4603 -1.0256
  510MPD2    C5 7632   1.204   0.865  14.600  1.6115  0.2005 -0.1959
  510MPD2     H 7633   1.362   0.554  14.739 -0.1802  0.1534 -2.0959
  510MPD2    H1 7634   1.360   0.859  14.450  0.2730  0.1510 -0.9877
  510MPD2    H2 7635   1.054   0.854  14.752 -1.2371 -0.0661 -0.6864
  510MPD2    H3 7636   1.159   0.954  14.557  1.1055  0.4805  0.8803
  510MPD2     N 7637   1.484   0.645  14.537 -0.0856 -0.3533 -0.0889
  510MPD2    H5 7638   1.507   0.552  14.571 -1.3979 -0.8019 -0.4256
  510MPD2    N1 7639   1.141   0.641  14.887  0.5501 -0.2397  0.1454
  510MPD2    H7 7640   1.057   0.691  14.914  0.5902 -0.3781  0.5348
  511TMC3    C1 7641   1.101   0.479  15.060 -0.2914 -0.0077 -0.5384
  511TMC3    C2 7642   0.995   0.561  15.105 -0.0365  0.1892  1.4229
  511TMC3    C3 7643   0.891   0.504  15.181 -0.7025  0.5051 -0.1270
  511TMC3    C4 7644   1.105   0.343  15.087  0.2224 -0.0659  0.3029
  511TMC3    C5 7645   0.996   0.284  15.145  0.0697  0.1670  0.5990
  511TMC3    C6 7646   0.889   0.364  15.191 -0.1329 -0.8281  0.3176
  511TMC3     C 7647   1.183   0.526  14.949  0.0065  0.1743  0.1270
  511TMC3     O 7648   1.280   0.454  14.925  0.3508 -0.3940  0.0219
  511TMC3     H 7649   0.991   0.667  15.082  0.2154 -0.4295 -1.4493
  511TMC3    H1 7650   1.187   0.282  15.052  0.0492  0.4628 -1.0189
  511TMC3    H2 7651   0.799   0.321  15.234 -0.7764  1.0011  0.7969
  511TMC3    C7 7652   0.952   0.157  15.093  0.0266 -0.1634 -0.0886
  511TMC3    C8 7653   0.799   0.588  15.255 -0.0031  0.3258 -0.4744
  511TMC3    O1 7654   0.954   0.147  14.973  0.7662  0.2070 -0.5477
  511TMC3    O2 7655   0.815   0.711  15.241 -0.0212  0.2245  0.0948
  512TMC3    C1 7656   4.252   4.696  13.500 -0.4864  0.2139  0.1330
  512TMC3    C2 7657   4.383   4.696  13.541 -0.9467  0.6950  0.3948
  512TMC3    C3 7658   4.467   4.588  13.516  0.4949 -0.4139 -0.0280
  512TMC3    C4 7659   4.205   4.582  13.435  0.0446  0.2183  0.4152
  512TMC3    C5 7660   4.288   4.473  13.421 -0.3442 -0.5025  0.3444
  512TMC3    C6 7661   4.418   4.474  13.468  0.3372 -0.3731 -0.1159
  512TMC3     C 7662   4.152   0.045  13.540 -0.0086  0.5471  0.1118
  512TMC3     O 7663   4.039   0.015  13.511 -0.6348 -0.0197 -0.5106
  512TMC3     H 7664   4.418   0.040  13.599 -0.8633  0.6603  0.3955
  512TMC3    H1 7665   4.100   4.571  13.410 -0.5872  4.2982  1.3393
  512TMC3    H2 7666   4.484   4.388  13.464  0.7373 -0.1449  1.6763
  512TMC3    C7 7667   4.247   4.371  13.323  0.9700  0.6206 -0.3451
  512TMC3    C8 7668   4.595   4.576  13.584  0.4873  0.3526 -0.4415
  512TMC3    O1 7669   4.161   4.412  13.242  0.1521 -0.1018 -0.5317
  512TMC3    O2 7670   4.643   4.466  13.585 -0.0218 -0.2293  0.2782
  513MPD2     C 7671   2.315   0.261  13.101  0.0095  0.3526  0.3495
  513MPD2    C1 7672   2.257   0.153  13.163  0.6180  0.3765 -0.1532
  513MPD2    C2 7673   2.339   0.048  13.187  0.3344  0.2325 -0.2200
  513MPD2    C3 7674   2.472   0.056  13.165 -0.0261  0.3074  0.0971
  513MPD2    C4 7675   2.536   0.159  13.109  0.5022 -0.4046 -0.3873
  513MPD2    C5 7676   2.454   0.266  13.083  0.1864 -0.6394  0.4382
  513MPD2     H 7677   2.288   4.703  13.232 -0.5197 -0.2136 -2.0412
  513MPD2    H1 7678   2.640   0.174  13.084  0.9169 -3.8615 -0.8214
  513MPD2    H2 7679   2.264   0.350  13.064 -1.7478  0.0276  1.9988
  513MPD2    H3 7680   2.495   0.356  13.040 -4.3561  0.7144 -1.1076
  513MPD2     N 7681   2.539   4.678  13.207  0.1647  0.5106 -0.1196
  513MPD2    H5 7682   2.487   4.614  13.266 -0.6312  0.7904 -0.5159
  513MPD2    N1 7683   2.115   0.146  13.172 -0.4813  0.8017 -0.3267
  513MPD2    H7 7684   2.060   0.212  13.119 -1.0602 -0.8798 -1.8303
  514TMC3    C1 7685   1.908   0.066  13.262  0.2879 -0.1096  0.3460
  514TMC3    C2 7686   1.846   0.092  13.142 -0.0645 -0.4282  0.0815
  514TMC3    C3 7687   1.720   0.034  13.126  0.7004 -0.2018 -0.3204
  514TMC3    C4 7688   1.860   4.711  13.346  0.6648 -0.5171 -0.2148
  514TMC3    C5 7689   1.747   4.644  13.316 -0.1530  0.3469 -0.4584
  514TMC3    C6 7690   1.678   4.672  13.204  0.6236  0.5959 -0.3657
  514TMC3     C 7691   2.053   0.077  13.265  0.3713 -0.4776 -0.0551
  514TMC3     O 7692   2.099   0.028  13.360 -0.2411 -0.1266 -0.2740
  514TMC3     H 7693   1.883   0.170  13.075 -1.2489  0.2349  0.2016
  514TMC3    H1 7694   1.899   4.695  13.447  0.0141  0.0233  0.1203
  514TMC3    H2 7695   1.598   4.605  13.174  0.1483  1.6606 -1.4811
  514TMC3    C7 7696   1.763   4.503  13.330 -0.1985 -0.2483 -0.0691
  514TMC3    C8 7697   1.616   0.078  13.034 -0.5496  0.1535 -0.1151
  514TMC3    O1 7698   1.671   4.429  13.303  0.0335  0.1367 -0.0365
  514TMC3    O2 7699   1.508   0.034  13.061 -0.4754  0.8112  0.4805
  515MPD2     C 7700   4.723   1.998  14.412  0.4973 -0.1925  0.4888
  515MPD2    C1 7701   4.726   1.922  14.525 -0.3386  0.0733 -0.0223
  515MPD2    C2 7702   0.084   1.946  14.623  0.2918 -1.0333 -0.2085
  515MPD2    C3 7703   0.197   2.020  14.593 -0.1150  0.1939 -0.2041
  515MPD2    C4 7704   0.201   2.081  14.471 -0.0256  0.5926  0.2835
  515MPD2    C5 7705   0.089   2.084  14.393  0.6561  0.7796  0.4329
  515MPD2     H 7706   0.069   1.908  14.723  1.3782 -0.5864  0.1259
  515MPD2    H1 7707   0.286   2.138  14.436 -1.0758  0.5511 -2.3089
  515MPD2    H2 7708   4.645   2.006  14.338 -0.1588  0.1881  1.2100
  515MPD2    H3 7709   0.102   2.132  14.296  0.5571 -0.5036 -0.2202
  515MPD2     N 7710   0.307   2.028  14.675 -0.0310  0.0467 -0.3790
  515MPD2    H5 7711   0.398   2.052  14.638  0.2350 -3.0444 -1.7611
  515MPD2    N1 7712   4.611   1.843  14.553  0.6223 -0.1783  0.3639
  515MPD2    H7 7713   4.532   1.846  14.490  1.8531  0.2490 -1.1379
  516TMC3    C1 7714   4.483   1.672  14.649 -1.1037  0.9707  0.3846
  516TMC3    C2 7715   4.385   1.702  14.555  0.2669  0.2794 -0.2546
  516TMC3    C3 7716   4.278   1.622  14.553  0.6166  0.2197 -0.1445
  516TMC3    C4 7717   4.459   1.582  14.742 -0.5406  0.2052 -0.0598
  516TMC3    C5 7718   4.356   1.500  14.735  0.4043 -0.5669  0.0767
  516TMC3    C6 7719   4.263   1.514  14.634  0.1066  0.6695  0.7154
  516TMC3     C 7720   4.599   1.750  14.659  0.5947  0.4190  0.1001
  516TMC3     O 7721   4.683   1.712  14.734 -0.2943  0.2741 -0.5707
  516TMC3     H 7722   4.384   1.803  14.515  1.7216  0.6842  0.7308
  516TMC3    H1 7723   4.522   1.570  14.830 -0.0248  0.7416 -0.3611
  516TMC3    H2 7724   4.163   1.472  14.636  1.5763 -2.8932 -0.8641
  516TMC3    C7 7725   4.356   1.389  14.833 -0.0841 -0.2979 -0.1353
  516TMC3    C8 7726   4.160   1.661  14.467 -0.1029  0.6162 -0.2965
  516TMC3    O1 7727   4.464   1.357  14.884 -0.0929  0.0714 -0.1955
  516TMC3    O2 7728   4.052   1.607  14.483 -0.0430 -0.2173  0.8271
  517MPD2     C 7729   4.293   3.582  17.741 -0.2447 -0.2902  0.2046
  517MPD2    C1 7730   4.405   3.563   0.059 -0.4160 -0.3099 -0.3226
  517MPD2    C2 7731   4.454   3.666   0.136  0.2507 -0.3247 -0.1632
  517MPD2    C3 7732   4.385   3.788   0.130 -0.2542 -0.1717 -0.3401
  517MPD2    C4 7733   4.270   3.803   0.062  0.0906 -0.1031  0.7279
  517MPD2    C5 7734   4.226   3.699  17.740  0.6052  0.3796 -0.8061
  517MPD2     H 7735   4.543   3.652   0.197 -0.8327 -1.3638  1.1800
  517MPD2    H1 7736   4.212   3.893   0.077 -0.0273  0.2928 -2.0623
  517MPD2    H2 7737   4.246   3.506  17.679 -0.4306 -0.4828  0.5790
  517MPD2    H3 7738   4.138   3.711  17.678  1.0126  0.7537 -1.3065
  517MPD2     N 7739   4.415   3.901   0.211  0.1665  0.6282 -0.3127
  517MPD2    H5 7740   4.361   3.986   0.198  1.3318  1.4027 -0.1081
  517MPD2    N1 7741   4.486   3.444   0.060  0.4168 -0.0069 -0.2897
  517MPD2    H7 7742   4.575   3.439   0.109  1.2456 -0.6523 -1.8648
  518TMC3    C1 7743   4.547   3.233  17.753 -1.0107  0.1523  0.1819
  518TMC3    C2 7744   4.487   3.111  17.734 -0.5860  0.1008  0.1742
  518TMC3    C3 7745   4.566   3.007  17.701  0.3847 -1.2582  0.2163
  518TMC3    C4 7746   4.679   3.257  17.713 -0.1454 -0.6255  0.7094
  518TMC3    C5 7747   0.012   3.147  17.671  0.8401  0.0336  0.3229
  518TMC3    C6 7748   4.700   3.021  17.663 -0.5032  0.4443 -0.2205
  518TMC3     C 7749   4.453   3.339  17.734 -0.0419 -0.1526 -0.5988
  518TMC3     O 7750   4.360   3.325  17.655  0.4651  0.8279 -0.6195
  518TMC3     H 7751   4.386   3.086   0.007 -1.5305 -0.8810 -4.0621
  518TMC3    H1 7752   4.720   3.358  17.709  0.7247 -0.9523  1.4948
  518TMC3    H2 7753   0.024   2.936  17.644 -0.6290  0.2494  0.2501
  518TMC3    C7 7754   0.132   3.167  17.595  0.0957  0.8284 -0.1053
  518TMC3    C8 7755   4.512   2.877  17.730  0.1582 -0.2820  0.3311
  518TMC3    O1 7756   0.152   3.273  17.544 -0.3700  0.1145 -0.3583
  518TMC3    O2 7757   4.414   2.860   0.040 -0.0270  0.2963  0.2911
  519MPD2     C 7758   1.270   1.318  14.468  1.1276 -0.1446  0.0801
  519MPD2    C1 7759   1.251   1.328  14.333 -0.5386 -0.6840 -0.4459
  519MPD2    C2 7760   1.326   1.250  14.252  0.6218  0.1293 -0.1797
  519MPD2    C3 7761   1.415   1.152  14.304 -0.1298  0.2849  0.2148
  519MPD2    C4 7762   1.431   1.158  14.437  0.6846 -0.1932 -0.2814
  519MPD2    C5 7763   1.363   1.240  14.525  0.2575  0.2388 -0.3851
  519MPD2     H 7764   1.315   1.250  14.144 -1.4879 -0.7595  0.0256
  519MPD2    H1 7765   1.492   1.078  14.476 -3.0639 -2.5110  0.7827
  519MPD2    H2 7766   1.209   1.378  14.536 -0.7343 -0.7073 -1.0938
  519MPD2    H3 7767   1.379   1.233  14.632  0.9886  0.9357 -0.4488
  519MPD2     N 7768   1.482   1.055  14.223  0.2194  0.6113 -0.2066
  519MPD2    H5 7769   1.546   1.002  14.282 -0.2002 -0.3229 -0.6059
  519MPD2    N1 7770   1.153   1.417  14.279 -0.1723 -0.0498  0.0284
  519MPD2    H7 7771   1.084   1.463  14.337  2.3230  1.6998  1.5740
  520TMC3    C1 7772   1.521   0.914  14.040 -0.2056 -0.2606  0.5949
  520TMC3    C2 7773   1.491   0.890  13.902 -0.2120  0.1936 -0.6697
  520TMC3    C3 7774   1.584   0.872  13.811  0.3564  0.9355 -0.4700
  520TMC3    C4 7775   1.653   0.906  14.076 -0.0209  0.0186 -0.3245
  520TMC3    C5 7776   1.746   0.880  13.983  0.1154  0.3599  0.2232
  520TMC3    C6 7777   1.710   0.866  13.851 -0.3372 -0.4283 -0.6522
  520TMC3     C 7778   1.446   1.020  14.094  0.2645  0.5164 -0.3063
  520TMC3     O 7779   1.362   1.062  14.017  0.2620  0.2336  0.6451
  520TMC3     H 7780   1.386   0.891  13.872 -0.2545  0.9115 -0.4999
  520TMC3    H1 7781   1.684   0.914  14.180  0.8667  0.9993 -0.6663
  520TMC3    H2 7782   1.789   0.851  13.778  0.2266  3.3528 -0.8108
  520TMC3    C7 7783   1.882   0.890  14.031  0.0057  0.0298  0.3191
  520TMC3    C8 7784   1.561   0.945  13.689  0.0780  0.4190 -0.8521
  520TMC3    O1 7785   1.909   0.857  14.144  0.1079  0.1487 -0.0208
  520TMC3    O2 7786   1.655   1.018  13.661 -0.2302  0.4078  0.6902
  521MPD2     C 7787   2.582   4.428  17.229  0.6758  0.6715  0.8214
  521MPD2    C1 7788   2.565   4.295  17.182 -0.0626  0.6654  0.7069
  521MPD2    C2 7789   2.663   4.245  17.097 -0.0883  0.8971 -0.4976
  521MPD2    C3 7790   2.764   4.321  17.048 -1.0839 -0.2259  0.7932
  521MPD2    C4 7791   2.782   4.449  17.102 -0.7432  0.0645 -0.5112
  521MPD2    C5 7792   2.693   4.503  17.191  0.3907 -0.3019 -0.5434
  521MPD2     H 7793   2.662   4.142  17.065 -1.5278  1.0145 -0.8095
  521MPD2    H1 7794   2.863   4.516  17.075 -0.1425 -0.5574 -0.2533
  521MPD2    H2 7795   2.510   4.479  17.293  0.4580  0.2538  0.9095
  521MPD2    H3 7796   2.716   4.602  17.228 -0.8785  0.5385 -1.9788
  521MPD2     N 7797   2.843   4.271  16.942 -0.4256  0.0407  0.1475
  521MPD2    H5 7798   2.815   4.182  16.901 -2.7713  1.2780 -0.9132
  521MPD2    N1 7799   2.461   4.210  17.230 -0.2041 -0.0140  0.4274
  521MPD2    H7 7800   2.399   4.263  17.291 -0.6681 -0.4481  0.3382
  522TMC3    C1 7801   3.024   4.254  16.797  0.2358  0.6403 -1.0320
  522TMC3    C2 7802   3.150   4.216  16.826  0.0791 -1.0102 -0.1357
  522TMC3    C3 7803   3.196   4.098  16.781 -0.8958  0.1811 -0.1077
  522TMC3    C4 7804   2.940   4.184  16.710  0.0096 -0.5612  1.0280
  522TMC3    C5 7805   2.989   4.071  16.653  0.1421  0.8538 -0.4407
  522TMC3    C6 7806   3.117   4.025  16.688  0.2926 -0.1662 -0.2816
  522TMC3     C 7807   2.959   4.328  16.899 -0.2710 -0.3367  0.0272
  522TMC3     O 7808   3.014   4.432  16.940  0.2803 -0.1006  0.4222
  522TMC3     H 7809   3.209   4.268  16.901 -0.1576 -1.5791  0.4401
  522TMC3    H1 7810   2.840   4.224  16.702 -0.5624 -1.9498  1.2566
  522TMC3    H2 7811   3.145   3.923  16.664  0.7665 -0.7031  2.6420
  522TMC3    C7 7812   2.888   3.975  16.624  0.3063 -0.3918  0.2362
  522TMC3    C8 7813   3.314   4.031  16.845  0.2024  0.1075 -0.2912
  522TMC3    O1 7814   2.914   3.860  16.668  0.0410 -0.2296  0.2929
  522TMC3    O2 7815   3.350   4.064  16.959  0.1841  0.9017  0.4333
  523MPD2     C 7816   4.317   3.873  10.260  0.4010 -0.5138  0.1508
  523MPD2    C1 7817   4.249   3.768  10.214 -0.2261  0.6917  0.5844
  523MPD2    C2 7818   4.120   3.784  10.152  0.6029  0.2128 -0.1993
  523MPD2    C3 7819   4.069   3.917  10.132 -0.1759 -0.3327  0.2661
  523MPD2    C4 7820   4.144   4.021  10.176 -0.4219 -0.2793 -0.1728
  523MPD2    C5 7821   4.262   3.997  10.245  0.0117 -0.2503  0.4703
  523MPD2     H 7822   4.062   3.698  10.120 -0.1728  0.3622  0.7909
  523MPD2    H1 7823   4.117   4.123  10.154  2.2316 -0.0715 -2.5369
  523MPD2    H2 7824   4.416   3.869  10.302  1.0010  1.0300 -1.0955
  523MPD2    H3 7825   4.316   4.087  10.270 -1.0710  0.8827 -1.2833
  523MPD2     N 7826   3.940   3.943  10.070 -0.0594  0.5460  0.1731
  523MPD2    H5 7827   3.908   4.039  10.079 -0.4945  0.3511  0.7364
  523MPD2    N1 7828   4.316   3.643  10.237 -0.1902  0.5724  0.2496
  523MPD2    H7 7829   4.390   3.651  10.307 -0.0729  0.7605  0.1029
  524TMC3    C1 7830   3.737   3.902   9.944  0.2525 -1.2099  1.1031
  524TMC3    C2 7831   3.646   3.812   9.897  0.3740  0.1390 -0.7399
  524TMC3    C3 7832   3.527   3.859   9.837  0.0580  0.0952  0.0429
  524TMC3    C4 7833   3.706   4.036   9.962  0.5903  0.1001 -0.2588
  524TMC3    C5 7834   3.585   4.079   9.914  0.2552  0.1392  0.4159
  524TMC3    C6 7835   3.490   3.998   9.859  0.2363 -0.3609  0.7169
  524TMC3     C 7836   3.869   3.850  10.000 -0.1847  0.4146 -0.2627
  524TMC3     O 7837   3.902   3.733   9.976  0.4230  0.4137  0.4223
  524TMC3     H 7838   3.687   3.715   9.874 -1.0441 -0.9686  1.4697
  524TMC3    H1 7839   3.778   4.115   9.979  0.9480 -0.5251  1.1319
  524TMC3    H2 7840   3.391   4.031   9.831 -0.2033 -1.7532  0.6161
  524TMC3    C7 7841   3.565   4.222   9.904 -0.3805 -0.7357 -0.4020
  524TMC3    C8 7842   3.434   3.753   9.827 -0.6454 -0.2270  0.3114
  524TMC3    O1 7843   3.628   4.297   9.984  0.1878 -0.2461 -0.0529
  524TMC3    O2 7844   3.461   3.640   9.862 -0.5444  0.7456 -0.2104
  525MPD2     C 7845   2.764   1.171  14.728 -0.2563 -0.0472 -0.1008
  525MPD2    C1 7846   2.903   1.186  14.722 -0.5653 -0.0412  0.0249
  525MPD2    C2 7847   2.952   1.315  14.704  0.1718 -0.4148 -0.2174
  525MPD2    C3 7848   2.877   1.428  14.721 -0.2115 -0.3861 -0.9328
  525MPD2    C4 7849   2.742   1.407  14.745  1.1033  0.3992  0.4737
  525MPD2    C5 7850   2.683   1.282  14.728  0.0132 -0.5887  0.5628
  525MPD2     H 7851   3.059   1.330  14.695 -0.1708  1.1946 -1.6030
  525MPD2    H1 7852   2.678   1.494  14.743  2.0856  1.1198  0.2299
  525MPD2    H2 7853   2.721   1.073  14.742  0.4972 -0.2142  1.1219
  525MPD2    H3 7854   2.575   1.283  14.724 -0.0977  1.1612  3.9957
  525MPD2     N 7855   2.933   1.556  14.726  0.6345 -0.3578 -0.4800
  525MPD2    H5 7856   2.872   1.636  14.739  0.0667 -0.6947 -1.0491
  525MPD2    N1 7857   2.998   1.079  14.740 -0.4204 -0.9388 -0.6109
  525MPD2    H7 7858   3.095   1.099  14.760 -0.6993  0.5228 -0.7323
  526TMC3    C1 7859   3.076   0.838  14.757  0.5890 -0.6238  0.0792
  526TMC3    C2 7860   3.037   0.720  14.814 -0.1440 -0.1015  0.0704
  526TMC3    C3 7861   3.137   0.634  14.854 -0.7584  0.5308 -0.5754
  526TMC3    C4 7862   3.205   0.868  14.730 -0.6316  0.4042  0.2559
  526TMC3    C5 7863   3.300   0.779  14.768 -0.4083 -0.5837  1.0501
  526TMC3    C6 7864   3.270   0.658  14.830 -0.2545  0.5057  0.7823
  526TMC3     C 7865   2.963   0.936  14.731 -0.4030  0.0740  0.5333
  526TMC3     O 7866   2.860   0.891  14.698 -0.0853  0.4197  0.5016
  526TMC3     H 7867   2.935   0.725  14.851 -0.1421  2.4075 -0.2504
  526TMC3    H1 7868   3.225   0.964  14.684  0.1146  0.3474  0.4560
  526TMC3    H2 7869   3.348   0.599  14.877 -0.8802 -1.0147 -0.0659
  526TMC3    C7 7870   3.416   0.780  14.695 -0.3919  0.3757 -0.2083
  526TMC3    C8 7871   3.124   0.564  14.981  0.3473 -0.0999  0.3196
  526TMC3    O1 7872   3.453   0.886  14.644  0.6025 -0.1060  0.3540
  526TMC3    O2 7873   3.229   0.517  15.032 -0.5186 -0.2883 -0.1881
  527MPD2     C 7874   0.829   4.466   1.032 -0.1173  0.0879  0.1730
  527MPD2    C1 7875   0.824   4.436   0.894 -0.1069 -0.1495  0.1990
  527MPD2    C2 7876   0.915   4.357   0.837  0.3516 -0.0383 -0.5041
  527MPD2    C3 7877   1.020   4.304   0.913 -0.0737 -0.1183  0.1693
  527MPD2    C4 7878   1.032   4.339   1.043 -0.1485 -0.0391 -0.1091
  527MPD2    C5 7879   0.942   4.420   1.097  0.4543  0.0209  0.3191
  527MPD2     H 7880   0.912   4.343   0.730  1.1708  2.3006 -0.8195
  527MPD2    H1 7881   1.116   4.316   1.108 -1.2886 -1.8490  0.7299
  527MPD2    H2 7882   0.760   4.534   1.081 -0.8829 -1.4366  1.2084
  527MPD2    H3 7883   0.946   4.452   1.200 -2.1619  2.5521 -0.3795
  527MPD2     N 7884   1.120   4.224   0.840  0.3316  0.2327  0.3348
  527MPD2    H5 7885   1.110   4.221   0.739  0.6206 -1.0104  0.3391
  527MPD2    N1 7886   0.704   4.459   0.818 -0.0269  0.2469  0.0674
  527MPD2    H7 7887   0.703   4.427   0.722 -2.6761  0.1326  0.1403
  528TMC3    C1 7888   0.493   4.523   0.747  0.0549 -0.0790 -0.5860
  528TMC3    C2 7889   0.535   4.513   0.616  0.0624 -0.0187  0.1881
  528TMC3    C3 7890   0.445   4.489   0.519 -0.4858 -0.5525  0.1041
  528TMC3    C4 7891   0.353   4.524   0.774 -0.1044  0.1676  0.3699
  528TMC3    C5 7892   0.265   4.503   0.673  0.2717 -0.2160 -0.4387
  528TMC3    C6 7893   0.313   4.473   0.546 -0.3085  0.0754  0.1975
  528TMC3     C 7894   0.586   4.518   0.857  0.3033 -0.5916  0.6964
  528TMC3     O 7895   0.540   4.545   0.970  0.3503 -0.4023 -0.0223
  528TMC3     H 7896   0.641   4.531   0.600 -0.5830  2.5965 -1.1493
  528TMC3    H1 7897   0.320   4.545   0.875  2.6605 -0.8860  1.4813
  528TMC3    H2 7898   0.242   4.472   0.465 -1.8129 -0.2687  1.5174
  528TMC3    C7 7899   0.118   4.504   0.676 -0.3629 -0.6228 -0.6476
  528TMC3    C8 7900   0.501   4.436   0.396  0.1735 -0.0479 -0.0315
  528TMC3    O1 7901   0.062   4.528   0.571  0.2021 -1.0972 -0.0250
  528TMC3    O2 7902   0.616   4.463   0.370 -0.0383  0.6106 -0.5491
  529MPD2     C 7903   3.203   2.708   1.034 -0.4513  0.2002 -0.5166
  529MPD2    C1 7904   3.295   2.702   0.933  0.4696  0.3245 -0.6656
  529MPD2    C2 7905   3.274   2.772   0.814  0.1975 -0.6127  0.1029
  529MPD2    C3 7906   3.157   2.847   0.794  0.5648 -0.3785 -0.0016
  529MPD2    C4 7907   3.071   2.868   0.895 -0.2459 -0.2337  0.2517
  529MPD2    C5 7908   3.102   2.804   1.015  0.2761 -0.6911 -0.1237
  529MPD2     H 7909   3.340   2.743   0.733  0.6671 -1.1527  0.6724
  529MPD2    H1 7910   2.979   2.925   0.884  0.7078  0.9727 -1.3971
  529MPD2    H2 7911   3.222   2.656   1.127 -1.4536 -2.9634 -2.0836
  529MPD2    H3 7912   3.035   2.830   1.097 -1.4510 -0.4237 -1.6143
  529MPD2     N 7913   3.141   2.928   0.678 -0.4064 -0.4412  0.4393
  529MPD2    H5 7914   3.220   2.918   0.615  0.6635  1.1139  1.5248
  529MPD2    N1 7915   3.414   2.628   0.948  0.4288 -0.0168 -0.0625
  529MPD2    H7 7916   3.479   2.618   0.870  1.9315 -1.0617  1.3041
  530TMC3    C1 7917   3.585   2.512   1.037  0.4099 -0.0053  0.6311
  530TMC3    C2 7918   3.674   2.510   1.144 -0.2399 -0.7409 -0.3174
  530TMC3    C3 7919   3.777   2.423   1.140  0.7907 -0.0080  0.6109
  530TMC3    C4 7920   3.604   2.425   0.944  0.0130 -0.8092  0.2573
  530TMC3    C5 7921   3.707   2.332   0.942  0.3979 -0.7055 -0.0449
  530TMC3    C6 7922   3.803   2.334   1.038 -0.8384 -0.4239  0.3759
  530TMC3     C 7923   3.463   2.576   1.068  0.0095 -0.4826 -0.0393
  530TMC3     O 7924   3.427   2.590   1.182  0.2523 -0.1151 -0.4807
  530TMC3     H 7925   3.652   2.568   1.233 -0.6081 -0.5330 -0.5468
  530TMC3    H1 7926   3.527   2.412   0.868  0.2573  0.5897 -0.2257
  530TMC3    H2 7927   3.879   2.257   1.038 -0.8687 -0.4458 -1.1898
  530TMC3    C7 7928   3.674   2.212   0.870 -0.5179  0.9835  0.4191
  530TMC3    C8 7929   3.842   2.409   1.271 -0.3148  0.6856  0.6657
  530TMC3    O1 7930   3.654   2.218   0.750 -0.4145 -0.1051  0.4247
  530TMC3    O2 7931   3.788   2.462   1.368 -0.1984 -0.1141  0.6083
  531MPD2     C 7932   2.127   4.120  13.362 -1.4447 -0.7318  0.5022
  531MPD2    C1 7933   2.191   4.243  13.355  0.0019 -0.1150  0.8469
  531MPD2    C2 7934   2.110   4.359  13.343  0.2663  1.0616  0.1064
  531MPD2    C3 7935   1.969   4.358  13.344  0.7439  0.1633  0.6567
  531MPD2    C4 7936   1.912   4.239  13.347 -0.0332 -0.9592 -0.1778
  531MPD2    C5 7937   1.989   4.124  13.348  0.1359  0.4871  0.7738
  531MPD2     H 7938   2.168   4.450  13.341 -2.2440  2.6358 -1.1680
  531MPD2    H1 7939   1.804   4.225  13.343  0.0569 -1.2906 -1.5240
  531MPD2    H2 7940   2.176   4.024  13.370  0.3174  0.0452 -0.8137
  531MPD2    H3 7941   1.931   4.033  13.345  1.4801 -0.3765  1.2583
  531MPD2     N 7942   1.897   4.476  13.348  0.7350 -0.8267 -0.4922
  531MPD2    H5 7943   1.960   4.555  13.331  0.9779 -0.4049  2.3967
  531MPD2    N1 7944   2.334   4.244  13.364  0.1046 -0.0696 -0.0493
  531MPD2    H7 7945   2.390   4.160  13.372  1.3343  0.9508  1.9968
  532TMC3    C1 7946   2.557   4.353  13.342 -0.5688  0.6204  0.6378
  532TMC3    C2 7947   2.620   4.477  13.349 -0.8010 -0.5103 -0.0485
  532TMC3    C3 7948   2.710   4.527  13.257 -0.3986  0.8641 -0.1282
  532TMC3    C4 7949   2.603   4.269  13.245  0.0450 -0.1744  0.2976
  532TMC3    C5 7950   2.708   4.303  13.173 -0.0554 -0.3219 -0.1787
  532TMC3    C6 7951   2.768   4.427  13.177 -0.4926 -0.6819 -0.2793
  532TMC3     C 7952   2.411   4.367  13.366 -0.5592 -0.1652  0.1566
  532TMC3     O 7953   2.386   4.487  13.386  0.1432 -0.0441  0.5748
  532TMC3     H 7954   2.599   4.558  13.418  1.4017  0.1895 -0.1705
  532TMC3    H1 7955   2.534   4.194  13.207 -0.9961  1.5956 -1.2555
  532TMC3    H2 7956   2.848   4.465  13.116 -0.2294  0.0650  0.5237
  532TMC3    C7 7957   2.764   4.209  13.082  0.0248 -0.2258 -0.2613
  532TMC3    C8 7958   2.670   4.646  13.183  0.3891  1.0313  0.7777
  532TMC3    O1 7959   2.824   4.267  12.992  0.1096 -0.1219 -0.1922
  532TMC3    O2 7960   2.743   4.698  13.100  0.1723 -0.3103  0.4909
  533TMC3    C1 7961   3.085   1.733  14.727  0.5221  1.0552 -0.5455
  533TMC3    C2 7962   3.202   1.776  14.669  0.2748  0.5087  0.1055
  533TMC3    C3 7963   3.293   1.844  14.746 -0.2065 -0.0911 -0.1180
  533TMC3    C4 7964   3.065   1.757  14.862 -0.5667  0.0133  0.0859
  533TMC3    C5 7965   3.155   1.831  14.937 -0.5060  0.1797 -0.4032
  533TMC3    C6 7966   3.270   1.869  14.881 -0.8453 -0.8875  0.1166
  533TMC3     C 7967   3.065   1.596  14.700 -0.5354  0.1462  0.0997
  533TMC3     O 7968   3.166   1.528  14.680 -0.6118 -0.1663  0.0778
  533TMC3     H 7969   3.220   1.753  14.564  2.7111  0.9801  0.4375
  533TMC3    H1 7970   2.983   1.701  14.907 -1.7996  0.8921 -1.0494
  533TMC3    H2 7971   3.356   1.904  14.936  0.4861  2.1379 -3.9045
  533TMC3    C7 7972   3.169   1.775  15.067 -0.2282  0.2609 -0.9060
  533TMC3    C8 7973   3.399   1.906  14.675  0.4972  0.3917  0.6860
  533TMC3    O1 7974   3.270   1.708  15.077 -0.0371  0.3261 -0.2343
  533TMC3    O2 7975   3.374   1.969  14.570 -0.1422 -0.1447 -0.3554
  534MPD2     C 7976   1.462   2.686   1.679 -0.1834 -0.4272 -0.1064
  534MPD2    C1 7977   1.465   2.768   1.568 -0.1668  0.0498  0.6870
  534MPD2    C2 7978   1.346   2.811   1.509 -0.2228  0.1852  0.7027
  534MPD2    C3 7979   1.222   2.756   1.552  0.1613  0.2213  0.1864
  534MPD2    C4 7980   1.223   2.674   1.662 -0.1046  0.2507 -0.4786
  534MPD2    C5 7981   1.340   2.634   1.720 -0.3723  0.0305  0.3785
  534MPD2     H 7982   1.349   2.886   1.430  0.7839  0.3638  0.9183
  534MPD2    H1 7983   1.127   2.641   1.698  1.3131 -0.7540  2.3413
  534MPD2    H2 7984   1.552   2.663   1.735  0.8627  0.0876 -1.5843
  534MPD2    H3 7985   1.346   2.571   1.808 -0.8589 -2.4803 -1.3911
  534MPD2     N 7986   1.091   2.778   1.492 -0.0599  0.1354 -0.3864
  534MPD2    H5 7987   1.018   2.726   1.540  2.1675 -1.9904  0.6942
  534MPD2    N1 7988   1.585   2.835   1.516 -0.2102  0.0884 -0.0340
  534MPD2    H7 7989   1.573   2.910   1.449  3.1627 -0.7952 -1.6322
  535TMC3    C1 7990   0.937   2.848   1.317 -0.0080  1.0767  0.0238
  535TMC3    C2 7991   0.830   2.798   1.386 -0.4150 -0.0826 -0.4875
  535TMC3    C3 7992   0.726   2.740   1.308  0.2669  0.1400 -0.0932
  535TMC3    C4 7993   0.938   2.866   1.184 -0.2796  0.0631  0.0537
  535TMC3    C5 7994   0.833   2.816   1.111 -0.0720 -0.6979 -0.4786
  535TMC3    C6 7995   0.722   2.760   1.173  0.3558 -0.1007 -0.0821
  535TMC3     C 7996   1.070   2.855   1.381  0.1867  1.0063  0.0816
  535TMC3     O 7997   1.141   2.943   1.335 -0.0721 -0.3703  0.4834
  535TMC3     H 7998   0.844   2.769   1.490 -2.4515  0.5538 -0.0304
  535TMC3    H1 7999   1.026   2.906   1.137 -0.1431  0.9616  1.0658
  535TMC3    H2 8000   0.639   2.734   1.109  0.6139 -1.9684  0.3484
  535TMC3    C7 8001   0.810   2.866   0.974  0.2840 -1.0498  0.2420
  535TMC3    C8 8002   0.596   2.728   1.367  0.2149  1.5035 -0.0905
  535TMC3    O1 8003   0.759   2.796   0.890  0.0939 -0.1412 -0.1163
  535TMC3    O2 8004   0.516   2.663   1.305 -0.3184  0.1702 -0.2457
  536MPD2     C 8005   4.568   1.048  16.428 -0.0058 -0.0714 -0.2117
  536MPD2    C1 8006   4.465   0.952  16.427  0.0776  0.9282 -0.0687
  536MPD2    C2 8007   4.377   0.969  16.317  0.4257  0.2041 -0.0016
  536MPD2    C3 8008   4.405   1.052  16.215  0.7148  0.2996  0.7494
  536MPD2    C4 8009   4.515   1.126  16.216 -0.1496 -0.0007 -0.4172
  536MPD2    C5 8010   4.592   1.125  16.323  0.1871  0.0700 -0.9646
  536MPD2     H 8011   4.300   0.893  16.307 -0.6138  1.3191 -0.4664
  536MPD2    H1 8012   4.547   1.188  16.133  1.2438 -2.3299 -1.6380
  536MPD2    H2 8013   4.648   1.044  16.501 -0.1279  0.2420 -0.0579
  536MPD2    H3 8014   4.675   1.194  16.325  0.4291 -0.2002 -1.7977
  536MPD2     N 8015   4.326   1.058  16.097 -0.0416  0.1487 -0.0717
  536MPD2    H5 8016   4.354   1.113  16.016  2.5751 -2.4955 -0.9509
  536MPD2    N1 8017   4.456   0.863  16.542 -0.4445  0.1431  0.1121
  536MPD2    H7 8018   4.523   0.860  16.618 -0.7868 -0.2470  0.3969
  537TMC3    C1 8019   4.337   0.707  16.680  0.0061  0.3464 -0.2587
  537TMC3    C2 8020   4.354   0.778  16.793  0.4031  0.1894  0.6957
  537TMC3    C3 8021   4.320   0.728  16.913 -0.3545  0.0805 -0.2530
  537TMC3    C4 8022   4.261   0.595  16.679  0.5048 -0.8049  0.1122
  537TMC3    C5 8023   4.235   0.540  16.799  0.3087  0.8337 -0.1558
  537TMC3    C6 8024   4.264   0.605  16.916 -0.0202 -0.1504 -0.1544
  537TMC3     C 8025   4.345   0.784  16.561  0.2564  0.6607  0.4489
  537TMC3     O 8026   4.249   0.767  16.490 -0.0984 -0.6114 -0.3156
  537TMC3     H 8027   4.413   0.868  16.781 -0.6895  0.8358  0.2265
  537TMC3    H1 8028   4.239   0.544  16.586 -2.9165  0.6740  0.0899
  537TMC3    H2 8029   4.225   0.570  17.011  0.9515 -1.8406 -0.3755
  537TMC3    C7 8030   4.169   0.412  16.805  0.1276 -0.8284  0.1258
  537TMC3    C8 8031   4.337   0.812  17.028  0.6314  0.0657 -0.1132
  537TMC3    O1 8032   4.129   0.360  16.698  0.0135 -0.2368  0.5245
  537TMC3    O2 8033   4.379   0.923  17.013  0.2671 -0.1844  0.1271
  538TMC3    C1 8034   4.733   3.792  11.565 -0.4864 -0.8724  0.0233
  538TMC3    C2 8035   0.105   3.712  11.575  0.3122 -0.1426 -0.0162
  538TMC3    C3 8036   0.209   3.726  11.487  0.3554  0.0067 -0.0610
  538TMC3    C4 8037   4.718   3.877  11.460 -0.0806 -0.6633 -0.3989
  538TMC3    C5 8038   0.080   3.878  11.362  0.5199  0.2894 -0.0182
  538TMC3    C6 8039   0.206   3.810  11.376  0.2699 -0.2862 -0.2897
  538TMC3     C 8040   4.708   3.861  11.691 -0.4836  0.0115  0.6681
  538TMC3     O 8041   4.600   3.911  11.704 -0.0215  0.2882  0.0514
  538TMC3     H 8042   0.117   3.649  11.663 -3.0497 -0.0365  0.5048
  538TMC3    H1 8043   4.625   3.930  11.448 -1.0983 -1.9110  1.9686
  538TMC3    H2 8044   0.290   3.828  11.311  0.4295  0.9507  0.2528
  538TMC3    C7 8045   0.049   3.944  11.243  0.5925  0.6167 -0.0311
  538TMC3    C8 8046   0.343   3.710  11.542 -0.5294  0.2598  0.2442
  538TMC3    O1 8047   4.693   4.023  11.242  0.4875 -0.1942  0.1005
  538TMC3    O2 8048   0.367   3.717  11.666  0.8064 -0.4899 -0.0248
  539MPD2     C 8049   4.179   2.860  12.015  0.0330  0.0929  0.0579
  539MPD2    C1 8050   4.222   2.870  11.879 -0.3019 -0.0891  0.2069
  539MPD2    C2 8051   4.249   2.997  11.832  0.4655 -0.0439  0.4919
  539MPD2    C3 8052   4.213   3.110  11.901  0.2141  0.0068 -0.3247
  539MPD2    C4 8053   4.154   3.100  12.026  0.0145  0.0690 -0.4810
  539MPD2    C5 8054   4.140   2.976  12.083 -0.1955  0.2730 -0.1553
  539MPD2     H 8055   4.314   3.002  11.745  0.3218 -2.8680  0.2184
  539MPD2    H1 8056   4.131   3.193  12.077  1.1893  1.2599 -2.1445
  539MPD2    H2 8057   4.162   2.766  12.065 -3.5337 -1.3012 -3.7416
  539MPD2    H3 8058   4.108   2.964  12.186 -3.2892  1.7756 -0.9379
  539MPD2     N 8059   4.235   3.244  11.852  0.1589 -0.0011  0.5830
  539MPD2    H5 8060   4.217   3.317  11.921  3.2407  1.6382 -0.3343
  539MPD2    N1 8061   4.266   2.758  11.805 -0.1205  0.4917 -0.4535
  539MPD2    H7 8062   4.291   2.781  11.710  0.9605  1.1371  0.0005
  540TMC3    C1 8063   4.295   3.415  11.699  0.5492  0.4027  0.0280
  540TMC3    C2 8064   4.292   3.453  11.565  0.4312  0.1238 -0.3929
  540TMC3    C3 8065   4.335   3.578  11.535 -0.4920  0.5276  0.8556
  540TMC3    C4 8066   4.324   3.504  11.802  0.1603  0.4797 -0.1466
  540TMC3    C5 8067   4.353   3.634  11.763 -0.2332  0.4006 -0.4841
  540TMC3    C6 8068   4.359   3.670  11.630  0.6620  0.0999  0.8826
  540TMC3     C 8069   4.268   3.278  11.722  0.4662 -0.0707 -0.5539
  540TMC3     O 8070   4.269   3.197  11.625 -0.0735  0.2186  0.0848
  540TMC3     H 8071   4.281   3.370  11.495  0.2485 -2.1571  2.3343
  540TMC3    H1 8072   4.336   3.474  11.905  0.4601  2.4212  0.3925
  540TMC3    H2 8073   4.395   3.768  11.602 -1.1559  0.4699 -0.1514
  540TMC3    C7 8074   4.318   3.729  11.868  0.4077 -0.0856  0.3562
  540TMC3    C8 8075   4.361   3.614  11.396 -0.0176  0.3498  0.3019
  540TMC3    O1 8076   4.237   3.687  11.945 -0.1526 -0.0880 -0.5205
  540TMC3    O2 8077   4.462   3.677  11.378  1.0505  0.4247  0.0092
  541MPD2     C 8078   3.268   4.725  13.391 -0.2193  0.0024 -0.4570
  541MPD2    C1 8079   3.197   4.637  13.311 -0.1099  0.0859 -0.4289
  541MPD2    C2 8080   3.203   4.656  13.170 -0.5069 -0.6823  0.0978
  541MPD2    C3 8081   3.270   0.030  13.117  1.0753 -1.1606 -0.7265
  541MPD2    C4 8082   3.337   0.112  13.193  0.0471  0.0923 -0.3291
  541MPD2    C5 8083   3.339   0.084  13.330  0.3205  0.3387 -0.0448
  541MPD2     H 8084   3.156   4.592  13.097  0.7875  1.1261 -2.3384
  541MPD2    H1 8085   3.406   0.188  13.158 -0.7888  0.6398 -0.8063
  541MPD2    H2 8086   3.283   4.701  13.496 -0.1100  0.3491 -0.3951
  541MPD2    H3 8087   3.397   0.147  13.396  2.3232 -0.4179 -1.0890
  541MPD2     N 8088   3.249   0.055  12.976  0.4837 -0.3287  0.2536
  541MPD2    H5 8089   3.220   4.720  12.912  0.1350 -0.7232  0.8670
  541MPD2    N1 8090   3.134   4.525  13.363  0.3211 -0.1465 -0.4986
  541MPD2    H7 8091   3.091   4.462  13.296 -0.0682  0.8751 -1.2124
  542TMC3    C1 8092   3.253   0.176  12.783 -0.9479 -0.1601 -0.1442
  542TMC3    C2 8093   3.290   0.071  12.701  0.5468  0.6309 -0.6746
  542TMC3    C3 8094   3.229   0.047  12.584 -0.8596 -0.2753 -0.9565
  542TMC3    C4 8095   3.162   0.263  12.739  0.9149  0.2296 -0.4625
  542TMC3    C5 8096   3.101   0.235  12.623 -0.5236  0.1926  0.9411
  542TMC3    C6 8097   3.135   0.130  12.541  0.2036 -0.3370  0.3656
  542TMC3     C 8098   3.283   0.177  12.924 -0.7465 -0.3476 -0.6507
  542TMC3     O 8099   3.304   0.282  12.983 -0.4457 -0.5367  0.1756
  542TMC3     H 8100   3.366   0.000  12.731  1.4977  2.4707  1.2744
  542TMC3    H1 8101   3.119   0.344  12.797  0.5586 -0.0298 -0.3621
  542TMC3    H2 8102   3.086   0.108  12.447 -2.8539  2.9279  1.1871
  542TMC3    C7 8103   2.996   0.324  12.582  0.1156  0.8307 -0.2642
  542TMC3    C8 8104   3.281   4.690  12.491  0.8024 -0.4707  0.1589
  542TMC3    O1 8105   2.948   0.392  12.670 -0.1625  0.2350 -0.2594
  542TMC3    O2 8106   3.199   4.637  12.417  0.3295 -0.1455  0.2438
  543TMC3    C1 8107   3.221   1.815  17.264  0.4858 -0.0248  0.2942
  543TMC3    C2 8108   3.207   1.713  17.350 -0.6689 -0.6283  0.6261
  543TMC3    C3 8109   3.143   1.732  17.468 -0.6591 -0.0982 -0.2185
  543TMC3    C4 8110   3.185   1.941  17.304  0.2384  0.1089  0.4421
  543TMC3    C5 8111   3.118   1.961  17.421  0.7427 -0.1017 -0.2213
  543TMC3    C6 8112   3.093   1.859  17.506 -0.6884 -0.3503 -0.2012
  543TMC3     C 8113   3.271   1.784  17.132 -0.6657  0.4917 -0.1954
  543TMC3     O 8114   3.349   1.691  17.127  0.7670 -0.3425 -0.1062
  543TMC3     H 8115   3.225   1.612  17.314 -0.6324 -0.4293  0.0887
  543TMC3    H1 8116   3.196   2.028  17.240 -2.3656  0.3131  0.2495
  543TMC3    H2 8117   3.028   1.869  17.593 -0.5750 -1.9473  0.0718
  543TMC3    C7 8118   3.086   2.091  17.478 -0.7416 -0.2202 -0.2870
  543TMC3    C8 8119   3.092   1.618  17.536 -0.1044  0.3528 -0.3322
  543TMC3    O1 8120   3.015   2.089  17.578 -0.0384 -0.6761 -0.1685
  543TMC3    O2 8121   3.078   1.520  17.460  0.1391 -0.0362  0.1283
  544MPD2     C 8122   3.027   1.258   0.131 -0.4757  0.0203  0.0960
  544MPD2    C1 8123   2.962   1.270   0.011 -0.3962  0.2117 -0.2772
  544MPD2    C2 8124   2.978   1.392  17.698 -0.5349 -0.0488  0.1584
  544MPD2    C3 8125   3.054   1.495  17.751  0.2343  0.1320  0.0709
  544MPD2    C4 8126   3.107   1.483   0.120 -0.0211  1.1221  0.3061
  544MPD2    C5 8127   3.091   1.365   0.186  0.7890 -0.3483 -0.2215
  544MPD2     H 8128   2.928   1.418  17.606 -0.9383 -0.9892  0.1162
  544MPD2    H1 8129   3.176   1.558   0.159  1.3125 -0.7370  1.5494
  544MPD2    H2 8130   3.030   1.165   0.187  0.7801 -0.1399 -0.2333
  544MPD2    H3 8131   3.136   1.345   0.282 -2.3711  3.3270  1.9967
  544MPD2     N 8132   3.088   1.614  17.675  0.7540  0.0196  0.7527
  544MPD2    H5 8133   3.135   1.691  17.722 -0.0105  0.3993  0.8986
  544MPD2    N1 8134   2.892   1.161  17.716 -0.5323 -0.2669 -0.3896
  544MPD2    H7 8135   2.917   1.071  17.755  0.9805  0.8203  1.2007
  545TMC3    C1 8136   2.697   1.068  17.604 -0.2098  0.1577 -0.3987
  545TMC3    C2 8137   2.609   1.083  17.504  0.0908  0.0974  0.0056
  545TMC3    C3 8138   2.559   0.971  17.449  0.5729 -0.2437 -0.0311
  545TMC3    C4 8139   2.720   0.952  17.667  0.5987  0.6640 -0.5214
  545TMC3    C5 8140   2.652   0.839  17.617  0.2053  0.2186 -0.4880
  545TMC3    C6 8141   2.573   0.846  17.506 -0.3127 -0.1386  0.1581
  545TMC3     C 8142   2.776   1.184  17.640  0.6256  0.2267  0.0976
  545TMC3     O 8143   2.733   1.287  17.596  0.4067 -0.1420 -0.1654
  545TMC3     H 8144   2.596   1.177  17.451 -0.5580 -0.4521 -0.8125
  545TMC3    H1 8145   2.768   0.952   0.009  0.0331  1.4188 -0.2376
  545TMC3    H2 8146   2.544   0.756  17.453  0.2060  1.3527 -2.6490
  545TMC3    C7 8147   2.658   0.705  17.674  0.5622 -0.1574  0.1868
  545TMC3    C8 8148   2.435   1.006  17.372 -0.0734 -0.0197 -0.4464
  545TMC3    O1 8149   2.585   0.626  17.620 -0.1522  0.6208  0.2761
  545TMC3    O2 8150   2.431   1.114  17.309 -0.0214 -0.1855 -0.4143
  546MPD2     C 8151   4.415   1.423  17.650  0.5679  0.5856  0.2520
  546MPD2    C1 8152   4.388   1.413  17.512  0.2530 -0.0510  0.2951
  546MPD2    C2 8153   4.437   1.511  17.434  0.0933 -0.4042  0.0834
  546MPD2    C3 8154   4.521   1.610  17.488 -0.3230 -0.4798 -0.4216
  546MPD2    C4 8155   4.547   1.617  17.623  0.5745  1.0802 -0.2363
  546MPD2    C5 8156   4.493   1.522  17.706 -0.3788  0.6530 -0.5471
  546MPD2     H 8157   4.404   1.517  17.331  0.1043  0.5036  0.1299
  546MPD2    H1 8158   4.610   1.696  17.663  2.3775  0.2088 -1.3343
  546MPD2    H2 8159   4.379   1.348  17.720 -0.0901 -0.1646 -0.8945
  546MPD2    H3 8160   4.530   1.526   0.053  0.6951  0.8399 -0.9363
  546MPD2     N 8161   4.578   1.723  17.419 -0.3878  0.3674  0.6304
  546MPD2    H5 8162   4.641   1.786  17.467 -0.7607  2.1053 -1.1446
  546MPD2    N1 8163   4.324   1.295  17.471 -0.5624  0.3107 -0.3140
  546MPD2    H7 8164   4.280   1.251  17.550  2.4037 -0.3593  0.9755
  547TMC3    C1 8165   4.196   1.147  17.331  0.1908  0.5319  1.1644
  547TMC3    C2 8166   4.164   1.109  17.205  0.3341  0.1328  0.4937
  547TMC3    C3 8167   4.044   1.039  17.194  0.0031  0.4469  0.1406
  547TMC3    C4 8168   4.130   1.125  17.450  1.0626  0.2033 -0.5489
  547TMC3    C5 8169   4.006   1.062  17.433 -0.7376  0.4227  0.3325
  547TMC3    C6 8170   3.965   1.013  17.310  0.3702  0.3156 -0.0686
  547TMC3     C 8171   4.301   1.250  17.338  0.2646  0.1275 -0.5042
  547TMC3     O 8172   4.316   1.314  17.236  0.0529 -0.0049  0.3568
  547TMC3     H 8173   4.202   1.160  17.117  1.8221 -2.3739 -0.3085
  547TMC3    H1 8174   4.149   1.155  17.553 -2.7768  0.6575  0.0286
  547TMC3    H2 8175   3.871   0.960  17.302  0.5730  0.0833 -0.9390
  547TMC3    C7 8176   3.948   1.007  17.557 -0.2953 -0.8589 -0.4370
  547TMC3    C8 8177   3.968   1.050  17.067  0.0726 -0.0626  0.3201
  547TMC3    O1 8178   3.971   1.063  17.665 -0.7716 -0.3081 -0.4207
  547TMC3    O2 8179   3.843   1.042  17.072 -0.3465  0.1429  0.2798
  548MPD2     C 8180   3.741   1.811  12.733  0.4452  0.2375  0.0186
  548MPD2    C1 8181   3.661   1.701  12.768 -0.7826 -0.2860 -0.3015
  548MPD2    C2 8182   3.704   1.577  12.726  0.0765  0.1470 -0.6119
  548MPD2    C3 8183   3.811   1.562  12.643 -0.4880  0.4772  0.0285
  548MPD2    C4 8184   3.888   1.669  12.604 -0.1616  0.4817  0.5162
  548MPD2    C5 8185   3.843   1.795  12.647  0.1874  0.2253 -0.2333
  548MPD2     H 8186   3.644   1.495  12.763  0.9987 -0.0616  0.4278
  548MPD2    H1 8187   3.965   1.661  12.528 -0.1386  0.2242  0.5675
  548MPD2    H2 8188   3.695   1.908  12.751  0.4863  0.7095 -2.5042
  548MPD2    H3 8189   3.897   1.883  12.612  0.4552 -0.3509 -1.2543
  548MPD2     N 8190   3.856   1.427  12.610 -0.4168 -1.1006  0.3435
  548MPD2    H5 8191   3.953   1.408  12.587 -0.6889 -0.0218 -1.6611
  548MPD2    N1 8192   3.547   1.716  12.860 -0.0739  0.2851  0.1432
  548MPD2    H7 8193   3.513   1.805  12.896 -1.7666 -0.7029  0.9722
  549TMC3    C1 8194   3.357   1.650  12.978 -0.4154  0.2715 -0.6066
  549TMC3    C2 8195   3.287   1.760  12.935  0.5901  0.4257 -0.6033
  549TMC3    C3 8196   3.155   1.751  12.932 -0.0893 -0.3008 -0.3526
  549TMC3    C4 8197   3.287   1.541  13.031 -0.5196 -1.0257  0.9317
  549TMC3    C5 8198   3.150   1.542  13.036 -0.1015  0.5384 -0.0037
  549TMC3    C6 8199   3.082   1.643  12.978  0.0563 -0.6132  0.0859
  549TMC3     C 8200   3.495   1.610  12.928 -0.1400  0.2864  0.4849
  549TMC3     O 8201   3.525   1.492  12.944  0.3899 -0.1747 -0.3963
  549TMC3     H 8202   3.343   1.846  12.899  0.9974 -0.8068 -2.9072
  549TMC3    H1 8203   3.341   1.458  13.074  0.7169 -0.0514  1.2528
  549TMC3    H2 8204   2.974   1.652  12.983  0.1615  0.7469  0.0411
  549TMC3    C7 8205   3.088   1.429  13.091  1.0293 -0.4996  0.2609
  549TMC3    C8 8206   3.068   1.855  12.868 -0.6543 -0.2189 -1.0073
  549TMC3    O1 8207   3.154   1.356  13.162  0.3332 -0.4479  0.1434
  549TMC3    O2 8208   2.961   1.815  12.829  0.2419 -0.5958  0.3058
  550TMC3    C1 8209   2.678   4.448  12.057  0.0999 -0.1231 -0.3852
  550TMC3    C2 8210   2.732   4.487  12.176 -0.0618 -0.4089 -0.1760
  550TMC3    C3 8211   2.705   4.611  12.228 -0.1812 -0.1759  0.1571
  550TMC3    C4 8212   2.598   4.531  11.986 -0.4629 -0.5696 -0.0925
  550TMC3    C5 8213   2.580   4.657  12.035 -0.6507 -0.6078  0.3592
  550TMC3    C6 8214   2.632   4.702  12.152  0.4948  0.3714  0.3076
  550TMC3     C 8215   2.656   4.303  12.042  0.1026 -0.5877 -0.1439
  550TMC3     O 8216   2.731   4.224  12.100 -0.3054  0.0001  0.3771
  550TMC3     H 8217   2.793   4.415  12.229  1.8739  1.8050  0.5585
  550TMC3    H1 8218   2.543   4.508  11.896 -0.1508  0.6220 -0.5804
  550TMC3    H2 8219   2.618   0.066  12.179  0.9734  0.7118 -0.7480
  550TMC3    C7 8220   2.507   0.011  11.950  0.1548 -1.1838 -0.0517
  550TMC3    C8 8221   2.788   4.668  12.328  0.5269 -0.5158  0.7680
  550TMC3    O1 8222   2.529   0.004  11.829 -0.1016 -0.4746  0.0645
  550TMC3    O2 8223   2.785   0.050  12.336  0.3051 -0.3317 -0.5400
  551TMC3    C1 8224   0.146   2.646  13.518 -0.2770  0.2311 -0.0878
  551TMC3    C2 8225   0.269   2.700  13.475 -0.1090 -0.1324  0.2834
  551TMC3    C3 8226   0.363   2.729  13.567  0.2970  0.2979 -0.3582
  551TMC3    C4 8227   0.119   2.639  13.650  0.4836  0.1274 -0.4279
  551TMC3    C5 8228   0.221   2.655  13.739 -0.7458  0.1493  0.1892
  551TMC3    C6 8229   0.346   2.693  13.696 -0.6696  0.2210 -0.2087
  551TMC3     C 8230   0.046   2.603  13.424 -0.8659 -0.2513 -0.2924
  551TMC3     O 8231   4.691   2.541  13.469  0.0365  0.0763 -0.2555
  551TMC3     H 8232   0.295   2.713  13.371  0.6014 -1.7537  0.2506
  551TMC3    H1 8233   0.014   2.631  13.676  0.6935  1.2978  0.7709
  551TMC3    H2 8234   0.425   2.710  13.769 -1.4507  0.7507  0.5239
  551TMC3    C7 8235   0.194   2.669  13.880  0.0184 -0.0458  0.0587
  551TMC3    C8 8236   0.495   2.750  13.520  0.1207  0.4566  0.2409
  551TMC3    O1 8237   0.270   2.610  13.956  0.7656 -0.6675 -0.2292
  551TMC3    O2 8238   0.589   2.707  13.585 -0.4210 -0.5460 -0.2657
  552MPD2     C 8239   2.678   4.444  14.103 -0.4750 -0.0455 -0.3262
  552MPD2    C1 8240   2.666   4.308  14.134  0.4459  0.3810 -0.8146
  552MPD2    C2 8241   2.727   4.248  14.240  0.3485 -0.1516 -0.1750
  552MPD2    C3 8242   2.784   4.338  14.332  0.5394  0.0172 -0.1551
  552MPD2    C4 8243   2.780   4.477  14.314  0.3485 -0.2252 -0.6045
  552MPD2    C5 8244   2.734   4.526  14.198  0.2791  0.8872  0.1071
  552MPD2     H 8245   2.733   4.140  14.245 -0.6969 -0.2118 -0.2701
  552MPD2    H1 8246   2.818   4.540  14.394  1.2647  0.3757 -1.5162
  552MPD2    H2 8247   2.628   4.476  14.012  0.1061 -3.6992 -1.9181
  552MPD2    H3 8248   2.745   4.631  14.171 -0.6463  0.4743 -1.8507
  552MPD2     N 8249   2.854   4.294  14.444  0.2407 -0.0700  0.2907
  552MPD2    H5 8250   2.884   4.366  14.508  1.4357 -1.2594  1.0761
  552MPD2    N1 8251   2.604   4.218  14.045 -0.1343 -0.0100  0.0815
  552MPD2    H7 8252   2.616   4.120  14.068 -1.1068  0.1554  1.2378
  553TMC3    C1 8253   2.471   4.094  13.910 -0.1215  0.2208  0.0791
  553TMC3    C2 8254   2.416   4.066  13.780 -0.0489 -0.3287  0.1121
  553TMC3    C3 8255   2.332   3.959  13.766 -0.1157 -0.6487  0.1415
  553TMC3    C4 8256   2.447   4.007  14.016  0.3022  0.2405 -0.1763
  553TMC3    C5 8257   2.374   3.895  13.990 -0.1754  0.4434  0.4817
  553TMC3    C6 8258   2.314   3.868  13.866 -0.0346  0.2687  0.1207
  553TMC3     C 8259   2.529   4.229  13.932 -0.3885 -0.1444  0.0516
  553TMC3     O 8260   2.500   4.326  13.869 -0.2261 -0.3351 -0.2680
  553TMC3     H 8261   2.448   4.133  13.701 -0.8999  1.5093  1.3420
  553TMC3    H1 8262   2.485   4.028  14.116 -1.8518  1.5382  0.3819
  553TMC3    H2 8263   2.276   3.769  13.844  2.2626 -0.7931  0.9646
  553TMC3    C7 8264   2.414   3.776  14.054 -0.5704  0.4206  0.1789
  553TMC3    C8 8265   2.313   3.910  13.628 -0.2474 -0.1667 -0.0021
  553TMC3    O1 8266   2.345   3.676  14.035 -0.1330 -0.0337  0.4545
  553TMC3    O2 8267   2.395   3.945  13.541 -0.0860 -0.8758 -0.0328
  554TMC3    C1 8268   3.743   3.563  11.781  0.3432 -0.2087 -0.0054
  554TMC3    C2 8269   3.672   3.469  11.708 -0.4749 -0.4442 -0.2457
  554TMC3    C3 8270   3.739   3.410  11.605 -0.2725  0.2642 -0.4116
  554TMC3    C4 8271   3.866   3.602  11.740 -0.6676 -0.2788  0.0438
  554TMC3    C5 8272   3.930   3.538  11.642  0.7875 -0.6815  0.4544
  554TMC3    C6 8273   3.869   3.431  11.583  0.0208 -0.4631  0.5469
  554TMC3     C 8274   3.746   3.550  11.923  0.1065 -0.2593 -0.3205
  554TMC3     O 8275   3.814   3.627  11.993 -0.1760 -0.5820  0.0786
  554TMC3     H 8276   3.577   3.436  11.748 -0.5878  0.8133  0.4939
  554TMC3    H1 8277   3.913   3.681  11.797  0.1709 -1.1026  0.4871
  554TMC3    H2 8278   3.920   3.378  11.504 -2.7172 -2.1367 -0.0906
  554TMC3    C7 8279   3.999   3.614  11.545 -0.3319 -0.2088 -0.3836
  554TMC3    C8 8280   3.671   3.313  11.519  0.2110 -0.2519  0.0374
  554TMC3    O1 8281   4.024   3.555  11.442  0.0513 -0.3954  0.5581
  554TMC3    O2 8282   3.732   3.271  11.422 -0.0848  0.3217 -0.2265
  555TMC3    C1 8283   3.204   2.997  15.569  0.2740  0.1559 -0.5568
  555TMC3    C2 8284   3.201   3.042  15.695  0.1587 -0.0635  0.3095
  555TMC3    C3 8285   3.235   2.959  15.800  0.1889  0.1786  1.2421
  555TMC3    C4 8286   3.240   2.867  15.545  0.1526  0.0610 -0.3540
  555TMC3    C5 8287   3.270   2.783  15.649 -0.0306 -0.7306 -0.9371
  555TMC3    C6 8288   3.271   2.827  15.777 -0.2637  0.2024 -0.2151
  555TMC3     C 8289   3.229   3.086  15.467  0.0031  0.4232 -0.1064
  555TMC3     O 8290   3.292   3.190  15.487  0.3478  0.1635  0.0974
  555TMC3     H 8291   3.190   3.147  15.719  1.9389  0.2302 -0.1699
  555TMC3    H1 8292   3.246   2.827  15.445 -0.7070 -1.6728  0.2775
  555TMC3    H2 8293   3.295   2.756  15.855  0.5428  1.6887  0.8920
  555TMC3    C7 8294   3.317   2.647  15.627  0.6307  0.4548  0.0015
  555TMC3    C8 8295   3.283   3.025  15.920  0.1752  0.0996 -0.3560
  555TMC3    O1 8296   3.281   2.556  15.706  0.1207 -0.1392 -0.4010
  555TMC3    O2 8297   3.211   3.123  15.945  0.2110  0.1885 -0.3375
  556MPD2     C 8298   1.067   4.385  10.968 -0.3725 -0.0399 -0.3656
  556MPD2    C1 8299   1.035   4.325  11.089 -0.5009  0.4561  0.3108
  556MPD2    C2 8300   1.024   4.187  11.087  0.3321  0.4091  0.2720
  556MPD2    C3 8301   1.049   4.113  10.960 -0.2219 -0.3337 -0.5112
  556MPD2    C4 8302   1.091   4.181  10.851 -0.5778 -0.1319  0.0932
  556MPD2    C5 8303   1.092   4.313  10.854  0.5592 -0.1220 -0.4072
  556MPD2     H 8304   0.999   4.131  11.177  1.1633  2.1814  1.5953
  556MPD2    H1 8305   1.120   4.146  10.753 -1.3345  0.0860 -0.2042
  556MPD2    H2 8306   1.084   4.492  10.964  0.3471 -0.1690 -0.6559
  556MPD2    H3 8307   1.098   4.363  10.758 -2.9070  0.2336 -0.4348
  556MPD2     N 8308   1.033   3.977  10.967 -0.8623  0.5208 -0.3902
  556MPD2    H5 8309   0.983   3.942  11.049 -0.7549 -0.2704 -0.6625
  556MPD2    N1 8310   1.018   4.391  11.208  0.2650  0.4192 -0.4713
  556MPD2    H7 8311   0.996   4.332  11.287  0.9975 -0.0466 -0.6176
  557TMC3    C1 8312   1.038   3.753  10.887  0.5765 -0.0384 -0.1343
  557TMC3    C2 8313   1.040   3.673  10.773  0.2741  0.1820 -0.0281
  557TMC3    C3 8314   0.966   3.561  10.768  0.0372 -0.0131 -0.2917
  557TMC3    C4 8315   0.973   3.712  11.002 -0.4028 -0.2274  0.2819
  557TMC3    C5 8316   0.905   3.592  10.992  0.2539 -0.4480 -0.4726
  557TMC3    C6 8317   0.886   3.524  10.874  0.2165 -0.8304  0.2898
  557TMC3     C 8318   1.061   3.891  10.860 -0.3302 -0.1700 -0.3012
  557TMC3     O 8319   1.097   3.921  10.749 -0.0223  0.0382  0.7645
  557TMC3     H 8320   1.101   3.703  10.688 -0.6430 -0.6455 -0.9891
  557TMC3    H1 8321   0.992   3.761  11.096 -0.7800  2.2580 -0.9147
  557TMC3    H2 8322   0.825   3.434  10.871 -1.1498  0.0915  0.2402
  557TMC3    C7 8323   0.818   3.563  11.107  0.5557  1.1084 -0.6582
  557TMC3    C8 8324   0.978   3.472  10.654 -0.3267 -0.2123  0.1573
  557TMC3    O1 8325   0.708   3.523  11.077  0.4354 -0.6986 -0.3481
  557TMC3    O2 8326   1.027   3.524  10.556 -0.1708 -0.1538  0.6721
  558TMC3    C1 8327   2.894   1.922  10.220  1.3629 -0.3717  0.3918
  558TMC3    C2 8328   2.887   1.796  10.278 -0.4245 -0.0893  0.7002
  558TMC3    C3 8329   2.769   1.728  10.273 -0.1389 -0.7445 -0.3010
  558TMC3    C4 8330   2.789   1.979  10.157 -0.9449  0.0198  0.5745
  558TMC3    C5 8331   2.678   1.900  10.136 -0.6064  0.3285 -0.6902
  558TMC3    C6 8332   2.666   1.773  10.200 -0.1986  1.0525  0.4654
  558TMC3     C 8333   3.020   1.998  10.242 -0.8768  0.5998  0.5099
  558TMC3     O 8334   3.119   1.930  10.243  0.3050  0.2452  0.1253
  558TMC3     H 8335   2.963   1.755  10.343  0.8184 -0.2998 -0.8829
  558TMC3    H1 8336   2.795   2.074  10.106  1.4541 -1.2799 -1.5167
  558TMC3    H2 8337   2.584   1.705  10.180 -0.3267  1.7229 -1.2545
  558TMC3    C7 8338   2.569   1.952  10.047  0.2253 -0.2067 -0.5523
  558TMC3    C8 8339   2.757   1.607  10.356  0.2916 -0.5344 -0.2313
  558TMC3    O1 8340   2.597   2.053   9.982  0.3975 -0.2085  0.1647
  558TMC3    O2 8341   2.655   1.543  10.345  0.2847  0.0547 -0.4386
  559MPD2     C 8342   3.164   2.704  10.558 -0.2540  0.9180  0.3664
  559MPD2    C1 8343   3.134   2.577  10.595  0.6470  0.1411  0.1255
  559MPD2    C2 8344   3.226   2.501  10.670  0.8767  0.6435  0.0590
  559MPD2    C3 8345   3.356   2.552  10.693 -0.3254  0.0327 -0.4648
  559MPD2    C4 8346   3.383   2.685  10.652  0.4858 -0.1876  0.5781
  559MPD2    C5 8347   3.288   2.753  10.586 -0.0952 -0.1189 -0.4571
  559MPD2     H 8348   3.209   2.395  10.687  0.5107  0.5098 -1.1945
  559MPD2    H1 8349   3.478   2.735  10.671  0.8889 -0.8779  0.3883
  559MPD2    H2 8350   3.092   2.768  10.508 -0.1567  0.8160  0.0952
  559MPD2    H3 8351   3.309   2.852  10.549 -0.1740 -0.8667 -2.5089
  559MPD2     N 8352   3.448   2.468  10.757  0.3114  0.3004 -0.3207
  559MPD2    H5 8353   3.400   2.391  10.803 -0.6349  1.3696  0.5110
  559MPD2    N1 8354   2.993   2.544  10.592  0.5848 -0.1976 -0.5514
  559MPD2    H7 8355   2.924   2.614  10.566  0.1390 -0.1179  0.8120
  560TMC3    C1 8356   3.629   2.411  10.900 -0.0849  0.6218 -0.0784
  560TMC3    C2 8357   3.569   2.296  10.903  0.0744  0.7399  0.3850
  560TMC3    C3 8358   3.560   2.235  11.029  0.0887 -0.4277 -0.3214
  560TMC3    C4 8359   3.677   2.466  11.014  0.2516 -0.3723 -0.0232
  560TMC3    C5 8360   3.672   2.402  11.136  0.1227  0.7531  0.4158
  560TMC3    C6 8361   3.620   2.281  11.144 -0.6766 -0.4089 -0.9277
  560TMC3     C 8362   3.577   2.498  10.800 -0.2078  0.2020  0.1195
  560TMC3     O 8363   3.642   2.596  10.773  0.0543 -0.4918 -0.7547
  560TMC3     H 8364   3.547   2.241  10.812 -0.8547  0.1134  0.9902
  560TMC3    H1 8365   3.716   2.567  11.004 -0.3202 -0.3219 -1.6950
  560TMC3    H2 8366   3.637   2.210  11.224  2.4515  1.5287  0.1249
  560TMC3    C7 8367   3.737   2.455  11.259  0.3682  0.0998  0.1593
  560TMC3    C8 8368   3.509   2.102  11.027 -0.3307  0.4881 -0.6534
  560TMC3    O1 8369   3.771   2.371  11.339 -0.5504  0.0085 -0.0927
  560TMC3    O2 8370   3.534   2.029  10.935 -0.1627  0.1350  0.2195
  561TMC3    C1 8371   1.186   1.485  11.735  0.2744 -0.1588  0.1598
  561TMC3    C2 8372   1.135   1.419  11.839  0.3288  0.3624 -0.8864
  561TMC3    C3 8373   1.072   1.480  11.944  0.2753  0.6923 -0.3472
  561TMC3    C4 8374   1.190   1.625  11.740 -0.4107 -0.2782 -0.0851
  561TMC3    C5 8375   1.140   1.690  11.848 -0.0606 -0.4134 -0.8754
  561TMC3    C6 8376   1.089   1.622  11.954 -0.4543 -0.8215 -0.3289
  561TMC3     C 8377   1.262   1.406  11.648  0.3643  0.1241 -0.1747
  561TMC3     O 8378   1.238   1.285  11.643  0.2810 -0.0684 -0.0373
  561TMC3     H 8379   1.125   1.312  11.836 -1.2542  0.5655 -2.3983
  561TMC3    H1 8380   1.232   1.677  11.654  2.2690 -0.7080  0.9736
  561TMC3    H2 8381   1.052   1.671  12.043  0.0204 -2.7071  0.8994
  561TMC3    C7 8382   1.183   1.826  11.870 -0.0482 -0.3576  0.4426
  561TMC3    C8 8383   0.973   1.411  12.019 -0.4042  0.5096  0.0571
  561TMC3    O1 8384   1.174   1.868  11.986  0.2127  0.2279  0.0034
  561TMC3    O2 8385   1.012   1.301  12.058 -0.5692 -0.2831 -0.4934
  562TMC3    C1 8386   3.334   3.235  16.606  0.0778  0.2839 -0.5613
  562TMC3    C2 8387   3.311   3.356  16.554  0.7629 -0.3063  1.2817
  562TMC3    C3 8388   3.220   3.369  16.448  0.4875 -0.4489 -0.1245
  562TMC3    C4 8389   3.273   3.123  16.553  0.2320  0.5628 -0.3257
  562TMC3    C5 8390   3.180   3.140  16.447  0.2090  0.9642 -0.2718
  562TMC3    C6 8391   3.139   3.265  16.410 -0.3069 -0.3653 -0.1669
  562TMC3     C 8392   3.452   3.213  16.690  0.8879  0.6851  0.7530
  562TMC3     O 8393   3.518   3.111  16.686  0.2876 -0.3638  0.4442
  562TMC3     H 8394   3.368   3.445  16.577  0.3602  0.4366 -0.6171
  562TMC3    H1 8395   3.301   3.030  16.601 -0.6415  1.5483  2.1365
  562TMC3    H2 8396   3.067   3.278  16.329 -0.8158  2.6630  0.7736
  562TMC3    C7 8397   3.153   3.034  16.359 -0.2343  0.3465 -0.2799
  562TMC3    C8 8398   3.171   3.500  16.429 -0.2118 -0.6191 -0.1340
  562TMC3    O1 8399   3.061   3.060  16.281 -0.2161  0.4217  0.1563
  562TMC3    O2 8400   3.178   3.569  16.532 -0.2021 -0.6374 -0.4696
  563MPD2     C 8401   0.375   4.577  15.754  0.0696  0.6847 -0.4324
  563MPD2    C1 8402   0.440   4.604  15.877 -0.2129  0.3084  0.1227
  563MPD2    C2 8403   0.581   4.595  15.881  0.2023 -0.0794  0.1988
  563MPD2    C3 8404   0.652   4.561  15.767  0.3863  0.1525 -0.7734
  563MPD2    C4 8405   0.591   4.527  15.650  0.5465  0.3363  0.0606
  563MPD2    C5 8406   0.455   4.543  15.645  0.5051  0.0058 -0.7475
  563MPD2     H 8407   0.640   4.622  15.967 -1.3529 -2.6784  2.0771
  563MPD2    H1 8408   0.649   4.531  15.558  0.6713  2.9594  0.2529
  563MPD2    H2 8409   0.267   4.566  15.751  0.2511 -1.2790  0.3641
  563MPD2    H3 8410   0.402   4.528  15.551 -1.4677  0.3972  0.2882
  563MPD2     N 8411   0.790   4.572  15.789 -0.3899  0.4517 -0.0511
  563MPD2    H5 8412   0.824   4.615  15.874 -2.1765  0.8253  0.4639
  563MPD2    N1 8413   0.361   4.626  15.997  0.2391  0.2865 -0.3096
  563MPD2    H7 8414   0.260   4.619  15.993  0.2696  0.0501 -0.7722
  564TMC3    C1 8415   0.362   4.637  16.236  0.4055  0.5868  0.0914
  564TMC3    C2 8416   0.259   4.541  16.235  0.0762  0.8317 -0.0967
  564TMC3    C3 8417   0.244   4.444  16.331 -0.2389 -0.9207  0.2185
  564TMC3    C4 8418   0.462   4.626  16.327  0.6275 -0.7460  0.1883
  564TMC3    C5 8419   0.448   4.524  16.423  0.3673 -0.1968 -0.0726
  564TMC3    C6 8420   0.340   4.439  16.427  0.2451  0.0534  0.3680
  564TMC3     C 8421   0.404   4.696  16.108  0.2106  0.3814 -0.5254
  564TMC3     O 8422   0.500   0.029  16.112 -0.0751 -0.4010 -0.7551
  564TMC3     H 8423   0.179   4.560  16.164 -0.9952 -0.7522  0.7144
  564TMC3    H1 8424   0.558   4.677  16.327 -0.3082  0.9956  0.6130
  564TMC3    H2 8425   0.344   4.359  16.501 -0.7247 -0.7552 -0.4582
  564TMC3    C7 8426   0.567   4.439  16.431  0.1354 -0.4343  0.3063
  564TMC3    C8 8427   0.249   4.316  16.263 -0.2374  0.0375 -0.5404
  564TMC3    O1 8428   0.602   4.392  16.538  0.1576  1.0623 -0.1422
  564TMC3    O2 8429   0.269   4.222  16.339  0.4511 -0.2423 -0.1442
  565TMC3    C1 8430   0.983   0.977  10.601 -0.7702 -0.6574 -0.0410
  565TMC3    C2 8431   0.951   0.885  10.698  0.1296 -0.4212 -0.6086
  565TMC3    C3 8432   0.922   0.763  10.649  0.9363 -0.2624  0.0420
  565TMC3    C4 8433   0.995   0.941  10.463  0.6874 -0.1574 -0.0104
  565TMC3    C5 8434   0.966   0.812  10.422  0.7063  0.3292  0.0937
  565TMC3    C6 8435   0.917   0.724  10.511 -0.2523 -0.1937  0.2511
  565TMC3     C 8436   1.040   1.108  10.629  0.6270 -0.1013 -0.6858
  565TMC3     O 8437   1.096   1.155  10.534 -0.5803  0.1284  0.4221
  565TMC3     H 8438   0.988   0.901  10.799  3.2140  0.6656 -1.9213
  565TMC3    H1 8439   1.034   1.012  10.392 -3.3300  0.2781 -1.7640
  565TMC3    H2 8440   0.886   0.626  10.476  2.8572 -0.8677 -0.6416
  565TMC3    C7 8441   0.954   0.789  10.286 -0.4693 -0.7885 -0.1879
  565TMC3    C8 8442   0.871   0.655  10.729  0.8594 -0.0647 -0.1795
  565TMC3    O1 8443   0.863   0.711  10.250  0.1835 -0.1527 -0.0918
  565TMC3    O2 8444   0.878   0.541  10.685 -0.2960  0.5345  0.2315
  566MPD2     C 8445   2.669   3.094  14.332  0.3243  0.0264  0.4537
  566MPD2    C1 8446   2.749   3.036  14.234 -0.7194 -0.3817 -0.4404
  566MPD2    C2 8447   2.683   2.959  14.138  0.2051  0.1510 -0.2563
  566MPD2    C3 8448   2.552   2.953  14.117 -0.6853  0.8033  0.7107
  566MPD2    C4 8449   2.475   3.032  14.200  0.1155 -0.3821 -0.1394
  566MPD2    C5 8450   2.538   3.103  14.304  0.7936 -0.4827  0.2842
  566MPD2     H 8451   2.744   2.899  14.071 -1.2419 -0.1735 -1.2727
  566MPD2    H1 8452   2.368   3.043  14.187  0.1393 -0.3446 -0.3085
  566MPD2    H2 8453   2.704   3.158  14.412 -0.6696  0.2775  0.6906
  566MPD2    H3 8454   2.466   3.153  14.368  0.0708 -0.0662 -0.8620
  566MPD2     N 8455   2.513   2.862  14.016  0.2981  0.4687  0.0574
  566MPD2    H5 8456   2.581   2.798  13.978  2.2966  0.9441  2.7400
  566MPD2    N1 8457   2.887   3.062  14.225  0.0269 -0.2043 -0.5931
  566MPD2    H7 8458   2.928   3.121  14.297  2.6251  1.0771 -3.1694
  567TMC3    C1 8459   3.103   3.046  14.133  0.6446 -0.1789 -0.8131
  567TMC3    C2 8460   3.170   3.034  14.023 -0.4104  0.2232 -0.5169
  567TMC3    C3 8461   3.309   3.013  14.030  0.4353 -0.5237 -0.2433
  567TMC3    C4 8462   3.162   3.021  14.253 -0.1546 -0.1455  0.1007
  567TMC3    C5 8463   3.294   2.991  14.255 -0.0242 -0.1493  0.5573
  567TMC3    C6 8464   3.381   2.993  14.146 -0.6441 -0.1044 -0.4262
  567TMC3     C 8465   2.964   3.029  14.115 -0.6505  0.5251 -0.1712
  567TMC3     O 8466   2.942   2.976  14.005  0.1490  0.3199 -0.4944
  567TMC3     H 8467   3.126   3.056  13.927 -1.2450 -2.0160 -0.6373
  567TMC3    H1 8468   3.106   3.042  14.344  0.6114 -1.4643  0.8790
  567TMC3    H2 8469   3.488   2.982  14.153 -0.7579 -0.3413  0.8979
  567TMC3    C7 8470   3.363   3.013  14.382  0.0166 -0.4638 -0.3279
  567TMC3    C8 8471   3.386   3.046  13.915  0.0401 -0.2904  1.3508
  567TMC3    O1 8472   3.468   3.074  14.389  0.5538 -1.2094  0.2350
  567TMC3    O2 8473   3.326   3.117  13.835 -0.5650 -0.1957  0.2036
  568MPD2     C 8474   0.316   2.948  16.432  0.5694 -0.1042  0.0173
  568MPD2    C1 8475   0.333   3.054  16.519 -0.0697  0.0486 -0.2538
  568MPD2    C2 8476   0.359   3.184  16.468  0.0815  0.5583 -0.1055
  568MPD2    C3 8477   0.365   3.205  16.333 -0.1148 -0.4231  0.2689
  568MPD2    C4 8478   0.350   3.095  16.247  0.0885 -0.4201  0.2742
  568MPD2    C5 8479   0.322   2.970  16.299 -0.2837  0.2233 -0.2223
  568MPD2     H 8480   0.382   3.265  16.536  1.4535 -0.2644  0.4211
  568MPD2    H1 8481   0.382   3.104  16.144 -0.4024 -1.2740  0.0465
  568MPD2    H2 8482   0.283   2.851  16.468  0.1751 -0.1494 -0.4607
  568MPD2    H3 8483   0.306   2.886  16.233  1.2907 -0.1752 -0.0789
  568MPD2     N 8484   0.406   3.331  16.282  0.3310  0.0892 -0.1686
  568MPD2    H5 8485   0.434   3.400  16.351  2.4583  0.6495 -1.5795
  568MPD2    N1 8486   0.348   3.024  16.656  0.6752  0.0194 -0.5357
  568MPD2    H7 8487   0.346   2.927  16.687  0.0735  0.6735  1.4299
  569TMC3    C1 8488   0.520   3.473  16.144 -0.6382 -0.4326 -0.4973
  569TMC3    C2 8489   0.602   3.488  16.251  0.6598  0.3108  0.4211
  569TMC3    C3 8490   0.673   3.603  16.271 -0.1433  0.0221 -0.2062
  569TMC3    C4 8491   0.498   3.580  16.064 -0.0288 -0.2086 -0.0803
  569TMC3    C5 8492   0.573   3.693  16.086 -0.0874  1.1167  0.6255
  569TMC3    C6 8493   0.661   3.711  16.186 -0.3826  0.1924  0.1039
  569TMC3     C 8494   0.432   3.367  16.152 -0.1560 -0.4923 -0.4669
  569TMC3     O 8495   0.403   3.323  16.041  0.2485 -0.1997  0.3859
  569TMC3     H 8496   0.642   3.405  16.306  1.5627  0.2401 -0.3377
  569TMC3    H1 8497   0.427   3.582  15.982  0.1536 -2.7750 -0.3127
  569TMC3    H2 8498   0.722   3.800  16.183 -0.3944  0.2651  2.3181
  569TMC3    C7 8499   0.545   3.803  16.002  0.1265  0.1572  0.1561
  569TMC3    C8 8500   0.783   3.604  16.364  0.1699  0.5389 -0.4401
  569TMC3    O1 8501   0.535   3.772  15.880  0.4613  0.3288 -0.6105
  569TMC3    O2 8502   0.825   3.497  16.395 -0.1345  0.7581 -0.0711
  570TMC3    C1 8503   4.426   2.030  16.155 -0.5138  0.5914  0.3182
  570TMC3    C2 8504   4.467   2.024  16.025  0.2357  1.1744  0.5874
  570TMC3    C3 8505   4.518   2.136  15.973 -0.1106  0.3058 -0.5273
  570TMC3    C4 8506   4.422   2.147  16.228 -0.2831  0.0504 -0.3523
  570TMC3    C5 8507   4.464   2.256  16.170  0.9530 -0.7379  0.4394
  570TMC3    C6 8508   4.516   2.254  16.043 -1.0430  0.5175 -0.4687
  570TMC3     C 8509   4.398   1.900  16.218 -0.7724 -0.2653  0.0761
  570TMC3     O 8510   4.351   1.812  16.147 -0.7167  0.4537 -0.5930
  570TMC3     H 8511   4.469   1.928  15.975  1.9728  0.9185  1.1614
  570TMC3    H1 8512   4.384   2.151  16.329 -0.9013 -0.7140 -0.5517
  570TMC3    H2 8513   4.567   2.342  16.007  0.7037  0.6228  2.2735
  570TMC3    C7 8514   4.459   2.379  16.247  0.1857 -0.0027 -0.0782
  570TMC3    C8 8515   4.592   2.135  15.850 -0.1043 -0.5142 -0.2157
  570TMC3    O1 8516   4.506   2.375  16.360 -0.1946  0.2040 -0.1905
  570TMC3    O2 8517   4.673   2.225  15.836 -0.1581 -0.1073 -0.6295
  571MPD2     C 8518   1.950   0.593   0.609  0.3477  0.4885 -0.0988
  571MPD2    C1 8519   2.000   0.498   0.696 -0.1214 -0.7573  0.3131
  571MPD2    C2 8520   2.135   0.464   0.694  0.3268  0.0857  0.1284
  571MPD2    C3 8521   2.222   0.523   0.602 -0.9430  1.2094  0.8381
  571MPD2    C4 8522   2.163   0.613   0.515  1.0769 -0.7064  0.2374
  571MPD2    C5 8523   2.033   0.646   0.515 -0.5683  0.6615  0.6916
  571MPD2     H 8524   2.177   0.399   0.770  0.7097 -0.3306 -0.4462
  571MPD2    H1 8525   2.228   0.648   0.435  1.3699  0.5374  1.0210
  571MPD2    H2 8526   1.844   0.617   0.609  0.2792  0.2020  0.7787
  571MPD2    H3 8527   1.995   0.722   0.447 -0.2587  0.9863  0.8853
  571MPD2     N 8528   2.355   0.480   0.582 -0.0778 -0.2630 -0.0875
  571MPD2    H5 8529   2.403   0.525   0.506  1.7660  0.8147  1.7118
  571MPD2    N1 8530   1.911   0.437   0.787  0.5443 -0.3311 -0.2213
  571MPD2    H7 8531   1.819   0.480   0.791  0.9874  0.7102 -1.1793
  572TMC3    C1 8532   2.546   0.357   0.582  0.0408  1.3135 -1.0423
  572TMC3    C2 8533   2.642   0.356   0.673  0.0298  0.1052 -0.0445
  572TMC3    C3 8534   2.745   0.443   0.645 -0.1596 -0.1029  0.0454
  572TMC3    C4 8535   2.546   0.425   0.456  0.2707  0.1497  0.2676
  572TMC3    C5 8536   2.649   0.516   0.435  0.4038 -0.1674 -0.1962
  572TMC3    C6 8537   2.742   0.534   0.535 -0.3092 -0.1306 -0.1559
  572TMC3     C 8538   2.418   0.376   0.649  0.4055 -0.6526 -0.3867
  572TMC3     O 8539   2.390   0.318   0.753 -0.1745  0.3469  0.4708
  572TMC3     H 8540   2.627   0.309   0.769 -2.0852  1.7541  0.4363
  572TMC3    H1 8541   2.481   0.395   0.374  1.6984  0.9098 -1.1457
  572TMC3    H2 8542   2.831   0.592   0.511 -0.7309  0.9445  0.8367
  572TMC3    C7 8543   2.599   0.633   0.359  0.2471  0.3717 -0.1956
  572TMC3    C8 8544   2.847   0.463   0.742 -0.4059 -0.5718  0.0635
  572TMC3    O1 8545   2.478   0.626   0.345  0.4233  0.3882  0.5992
  572TMC3    O2 8546   2.884   0.578   0.757  0.1011  0.0114 -0.2314
  573MPD2     C 8547   3.396   4.491   0.997 -0.0484  0.3142 -0.0617
  573MPD2    C1 8548   3.430   4.612   1.049 -0.2088 -0.4252 -0.0258
  573MPD2    C2 8549   3.403   4.721   0.971 -0.5345 -0.0342 -0.8922
  573MPD2    C3 8550   3.325   4.710   0.854  0.3976 -0.4462  0.1110
  573MPD2    C4 8551   3.271   4.587   0.818 -0.0404  0.4054 -0.2702
  573MPD2    C5 8552   3.314   4.480   0.890 -0.6908 -1.0579 -0.1825
  573MPD2     H 8553   3.439   0.078   1.005 -0.8282  0.2592 -1.4193
  573MPD2    H1 8554   3.216   4.576   0.725 -1.0645  2.2058  0.1305
  573MPD2    H2 8555   3.416   4.408   1.064  0.8622  1.0853  0.6290
  573MPD2    H3 8556   3.291   4.379   0.857 -1.8095 -1.8031  2.9103
  573MPD2     N 8557   3.287   0.083   0.777 -0.0903 -0.2735  0.6618
  573MPD2    H5 8558   3.220   0.065   0.703  1.1451 -3.5642  0.3380
  573MPD2    N1 8559   3.505   4.615   1.165  0.2631 -0.0766 -0.5147
  573MPD2    H7 8560   3.564   4.538   1.194 -3.1864 -2.5967 -0.1165
  574TMC3    C1 8561   3.306   0.310   0.698  0.1246 -1.1604  0.4734
  574TMC3    C2 8562   3.222   0.278   0.596  0.3661 -0.5096  0.0182
  574TMC3    C3 8563   3.188   0.384   0.505 -0.6989 -0.3208 -0.5752
  574TMC3    C4 8564   3.367   0.433   0.709  0.5202 -0.0145 -0.1419
  574TMC3    C5 8565   3.341   0.534   0.616 -0.6966 -0.8811  1.0367
  574TMC3    C6 8566   3.252   0.510   0.514  0.3216 -0.3849  0.2850
  574TMC3     C 8567   3.343   0.206   0.798  0.1434  0.8549 -0.2389
  574TMC3     O 8568   3.426   0.247   0.876 -0.5152 -0.0557 -1.0885
  574TMC3     H 8569   3.177   0.179   0.591 -0.6528 -0.0896  0.9167
  574TMC3    H1 8570   3.436   0.448   0.791 -1.1172  1.3797  0.9964
  574TMC3    H2 8571   3.243   0.583   0.435 -0.9300  0.1638  0.9248
  574TMC3    C7 8572   3.384   0.671   0.626 -0.3090 -0.1549  0.2689
  574TMC3    C8 8573   3.069   0.355   0.424  0.5270  0.4450 -0.2070
  574TMC3    O1 8574   3.351   0.744   0.534  0.2866  0.2054 -0.0385
  574TMC3    O2 8575   3.004   0.259   0.463  0.0546  0.4885 -0.5360
  575TMC3    C1 8576   0.626   4.576  10.819 -0.7450  0.1957  1.0084
  575TMC3    C2 8577   0.665   4.529  10.940 -0.1669 -0.0092 -0.7700
  575TMC3    C3 8578   0.670   4.612  11.050 -0.4314 -0.1938  0.5814
  575TMC3    C4 8579   0.606   4.712  10.806  0.0296 -0.4097 -0.4229
  575TMC3    C5 8580   0.614   0.051  10.917  0.2128 -0.2709 -0.0818
  575TMC3    C6 8581   0.659   0.007  11.041  0.3780 -0.0333 -0.9187
  575TMC3     C 8582   0.651   4.513  10.694 -0.7185 -0.3914 -0.0042
  575TMC3     O 8583   0.602   4.561  10.592 -0.6612 -0.1178  0.0535
  575TMC3     H 8584   0.670   4.421  10.952 -1.5529 -0.0799 -0.7548
  575TMC3    H1 8585   0.589   0.009  10.705  1.3576 -0.1256 -0.5384
  575TMC3    H2 8586   0.688   0.068  11.126  0.8852  0.0007 -1.1156
  575TMC3    C7 8587   0.629   0.195  10.896 -0.0975 -0.4530 -0.3381
  575TMC3    C8 8588   0.631   4.550  11.176 -0.2221  0.9621  0.9686
  575TMC3    O1 8589   0.676   0.230  10.789 -0.2979  0.4930 -0.0289
  575TMC3    O2 8590   0.632   4.429  11.180  0.1099 -0.1132  0.7505
  576MPD2     C 8591   0.365   2.330  12.855 -0.6714  0.2180  0.1174
  576MPD2    C1 8592   0.403   2.334  12.720 -0.6296 -0.1657 -0.1749
  576MPD2    C2 8593   0.493   2.430  12.688 -0.0510 -0.1550 -0.7167
  576MPD2    C3 8594   0.539   2.525  12.780 -0.3577 -0.7161  0.0375
  576MPD2    C4 8595   0.499   2.520  12.909 -0.3912  0.0162  0.0762
  576MPD2    C5 8596   0.408   2.426  12.938 -0.1802 -0.2716 -0.2165
  576MPD2     H 8597   0.536   2.428  12.588  0.8332 -1.1913 -0.3124
  576MPD2    H1 8598   0.523   2.584  12.993  0.4460  0.2914 -0.3744
  576MPD2    H2 8599   0.290   2.259  12.887 -0.8890  0.6811  0.6419
  576MPD2    H3 8600   0.391   2.424  13.045  0.1348  0.3030 -0.1549
  576MPD2     N 8601   0.638   2.618  12.734 -0.5184 -0.0361 -0.2874
  576MPD2    H5 8602   0.671   2.608  12.638  0.2508  0.6858 -0.0959
  576MPD2    N1 8603   0.357   2.244  12.622  0.0952 -0.1844  0.0705
  576MPD2    H7 8604   0.374   2.264  12.524 -2.6687  0.0675 -0.3689
  577TMC3    C1 8605   0.296   2.038  12.533 -0.5891  0.9340  0.3115
  577TMC3    C2 8606   0.332   1.909  12.545  0.0166  0.7119 -0.3490
  577TMC3    C3 8607   0.369   1.833  12.431  0.8021  0.1567  0.5520
  577TMC3    C4 8608   0.299   2.096  12.412 -0.3619 -0.0027 -0.1850
  577TMC3    C5 8609   0.343   2.020  12.309 -0.5269 -0.0760 -0.8795
  577TMC3    C6 8610   0.369   1.891  12.307 -0.3669  0.0524  0.1182
  577TMC3     C 8611   0.310   2.118  12.645 -0.5757  0.5119  0.0971
  577TMC3     O 8612   0.309   2.062  12.752  0.1707  0.3093 -0.6098
  577TMC3     H 8613   0.346   1.871  12.646  0.7693 -1.6658 -1.3462
  577TMC3    H1 8614   0.273   2.200  12.395 -1.1789 -0.3307 -0.9732
  577TMC3    H2 8615   0.383   1.842  12.211  0.8035  0.8963 -0.1394
  577TMC3    C7 8616   0.383   2.100  12.194  0.1012 -0.1475  0.4651
  577TMC3    C8 8617   0.451   1.712  12.448  0.3108  0.2270  0.5914
  577TMC3    O1 8618   0.492   2.073  12.149  0.0279 -0.3749  0.8308
  577TMC3    O2 8619   0.456   1.664  12.560 -0.2504  0.5934 -0.0294
  578MPD2     C 8620   3.748   2.777   1.522 -0.2929 -0.4443 -0.1721
  578MPD2    C1 8621   3.816   2.806   1.405 -0.2172 -0.0057 -0.0916
  578MPD2    C2 8622   3.945   2.765   1.388  0.4690 -0.6384  0.4413
  578MPD2    C3 8623   4.018   2.718   1.491 -0.3285  0.1806 -0.2743
  578MPD2    C4 8624   3.953   2.700   1.613 -0.1711  0.2631 -0.5605
  578MPD2    C5 8625   3.820   2.721   1.629  0.1458 -0.0344 -0.5102
  578MPD2     H 8626   3.994   2.779   1.292 -1.1049  0.9129 -0.1354
  578MPD2    H1 8627   4.012   2.665   1.697 -0.1392  2.9577  0.5509
  578MPD2    H2 8628   3.640   2.780   1.529 -0.1009 -1.4627  3.1517
  578MPD2    H3 8629   3.765   2.691   1.717 -0.9287  1.3040 -0.7099
  578MPD2     N 8630   4.160   2.703   1.468  0.7587 -0.2720 -0.2665
  578MPD2    H5 8631   4.203   2.705   1.376 -1.9266 -0.3959 -1.5396
  578MPD2    N1 8632   3.744   2.859   1.301  0.3925  0.1599 -0.6283
  578MPD2    H7 8633   3.649   2.887   1.326  0.6111 -0.4408  0.8841
  579TMC3    C1 8634   4.380   2.648   1.524 -0.3026 -0.1296 -0.7419
  579TMC3    C2 8635   4.489   2.707   1.577 -0.3961 -0.1391 -0.1771
  579TMC3    C3 8636   4.612   2.691   1.530  0.3272 -0.2299 -0.6028
  579TMC3    C4 8637   4.395   2.563   1.417 -0.0608  1.1746  0.1664
  579TMC3    C5 8638   4.522   2.540   1.376 -0.2658 -0.5077  0.7558
  579TMC3    C6 8639   4.636   2.596   1.429  0.4991  0.1188 -0.1011
  579TMC3     C 8640   4.249   2.689   1.574  0.2057 -0.0914 -0.1455
  579TMC3     O 8641   4.239   2.723   1.693 -0.2291  0.0806 -0.0693
  579TMC3     H 8642   4.489   2.767   1.668  0.7053  0.4234 -0.5529
  579TMC3    H1 8643   4.315   2.511   1.368  0.7243  1.3227 -1.2569
  579TMC3    H2 8644   4.729   2.588   1.374  0.9302  0.1483  0.6089
  579TMC3    C7 8645   4.546   2.456   1.257  0.0137  0.0405  0.2557
  579TMC3    C8 8646   4.710   2.779   1.583  0.2841  0.7919 -0.0609
  579TMC3    O1 8647   4.652   2.393   1.239 -0.2649 -0.3912 -0.0210
  579TMC3    O2 8648   4.681   2.878   1.652  0.7540 -0.4094  0.7848
  580TMC3    C1 8649   3.153   1.649  12.620  0.1575  0.0920 -0.3998
  580TMC3    C2 8650   3.265   1.711  12.579 -0.1727 -0.1174 -0.6039
  580TMC3    C3 8651   3.375   1.637  12.555  0.0285 -0.2620 -0.1472
  580TMC3    C4 8652   3.153   1.522  12.659  0.3256  1.0752 -0.6219
  580TMC3    C5 8653   3.271   1.455  12.656 -0.1310  0.6592 -0.4484
  580TMC3    C6 8654   3.382   1.510  12.594 -0.1889  0.1108  0.2604
  580TMC3     C 8655   3.053   1.687  12.524  0.6527 -0.1262 -0.0753
  580TMC3     O 8656   3.084   1.764  12.434 -0.2401 -0.1096  0.1375
  580TMC3     H 8657   3.276   1.810  12.536  0.2955  0.5252  1.0074
  580TMC3    H1 8658   3.062   1.472  12.688 -0.9748  2.2624 -2.6275
  580TMC3    H2 8659   3.477   1.459  12.587  0.9340  2.1313  0.7968
  580TMC3    C7 8660   3.271   1.311  12.665  0.1592  0.6668 -0.7450
  580TMC3    C8 8661   3.475   1.697  12.470  0.0852 -0.8988  1.3677
  580TMC3    O1 8662   3.181   1.270  12.733 -0.0285  0.1856 -0.7628
  580TMC3    O2 8663   3.493   1.819  12.460  0.2702 -0.0017  0.0042
  581MPD2     C 8664   1.121   0.909  15.164 -0.7820 -0.2965  0.6686
  581MPD2    C1 8665   1.210   0.976  15.086  0.8238  0.1314  0.4830
  581MPD2    C2 8666   1.159   1.091  15.022  0.2516  0.6916  0.5321
  581MPD2    C3 8667   1.035   1.140  15.042  0.1290  0.1020 -0.3824
  581MPD2    C4 8668   0.951   1.075  15.125  0.0746  0.4571 -0.2561
  581MPD2    C5 8669   1.001   0.967  15.192 -0.3877  0.1948 -0.4046
  581MPD2     H 8670   1.228   1.160  14.976  0.9950 -0.8644 -0.6821
  581MPD2    H1 8671   0.860   1.125  15.155  0.4543  0.0435  1.6095
  581MPD2    H2 8672   1.141   0.817  15.218 -2.1389 -0.0593  1.5833
  581MPD2    H3 8673   0.947   0.909  15.265  0.0916 -0.2368 -0.3946
  581MPD2     N 8674   0.988   1.242  14.956  0.2902 -0.2049 -0.0234
  581MPD2    H5 8675   1.055   1.305  14.913 -0.8275  2.1175  1.5767
  581MPD2    N1 8676   1.342   0.929  15.096 -0.4547 -0.0471 -0.2745
  581MPD2    H7 8677   1.354   0.845  15.151  0.3189 -0.5384 -1.2036
  582TMC3    C1 8678   1.563   0.915  15.066  0.1026  0.5156 -0.2919
  582TMC3    C2 8679   1.654   0.986  15.145 -0.0210  0.2851  0.2442
  582TMC3    C3 8680   1.721   0.908  15.237 -0.0402 -0.5801 -0.2078
  582TMC3    C4 8681   1.534   0.780  15.076 -0.5227  0.0383 -0.0624
  582TMC3    C5 8682   1.593   0.711  15.184 -0.4463  0.6302  0.3291
  582TMC3    C6 8683   1.689   0.773  15.261 -0.2759  0.3746 -0.2172
  582TMC3     C 8684   1.448   0.986  15.034 -0.7038  0.2545  1.7522
  582TMC3     O 8685   1.467   1.090  14.965 -0.5163  0.0279  0.5776
  582TMC3     H 8686   1.669   1.092  15.127 -0.7101  0.1655 -1.0477
  582TMC3    H1 8687   1.449   0.730  15.031 -1.7992  1.1244  1.1489
  582TMC3    H2 8688   1.742   0.718  15.337  0.3721  0.2852 -0.7406
  582TMC3    C7 8689   1.480   0.654  15.250 -0.2112 -0.1421 -0.2702
  582TMC3    C8 8690   1.716   0.964  15.375 -0.2281 -0.6171 -0.5361
  582TMC3    O1 8691   1.415   0.565  15.194 -0.0351 -0.1928  0.2291
  582TMC3    O2 8692   1.610   0.958  15.433 -0.0817 -0.7452  0.0986
  583MPD2     C 8693   1.252   3.098  16.542 -0.0501  0.3145  0.3269
  583MPD2    C1 8694   1.367   3.129  16.606  0.5410 -0.6144  0.1086
  583MPD2    C2 8695   1.362   3.223  16.708  0.1092  0.5785  0.3766
  583MPD2    C3 8696   1.240   3.278  16.743 -0.3556  0.2204  0.5660
  583MPD2    C4 8697   1.124   3.238  16.686  0.0112  0.1086  0.4693
  583MPD2    C5 8698   1.141   3.144  16.592 -0.4482  0.4535 -0.4619
  583MPD2     H 8699   1.453   3.267  16.748 -0.6608  2.0260  0.5355
  583MPD2    H1 8700   1.026   3.274  16.712  0.1254  0.2470  0.7134
  583MPD2    H2 8701   1.232   3.028  16.461  1.9433  1.2997 -1.0162
  583MPD2    H3 8702   1.052   3.112  16.539 -0.7828 -0.2785  0.5257
  583MPD2     N 8703   1.238   3.367  16.855 -1.0298  0.3502 -0.2351
  583MPD2    H5 8704   1.322   3.407  16.895 -0.6888  1.6351 -2.2554
  583MPD2    N1 8705   1.492   3.066  16.574 -0.2673  0.3534 -0.2258
  583MPD2    H7 8706   1.574   3.092  16.628 -0.1067 -3.4092  1.3814
  584TMC3    C1 8707   1.159   3.492  17.026 -0.4086  0.2271  0.2958
  584TMC3    C2 8708   1.265   3.574  16.999 -0.1191 -0.2514  0.7952
  584TMC3    C3 8709   1.295   3.664  17.104  0.4310 -0.6633 -0.2849
  584TMC3    C4 8710   1.085   3.499  17.140  0.4147 -0.2006 -0.3173
  584TMC3    C5 8711   1.138   3.570  17.240 -0.5128  0.3694 -0.0098
  584TMC3    C6 8712   1.256   3.640  17.231 -1.3808 -0.3604 -0.1278
  584TMC3     C 8713   1.127   3.402  16.923  0.2338  0.6813  0.9397
  584TMC3     O 8714   1.010   3.359  16.919 -0.2658 -0.1741 -0.4032
  584TMC3     H 8715   1.299   3.587  16.897 -0.0468  1.3845  1.0245
  584TMC3    H1 8716   1.013   3.420  17.152  0.7884 -0.2381  1.6379
  584TMC3    H2 8717   1.290   3.692  17.320 -1.1020 -1.4895  0.4158
  584TMC3    C7 8718   1.087   3.557  17.378  0.4814  0.1468  0.4002
  584TMC3    C8 8719   1.371   3.778  17.068  0.2135 -0.4791 -0.4641
  584TMC3    O1 8720   1.173   3.550  17.467 -0.0222  0.0442 -0.0610
  584TMC3    O2 8721   1.356   3.818  16.949  0.3979 -0.5218 -0.1830
  585MPD2     C 8722   0.665   2.476   0.497  0.1365  0.1117 -0.5956
  585MPD2    C1 8723   0.686   2.501   0.362 -0.0652 -0.7748  0.2624
  585MPD2    C2 8724   0.713   2.395   0.272 -0.0053 -0.1218  0.5115
  585MPD2    C3 8725   0.735   2.266   0.326 -0.4876  0.2235  1.1222
  585MPD2    C4 8726   0.717   2.246   0.461 -0.0808  0.1420  0.5107
  585MPD2    C5 8727   0.675   2.345   0.542  0.0242  0.4770  0.2370
  585MPD2     H 8728   0.713   2.405   0.164  2.9827  3.1873  0.8034
  585MPD2    H1 8729   0.728   2.147   0.502  0.4345 -0.4172 -0.9522
  585MPD2    H2 8730   0.648   2.550   0.574  0.9534 -1.4791  1.1265
  585MPD2    H3 8731   0.666   2.323   0.648 -1.5661 -1.6840 -0.3673
  585MPD2     N 8732   0.766   2.152   0.258 -0.1281  0.6916  0.4291
  585MPD2    H5 8733   0.761   2.069   0.317 -3.5603  0.5333 -0.0936
  585MPD2    N1 8734   0.660   2.636   0.320  0.2415 -0.2162 -0.1744
  585MPD2    H7 8735   0.613   2.691   0.391  0.5430  1.4439 -1.2505
  586TMC3    C1 8736   0.825   2.019   0.074  0.3689  0.1263  0.2367
  586TMC3    C2 8737   0.924   1.995  17.739  0.0893 -0.0453 -0.2517
  586TMC3    C3 8738   0.945   1.868  17.701  0.0591 -0.1241 -1.0114
  586TMC3    C4 8739   0.746   1.922   0.135 -0.7697 -0.1478 -0.2227
  586TMC3    C5 8740   0.766   1.795   0.085  0.1871  0.0661 -0.3028
  586TMC3    C6 8741   0.867   1.762  17.749 -0.4761 -0.8061  0.6318
  586TMC3     C 8742   0.826   2.146   0.138 -0.8404  0.4018 -0.2987
  586TMC3     O 8743   0.878   2.234   0.070 -0.2071  0.3337  0.5925
  586TMC3     H 8744   0.974   2.077  17.689 -2.5098  1.5256 -0.2955
  586TMC3    H1 8745   0.656   1.933   0.195 -1.1686 -0.8794 -0.6677
  586TMC3    H2 8746   0.880   1.662  17.708 -2.7132 -1.7972  2.3615
  586TMC3    C7 8747   0.645   1.735   0.037  0.3406  0.2874  0.2958
  586TMC3    C8 8748   0.990   1.846  17.563 -0.2198  0.3365  0.3664
  586TMC3    O1 8749   0.549   1.712   0.111 -0.5378 -0.8556  0.3486
  586TMC3    O2 8750   0.909   1.792  17.489 -0.2021  0.3575  0.2806
  587TMC3    C1 8751   2.960   0.628  15.947 -0.3525 -0.3442 -0.4187
  587TMC3    C2 8752   3.020   0.728  16.015 -0.2425  0.4147  0.9179
  587TMC3    C3 8753   3.154   0.723  16.031  0.9446  0.3492 -0.5588
  587TMC3    C4 8754   3.033   0.514  15.916  0.3860  0.2613 -0.0154
  587TMC3    C5 8755   3.171   0.516  15.926 -0.3259 -0.1714 -0.0540
  587TMC3    C6 8756   3.235   0.625  15.988 -0.3164 -0.4716  0.1741
  587TMC3     C 8757   2.818   0.635  15.936 -0.3122  0.3759 -0.5428
  587TMC3     O 8758   2.779   0.744  15.903  0.0070  0.0092 -0.3622
  587TMC3     H 8759   2.962   0.806  16.062  0.5241  0.4780  1.7632
  587TMC3    H1 8760   2.989   0.435  15.855  0.9262  0.4703 -0.6824
  587TMC3    H2 8761   3.341   0.623  16.011 -0.4356 -1.4192  0.6549
  587TMC3    C7 8762   3.253   0.413  15.868  0.0920  0.5267 -0.7371
  587TMC3    C8 8763   3.207   0.790  16.152 -0.0383 -0.6977  0.9022
  587TMC3    O1 8764   3.366   0.448  15.836  0.1439  0.7252 -0.8229
  587TMC3    O2 8765   3.285   0.721  16.218  0.3926  0.0883 -0.3268
  588TMC3    C1 8766   0.312   3.190  10.003 -0.3316  0.3093  0.4744
  588TMC3    C2 8767   0.231   3.078   9.995  0.4710  0.2258  0.0455
  588TMC3    C3 8768   0.287   2.970  10.050  0.5853  0.0348  0.3014
  588TMC3    C4 8769   0.442   3.196  10.052 -1.3610  0.6946  0.3134
  588TMC3    C5 8770   0.499   3.081  10.107  0.2133  0.6541 -0.1246
  588TMC3    C6 8771   0.414   2.975  10.109  0.0958 -0.4111  0.1308
  588TMC3     C 8772   0.246   3.311   9.963  0.3672  0.5509  0.2937
  588TMC3     O 8773   0.137   3.306   9.906 -0.3253 -0.0375  0.6686
  588TMC3     H 8774   0.130   3.085   9.958  0.5747 -2.0229 -0.6313
  588TMC3    H1 8775   0.506   3.279  10.024  0.5288 -0.2425  1.8831
  588TMC3    H2 8776   0.462   2.881  10.135 -1.0114 -0.7704  0.8806
  588TMC3    C7 8777   0.568   3.094  10.235 -0.1707 -0.0439 -0.0216
  588TMC3    C8 8778   0.208   2.852  10.060  0.0197 -0.3575  0.0482
  588TMC3    O1 8779   0.571   3.000  10.313 -0.5074 -0.5869  0.4534
  588TMC3    O2 8780   0.103   2.855   9.999 -0.6273  0.3776 -0.4071
  589TMC3    C1 8781   4.638   1.197   1.624  0.3337  0.5162 -0.0768
  589TMC3    C2 8782   0.029   1.189   1.663 -0.8424  0.5444  0.4135
  589TMC3    C3 8783   0.096   1.073   1.662 -0.0973  0.6399 -0.1801
  589TMC3    C4 8784   4.575   1.089   1.580  0.7959 -0.2614 -0.0398
  589TMC3    C5 8785   4.649   0.970   1.578 -0.4046  1.0038 -0.2279
  589TMC3    C6 8786   0.044   0.953   1.621  0.0232 -0.2034 -0.3430
  589TMC3     C 8787   4.556   1.313   1.661  0.2474 -0.5576 -0.1357
  589TMC3     O 8788   4.434   1.295   1.675 -0.3030  0.2340  0.0184
  589TMC3     H 8789   0.085   1.278   1.688 -0.1207  0.8190 -2.1054
  589TMC3    H1 8790   4.471   1.094   1.548  0.5475 -1.2852  0.5837
  589TMC3    H2 8791   0.101   0.861   1.623 -2.1880 -1.6652 -3.9858
  589TMC3    C7 8792   4.607   0.849   1.503 -1.1443 -1.0257  0.0624
  589TMC3    C8 8793   0.238   1.089   1.671  0.1171 -0.2842 -0.2545
  589TMC3    O1 8794   4.678   0.751   1.523 -0.0264 -0.1376  0.5827
  589TMC3    O2 8795   0.278   1.176   1.748 -0.0376 -0.1031 -0.5474
  590MPD2     C 8796   4.265   3.446  16.739  0.0156  0.5274  0.4268
  590MPD2    C1 8797   4.255   3.472  16.608  0.0833  0.1189  0.1232
  590MPD2    C2 8798   4.368   3.523  16.547  0.6645 -0.6717  0.8834
  590MPD2    C3 8799   4.476   3.567  16.624  0.0385  0.0770  0.7752
  590MPD2    C4 8800   4.471   3.564  16.763 -0.3826  0.9161  0.5859
  590MPD2    C5 8801   4.368   3.495  16.815  0.3452  0.3307 -0.1337
  590MPD2     H 8802   4.370   3.550  16.442  2.2883  0.7470  1.2638
  590MPD2    H1 8803   4.552   3.599  16.826 -1.8559 -0.3131  3.2054
  590MPD2    H2 8804   4.175   3.398  16.777 -0.2351  1.3812  0.9077
  590MPD2    H3 8805   4.366   3.475  16.922 -2.5401  3.6301  0.4096
  590MPD2     N 8806   4.580   3.635  16.553  0.4578 -0.2743 -0.0574
  590MPD2    H5 8807   4.574   3.633  16.452  0.1823 -1.6642 -0.0071
  590MPD2    N1 8808   4.130   3.456  16.544  0.7894  0.6811 -0.1877
  590MPD2    H7 8809   4.050   3.449  16.606 -0.7175 -1.9856 -2.4481
  591TMC3    C1 8810   0.007   3.791  16.507  0.3236 -0.9633 -0.1037
  591TMC3    C2 8811   0.012   3.723  16.387  0.3405 -0.3638  0.5085
  591TMC3    C3 8812   0.008   3.787  16.272 -0.5184 -0.0245  0.2730
  591TMC3    C4 8813   4.736   3.925  16.506  0.3246 -0.2429 -0.9203
  591TMC3    C5 8814   4.721   3.986  16.379  0.5490  0.4702 -0.7873
  591TMC3    C6 8815   4.718   3.923  16.261 -0.0246  0.0588 -0.7118
  591TMC3     C 8816   4.678   3.718  16.609  1.4910 -0.5892  1.0719
  591TMC3     O 8817   4.686   3.770  16.719  0.1153  0.4404 -0.5583
  591TMC3     H 8818   0.024   3.616  16.386 -1.5913 -0.5575 -1.4348
  591TMC3    H1 8819   4.721   3.974  16.601 -1.3153 -1.7001 -0.4193
  591TMC3    H2 8820   4.719   3.968  16.162 -0.9139  0.2122 -0.6531
  591TMC3    C7 8821   4.675   4.119  16.396  0.0549  0.3544 -0.1749
  591TMC3    C8 8822   0.064   3.705  16.165 -0.2236 -0.0413  0.1762
  591TMC3    O1 8823   4.673   4.166  16.505  0.1805  0.3380  0.3443
  591TMC3    O2 8824   0.145   3.617  16.195  0.3205  0.9291 -0.0048
  592MPD2     C 8825   4.079   0.616  11.642 -0.3862  0.0219 -0.0624
  592MPD2    C1 8826   3.989   0.685  11.722 -0.1453  0.4211 -0.8144
  592MPD2    C2 8827   3.901   0.611  11.795 -0.2559 -0.5146 -0.4500
  592MPD2    C3 8828   3.906   0.471  11.781  0.1661  0.6415 -0.6064
  592MPD2    C4 8829   4.000   0.405  11.703  0.4282  0.1220  0.0653
  592MPD2    C5 8830   4.092   0.480  11.628  0.3432 -0.3190  0.1635
  592MPD2     H 8831   3.829   0.656  11.862  0.7164 -0.1069  0.3101
  592MPD2    H1 8832   4.022   0.299  11.694 -0.5429 -0.1495  0.9632
  592MPD2    H2 8833   4.139   0.675  11.573  0.9855  2.8774  3.5601
  592MPD2    H3 8834   4.157   0.428  11.558  1.8897 -0.4854  1.7500
  592MPD2     N 8835   3.794   0.404  11.844 -0.1147  0.2181 -0.0619
  592MPD2    H5 8836   3.723   0.462  11.888 -0.1002 -1.9651  2.8229
  592MPD2    N1 8837   3.990   0.825  11.710 -0.2309  0.3738 -0.0045
  592MPD2    H7 8838   4.059   0.865  11.647 -1.4340  0.9771 -0.9410
  593TMC3    C1 8839   3.942   1.047  11.778 -0.2821  0.2566 -0.2262
  593TMC3    C2 8840   3.930   1.100  11.900  1.0305  0.3226 -1.1277
  593TMC3    C3 8841   4.013   1.196  11.946 -0.3436 -0.8037  0.4787
  593TMC3    C4 8842   4.050   1.095  11.700  0.0186 -0.3032  0.4793
  593TMC3    C5 8843   4.139   1.193  11.745 -0.2473 -0.4961 -0.0560
  593TMC3    C6 8844   4.117   1.242  11.866 -0.0933  0.3109  0.1839
  593TMC3     C 8845   3.912   0.907  11.786 -0.1060  0.3234  0.6829
  593TMC3     O 8846   3.813   0.882  11.856  0.3397 -0.4947 -0.3254
  593TMC3     H 8847   3.849   1.082  11.970  1.1151 -0.7999 -1.3188
  593TMC3    H1 8848   4.060   1.060  11.598  0.0750 -0.7556  0.6411
  593TMC3    H2 8849   4.180   1.319  11.909  0.6192 -1.4441  2.2801
  593TMC3    C7 8850   4.187   1.294  11.648  0.4819  0.1409  0.2873
  593TMC3    C8 8851   3.994   1.238  12.085 -0.4559 -0.1156  0.4539
  593TMC3    O1 8852   4.204   1.405  11.697 -0.1537  0.0165 -0.4747
  593TMC3    O2 8853   3.917   1.172  12.154  0.7407  0.1364  0.0881
  594MPD2     C 8854   3.502   4.161  14.982 -0.3336  0.4888 -0.0221
  594MPD2    C1 8855   3.429   4.253  14.907 -0.0454  0.0365  0.7537
  594MPD2    C2 8856   3.499   4.367  14.856 -1.0545  0.2484  0.7981
  594MPD2    C3 8857   3.638   4.388  14.865  0.4181 -0.4883 -0.5349
  594MPD2    C4 8858   3.710   4.294  14.935 -0.2765  0.1811 -0.7517
  594MPD2    C5 8859   3.633   4.190  14.993 -0.2565 -0.2217 -0.3637
  594MPD2     H 8860   3.440   4.444  14.807 -1.1581 -0.8797 -0.8638
  594MPD2    H1 8861   3.818   4.294  14.951 -0.9408 -0.7811  3.8246
  594MPD2    H2 8862   3.470   4.061  15.009  0.3267  0.3114  0.1038
  594MPD2    H3 8863   3.695   4.115  15.042  1.3320 -0.2389 -2.3747
  594MPD2     N 8864   3.692   4.504  14.809  0.3617  0.2418 -0.4351
  594MPD2    H5 8865   3.629   4.555  14.747 -0.4935 -1.2335 -0.7992
  594MPD2    N1 8866   3.290   4.226  14.890 -0.8012 -0.8597  0.3383
  594MPD2    H7 8867   3.257   4.135  14.920  0.3991 -0.6059  2.4133
  595TMC3    C1 8868   3.956   0.001  14.543  0.2223  0.0781 -0.1425
  595TMC3    C2 8869   3.945   4.676  14.658  0.2819  0.7457 -0.2362
  595TMC3    C3 8870   3.823   4.665  14.722  0.1622 -0.1443 -0.0303
  595TMC3    C4 8871   3.850   0.064  14.488 -0.0267  0.1311  0.7398
  595TMC3    C5 8872   3.731   0.056  14.562  0.5040 -0.0556 -0.0809
  595TMC3    C6 8873   3.710   4.720  14.668  0.3584  0.7356  0.3284
  595TMC3     C 8874   4.073   0.090  14.543  0.5319 -0.0315 -0.6458
  595TMC3     O 8875   4.049   0.202  14.508 -0.7265 -0.2813  0.4833
  595TMC3     H 8876   4.033   4.637  14.708 -0.7753 -3.3218 -1.5513
  595TMC3    H1 8877   3.864   0.116  14.393 -0.5304 -1.9044 -0.4369
  595TMC3    H2 8878   3.614   4.710  14.717  0.3382 -1.9587 -0.2324
  595TMC3    C7 8879   3.671   0.184  14.585 -0.0487  0.3122  0.1222
  595TMC3    C8 8880   3.816   4.551  14.812  0.4903 -0.1601 -0.4602
  595TMC3    O1 8881   3.575   0.184  14.664  0.2501 -0.8760  1.0280
  595TMC3    O2 8882   3.911   4.535  14.892 -0.7344 -0.0914  0.1711
  596MPD2     C 8883   2.392   2.600  16.864 -0.1922 -0.4567  0.0737
  596MPD2    C1 8884   2.460   2.706  16.797  0.4039 -0.1647 -0.3300
  596MPD2    C2 8885   2.533   2.682  16.683  0.2061  0.7072  0.2138
  596MPD2    C3 8886   2.516   2.562  16.618  0.3070  0.8958  0.4321
  596MPD2    C4 8887   2.453   2.459  16.687 -0.3881 -0.3664  0.4939
  596MPD2    C5 8888   2.395   2.477  16.809  0.7694  0.6618 -0.0552
  596MPD2     H 8889   2.585   2.764  16.636  0.0729  1.4568  1.3752
  596MPD2    H1 8890   2.465   2.359  16.647 -2.5452 -0.6608  0.5782
  596MPD2    H2 8891   2.327   2.617  16.949 -1.0006  0.8580 -0.8054
  596MPD2    H3 8892   2.336   2.393  16.844 -1.0873  1.5303 -1.0972
  596MPD2     N 8893   2.558   2.540  16.485  0.2815 -0.4212 -0.3263
  596MPD2    H5 8894   2.540   2.449  16.442  0.9044 -1.7306  2.2058
  596MPD2    N1 8895   2.459   2.848  16.829 -0.2941 -0.3710  1.1044
  596MPD2    H7 8896   2.512   2.909  16.767 -0.9654 -2.4960 -1.5658
  597TMC3    C1 8897   2.353   3.044  16.905 -0.4379 -0.0353 -0.0783
  597TMC3    C2 8898   2.437   3.117  16.828  0.0081 -0.2953 -0.7833
  597TMC3    C3 8899   2.395   3.251  16.814 -0.1444  0.1695  0.7886
  597TMC3    C4 8900   2.241   3.096  16.970 -0.6918  0.1765 -0.9555
  597TMC3    C5 8901   2.216   3.229  16.963 -0.0910 -0.7789 -0.5187
  597TMC3    C6 8902   2.294   3.316  16.887 -0.4651 -0.5472 -0.2656
  597TMC3     C 8903   2.368   2.899  16.919  0.2276  0.4502  0.8452
  597TMC3     O 8904   2.303   2.846  17.007  0.0618 -0.0156 -0.1839
  597TMC3     H 8905   2.516   3.071  16.771 -0.0711 -0.9572 -0.3614
  597TMC3    H1 8906   2.176   3.028  17.026 -1.1739  1.0042 -0.5103
  597TMC3    H2 8907   2.276   3.421  16.867  1.8376  0.1097  1.0580
  597TMC3    C7 8908   2.094   3.283  17.022  0.8869 -0.6431 -0.0815
  597TMC3    C8 8909   2.458   3.329  16.709  0.3302 -1.2834  0.6206
  597TMC3    O1 8910   2.017   3.192  17.060  0.5090 -0.6006  0.1203
  597TMC3    O2 8911   2.427   3.449  16.707  0.3891 -0.5187  0.0513
  598TMC3    C1 8912   0.702   4.081  15.600 -0.4246 -0.5152 -0.0964
  598TMC3    C2 8913   0.605   3.979  15.585 -0.9580  0.1222 -0.5039
  598TMC3    C3 8914   0.494   4.004  15.514  0.6192 -0.0889  0.6590
  598TMC3    C4 8915   0.697   4.195  15.536 -0.9520  0.2396  0.8672
  598TMC3    C5 8916   0.582   4.221  15.466  0.2995  0.9133  0.9671
  598TMC3    C6 8917   0.482   4.127  15.455 -0.3464  0.0165  0.0552
  598TMC3     C 8918   0.800   4.062  15.706  0.2155 -0.6980  0.1475
  598TMC3     O 8919   0.873   4.157  15.737 -1.4849  0.2357  0.0678
  598TMC3     H 8920   0.615   3.879  15.625 -1.0174  0.7824  1.1826
  598TMC3    H1 8921   0.778   4.266  15.547  0.3852 -0.8654 -2.0326
  598TMC3    H2 8922   0.400   4.144  15.386 -0.7240 -0.3157  0.4249
  598TMC3    C7 8923   0.594   4.299  15.337  0.7841 -0.0249  0.4343
  598TMC3    C8 8924   0.408   3.891  15.476  0.0796 -0.6697 -0.3125
  598TMC3    O1 8925   0.510   4.268  15.251 -0.2123  0.3755 -0.4452
  598TMC3    O2 8926   0.454   3.778  15.476  0.3462  0.1894  0.2486
  599MPD2     C 8927   0.807   2.068  15.751 -0.1758  1.1547  1.1486
  599MPD2    C1 8928   0.756   1.950  15.801 -0.4100  0.2809 -0.0327
  599MPD2    C2 8929   0.614   1.939  15.826 -0.2517 -0.1062  0.2316
  599MPD2    C3 8930   0.536   2.053  15.813 -0.2090  0.0676  0.0252
  599MPD2    C4 8931   0.589   2.176  15.778 -0.2837  0.5669  0.8615
  599MPD2    C5 8932   0.718   2.172  15.733  0.8174  0.5606 -0.1424
  599MPD2     H 8933   0.579   1.846  15.869  0.5462  0.0500  1.2369
  599MPD2    H1 8934   0.533   2.266  15.756 -1.1714  0.6014  3.2630
  599MPD2    H2 8935   0.906   2.085  15.710 -0.3256 -0.1830  0.2393
  599MPD2    H3 8936   0.754   2.264  15.688  0.8000  1.7148  2.1716
  599MPD2     N 8937   0.398   2.057  15.841  0.3215  0.2752  0.1868
  599MPD2    H5 8938   0.359   2.149  15.824 -1.2748 -0.7366 -1.5450
  599MPD2    N1 8939   0.852   1.846  15.825  0.0912 -0.5003 -0.4968
  599MPD2    H7 8940   0.946   1.878  15.809 -0.3045 -0.1205 -2.0865
  600TMC3    C1 8941   0.199   2.015  15.949  1.2295 -0.5106  0.4416
  600TMC3    C2 8942   0.111   1.913  15.974 -0.3720 -0.1278 -0.5068
  600TMC3    C3 8943   0.052   1.907  16.093  0.0943 -0.2831 -0.1494
  600TMC3    C4 8944   0.220   2.116  16.042 -0.8307  0.8309 -0.2709
  600TMC3    C5 8945   0.144   2.119  16.153 -0.6470 -0.0450 -0.4117
  600TMC3    C6 8946   0.065   2.015  16.183 -0.0258 -0.3907 -1.0434
  600TMC3     C 8947   0.328   1.958  15.903 -0.1313 -0.1659  0.0680
  600TMC3     O 8948   0.337   1.836  15.886 -0.0065 -0.1828  0.2884
  600TMC3     H 8949   0.100   1.827  15.909  1.3893 -1.6655  1.2066
  600TMC3    H1 8950   0.287   2.196  16.014 -0.8297  0.7137 -0.6025
  600TMC3    H2 8951   4.726   2.015  16.258  0.2424 -0.1428 -0.7626
  600TMC3    C7 8952   0.158   2.213  16.260  0.1508 -0.4158 -0.1069
  600TMC3    C8 8953   4.719   1.788  16.120  0.1334 -0.5979  0.3793
  600TMC3    O1 8954   0.057   2.225  16.336 -0.0207 -0.0145 -0.1147
  600TMC3    O2 8955   4.661   1.729  16.031 -0.1675 -0.2131  0.6192
  601MPD2     C 8956   2.609   1.121   0.198  0.7896  0.1445 -0.0004
  601MPD2    C1 8957   2.526   1.016   0.177  0.0511 -0.7269 -0.0460
  601MPD2    C2 8958   2.555   0.891   0.233  0.2644  0.6783 -0.2989
  601MPD2    C3 8959   2.671   0.865   0.303 -0.5030  0.1025  0.2633
  601MPD2    C4 8960   2.754   0.972   0.329 -0.0447 -0.4247 -0.2163
  601MPD2    C5 8961   2.722   1.092   0.276 -0.1447 -0.5714 -0.3531
  601MPD2     H 8962   2.484   0.811   0.222 -0.3264  0.9808  1.4025
  601MPD2    H1 8963   2.843   0.951   0.387 -0.8322 -0.3448  1.0100
  601MPD2    H2 8964   2.595   1.220   0.157 -0.7440  0.2471  0.7721
  601MPD2    H3 8965   2.793   1.174   0.280  2.1218 -2.6226  1.9560
  601MPD2     N 8966   2.693   0.737   0.356  0.5090  0.4062  0.6418
  601MPD2    H5 8967   2.781   0.725   0.406 -0.0142 -0.3046  1.3902
  601MPD2    N1 8968   2.408   1.017   0.096 -0.1996 -0.0598 -0.1601
  601MPD2    H7 8969   2.357   0.930   0.094 -0.2404 -0.0437  0.1142
  602TMC3    C1 8970   2.230   1.109  17.714  0.5706 -0.4239  0.7759
  602TMC3    C2 8971   2.194   1.211  17.623 -0.1022 -0.6634 -0.1989
  602TMC3    C3 8972   2.067   1.206  17.580 -0.2660 -0.5801  0.7472
  602TMC3    C4 8973   2.149   1.004  17.751 -0.2889  0.3188 -0.6503
  602TMC3    C5 8974   2.017   1.012  17.698 -0.4450  0.0150  0.7678
  602TMC3    C6 8975   1.981   1.106  17.610 -0.3185  0.6476  0.0417
  602TMC3     C 8976   2.359   1.132   0.032  0.4784 -0.0420 -0.6662
  602TMC3     O 8977   2.409   1.246   0.027  0.2870 -0.0882 -0.0133
  602TMC3     H 8978   2.250   1.303  17.609 -1.6529  0.2124 -0.6324
  602TMC3    H1 8979   2.185   0.923   0.057  2.1741  0.6009 -1.7123
  602TMC3    H2 8980   1.896   1.086  17.545  0.4209 -2.3872  0.0188
  602TMC3    C7 8981   1.935   0.887  17.713 -0.7939 -0.1950 -0.5480
  602TMC3    C8 8982   2.027   1.317  17.499  0.0398 -0.0742  0.1146
  602TMC3    O1 8983   1.993   0.781  17.739 -0.1525  0.9983 -0.2377
  602TMC3    O2 8984   2.113   1.392  17.449 -0.3646  0.0110 -0.1944
  603TMC3    C1 8985   0.215   0.267  11.256 -0.5850  0.4560 -0.4102
  603TMC3    C2 8986   0.288   0.296  11.365  0.5003  0.2336 -0.1413
  603TMC3    C3 8987   0.230   0.381  11.454 -0.9356  0.6864 -0.7468
  603TMC3    C4 8988   0.090   0.324  11.238 -0.4200  0.1069  0.0098
  603TMC3    C5 8989   0.038   0.402  11.336  0.5378 -0.1651  0.3090
  603TMC3    C6 8990   0.106   0.438  11.441  0.0485 -0.1244  0.1686
  603TMC3     C 8991   0.261   0.159  11.175  0.0569  0.2451  0.0047
  603TMC3     O 8992   0.382   0.133  11.177 -0.3643 -0.1335 -0.6426
  603TMC3     H 8993   0.381   0.244  11.385  1.2962  1.1686 -1.3755
  603TMC3    H1 8994   0.025   0.291  11.157  1.2005 -0.8172 -0.9131
  603TMC3    H2 8995   0.055   0.484  11.525  1.7271 -0.0680  1.1817
  603TMC3    C7 8996   4.631   0.434  11.338 -0.5776 -0.1933 -0.7820
  603TMC3    C8 8997   0.287   0.388  11.587 -0.5044 -0.7315  0.4292
  603TMC3    O1 8998   4.576   0.411  11.447 -0.6433 -0.4966 -0.1033
  603TMC3    O2 8999   0.354   0.296  11.628 -0.1417 -0.0444 -0.1948
  604MPD2     C 9000   1.730   3.949  16.357 -0.5762 -0.1689  0.2851
  604MPD2    C1 9001   1.625   3.868  16.325  0.0574 -0.1155 -0.6016
  604MPD2    C2 9002   1.626   3.817  16.194 -0.4013  0.2557  0.4385
  604MPD2    C3 9003   1.735   3.837  16.115  0.4423 -0.0788  0.3092
  604MPD2    C4 9004   1.836   3.930  16.142 -0.2139 -0.8814  0.2870
  604MPD2    C5 9005   1.842   3.972  16.271 -0.4013 -0.3771  0.7828
  604MPD2     H 9006   1.549   3.743  16.173 -0.9298  0.9623 -0.1046
  604MPD2    H1 9007   1.911   3.959  16.068  1.5501  0.6498  2.6556
  604MPD2    H2 9008   1.724   4.004  16.450  0.2638 -0.3866  0.4640
  604MPD2    H3 9009   1.924   4.037  16.300  0.4728 -1.2650  0.2900
  604MPD2     N 9010   1.749   3.769  15.989  0.6922 -0.5063 -0.1368
  604MPD2    H5 9011   1.674   3.704  15.968  1.2621 -1.8211  1.8968
  604MPD2    N1 9012   1.513   3.862  16.414  0.0272  0.5083 -0.5799
  604MPD2    H7 9013   1.527   3.904  16.505 -0.3770  0.5428 -0.5319
  605TMC3    C1 9014   1.289   3.845  16.486 -1.6222 -0.0418 -0.4199
  605TMC3    C2 9015   1.343   3.871  16.610  0.7470 -0.0760  0.0922
  605TMC3    C3 9016   1.302   3.978  16.683 -0.0095  0.1191 -0.9864
  605TMC3    C4 9017   1.188   3.929  16.437  0.0110  0.8264  0.9119
  605TMC3    C5 9018   1.138   4.019  16.528  0.6242  0.0121  0.4050
  605TMC3    C6 9019   1.192   4.042  16.650  0.4482  0.0761 -0.6348
  605TMC3     C 9020   1.385   3.828  16.378  0.0306  0.2895  0.2763
  605TMC3     O 9021   1.342   3.793  16.267  0.1747  0.2836 -0.0484
  605TMC3     H 9022   1.418   3.806  16.654  1.6299  0.5040 -0.5310
  605TMC3    H1 9023   1.167   3.931  16.331 -0.6247  0.4636  1.0324
  605TMC3    H2 9024   1.158   4.118  16.719 -0.4529 -1.1212  0.2417
  605TMC3    C7 9025   1.015   4.093  16.505 -0.1086  0.0156  0.0510
  605TMC3    C8 9026   1.420   4.075  16.682 -0.0583  0.2429 -0.6513
  605TMC3    O1 9027   0.973   4.178  16.586 -0.4521 -0.1605 -0.3368
  605TMC3    O2 9028   1.522   4.014  16.645  0.7919  0.3015  0.1451
  606TMC3    C1 9029   2.544   3.683  17.449 -0.4169  0.4244 -0.1655
  606TMC3    C2 9030   2.504   3.643  17.573  1.0286 -0.5350  0.3153
  606TMC3    C3 9031   2.457   3.514  17.589 -0.2034 -0.3171  0.6035
  606TMC3    C4 9032   2.534   3.610  17.333  0.1459  0.2405  0.1538
  606TMC3    C5 9033   2.494   3.478  17.353  0.3766 -0.0464  0.2912
  606TMC3    C6 9034   2.448   3.434  17.478  0.2993  0.0375 -0.2114
  606TMC3     C 9035   2.598   3.816  17.425 -0.3353  0.2889 -0.4733
  606TMC3     O 9036   2.662   3.834  17.327 -0.6073  0.2131 -0.4460
  606TMC3     H 9037   2.530   3.706  17.658 -0.6628 -1.2105  1.3429
  606TMC3    H1 9038   2.551   3.649  17.233 -2.6980  0.3634 -0.2819
  606TMC3    H2 9039   2.457   3.329  17.503  0.1677 -0.4480 -2.1941
  606TMC3    C7 9040   2.537   3.397  17.247 -0.4234 -0.5560  0.8325
  606TMC3    C8 9041   2.476   3.443  17.713  0.6498  0.1689  0.7843
  606TMC3    O1 9042   2.589   3.447  17.148 -0.6334  0.2189 -0.0930
  606TMC3    O2 9043   2.560   3.491   0.033 -0.0443 -0.1930 -0.2791
  607MPD2     C 9044   4.064   0.416  12.106 -0.5281 -0.2235 -1.0387
  607MPD2    C1 9045   4.024   0.486  12.220  0.6049 -0.6853  0.5718
  607MPD2    C2 9046   3.972   0.412  12.327  0.2514 -0.8948 -0.5962
  607MPD2    C3 9047   3.977   0.276  12.326 -0.7866  0.7727 -0.2805
  607MPD2    C4 9048   3.991   0.213  12.211 -0.3896 -0.0770 -0.2166
  607MPD2    C5 9049   4.032   0.285  12.102 -0.2806  0.2515 -0.4524
  607MPD2     H 9050   3.926   0.466  12.409  0.8592 -1.1142 -0.1063
  607MPD2    H1 9051   3.968   0.108  12.198  2.1556 -0.3661 -2.5204
  607MPD2    H2 9052   4.099   0.470  12.019 -1.4097  1.1253 -0.5727
  607MPD2    H3 9053   4.043   0.236  12.006 -0.5180  0.7683 -0.7473
  607MPD2     N 9054   3.946   0.219  12.450  0.3453  0.9054 -0.3278
  607MPD2    H5 9055   3.924   0.289  12.520 -1.5612  0.4357 -0.4672
  607MPD2    N1 9056   4.048   0.627  12.238  0.4889  0.0992 -0.2859
  607MPD2    H7 9057   4.024   0.650  12.334 -0.1535 -3.1107  0.3330
  608TMC3    C1 9058   4.158   0.832  12.230 -0.4743  0.0812  0.2304
  608TMC3    C2 9059   4.144   0.841  12.362  0.0761  0.6701  0.5345
  608TMC3    C3 9060   4.182   0.954  12.432 -0.5187  0.2877  0.6295
  608TMC3    C4 9061   4.240   0.918  12.161 -0.6201 -0.1624  0.7316
  608TMC3    C5 9062   4.289   1.024  12.238 -0.4582 -0.8641  0.5586
  608TMC3    C6 9063   4.261   1.044  12.373 -0.5297  0.2069 -0.2404
  608TMC3     C 9064   4.124   0.714  12.155  0.9812 -0.8001 -0.6699
  608TMC3     O 9065   4.163   0.702  12.038  0.1902 -0.1640  0.2262
  608TMC3     H 9066   4.087   0.766  12.415 -0.5493  0.4032 -0.5185
  608TMC3    H1 9067   4.248   0.916  12.053 -0.7973  2.1810  0.6622
  608TMC3    H2 9068   4.296   1.130  12.430  2.3408 -2.1141  1.5043
  608TMC3    C7 9069   4.356   1.126  12.168 -0.5289 -0.5323  0.4404
  608TMC3    C8 9070   4.194   0.945  12.579  0.0789  0.4622  0.3308
  608TMC3    O1 9071   4.377   1.094  12.053  0.4618 -0.1043  0.1307
  608TMC3    O2 9072   4.224   1.046  12.643  0.3595 -0.3017  0.1598
  609TMC3    C1 9073   2.213   3.925   9.030  0.1806 -0.1038  0.6460
  609TMC3    C2 9074   2.080   3.913   8.989  0.0566 -0.4604 -0.2295
  609TMC3    C3 9075   2.041   3.791   8.948 -0.2706 -0.3056 -0.6815
  609TMC3    C4 9076   2.293   3.814   9.037 -0.2546 -0.2783  0.0472
  609TMC3    C5 9077   2.237   3.688   9.006 -0.5641  0.4633 -0.2876
  609TMC3    C6 9078   2.112   3.678   8.951 -0.6868  0.1533  0.0702
  609TMC3     C 9079   2.265   4.037   9.096 -0.6239  0.0156 -0.0060
  609TMC3     O 9080   2.353   4.010   9.176 -0.5789  0.1375 -0.2311
  609TMC3     H 9081   2.005   3.991   8.996 -0.4319 -0.9090 -0.4440
  609TMC3    H1 9082   2.393   3.818   9.078  0.1710  0.0844 -1.0386
  609TMC3    H2 9083   2.085   3.598   8.884 -1.3993 -0.0483  0.5876
  609TMC3    C7 9084   2.299   3.567   9.059  1.0681 -1.0709 -0.3846
  609TMC3    C8 9085   1.925   3.792   8.864  0.2236 -0.3459  0.0801
  609TMC3    O1 9086   2.421   3.563   9.049  0.1695  0.0926  0.2512
  609TMC3    O2 9087   1.854   3.689   8.854  0.8885  0.3274  0.1876
  610TMC3    C1 9088   4.638   0.372  13.040  0.5837 -0.0399 -0.2395
  610TMC3    C2 9089   4.648   0.473  12.943  1.2630  0.8555 -0.0125
  610TMC3    C3 9090   0.001   0.458  12.846  0.4733  0.5011 -0.4403
  610TMC3    C4 9091   4.717   0.261  13.033  0.8315 -0.8225  0.2143
  610TMC3    C5 9092   0.069   0.260  12.938  0.4056  0.5535  0.4876
  610TMC3    C6 9093   0.089   0.354  12.841 -0.6483  0.0828  0.4344
  610TMC3     C 9094   4.553   0.391  13.152  0.3128 -0.0345 -0.3386
  610TMC3     O 9095   4.514   0.284  13.204 -0.1093  0.5239 -0.1943
  610TMC3     H 9096   4.584   0.561  12.944  0.1486  0.0473  0.4008
  610TMC3    H1 9097   4.730   0.189  13.113 -0.9822 -0.1394  1.1337
  610TMC3    H2 9098   0.152   0.336  12.755 -0.3081  2.6798  0.1484
  610TMC3    C7 9099   0.174   0.160  12.951 -0.2906  0.2144  0.6760
  610TMC3    C8 9100   0.013   0.561  12.740 -0.0247 -0.2494 -0.9665
  610TMC3    O1 9101   0.286   0.183  12.906 -0.1271 -0.1042  0.3637
  610TMC3    O2 9102   4.662   0.637  12.726  0.4458 -0.0618 -0.5122
  611MPD2     C 9103   3.257   0.357  10.539 -0.0421  0.2189 -0.1018
  611MPD2    C1 9104   3.347   0.318  10.446  0.2130  0.9133  0.3555
  611MPD2    C2 9105   3.483   0.345  10.468 -0.5127 -0.7035  0.3099
  611MPD2    C3 9106   3.524   0.413  10.583 -0.1193 -0.8791  0.7631
  611MPD2    C4 9107   3.430   0.444  10.680  0.3081  0.6927 -1.0727
  611MPD2    C5 9108   3.299   0.415  10.655 -0.4796 -0.5853  0.3076
  611MPD2     H 9109   3.556   0.300  10.401  0.2658  0.6099  0.2743
  611MPD2    H1 9110   3.453   0.493  10.774  1.4977 -0.5410 -0.7331
  611MPD2    H2 9111   3.152   0.334  10.525 -0.3401  3.7043 -3.4047
  611MPD2    H3 9112   3.237   0.449  10.737  1.5162 -0.2639  1.6576
  611MPD2     N 9113   3.658   0.445  10.613 -0.3200  0.9124  0.0196
  611MPD2    H5 9114   3.681   0.487  10.703  1.5107 -1.8345  0.8204
  611MPD2    N1 9115   3.316   0.238  10.337  0.7131  0.3562  0.0006
  611MPD2    H7 9116   3.222   0.200  10.334  1.7771 -2.4187  1.2181
  612TMC3    C1 9117   3.890   0.499  10.571  0.2080 -0.4116 -0.0747
  612TMC3    C2 9118   3.920   0.478  10.704  0.1831  0.0710 -0.3451
  612TMC3    C3 9119   4.055   0.489  10.738 -0.2327  0.5135  0.3891
  612TMC3    C4 9120   3.982   0.542  10.483 -0.2577  0.9279 -0.0710
  612TMC3    C5 9121   4.107   0.570  10.528  1.0351  0.0240 -0.1702
  612TMC3    C6 9122   4.150   0.534  10.656  0.4541  0.4427 -0.0388
  612TMC3     C 9123   3.762   0.451  10.514  0.5050  0.6215  0.5193
  612TMC3     O 9124   3.744   0.453  10.394 -0.2734  0.0544  0.3443
  612TMC3     H 9125   3.852   0.447  10.782  1.0846  1.7292  1.0812
  612TMC3    H1 9126   3.952   0.531  10.380 -1.8409  1.1565  0.3681
  612TMC3    H2 9127   4.251   0.553  10.688  0.3566 -0.4273  0.7531
  612TMC3    C7 9128   4.201   0.614  10.424 -0.6270 -0.2332  0.4225
  612TMC3    C8 9129   4.076   0.506  10.876 -0.7791  0.2753  0.4345
  612TMC3    O1 9130   4.319   0.608  10.456  0.3023 -0.7593 -0.6189
  612TMC3    O2 9131   3.972   0.508  10.947 -0.1196 -0.2462  0.3089
  613MPD2     C 9132   4.124   2.448  16.894  0.6189 -0.2856  0.9589
  613MPD2    C1 9133   4.026   2.520  16.834  0.1516  0.0214 -0.0924
  613MPD2    C2 9134   3.921   2.454  16.771 -0.1945 -0.0057 -0.7421
  613MPD2    C3 9135   3.928   2.313  16.752 -0.3795  0.6239  0.4177
  613MPD2    C4 9136   4.033   2.244  16.802  0.0405  0.2293 -0.1205
  613MPD2    C5 9137   4.133   2.315  16.873 -0.1954  0.5396 -0.1676
  613MPD2     H 9138   3.849   2.513  16.717 -2.8814 -1.5331  1.1769
  613MPD2    H1 9139   4.034   2.136  16.794  0.7286  0.2204  0.0808
  613MPD2    H2 9140   4.198   2.502  16.954  2.4756  0.3788 -1.9179
  613MPD2    H3 9141   4.217   2.265  16.919 -1.4674 -1.3689  0.0905
  613MPD2     N 9142   3.831   2.244  16.678  0.3413 -0.1114 -0.3106
  613MPD2    H5 9143   3.849   2.147  16.654 -0.8390 -0.0737 -1.3779
  613MPD2    N1 9144   4.034   2.660  16.840 -0.3374  0.4099 -0.4674
  613MPD2    H7 9145   4.119   2.708  16.866 -0.3048 -0.6522  1.4350
  614TMC3    C1 9146   4.004   2.842  16.685 -0.5127 -0.1395  0.2001
  614TMC3    C2 9147   4.091   2.789  16.600  0.2581 -0.2886 -0.5353
  614TMC3    C3 9148   4.089   2.807  16.464  0.7165  0.0708 -0.1210
  614TMC3    C4 9149   3.900   2.907  16.625 -0.1945 -0.1881  0.6681
  614TMC3    C5 9150   3.895   2.927  16.494 -0.7286  0.1694 -0.9590
  614TMC3    C6 9151   3.995   2.886  16.409 -0.9771  0.2143 -0.5155
  614TMC3     C 9152   3.945   2.743  16.775  0.5605  0.0549  0.7516
  614TMC3     O 9153   3.827   2.743  16.777 -0.2123 -0.1084 -0.2731
  614TMC3     H 9154   4.170   2.737  16.654 -0.2229 -0.2735  0.1762
  614TMC3    H1 9155   3.828   2.965  16.683  1.2612  2.9043 -0.6259
  614TMC3    H2 9156   3.984   2.881  16.302 -1.8543  2.0112 -0.5144
  614TMC3    C7 9157   3.796   3.017  16.449  1.0762 -0.0510 -0.3530
  614TMC3    C8 9158   4.080   2.670  16.405  0.3552  0.8452  0.3963
  614TMC3    O1 9159   3.798   3.124  16.505 -0.4234  0.0205 -0.3271
  614TMC3    O2 9160   3.992   2.647  16.320 -0.2971 -0.3652  0.8025
  615MPD2     C 9161   3.282   3.809  15.732  0.3481  0.0682  0.0751
  615MPD2    C1 9162   3.346   3.931  15.752  0.0386  0.2782  0.8172
  615MPD2    C2 9163   3.284   4.041  15.703  0.1078  0.8414  0.7933
  615MPD2    C3 9164   3.167   4.040  15.632 -0.6260  0.6252 -0.2420
  615MPD2    C4 9165   3.115   3.918  15.595  0.7310 -0.0493 -0.5142
  615MPD2    C5 9166   3.169   3.810  15.658  0.6503  0.1221 -0.0208
  615MPD2     H 9167   3.341   4.132  15.718  0.6380  0.5472  0.5780
  615MPD2    H1 9168   3.029   3.910  15.529 -0.5901 -1.2665  1.3640
  615MPD2    H2 9169   3.323   3.715  15.768  1.8255 -0.1648 -2.2180
  615MPD2    H3 9170   3.128   3.714  15.629 -1.7595  0.8903  0.8437
  615MPD2     N 9171   3.114   4.164  15.573  0.3484  0.6631  0.7523
  615MPD2    H5 9172   3.060   4.160  15.488  1.7028  0.1612 -0.0779
  615MPD2    N1 9173   3.464   3.962  15.823  0.1707 -0.3475  0.3028
  615MPD2    H7 9174   3.482   4.055  15.860  2.1266  0.0382 -1.6118
  616TMC3    C1 9175   3.651   3.941  15.956 -0.1857 -0.4808 -0.0517
  616TMC3    C2 9176   3.649   4.074  15.954  0.5670  0.4945 -0.1651
  616TMC3    C3 9177   3.712   4.144  16.057 -0.0124  0.9126 -0.2785
  616TMC3    C4 9178   3.713   3.872  16.058  0.1411  0.5901 -0.4298
  616TMC3    C5 9179   3.749   3.945  16.168 -0.3107 -0.3533 -0.0233
  616TMC3    C6 9180   3.749   4.084  16.170 -0.3407  0.2889 -0.6500
  616TMC3     C 9181   3.564   3.873  15.866  0.4536  0.5411  0.5416
  616TMC3     O 9182   3.565   3.751  15.853 -0.1285  0.5162 -0.5748
  616TMC3     H 9183   3.615   4.134  15.870  0.2023  0.3543 -0.1165
  616TMC3    H1 9184   3.735   3.767  16.045  0.0108  0.4014  0.9002
  616TMC3    H2 9185   3.797   4.134  16.252 -1.7335 -0.8979  0.8858
  616TMC3    C7 9186   3.838   3.876  16.261  0.7375 -0.5526  0.4415
  616TMC3    C8 9187   3.722   4.293  16.053  0.0612  0.0899  0.3136
  616TMC3    O1 9188   3.897   3.776  16.214  0.1664  0.0196 -0.3516
  616TMC3    O2 9189   3.656   4.338  15.962  0.1302 -0.0653  0.7114
  617MPD2     C 9190   1.244   2.616  13.465 -0.1268 -0.0493  0.2746
  617MPD2    C1 9191   1.282   2.580  13.593 -0.5369 -0.2118  0.0271
  617MPD2    C2 9192   1.197   2.498  13.670  0.7600 -0.4579 -0.1867
  617MPD2    C3 9193   1.086   2.443  13.614 -1.3667 -0.4569 -0.1208
  617MPD2    C4 9194   1.057   2.468  13.481 -0.3991 -0.0573 -0.2487
  617MPD2    C5 9195   1.140   2.555  13.409 -0.0654  0.1584  0.3007
  617MPD2     H 9196   1.211   2.503  13.777  1.4246 -1.7215 -0.2162
  617MPD2    H1 9197   0.972   2.422  13.431  1.5118 -1.4280 -2.1908
  617MPD2    H2 9198   1.286   2.696  13.405  0.4459 -0.1983  0.4762
  617MPD2    H3 9199   1.114   2.572  13.305 -0.9057  1.9875  0.8104
  617MPD2     N 9200   0.988   2.376  13.688 -0.6795  0.4688  0.9067
  617MPD2    H5 9201   0.897   2.359  13.646 -0.2622  1.5018 -0.3839
  617MPD2    N1 9202   1.389   2.660  13.652 -0.5974  0.4470 -0.5862
  617MPD2    H7 9203   1.439   2.717  13.584  0.1412  2.6128  1.7793
  618TMC3    C1 9204   1.570   2.705  13.800  0.1651  0.0636  0.3647
  618TMC3    C2 9205   1.667   2.627  13.853 -0.4503 -0.3249  0.5681
  618TMC3    C3 9206   1.783   2.683  13.858  0.2606  0.3993 -0.5241
  618TMC3    C4 9207   1.583   2.833  13.750  0.3548 -0.0341 -0.1073
  618TMC3    C5 9208   1.700   2.885  13.769 -0.4469 -0.3746 -0.1518
  618TMC3    C6 9209   1.807   2.816  13.829 -0.0423 -0.0752  0.0464
  618TMC3     C 9210   1.451   2.627  13.769 -1.2864  0.6894  0.5107
  618TMC3     O 9211   1.414   2.557  13.861  0.7862 -0.2674  0.0964
  618TMC3     H 9212   1.635   2.534  13.899  0.1981 -0.1818  1.2995
  618TMC3    H1 9213   1.500   2.885  13.705  1.7808  0.0762 -2.5876
  618TMC3    H2 9214   1.907   2.857  13.833 -0.4080  0.7652  0.5872
  618TMC3    C7 9215   1.710   3.010  13.696  0.0731  0.2111 -0.4573
  618TMC3    C8 9216   1.892   2.596  13.892 -0.5657 -0.1310 -0.8658
  618TMC3    O1 9217   1.625   3.100  13.701  0.2554 -0.6768  0.5118
  618TMC3    O2 9218   1.888   2.479  13.858  0.8402 -0.2573  0.9889
  619MPD2     C 9219   2.546   3.239  13.791 -0.6652  0.0894  0.3838
  619MPD2    C1 9220   2.449   3.252  13.694 -0.5847 -0.0129 -0.4308
  619MPD2    C2 9221   2.318   3.276  13.727  0.5981 -0.3026  0.0275
  619MPD2    C3 9222   2.287   3.290  13.860 -0.3247 -0.1859  0.2000
  619MPD2    C4 9223   2.384   3.292  13.954  0.5239 -1.2105 -0.1568
  619MPD2    C5 9224   2.518   3.270  13.921 -0.8431 -0.7679 -0.0897
  619MPD2     H 9225   2.241   3.278  13.650 -0.9316 -2.3341  1.4908
  619MPD2    H1 9226   2.358   3.309  14.057 -0.7621  1.1016 -0.8560
  619MPD2    H2 9227   2.648   3.209  13.769 -1.0686 -0.2287 -1.0108
  619MPD2    H3 9228   2.589   3.273  14.002 -0.0021  1.1152 -0.8883
  619MPD2     N 9229   2.157   3.317  13.908  0.5708  0.0302  0.0745
  619MPD2    H5 9230   2.142   3.308  14.008  3.7705 -0.2224  0.5215
  619MPD2    N1 9231   2.488   3.244  13.559 -0.5370 -0.1928 -0.2308
  619MPD2    H7 9232   2.412   3.244  13.492 -0.8160  2.9858  0.1124
  620TMC3    C1 9233   2.605   3.269  13.357 -0.0012  0.0463  0.3870
  620TMC3    C2 9234   2.484   3.258  13.294  0.6501 -0.3758  0.1132
  620TMC3    C3 9235   2.455   3.349  13.196  0.2771  0.1642  0.2086
  620TMC3    C4 9236   2.692   3.364  13.318 -0.0847 -0.5704  0.7247
  620TMC3    C5 9237   2.664   3.437  13.210  0.3204 -0.6529 -0.0733
  620TMC3    C6 9238   2.547   3.439  13.158  0.5345  0.0011  0.2953
  620TMC3     C 9239   2.617   3.243  13.498 -0.2315  0.1361  0.5213
  620TMC3     O 9240   2.728   3.243  13.547  0.0942  0.4857  1.0111
  620TMC3     H 9241   2.412   3.188  13.333 -0.8868  0.4004 -1.3125
  620TMC3    H1 9242   2.783   3.382  13.375  0.9570 -3.0237 -0.1543
  620TMC3    H2 9243   2.523   3.510  13.080 -2.1530  0.5939  1.6811
  620TMC3    C7 9244   2.734   3.565  13.186 -0.0215  0.2221 -0.3982
  620TMC3    C8 9245   2.320   3.401  13.203  0.6609  0.2196 -0.1339
  620TMC3    O1 9246   2.777   3.623  13.286  0.1292 -0.0424  0.1070
  620TMC3    O2 9247   2.221   3.331  13.187  0.0914  0.7655 -0.2954
  621MPD2     C 9248   2.327   3.278  10.288 -0.2200  0.4921 -0.0291
  621MPD2    C1 9249   2.423   3.265  10.385 -0.1348  0.1387  0.1840
  621MPD2    C2 9250   2.553   3.317  10.361  0.2493  0.2684  0.2688
  621MPD2    C3 9251   2.574   3.375  10.236 -0.8604 -0.0700  0.3108
  621MPD2    C4 9252   2.472   3.405  10.141  0.3420  0.3905 -0.0659
  621MPD2    C5 9253   2.353   3.347  10.167  0.0476 -0.4464 -0.1837
  621MPD2     H 9254   2.620   3.307  10.446 -1.5361 -0.7064  1.5526
  621MPD2    H1 9255   2.486   3.457  10.047  0.5388 -1.1445 -0.8696
  621MPD2    H2 9256   2.223   3.246  10.294 -0.8318  3.4439  4.9260
  621MPD2    H3 9257   2.272   3.363  10.097  0.1313 -1.0169 -0.4085
  621MPD2     N 9258   2.705   3.431  10.226  0.3655  0.0640 -0.7876
  621MPD2    H5 9259   2.756   3.447  10.312  0.3844 -0.6948 -0.6505
  621MPD2    N1 9260   2.402   3.188  10.507  0.1242 -0.3809 -0.7097
  621MPD2    H7 9261   2.473   3.179  10.580 -0.1218 -1.6611 -0.6289
  622TMC3    C1 9262   2.286   3.035  10.649  0.6925 -0.5534 -0.1213
  622TMC3    C2 9263   2.250   3.120  10.750 -0.5514 -0.5256 -0.0178
  622TMC3    C3 9264   2.150   3.088  10.843 -0.0805 -0.3457 -0.3152
  622TMC3    C4 9265   2.217   2.912  10.640  0.6535 -0.9437  0.7507
  622TMC3    C5 9266   2.125   2.879  10.736  0.3062 -0.3331 -0.5226
  622TMC3    C6 9267   2.109   2.958  10.854  0.0603 -0.0411 -0.0196
  622TMC3     C 9268   2.290   3.100  10.517 -1.2459 -0.5365  0.1242
  622TMC3     O 9269   2.208   3.064  10.436  0.6376 -0.2819 -0.0658
  622TMC3     H 9270   2.291   3.220  10.755 -0.2216 -0.6541 -0.1724
  622TMC3    H1 9271   2.235   2.848  10.555 -2.8891  0.9027 -1.4021
  622TMC3    H2 9272   2.021   2.927  10.908  0.8825  0.2653  1.5109
  622TMC3    C7 9273   2.014   2.804  10.689  0.1121 -0.1452 -0.0669
  622TMC3    C8 9274   2.032   3.173  10.833 -0.6364 -0.2818  0.1750
  622TMC3    O1 9275   1.957   2.738  10.779 -0.4420 -0.0529  0.0737
  622TMC3    O2 9276   1.949   3.162  10.920  0.3589  0.2808  0.3478
  623MPD2     C 9277   1.653   4.429  15.679  0.0706  0.4710 -0.7342
  623MPD2    C1 9278   1.588   4.377  15.790  1.1426  0.5637 -0.4419
  623MPD2    C2 9279   1.659   4.335  15.902 -0.2703 -0.1811 -0.2331
  623MPD2    C3 9280   1.793   4.343  15.905 -0.5232  0.1480  0.3656
  623MPD2    C4 9281   1.862   4.389  15.796 -0.5083  0.1294  0.6747
  623MPD2    C5 9282   1.789   4.434  15.686 -0.2143 -0.2260  0.4953
  623MPD2     H 9283   1.608   4.306  15.993 -0.5692 -0.1986 -0.4031
  623MPD2    H1 9284   1.971   4.396  15.792 -0.7150  0.5374 -4.8129
  623MPD2    H2 9285   1.599   4.434  15.586 -1.0450  0.0303 -0.1056
  623MPD2    H3 9286   1.848   4.447  15.596 -0.7475  0.5555  0.2582
  623MPD2     N 9287   1.856   4.303  16.030  0.2425 -0.0121  0.7498
  623MPD2    H5 9288   1.790   4.278  16.102  1.1311 -0.5475  1.3835
  623MPD2    N1 9289   1.450   4.366  15.805  0.1825 -0.4694 -0.5146
  623MPD2    H7 9290   1.420   4.322  15.891 -0.5609  0.9338 -0.0743
  624TMC3    C1 9291   2.192   4.244  16.357 -0.6970  0.2741 -0.1348
  624TMC3    C2 9292   2.117   4.282  16.462 -0.3738 -0.5362  0.4218
  624TMC3    C3 9293   1.996   4.337  16.430 -0.5895 -0.5932 -0.6007
  624TMC3    C4 9294   2.154   4.262  16.219 -0.0528  0.1230  0.4411
  624TMC3    C5 9295   2.033   4.308  16.192  0.0361  0.6851 -0.7452
  624TMC3    C6 9296   1.951   4.345  16.301  0.2251 -0.3727 -0.6229
  624TMC3     C 9297   2.323   4.200  16.398  0.1666 -0.2197 -0.2278
  624TMC3     O 9298   2.417   4.271  16.365 -0.1557  0.7939 -0.0789
  624TMC3     H 9299   2.151   4.257  16.563 -0.6500 -0.9255  0.4195
  624TMC3    H1 9300   2.217   4.231  16.136 -1.5548 -2.9487  0.4298
  624TMC3    H2 9301   1.849   4.379  16.286  0.2875 -0.0069 -0.1975
  624TMC3    C7 9302   1.990   4.302  16.051  0.1464 -0.1653  0.4124
  624TMC3    C8 9303   1.885   4.295  16.519 -0.9570  0.1689 -0.3348
  624TMC3    O1 9304   2.072   4.299  15.964 -0.4072 -0.3181  0.4165
  624TMC3    O2 9305   1.850   4.180  16.520 -0.6222  0.2560  0.1314
  625MPD2     C 9306   2.304   1.313   0.792  0.1323  0.7117  0.3324
  625MPD2    C1 9307   2.315   1.451   0.792 -0.1081 -0.2522 -0.9925
  625MPD2    C2 9308   2.425   1.522   0.835 -0.0465  0.5703  0.4019
  625MPD2    C3 9309   2.537   1.449   0.882  0.8407 -0.3649  0.3907
  625MPD2    C4 9310   2.524   1.308   0.894 -0.7799 -0.4157  0.7545
  625MPD2    C5 9311   2.410   1.249   0.850 -0.2872  0.7485  0.9386
  625MPD2     H 9312   2.440   1.629   0.828 -0.1795  0.6668  1.6625
  625MPD2    H1 9313   2.601   1.238   0.926 -0.9786 -1.2201 -0.5524
  625MPD2    H2 9314   2.219   1.251   0.769  0.8659 -0.6975  1.3883
  625MPD2    H3 9315   2.406   1.141   0.858 -1.0674  0.6442 -0.7907
  625MPD2     N 9316   2.649   1.526   0.908 -0.2235 -0.6500  0.4110
  625MPD2    H5 9317   2.641   1.626   0.892  0.7053 -0.3912  1.5985
  625MPD2    N1 9318   2.204   1.526   0.758 -0.6876 -0.2727  0.0536
  625MPD2    H7 9319   2.218   1.627   0.763 -1.5568 -0.2404  1.8961
  626TMC3    C1 9320   2.010   1.583   0.657  0.2722  1.0122  0.1547
  626TMC3    C2 9321   1.988   1.596   0.529 -0.2906 -0.1164 -0.3778
  626TMC3    C3 9322   1.916   1.708   0.495  0.8074 -0.3450  0.4414
  626TMC3    C4 9323   1.971   1.672   0.749  0.0011 -0.0648  0.3075
  626TMC3    C5 9324   1.893   1.782   0.716  0.2990 -0.5584 -0.0297
  626TMC3    C6 9325   1.863   1.804   0.586  0.2481 -0.1744  0.0814
  626TMC3     C 9326   2.105   1.478   0.682  0.1936 -0.3823 -0.1470
  626TMC3     O 9327   2.089   1.375   0.616 -0.0996  0.5711  0.5688
  626TMC3     H 9328   2.011   1.515   0.461  0.0343 -0.3822  0.0528
  626TMC3    H1 9329   1.988   1.656   0.855  0.3425 -0.3744  0.2060
  626TMC3    H2 9330   1.802   1.888   0.553 -0.8054 -1.2585 -0.7029
  626TMC3    C7 9331   1.869   1.876   0.818 -0.5514 -0.3158 -0.2779
  626TMC3    C8 9332   1.941   1.753   0.356 -0.4661  0.3193  0.3836
  626TMC3    O1 9333   1.956   1.879   0.905  0.6808  0.7371 -0.5432
  626TMC3    O2 9334   1.987   1.671   0.278  0.1160 -0.4295  0.5635
  627MPD2     C 9335   0.591   1.111  14.284 -0.1038  0.1341  1.1809
  627MPD2    C1 9336   0.575   1.088  14.417 -0.4113  0.6710  0.6174
  627MPD2    C2 9337   0.526   0.970  14.462  0.5617 -0.4562  0.1996
  627MPD2    C3 9338   0.501   0.867  14.370 -0.2101  0.4801  0.1342
  627MPD2    C4 9339   0.527   0.887  14.236  0.3096 -0.2545 -0.2451
  627MPD2    C5 9340   0.564   1.016  14.192  0.1136  0.1526 -0.0966
  627MPD2     H 9341   0.527   0.952  14.569 -0.4363  0.1931  0.3167
  627MPD2    H1 9342   0.512   0.809  14.163  0.2183 -1.4763  1.0711
  627MPD2    H2 9343   0.611   1.207  14.238  0.4714 -0.1187  0.9056
  627MPD2    H3 9344   0.558   1.032  14.085 -3.6096 -1.0542 -0.0629
  627MPD2     N 9345   0.456   0.740  14.417 -0.1014 -0.9539 -0.1545
  627MPD2    H5 9346   0.423   0.734  14.513  1.9505  2.8502  0.7824
  627MPD2    N1 9347   0.607   1.187  14.517 -0.2855 -0.3192  0.2937
  627MPD2    H7 9348   0.583   1.155  14.610 -1.9851  2.9069  0.9554
  628TMC3    C1 9349   0.720   1.378  14.605 -0.1647  0.0379 -0.0738
  628TMC3    C2 9350   0.739   1.314  14.719 -0.0100  0.2204 -0.5839
  628TMC3    C3 9351   0.846   1.340  14.799 -0.1894 -0.1968 -0.2583
  628TMC3    C4 9352   0.782   1.498  14.579  0.3418  0.3900  0.8213
  628TMC3    C5 9353   0.887   1.535  14.669 -0.7673 -0.1746 -0.4848
  628TMC3    C6 9354   0.924   1.451  14.779 -0.1982  0.4917 -0.1925
  628TMC3     C 9355   0.650   1.318  14.494 -0.1842  0.0595 -0.2437
  628TMC3     O 9356   0.653   1.381  14.385  0.2304  0.2000  0.8045
  628TMC3     H 9357   0.684   1.221  14.731 -1.0096  1.1056  1.5872
  628TMC3    H1 9358   0.740   1.563  14.503  1.1941  1.3767  1.1922
  628TMC3    H2 9359   0.993   1.493  14.851  0.6444  1.8952 -1.8193
  628TMC3    C7 9360   0.996   1.613  14.623 -0.4228  0.6082 -0.3561
  628TMC3    C8 9361   0.861   1.240  14.909  0.5691 -0.4181  0.6380
  628TMC3    O1 9362   1.108   1.594  14.673 -0.1359  0.8155  0.2109
  628TMC3    O2 9363   0.769   1.157  14.928 -0.0350  0.5817 -0.3608
  629MPD2     C 9364   3.857   0.034  16.203 -0.1851  0.0072  0.5781
  629MPD2    C1 9365   3.945   4.685  16.253  0.4530 -0.6208  0.4055
  629MPD2    C2 9366   3.924   4.547  16.244  0.1900  0.0947 -0.1831
  629MPD2    C3 9367   3.826   4.494  16.160 -0.5188 -0.1744  0.4486
  629MPD2    C4 9368   3.742   4.585  16.114  0.0754 -0.2248  0.0984
  629MPD2    C5 9369   3.753   4.721  16.137  0.2125 -0.1985  0.2660
  629MPD2     H 9370   3.993   4.475  16.288  0.7650  0.4039 -0.5725
  629MPD2    H1 9371   3.664   4.552  16.046  0.0186  0.2123 -0.0523
  629MPD2    H2 9372   3.868   0.141  16.220  4.3687  0.0968 -2.9292
  629MPD2    H3 9373   3.682   0.051  16.094 -1.6230 -1.8677  0.5847
  629MPD2     N 9374   3.815   4.356  16.139 -0.0247  0.1599 -0.1372
  629MPD2    H5 9375   3.875   4.294  16.193 -0.5375  1.7087  2.2373
  629MPD2    N1 9376   4.055   0.005  16.334  0.2050  0.1234 -0.2457
  629MPD2    H7 9377   4.053   0.106  16.340 -3.7575  0.0637 -0.0708
  630TMC3    C1 9378   4.231   0.023  16.491  0.2671  0.1816  0.3716
  630TMC3    C2 9379   4.253   0.146  16.430  0.1029  0.4067  0.0145
  630TMC3    C3 9380   4.340   0.230  16.495 -0.0733  0.0277 -0.9873
  630TMC3    C4 9381   4.286   4.718  16.605  0.3114 -0.3488  0.5009
  630TMC3    C5 9382   4.355   0.076  16.673  0.3940  0.2255  0.3566
  630TMC3    C6 9383   4.382   0.204  16.622 -0.7491 -0.4979 -0.2523
  630TMC3     C 9384   4.139   4.673  16.418  0.0907 -0.1271  0.5427
  630TMC3     O 9385   4.146   4.559  16.451 -0.3358  0.2653 -0.1902
  630TMC3     H 9386   4.224   0.157  16.327 -4.3881  3.4321  1.6101
  630TMC3    H1 9387   4.236   4.635  16.653  1.3400 -0.6803  0.9768
  630TMC3    H2 9388   4.441   0.282  16.668 -3.0714  0.5784  0.9099
  630TMC3    C7 9389   4.400   0.033  16.802  0.3367  0.2309 -0.0133
  630TMC3    C8 9390   4.389   0.352  16.432  0.1958  0.2561  0.3145
  630TMC3    O1 9391   4.374   4.658  16.834  0.1870 -0.2508  0.2997
  630TMC3    O2 9392   4.488   0.408  16.480  0.0697 -0.0187 -0.1276
  631MPD2     C 9393   2.272   4.611  15.555  0.2480 -0.0189  0.3480
  631MPD2    C1 9394   2.348   4.721  15.564 -0.1347 -0.0956  0.1750
  631MPD2    C2 9395   2.482   4.711  15.534  0.0252 -0.3440 -1.0843
  631MPD2    C3 9396   2.537   4.587  15.504 -0.3560 -0.1376  0.3270
  631MPD2    C4 9397   2.457   4.471  15.504 -0.4373 -0.2297  0.5780
  631MPD2    C5 9398   2.324   4.489  15.515 -0.4716  0.0126 -0.0956
  631MPD2     H 9399   2.538   0.064  15.528  0.2113 -0.3996 -0.2153
  631MPD2    H1 9400   2.492   4.371  15.478 -2.4759 -0.3607 -1.7429
  631MPD2    H2 9401   2.166   4.610  15.578 -0.0866  0.8270 -1.2466
  631MPD2    H3 9402   2.267   4.397  15.505 -1.2854  0.6051 -0.9782
  631MPD2     N 9403   2.678   4.581  15.482  0.2570 -0.1191  0.8520
  631MPD2    H5 9404   2.729   4.668  15.495 -1.9527  1.0954  1.2563
  631MPD2    N1 9405   2.285   0.100  15.605 -0.1243 -0.3411 -0.0369
  631MPD2    H7 9406   2.185   0.113  15.594 -0.1622 -0.7308 -0.1525
  632TMC3    C1 9407   2.272   0.331  15.651  0.7278  0.1731  0.8959
  632TMC3    C2 9408   2.146   0.304  15.615 -0.4853 -0.1112 -0.0796
  632TMC3    C3 9409   2.085   0.406  15.555  0.1919  0.5630  0.2852
  632TMC3    C4 9410   2.338   0.445  15.607 -0.8810 -0.3341  0.2138
  632TMC3    C5 9411   2.276   0.532  15.525 -0.0033 -0.4758  0.0714
  632TMC3    C6 9412   2.146   0.519  15.508  0.3443  0.0007 -0.9001
  632TMC3     C 9413   2.358   0.212  15.644 -0.4576 -0.3736 -0.4270
  632TMC3     O 9414   2.478   0.229  15.648  0.4165  0.1274 -0.2271
  632TMC3     H 9415   2.085   0.223  15.654  0.7591 -1.8262 -1.6913
  632TMC3    H1 9416   2.439   0.457  15.644 -0.6705 -2.2607  0.2897
  632TMC3    H2 9417   2.092   0.579  15.436 -0.3040  0.8856  0.3055
  632TMC3    C7 9418   2.339   0.516  15.391 -0.8832  0.7165  0.2080
  632TMC3    C8 9419   1.936   0.408  15.559 -0.7656 -0.2701  0.1300
  632TMC3    O1 9420   2.286   0.569  15.295 -0.2634  0.0128  0.0231
  632TMC3    O2 9421   1.881   0.297  15.538 -0.0871  0.0524  0.8271
  633MPD2     C 9422   1.963   2.931  17.546 -0.7571  0.1552  0.1336
  633MPD2    C1 9423   1.968   2.846  17.445 -0.4037  0.2611 -1.0579
  633MPD2    C2 9424   2.042   2.727  17.450 -0.0951  0.2849 -0.5519
  633MPD2    C3 9425   2.139   2.722  17.544  0.8999  0.7905 -0.0433
  633MPD2    C4 9426   2.141   2.808  17.648 -0.4467  0.2944 -0.6456
  633MPD2    C5 9427   2.043   2.912  17.652 -0.0022  0.0055 -0.2502
  633MPD2     H 9428   2.047   2.660  17.365  3.6599  3.0882 -2.5557
  633MPD2    H1 9429   2.205   2.804  17.735  2.2832 -0.4224 -2.6809
  633MPD2    H2 9430   1.894   3.014  17.552 -0.7306  0.4275 -3.2776
  633MPD2    H3 9431   2.050   2.972  17.742  0.4930 -1.0251  0.4011
  633MPD2     N 9432   2.242   2.628  17.545 -0.5331  0.1720  0.3974
  633MPD2    H5 9433   2.320   2.653  17.606 -1.1838  0.5098  1.0930
  633MPD2    N1 9434   1.888   2.862  17.331  0.2141 -0.5126  0.1257
  633MPD2    H7 9435   1.894   2.786  17.264 -2.0311 -0.8792  0.3333
  634TMC3    C1 9436   1.742   2.938  17.161  0.7415  0.8252  0.0915
  634TMC3    C2 9437   1.742   2.808  17.117 -0.1041 -0.7909  0.6321
  634TMC3    C3 9438   1.711   2.793  16.989  0.2480  0.2385 -0.3440
  634TMC3    C4 9439   1.699   3.046  17.097 -0.4898 -0.6425 -0.1217
  634TMC3    C5 9440   1.662   3.024  16.971  0.0375 -0.0841 -0.0344
  634TMC3    C6 9441   1.680   2.905  16.915  0.5046 -0.3304  0.3730
  634TMC3     C 9442   1.820   2.972  17.282 -0.0316  0.8923  0.1778
  634TMC3     O 9443   1.808   3.084  17.332 -0.7640  0.6032  1.2840
  634TMC3     H 9444   1.787   2.724  17.168  0.5677 -1.5568 -1.2045
  634TMC3    H1 9445   1.704   3.144  17.142 -2.1696 -0.4831 -0.2646
  634TMC3    H2 9446   1.667   2.897  16.808 -1.4850  0.0671  0.5950
  634TMC3    C7 9447   1.661   3.129  16.873 -0.4497  0.0570  0.1772
  634TMC3    C8 9448   1.803   2.711  16.914 -0.3956 -0.2915 -0.2310
  634TMC3    O1 9449   1.695   3.106  16.757  0.2399 -0.0303 -0.3312
  634TMC3    O2 9450   1.771   2.592  16.894 -0.2346  0.1705  0.4344
  635TMC3    C1 9451   1.808   0.274   0.917 -0.2646 -0.1909 -0.2750
  635TMC3    C2 9452   1.727   0.362   0.972  0.2795 -0.2115 -0.1500
  635TMC3    C3 9453   1.620   0.317   1.044 -0.3488 -0.1599  0.4190
  635TMC3    C4 9454   1.794   0.137   0.941 -0.4364 -0.1485 -0.3399
  635TMC3    C5 9455   1.680   0.094   1.004 -1.4131 -0.1416 -0.5290
  635TMC3    C6 9456   1.589   0.186   1.050  0.2755  1.0383  0.3328
  635TMC3     C 9457   1.928   0.318   0.854  0.5548 -0.5829 -0.5215
  635TMC3     O 9458   2.029   0.250   0.861  0.2668 -0.1750 -0.2414
  635TMC3     H 9459   1.756   0.466   0.972 -0.5956  0.0329 -0.2693
  635TMC3    H1 9460   1.871   0.073   0.899 -0.5595  1.8367 -3.6139
  635TMC3    H2 9461   1.502   0.144   1.100 -1.5631  4.3897 -0.0347
  635TMC3    C7 9462   1.675   4.698   1.063 -0.0530 -0.3108  0.2553
  635TMC3    C8 9463   1.532   0.411   1.107  1.1127  0.3148 -0.1629
  635TMC3    O1 9464   1.571   4.665   1.123  0.1665  0.1122 -0.0248
  635TMC3    O2 9465   1.528   0.525   1.061  0.6027 -0.6679 -0.6596
  636MPD2     C 9466   3.175   2.803  16.170  0.3779 -0.0197 -0.6600
  636MPD2    C1 9467   3.243   2.814  16.290 -0.2094  0.7058  0.0241
  636MPD2    C2 9468   3.339   2.724  16.322  0.2241  0.1006 -0.0155
  636MPD2    C3 9469   3.351   2.606  16.249 -0.0511  0.0336 -0.3342
  636MPD2    C4 9470   3.264   2.583  16.138  0.4640 -0.0671 -0.7754
  636MPD2    C5 9471   3.174   2.685  16.097  0.7027 -0.1966  0.7982
  636MPD2     H 9472   3.381   2.725  16.422 -2.4769 -0.4231  1.1413
  636MPD2    H1 9473   3.283   2.494  16.079 -2.1782 -0.2545 -1.3429
  636MPD2    H2 9474   3.101   2.877  16.143  1.6271  1.9101  1.2546
  636MPD2    H3 9475   3.116   2.674  16.006  0.3671  0.0957  0.9805
  636MPD2     N 9476   3.450   2.510  16.288  0.1087 -0.3622 -0.1853
  636MPD2    H5 9477   3.506   2.547  16.365  1.7988  1.4649 -2.3175
  636MPD2    N1 9478   3.238   2.928  16.376 -0.5156 -0.0693  0.3122
  636MPD2    H7 9479   3.307   2.934  16.450  1.8441 -1.3007 -1.8109
  637TMC3    C1 9480   3.562   2.295  16.308 -0.5979  0.2840  0.1748
  637TMC3    C2 9481   3.573   2.313  16.438  0.1318 -0.2256 -0.1728
  637TMC3    C3 9482   3.664   2.233  16.508  0.1037 -0.0596 -0.7115
  637TMC3    C4 9483   3.651   2.226  16.234 -0.2190 -0.6039 -0.9443
  637TMC3    C5 9484   3.753   2.165  16.298  0.4950 -0.4904 -0.3073
  637TMC3    C6 9485   3.748   2.150  16.437  0.1465 -0.2739 -0.2399
  637TMC3     C 9486   3.473   2.382  16.232  0.5281  0.5831 -0.7726
  637TMC3     O 9487   3.431   2.329  16.129  0.2026  0.1514  0.0245
  637TMC3     H 9488   3.503   2.371  16.498  2.5172  1.2815  1.1666
  637TMC3    H1 9489   3.652   2.241  16.126 -0.3917  1.7155 -0.6201
  637TMC3    H2 9490   3.823   2.085  16.480 -0.5326 -0.3758  0.7765
  637TMC3    C7 9491   3.877   2.202  16.248 -0.1426  0.2833 -0.0183
  637TMC3    C8 9492   3.711   2.300  16.631 -0.0005  0.4342 -0.2428
  637TMC3    O1 9493   3.868   2.302  16.176  0.6211 -0.4545 -0.3987
  637TMC3    O2 9494   3.652   2.397  16.666  0.4810  0.3673  0.0605
  638MPD2     C 9495   2.925   1.736  15.340  0.3946  0.1981  0.3146
  638MPD2    C1 9496   3.027   1.698  15.254  0.2527  0.0677  0.4745
  638MPD2    C2 9497   3.087   1.575  15.284  0.3669 -0.2398 -0.4171
  638MPD2    C3 9498   3.043   1.493  15.388 -0.4785 -0.4204 -0.4108
  638MPD2    C4 9499   2.942   1.535  15.465 -0.1453 -0.0314  0.8654
  638MPD2    C5 9500   2.882   1.652  15.443 -0.2120 -0.2683  0.4070
  638MPD2     H 9501   3.158   1.523  15.220 -0.3778 -1.3576 -0.3316
  638MPD2    H1 9502   2.903   1.483  15.552  4.0690 -4.5673  0.0196
  638MPD2    H2 9503   2.861   1.823  15.326 -1.4126 -1.3563 -1.0314
  638MPD2    H3 9504   2.801   1.682  15.508 -0.4038  0.5753 -0.2254
  638MPD2     N 9505   3.087   1.360  15.390  0.0167  0.4035 -0.4741
  638MPD2    H5 9506   3.164   1.336  15.328 -0.0603  0.9273 -0.7675
  638MPD2    N1 9507   3.059   1.779  15.144  0.0784 -0.8658  0.5844
  638MPD2    H7 9508   2.997   1.859  15.135  0.7415 -0.3840  0.3157
  639TMC3    C1 9509   3.060   1.128  15.386 -0.1104 -0.4907 -0.2612
  639TMC3    C2 9510   2.955   1.052  15.344 -0.4395  0.2307  0.3393
  639TMC3    C3 9511   2.978   0.957  15.258 -0.1670  0.4074 -0.6060
  639TMC3    C4 9512   3.184   1.126  15.324 -0.3810 -0.4592 -0.2206
  639TMC3    C5 9513   3.203   1.022  15.240  0.0419  0.3985 -0.3134
  639TMC3    C6 9514   3.108   0.933  15.216 -0.1939  0.0477 -0.3481
  639TMC3     C 9515   3.024   1.256  15.445 -0.3025 -0.4262  0.2168
  639TMC3     O 9516   2.932   1.262  15.528 -0.0240 -0.1664  0.2247
  639TMC3     H 9517   2.850   1.071  15.365  0.2452  2.5758  1.6290
  639TMC3    H1 9518   3.258   1.199  15.354 -1.5712  1.3740 -1.7362
  639TMC3    H2 9519   3.135   0.848  15.154 -2.8626  0.9736 -2.8191
  639TMC3    C7 9520   3.335   0.990  15.199  0.5342 -1.0782  0.1471
  639TMC3    C8 9521   2.879   0.913  15.157  0.0419  0.2567  0.2003
  639TMC3    O1 9522   3.360   0.872  15.190 -0.4058  0.1255  0.2603
  639TMC3    O2 9523   2.930   0.901  15.046  0.1076 -0.1968  0.0204
  640MPD2     C 9524   2.813   4.300   9.613 -0.1597  0.0873  0.4927
  640MPD2    C1 9525   2.748   4.356   9.504 -0.1048 -0.5292 -0.4354
  640MPD2    C2 9526   2.735   4.495   9.501 -0.4675  0.0612 -0.3576
  640MPD2    C3 9527   2.772   4.576   9.610 -0.0791  0.6762 -0.0492
  640MPD2    C4 9528   2.838   4.517   9.713 -0.2426  0.0748  0.4871
  640MPD2    C5 9529   2.849   4.381   9.719  1.0922 -0.0081 -0.0000
  640MPD2     H 9530   2.687   4.538   9.414 -0.2436  0.4434 -0.2920
  640MPD2    H1 9531   2.863   4.576   9.800 -2.1588  2.3929 -0.5231
  640MPD2    H2 9532   2.828   4.194   9.626  1.0492  0.2182  0.1839
  640MPD2    H3 9533   2.892   4.336   9.808  0.6819 -0.5456 -0.0754
  640MPD2     N 9534   2.736   4.709   9.611 -0.1063 -0.8230  0.0131
  640MPD2    H5 9535   2.775   0.043   9.670 -1.4963  1.4315 -1.8529
  640MPD2    N1 9536   2.699   4.264   9.406 -0.0710 -0.0161 -0.3012
  640MPD2    H7 9537   2.713   4.164   9.416 -1.5688  0.0065  1.7814
  641TMC3    C1 9538   2.617   4.194   9.197 -0.4380  0.0276  0.6020
  641TMC3    C2 9539   2.694   4.085   9.206 -0.5953 -0.2933  0.2121
  641TMC3    C3 9540   2.687   3.991   9.106  0.0438 -0.3749 -0.3883
  641TMC3    C4 9541   2.550   4.226   9.084 -0.0818 -0.3749  0.4771
  641TMC3    C5 9542   2.555   4.140   8.980  0.1494 -0.0657  0.1099
  641TMC3    C6 9543   2.626   4.024   8.986 -0.1455  0.0584 -0.2643
  641TMC3     C 9544   2.627   4.298   9.300  0.0954  0.5678 -0.7612
  641TMC3     O 9545   2.588   4.408   9.268 -0.2289 -0.1370 -0.2065
  641TMC3     H 9546   2.752   4.054   9.293  1.5082 -2.4130 -1.9350
  641TMC3    H1 9547   2.505   4.325   9.074 -0.5051 -0.7316 -1.0749
  641TMC3    H2 9548   2.623   3.962   8.897  3.4133  1.3532 -1.2626
  641TMC3    C7 9549   2.467   4.158   8.870  0.3506 -0.2620  0.2000
  641TMC3    C8 9550   2.736   3.859   9.121  0.2176 -0.9757 -0.2383
  641TMC3    O1 9551   2.466   4.061   8.793 -0.2692  0.3215 -0.5528
  641TMC3    O2 9552   2.686   3.770   9.062  0.3101  0.3143 -0.8396
  642TMC3    C1 9553   3.863   1.200  12.638 -0.6153  0.6014 -0.2701
  642TMC3    C2 9554   3.919   1.184  12.766 -0.2190  0.7626  0.5444
  642TMC3    C3 9555   3.915   1.067  12.827  0.2906  0.0046 -0.6897
  642TMC3    C4 9556   3.806   1.091  12.581  0.0221 -0.3727  0.0110
  642TMC3    C5 9557   3.814   0.966  12.650 -0.2632  0.4245  0.4086
  642TMC3    C6 9558   3.867   0.950  12.774 -0.2981 -0.4781 -0.0613
  642TMC3     C 9559   3.780   1.318  12.626  0.1446 -0.1450  0.8535
  642TMC3     O 9560   3.657   1.306  12.635  0.1912  0.2333  0.2510
  642TMC3     H 9561   3.941   1.277  12.818  0.3515  0.4979  0.7757
  642TMC3    H1 9562   3.760   1.103  12.483  1.5585 -1.1724 -0.8041
  642TMC3    H2 9563   3.889   0.859  12.828  0.6081 -0.9379 -1.2057
  642TMC3    C7 9564   3.790   0.840  12.577  0.9467  0.4018  0.5288
  642TMC3    C8 9565   3.948   1.073  12.973  0.6592  0.5547 -0.0543
  642TMC3    O1 9566   3.824   0.841  12.460 -0.1193  0.3685 -0.4575
  642TMC3    O2 9567   4.037   1.151  12.997  0.4583  0.2149  0.2761
  643TMC3    C1 9568   3.832   1.089   0.554  0.1543  0.3731  0.2062
  643TMC3    C2 9569   3.711   1.139   0.517  0.0792  0.2960  0.4532
  643TMC3    C3 9570   3.627   1.060   0.445  0.0820  0.3460 -0.2593
  643TMC3    C4 9571   3.876   0.968   0.506  0.0630 -0.3888 -0.8801
  643TMC3    C5 9572   3.793   0.893   0.421  0.4142 -0.5085 -0.0630
  643TMC3    C6 9573   3.666   0.938   0.397  0.3403 -0.3559  0.4393
  643TMC3     C 9574   3.930   1.191   0.580  0.7570 -0.1116  0.7870
  643TMC3     O 9575   3.905   1.307   0.544 -0.6926  0.4214 -0.7009
  643TMC3     H 9576   3.688   1.242   0.543  1.3997  0.9341 -0.9034
  643TMC3    H1 9577   3.974   0.930   0.531  0.0565 -0.0303 -0.3194
  643TMC3    H2 9578   3.604   0.891   0.321  2.5819 -2.2543 -0.1878
  643TMC3    C7 9579   3.867   0.845   0.305  1.4478 -0.3013 -0.5073
  643TMC3    C8 9580   3.554   1.131   0.339 -0.1408 -0.6406 -0.2723
  643TMC3    O1 9581   3.954   0.923   0.270 -0.3419 -0.3463  0.0467
  643TMC3    O2 9582   3.461   1.083   0.283  0.2137  0.1576 -0.0632
  644MPD2     C 9583   2.480   0.225   9.105 -0.5570 -0.3056  0.5484
  644MPD2    C1 9584   2.600   0.255   9.171  0.5126 -0.0105 -0.2833
  644MPD2    C2 9585   2.640   0.384   9.193 -0.2427  0.0957 -1.0903
  644MPD2    C3 9586   2.558   0.489   9.156  0.0990  0.0236 -0.1603
  644MPD2    C4 9587   2.438   0.458   9.089  0.1420  0.4416 -0.1043
  644MPD2    C5 9588   2.409   0.328   9.061 -0.0946  0.4092 -0.8236
  644MPD2     H 9589   2.734   0.408   9.241 -0.5257  0.6570 -0.8285
  644MPD2    H1 9590   2.382   0.541   9.048  1.3453  1.9896  1.3469
  644MPD2    H2 9591   2.466   0.124   9.070  1.2556 -1.2809  2.6292
  644MPD2    H3 9592   2.328   0.312   8.991  0.9264  1.9495 -2.3298
  644MPD2     N 9593   2.593   0.623   9.192  0.4542 -0.9000  0.7737
  644MPD2    H5 9594   2.692   0.637   9.210  0.2300  1.2925  0.2399
  644MPD2    N1 9595   2.676   0.148   9.216 -1.0019 -0.3569 -0.1290
  644MPD2    H7 9596   2.637   0.060   9.184 -1.7314 -0.4127  0.9259
  645TMC3    C1 9597   2.552   0.849   9.254  0.4709  0.2539 -0.5340
  645TMC3    C2 9598   2.679   0.876   9.210  0.2698 -0.4343  0.2862
  645TMC3    C3 9599   2.706   1.012   9.218 -0.7177  0.1135 -0.3187
  645TMC3    C4 9600   2.447   0.934   9.292  0.4309  0.5986  0.6222
  645TMC3    C5 9601   2.491   1.063   9.302  0.0683 -0.1995  0.4312
  645TMC3    C6 9602   2.613   1.101   9.261  0.2397 -0.2384  0.1477
  645TMC3     C 9603   2.501   0.720   9.209 -0.6013 -0.5573  0.1347
  645TMC3     O 9604   2.380   0.701   9.202  0.2423 -0.0242 -0.5530
  645TMC3     H 9605   2.748   0.809   9.161 -0.0641  0.0784 -0.8909
  645TMC3    H1 9606   2.347   0.899   9.317  0.2535  0.3273 -0.4491
  645TMC3    H2 9607   2.640   1.206   9.256  0.1206 -0.0222  3.8083
  645TMC3    C7 9608   2.425   1.171   9.380 -0.4401  0.1705 -0.2752
  645TMC3    C8 9609   2.844   1.059   9.210  0.0775  0.6109 -0.6540
  645TMC3    O1 9610   2.512   1.220   9.454 -0.3032  0.0418 -0.2297
  645TMC3    O2 9611   2.861   1.180   9.206  0.8941  0.1120 -0.5405
  646MPD2     C 9612   3.325   0.348  14.497  0.0487 -0.0679 -1.0974
  646MPD2    C1 9613   3.228   0.318  14.596 -0.1583  0.7225 -0.2354
  646MPD2    C2 9614   3.107   0.383  14.588  0.3112 -0.2952 -0.1534
  646MPD2    C3 9615   3.087   0.479  14.485 -0.6866 -0.1504  0.1489
  646MPD2    C4 9616   3.180   0.516  14.401 -0.3187  0.3573 -0.0784
  646MPD2    C5 9617   3.298   0.447  14.406  0.4297  0.2937 -0.0215
  646MPD2     H 9618   3.032   0.373  14.665 -0.2763 -0.0890 -0.6954
  646MPD2    H1 9619   3.168   0.580  14.314 -1.1976  0.2167 -0.0596
  646MPD2    H2 9620   3.423   0.303  14.489  1.8976  3.4931  1.6486
  646MPD2    H3 9621   3.374   0.467  14.331 -0.7759 -1.0133 -1.5681
  646MPD2     N 9622   2.959   0.537  14.481 -0.5927  0.0860 -0.2967
  646MPD2    H5 9623   2.897   0.501  14.553 -0.8156 -1.8725 -1.4861
  646MPD2    N1 9624   3.275   0.225  14.698 -0.4708  0.0392 -0.1907
  646MPD2    H7 9625   3.365   0.180  14.689 -1.3310 -1.8155  0.4982
  647TMC3    C1 9626   3.259   0.077  14.868  0.1107 -0.1404 -0.4051
  647TMC3    C2 9627   3.193   4.714  14.927 -0.2381 -0.4049  0.4369
  647TMC3    C3 9628   3.267   4.636  15.018  0.0717 -0.3862  0.2652
  647TMC3    C4 9629   3.393   0.097  14.899 -0.3881 -0.3630  0.3410
  647TMC3    C5 9630   3.451   0.021  14.995  0.0664  0.1512  0.2036
  647TMC3    C6 9631   3.398   4.654  15.056 -0.8212 -0.4756  0.1164
  647TMC3     C 9632   3.190   0.176  14.792  0.3113  0.0827 -0.3283
  647TMC3     O 9633   3.070   0.180  14.803  0.2754 -0.0269 -1.0245
  647TMC3     H 9634   3.096   4.682  14.889  0.2964 -1.2612 -0.2027
  647TMC3    H1 9635   3.451   0.176  14.854 -0.7443  0.2497  0.9612
  647TMC3    H2 9636   3.444   4.603  15.140 -1.0167  0.2772  0.6747
  647TMC3    C7 9637   3.586   0.041  15.036 -0.1333 -0.5222  0.2218
  647TMC3    C8 9638   3.190   4.523  15.080  0.2598 -0.4265 -0.0213
  647TMC3    O1 9639   3.640   4.677  15.083  0.2507  0.2862 -0.4035
  647TMC3    O2 9640   3.073   4.513  15.043  0.0071 -0.2407  0.1228
  648TMC3    C1 9641   2.578   2.585  16.259 -0.3208  0.1870 -0.2831
  648TMC3    C2 9642   2.612   2.459  16.220 -0.2882  0.0520 -0.1866
  648TMC3    C3 9643   2.600   2.431  16.083  0.5471  1.0177  0.5882
  648TMC3    C4 9644   2.533   2.680  16.171 -0.4284  0.0766  0.4224
  648TMC3    C5 9645   2.513   2.643  16.041  0.2659 -0.0610 -0.0534
  648TMC3    C6 9646   2.544   2.518  15.992  0.3591 -0.2107 -0.1170
  648TMC3     C 9647   2.603   2.631  16.391  0.3056 -0.7675  0.5005
  648TMC3     O 9648   2.621   2.751  16.407  0.1398 -0.0437 -0.3952
  648TMC3     H 9649   2.671   2.392  16.282 -0.4763 -0.3041 -0.3930
  648TMC3    H1 9650   2.514   2.780  16.206  1.0924  0.8527 -0.9462
  648TMC3    H2 9651   2.522   2.486  15.891 -1.5033  0.2644  0.1318
  648TMC3    C7 9652   2.451   2.737  15.946 -0.7419 -0.5164 -0.6443
  648TMC3    C8 9653   2.667   2.316  16.020  0.0253 -0.5471  0.1195
  648TMC3    O1 9654   2.444   2.710  15.825 -0.1801 -0.1673  0.5955
  648TMC3    O2 9655   2.713   2.338  15.910 -0.4467 -0.6013 -0.1778
  649TMC3    C1 9656   0.870   3.943  13.211  0.3632 -0.0242 -0.6827
  649TMC3    C2 9657   0.996   3.967  13.148 -0.9047 -0.4745  0.2429
  649TMC3    C3 9658   1.112   3.939  13.220 -0.1361 -0.4692  0.2210
  649TMC3    C4 9659   0.865   3.877  13.335  0.0362 -0.1903  0.7172
  649TMC3    C5 9660   0.985   3.858  13.403  0.7085  0.0807 -0.2321
  649TMC3    C6 9661   1.103   3.883  13.341  0.4740  0.3964 -0.1313
  649TMC3     C 9662   0.747   3.955  13.140 -0.3781 -0.5718 -0.7440
  649TMC3     O 9663   0.650   3.917  13.200 -0.1706 -0.2979  0.3511
  649TMC3     H 9664   1.005   3.986  13.042  0.1642 -0.3545  0.3585
  649TMC3    H1 9665   0.776   3.864  13.394 -0.2363  1.9912  0.7910
  649TMC3    H2 9666   1.203   3.875  13.384  0.6541  2.9130 -0.0509
  649TMC3    C7 9667   0.978   3.757  13.503  0.8615  0.4164  0.2212
  649TMC3    C8 9668   1.242   3.982  13.178  0.0926  0.5580  0.2901
  649TMC3    O1 9669   0.869   3.737  13.556  0.0448 -0.0491  0.3644
  649TMC3    O2 9670   1.341   3.926  13.220  0.0153 -0.5956 -0.9163
  650TMC3    C1 9671   3.342   0.630  13.051 -0.2046  0.0296 -0.7694
  650TMC3    C2 9672   3.266   0.724  13.111 -0.5235  0.9210 -0.3319
  650TMC3    C3 9673   3.152   0.765  13.037 -0.0271 -0.2012 -0.6454
  650TMC3    C4 9674   3.322   0.588  12.924  0.3749 -0.4828  0.2573
  650TMC3    C5 9675   3.223   0.638  12.848 -0.4874 -0.1344 -0.1932
  650TMC3    C6 9676   3.135   0.727  12.903  0.5557 -0.3293  0.2788
  650TMC3     C 9677   3.470   0.595  13.106 -0.2823 -0.0173  0.0927
  650TMC3     O 9678   3.533   0.681  13.165  0.1943 -0.3148 -0.1121
  650TMC3     H 9679   3.285   0.750  13.215 -1.9888 -0.3163  0.2321
  650TMC3    H1 9680   3.395   0.528  12.871 -1.3929 -2.4612  0.0647
  650TMC3    H2 9681   3.047   0.765  12.854  2.1863  0.6254 -1.9247
  650TMC3    C7 9682   3.272   0.677  12.717 -0.1768  0.6332 -0.6736
  650TMC3    C8 9683   3.113   0.900  13.056  0.2863 -0.0974 -0.3598
  650TMC3    O1 9684   3.317   0.591  12.648 -0.3200  0.3111 -0.1907
  650TMC3    O2 9685   3.207   0.973  13.082 -0.1933  0.1817 -0.3959
  651MPD2     C 9686   2.128   2.034  11.033  0.4751  0.6791  0.1101
  651MPD2    C1 9687   2.101   2.169  11.010  0.3150  0.1786 -0.4289
  651MPD2    C2 9688   2.200   2.236  10.947  0.4589  0.1933  0.2414
  651MPD2    C3 9689   2.320   2.176  10.917 -0.1693 -0.1173 -0.2545
  651MPD2    C4 9690   2.345   2.045  10.936 -0.0262 -0.0600 -0.1083
  651MPD2    C5 9691   2.250   1.973  10.999 -0.4190  0.4264 -0.3658
  651MPD2     H 9692   2.172   2.339  10.933  1.1289  0.6073  1.8926
  651MPD2    H1 9693   2.439   1.994  10.919 -0.3440 -0.1118 -1.6764
  651MPD2    H2 9694   2.059   1.969  11.086  0.1809  0.5306 -0.4658
  651MPD2    H3 9695   2.266   1.867  11.012 -0.0586  0.8290  2.5859
  651MPD2     N 9696   2.419   2.259  10.857  0.1112 -0.0592  0.7854
  651MPD2    H5 9697   2.386   2.350  10.826  0.3912 -0.4918 -0.7704
  651MPD2    N1 9698   1.980   2.228  11.045 -0.3354  0.5957  0.0479
  651MPD2    H7 9699   1.973   2.329  11.040 -0.4759  0.6338  0.9581
  652TMC3    C1 9700   2.799   2.448  10.667  0.0137 -0.1580 -0.1037
  652TMC3    C2 9701   2.739   2.332  10.708  0.4740  0.8129  0.7639
  652TMC3    C3 9702   2.624   2.348  10.782  0.0491  0.2114  0.0530
  652TMC3    C4 9703   2.755   2.569  10.718 -0.1535 -0.1464 -0.4503
  652TMC3    C5 9704   2.636   2.579  10.787 -0.6050 -1.1265  0.0034
  652TMC3    C6 9705   2.577   2.469  10.829  0.2851 -0.5754  0.4320
  652TMC3     C 9706   2.942   2.433  10.645 -0.4286 -0.2010 -0.3664
  652TMC3     O 9707   2.997   2.333  10.685 -0.2237  0.0474 -0.1762
  652TMC3     H 9708   2.770   2.233  10.676  1.2780  1.4662 -0.4787
  652TMC3    H1 9709   2.812   2.660  10.704  0.6660 -0.3256  1.6347
  652TMC3    H2 9710   2.504   2.471  10.910  1.6898 -0.3872  1.6979
  652TMC3    C7 9711   2.605   2.695  10.872 -0.8202 -0.0729 -0.5035
  652TMC3    C8 9712   2.548   2.228  10.826 -0.5331  0.2279 -0.5206
  652TMC3    O1 9713   2.492   2.689  10.911  0.2594  0.2850  0.0205
  652TMC3    O2 9714   2.606   2.122  10.830  0.1122  0.0599 -0.0641
  653MPD2     C 9715   1.670   2.845  17.639 -0.0592  0.3089  0.1976
  653MPD2    C1 9716   1.583   2.908  17.551  0.7019 -0.2708 -0.6441
  653MPD2    C2 9717   1.519   2.827  17.458  0.4304 -0.4862  0.3881
  653MPD2    C3 9718   1.531   2.689  17.466 -0.2890  0.4988 -0.6161
  653MPD2    C4 9719   1.628   2.631  17.545 -0.3904  0.6550  0.3813
  653MPD2    C5 9720   1.699   2.708  17.632  0.1964  0.6051  0.0546
  653MPD2     H 9721   1.448   2.876  17.393  1.6858  0.5275 -0.2118
  653MPD2    H1 9722   1.645   2.525  17.534  0.7058  0.5624  3.1043
  653MPD2    H2 9723   1.726   2.910  17.705  0.7331  1.0729 -1.2141
  653MPD2    H3 9724   1.777   2.671  17.698 -0.4356 -1.2785 -0.2364
  653MPD2     N 9725   1.438   2.610  17.391  0.3364  0.1807  0.1383
  653MPD2    H5 9726   1.381   2.650  17.316 -0.7507 -0.7793  0.4465
  653MPD2    N1 9727   1.556   3.045  17.547 -0.2570  0.2092 -0.2611
  653MPD2    H7 9728   1.489   3.079  17.479  1.3338  3.9307  0.0359
  654TMC3    C1 9729   1.319   2.414  17.329  0.2102  0.1399 -0.3625
  654TMC3    C2 9730   1.195   2.476  17.324 -0.4981  1.1740  0.2490
  654TMC3    C3 9731   1.103   2.417  17.238  0.0039  0.2438  0.0245
  654TMC3    C4 9732   1.348   2.302  17.263  0.2743  0.4807 -0.4656
  654TMC3    C5 9733   1.246   2.230  17.203  0.5063  0.2956 -0.5628
  654TMC3    C6 9734   1.126   2.290  17.180 -0.8371  0.0838 -0.1392
  654TMC3     C 9735   1.417   2.473  17.406  0.1438 -0.1353 -0.8014
  654TMC3     O 9736   1.483   2.394  17.469 -0.1345  0.1524 -0.1362
  654TMC3     H 9737   1.168   2.565  17.379  0.1755  1.6327 -0.1564
  654TMC3    H1 9738   1.452   2.271  17.259  0.2659  0.4800 -0.6539
  654TMC3    H2 9739   1.052   2.230  17.129 -0.7451 -0.6227  0.5458
  654TMC3    C7 9740   1.275   2.114  17.116  0.5748 -0.7955  0.0173
  654TMC3    C8 9741   1.005   2.507  17.179 -0.3482  0.0199  0.3529
  654TMC3    O1 9742   1.200   2.098  17.017 -0.2926 -0.8945 -0.5936
  654TMC3    O2 9743   0.971   2.614  17.233  0.4947  0.2786 -0.1935
  655MPD2     C 9744   2.905   2.651  15.847  0.4508 -0.3240 -0.4558
  655MPD2    C1 9745   2.882   2.770  15.786  0.0646  0.3955 -0.4128
  655MPD2    C2 9746   2.910   2.772  15.645  0.4636  0.2160  0.1656
  655MPD2    C3 9747   2.944   2.654  15.582 -0.8823 -0.6864  0.1473
  655MPD2    C4 9748   2.967   2.542  15.652  0.1597  0.1650  0.1154
  655MPD2    C5 9749   2.951   2.538  15.787 -0.2923  0.5449 -0.0400
  655MPD2     H 9750   2.906   2.869  15.597  1.0640 -0.0493 -0.4096
  655MPD2    H1 9751   2.980   2.450  15.597  0.9679 -0.1101  0.7728
  655MPD2    H2 9752   2.887   2.650  15.953 -1.4711  0.9905 -0.7651
  655MPD2    H3 9753   2.969   2.446  15.842 -1.9669  1.7032  2.4060
  655MPD2     N 9754   2.963   2.641  15.443  0.2428  0.3094  0.4490
  655MPD2    H5 9755   2.988   2.551  15.403 -1.8447 -0.7613  1.5894
  655MPD2    N1 9756   2.842   2.892  15.860  0.5692 -0.0293 -0.5411
  655MPD2    H7 9757   2.842   2.979  15.807 -0.9101 -0.9800 -2.1218
  656TMC3    C1 9758   2.786   3.035  16.039  0.9631 -0.1158  0.1453
  656TMC3    C2 9759   2.691   3.039  16.142 -0.3588 -0.5405 -0.4556
  656TMC3    C3 9760   2.609   3.142  16.145 -0.8781 -1.0732  0.4005
  656TMC3    C4 9761   2.792   3.137  15.949 -0.3686 -0.4346  0.0846
  656TMC3    C5 9762   2.708   3.241  15.956  0.2414  0.6884  0.0315
  656TMC3    C6 9763   2.613   3.243  16.055 -0.8132 -0.3532  0.3349
  656TMC3     C 9764   2.818   2.899  15.997  0.2484 -0.5854 -0.5498
  656TMC3     O 9765   2.824   2.817  16.089 -0.0545  0.1883  0.5166
  656TMC3     H 9766   2.695   2.962  16.218 -1.5586 -0.5949 -0.4477
  656TMC3    H1 9767   2.870   3.139  15.873 -1.3637 -2.5863 -0.9935
  656TMC3    H2 9768   2.551   3.329  16.075  0.2109  0.7457 -1.1364
  656TMC3    C7 9769   2.676   3.306  15.834 -0.5186  0.0311 -0.5329
  656TMC3    C8 9770   2.492   3.125  16.229  0.4307 -0.3533 -0.2424
  656TMC3    O1 9771   2.770   3.331  15.756  0.3007 -0.1240 -0.2885
  656TMC3    O2 9772   2.463   3.012  16.260  0.1048  0.3041 -0.0463
  657TMC3    C1 9773   1.656   2.286  15.325 -0.3129  0.3903  0.0025
  657TMC3    C2 9774   1.693   2.287  15.457  0.2769 -0.5801  0.3485
  657TMC3    C3 9775   1.688   2.407  15.532  0.2893 -0.5684 -0.4334
  657TMC3    C4 9776   1.622   2.403  15.263 -0.3315 -0.1557 -0.0352
  657TMC3    C5 9777   1.609   2.516  15.332 -0.0008 -0.4203 -0.6261
  657TMC3    C6 9778   1.649   2.523  15.462  0.7881 -0.0562 -0.7546
  657TMC3     C 9779   1.660   2.157  15.259 -0.9910  0.1898  0.0098
  657TMC3     O 9780   1.556   2.127  15.199 -0.0969 -0.4689 -0.0609
  657TMC3     H 9781   1.710   2.195  15.512  0.3346  0.4786  2.0968
  657TMC3    H1 9782   1.602   2.403  15.156 -0.8024 -2.5076  0.0442
  657TMC3    H2 9783   1.641   2.621  15.507 -0.6270 -0.9283  0.8787
  657TMC3    C7 9784   1.600   2.646  15.262  0.4471  0.5178  0.2853
  657TMC3    C8 9785   1.725   2.410  15.674 -0.3215  0.0069  0.0514
  657TMC3    O1 9786   1.678   2.729  15.302  0.3479  0.1673 -0.2251
  657TMC3    O2 9787   1.738   2.303  15.729 -0.0784  0.1768 -0.2419
  658MPD2     C 9788   3.314   3.000  14.882 -0.5759  1.0794  0.0946
  658MPD2    C1 9789   3.206   2.935  14.824  0.1760  0.2080  0.6551
  658MPD2    C2 9790   3.213   2.903  14.696 -0.1903 -0.3153 -0.6103
  658MPD2    C3 9791   3.307   2.964  14.614 -0.1021 -0.7823 -0.3859
  658MPD2    C4 9792   3.416   3.025  14.671 -0.0761 -0.7367 -0.3289
  658MPD2    C5 9793   3.420   3.042  14.803 -0.2569  0.1133  0.4999
  658MPD2     H 9794   3.145   2.831  14.652 -0.6286 -0.4145  0.2358
  658MPD2    H1 9795   3.495   3.070  14.612  0.1929 -3.0619 -1.7404
  658MPD2    H2 9796   3.325   2.998  14.989 -1.4849  0.4256  0.1795
  658MPD2    H3 9797   3.500   3.097  14.851 -2.2896  2.3507  1.3207
  658MPD2     N 9798   3.297   2.938  14.478  0.2306 -0.2914  0.1260
  658MPD2    H5 9799   3.231   2.872  14.438 -0.3055  0.7558 -0.7130
  658MPD2    N1 9800   3.114   2.880  14.917  0.5396 -0.7072  0.6940
  658MPD2    H7 9801   3.122   2.903  15.016  0.4222  0.5043  0.4151
  659TMC3    C1 9802   2.927   2.758  14.996 -0.3696  0.8338 -0.3814
  659TMC3    C2 9803   2.984   2.772  15.119 -0.4651 -0.1010  0.6197
  659TMC3    C3 9804   2.933   2.697  15.215 -1.5619 -0.1568 -0.1055
  659TMC3    C4 9805   2.814   2.679  14.971 -0.4156 -0.3398 -0.5839
  659TMC3    C5 9806   2.767   2.603  15.077  0.0121  0.1156  0.8396
  659TMC3    C6 9807   2.819   2.621  15.200  0.3743  0.2646  0.7035
  659TMC3     C 9808   3.008   2.794  14.883 -0.6373 -0.0533 -0.5335
  659TMC3     O 9809   2.961   2.767  14.776  0.3033  0.3555  0.3580
  659TMC3     H 9810   3.066   2.841  15.141 -2.8686  2.7163  0.7456
  659TMC3    H1 9811   2.772   2.669  14.871  1.0178  3.1066 -1.5373
  659TMC3    H2 9812   2.786   2.578  15.294 -0.2646 -0.1628  0.2852
  659TMC3    C7 9813   2.623   2.574  15.073 -0.0762  0.5617  0.7563
  659TMC3    C8 9814   2.956   2.746  15.350 -0.0082 -0.1839  0.0983
  659TMC3    O1 9815   2.563   2.590  15.179  0.1192  0.1111  0.3113
  659TMC3    O2 9816   2.956   2.867  15.360 -0.3311 -0.1961  0.0330
  660MPD2     C 9817   0.034   2.086  12.901  0.5287 -0.0565  0.2272
  660MPD2    C1 9818   0.023   1.963  12.842 -0.2357  0.4588 -0.1611
  660MPD2    C2 9819   0.057   1.857  12.926  0.5197  0.3800 -0.5491
  660MPD2    C3 9820   0.101   1.869  13.057  0.0124  0.2417  0.4771
  660MPD2    C4 9821   0.104   1.994  13.113  0.8030 -0.3389 -0.3859
  660MPD2    C5 9822   0.069   2.100  13.033 -0.1492 -0.4716  0.0978
  660MPD2     H 9823   0.047   1.756  12.888 -0.6111 -0.8085  2.8880
  660MPD2    H1 9824   0.127   2.001  13.219  0.9497  2.5200 -0.6150
  660MPD2    H2 9825   0.007   2.171  12.838 -0.1112  1.0339  1.9793
  660MPD2    H3 9826   0.074   2.201  13.071  3.4195 -0.8939  0.7481
  660MPD2     N 9827   0.124   1.763  13.144 -0.1415 -0.6691 -0.0462
  660MPD2    H5 9828   0.118   1.782  13.244  1.3934 -1.8542  0.2633
  660MPD2    N1 9829   4.711   1.960  12.712  0.5840  0.4254 -0.3314
  660MPD2    H7 9830   4.692   2.042  12.655 -0.5871  1.2094  1.1712
  661TMC3    C1 9831   4.587   1.873  12.532 -0.1253 -0.3294  1.2889
  661TMC3    C2 9832   4.658   1.941  12.440  0.0391  0.1399  0.3951
  661TMC3    C3 9833   4.606   1.948  12.318  0.5038 -0.1968  0.3077
  661TMC3    C4 9834   4.471   1.806  12.511 -0.0921  0.4036  0.2328
  661TMC3    C5 9835   4.416   1.834  12.387  0.1777  1.4470  0.4430
  661TMC3    C6 9836   4.475   1.911  12.294 -0.2864  0.4953 -0.1651
  661TMC3     C 9837   4.651   1.850  12.656 -0.2845  0.0138 -0.1150
  661TMC3     O 9838   4.639   1.741  12.710  0.3730 -0.2184 -0.0306
  661TMC3     H 9839   0.024   1.961  12.453 -0.3119  1.7063  0.9054
  661TMC3    H1 9840   4.440   1.744  12.594 -0.1131 -3.1125 -2.3984
  661TMC3    H2 9841   4.443   1.925  12.192 -0.0937  0.6465 -0.2052
  661TMC3    C7 9842   4.317   1.745  12.336 -0.4675  0.9854 -0.6743
  661TMC3    C8 9843   4.705   1.920  12.211 -0.4767  0.1837  0.2287
  661TMC3    O1 9844   4.288   1.753  12.219  0.1560 -0.3454  0.1335
  661TMC3    O2 9845   0.054   1.841  12.250 -0.3125 -0.1059 -0.0558
  662MPD2     C 9846   1.359   1.627  17.279  0.3408 -0.0694  0.2957
  662MPD2    C1 9847   1.222   1.604  17.281  0.4172  0.0002  0.1643
  662MPD2    C2 9848   1.143   1.668  17.372  0.3576 -0.2647 -0.2200
  662MPD2    C3 9849   1.200   1.754  17.469 -0.3251 -0.3548  0.0093
  662MPD2    C4 9850   1.337   1.778  17.470 -0.3949 -0.2313  0.1881
  662MPD2    C5 9851   1.409   1.717  17.370 -0.1763  0.3860  0.4390
  662MPD2     H 9852   1.043   1.627  17.371  0.9556 -1.7037 -1.0992
  662MPD2    H1 9853   1.383   1.846  17.541  2.1309 -0.3426 -1.3601
  662MPD2    H2 9854   1.424   1.585  17.203 -0.9587  1.1991 -1.5121
  662MPD2    H3 9855   1.506   1.758  17.347 -1.5384  0.8428 -4.5737
  662MPD2     N 9856   1.122   1.825  17.560 -0.4846 -0.3536 -0.3493
  662MPD2    H5 9857   1.171   1.862  17.641  0.0879  0.0440 -0.8743
  662MPD2    N1 9858   1.158   1.522  17.182  0.1307 -0.2911  0.1756
  662MPD2    H7 9859   1.058   1.506  17.187  0.0868  0.8909  2.7664
  663TMC3    C1 9860   1.132   1.336  17.027 -0.1125 -0.0016  0.0759
  663TMC3    C2 9861   1.010   1.311  17.080  0.4052 -0.6225  0.9572
  663TMC3    C3 9862   0.924   1.232  17.016 -0.5125  0.6784  0.3972
  663TMC3    C4 9863   1.174   1.298  16.905  0.0537  0.4041  0.2700
  663TMC3    C5 9864   1.089   1.216  16.832  0.8548 -0.5463  1.0232
  663TMC3    C6 9865   0.976   1.174  16.897 -0.2056 -0.0156 -0.1891
  663TMC3     C 9866   1.221   1.428  17.096  0.9321 -0.8470  0.1895
  663TMC3     O 9867   1.338   1.420  17.062 -0.0500 -0.2616 -0.0810
  663TMC3     H 9868   0.998   1.340  17.184  1.8465 -1.0262  1.2414
  663TMC3    H1 9869   1.274   1.318  16.867  0.5284 -2.1186  0.1489
  663TMC3    H2 9870   0.904   1.122  16.835  0.3778  0.4358 -1.2496
  663TMC3    C7 9871   1.152   1.106  16.771 -0.5233  0.0412  0.0001
  663TMC3    C8 9872   0.879   1.118  17.093  0.0987  0.4910 -0.6166
  663TMC3    O1 9873   1.251   1.114  16.704 -0.1749 -0.0660 -0.1123
  663TMC3    O2 9874   0.866   1.014  17.032 -0.0355  0.4612 -0.1025
  664MPD2     C 9875   3.803   4.227  17.627  0.3868  0.3579  0.0284
  664MPD2    C1 9876   3.846   4.344  17.688  0.2773 -0.3011 -0.7637
  664MPD2    C2 9877   3.793   4.375   0.056 -0.1416 -0.0964  0.3638
  664MPD2    C3 9878   3.683   4.303   0.109  0.1494  0.1415 -0.5751
  664MPD2    C4 9879   3.644   4.190   0.046  0.0086 -0.4144  0.4483
  664MPD2    C5 9880   3.697   4.154  17.684  0.6954 -0.2440 -0.4953
  664MPD2     H 9881   3.837   4.461   0.105 -0.8516  0.6980 -0.3895
  664MPD2    H1 9882   3.573   4.116   0.083 -0.5276 -0.4059 -0.5712
  664MPD2    H2 9883   3.844   4.184  17.536 -1.5948 -1.9862  0.2211
  664MPD2    H3 9884   3.658   4.063  17.641  0.5543  0.0352 -0.9596
  664MPD2     N 9885   3.625   4.361   0.229  0.2505 -0.2286 -0.1648
  664MPD2    H5 9886   3.673   4.440   0.272 -0.3542 -0.5144  1.0637
  664MPD2    N1 9887   3.945   4.421  17.633 -0.4745 -0.4627  0.1959
  664MPD2    H7 9888   3.977   4.509  17.673 -0.3976  0.4779 -1.9426
  665TMC3    C1 9889   3.479   4.403   0.405  0.5236 -0.0766 -0.1549
  665TMC3    C2 9890   3.506   4.334   0.513  1.5773 -0.6106 -0.1119
  665TMC3    C3 9891   3.552   4.401   0.624  0.0445 -0.2850 -0.1610
  665TMC3    C4 9892   3.484   4.539   0.406 -0.0148 -0.3037 -0.5362
  665TMC3    C5 9893   3.501   4.609   0.522 -0.1560 -0.7419  0.2242
  665TMC3    C6 9894   3.556   4.536   0.631 -0.1308 -0.1487  1.1137
  665TMC3     C 9895   3.511   4.317   0.292  1.4968  0.4896  0.0295
  665TMC3     O 9896   3.448   4.213   0.276 -0.6597 -0.5334  0.1342
  665TMC3     H 9897   3.517   4.227   0.502 -0.8369 -1.1731  2.8006
  665TMC3    H1 9898   3.467   4.594   0.314 -3.1965  0.4429  0.5044
  665TMC3    H2 9899   3.578   4.585   0.725  3.2922  0.1877  0.1306
  665TMC3    C7 9900   3.557   0.007   0.506 -0.5089 -0.0278  0.2499
  665TMC3    C8 9901   3.577   4.338   0.755 -0.0446 -0.0314 -0.5667
  665TMC3    O1 9902   3.568   0.044   0.391 -0.1041  0.6956  0.2900
  665TMC3    O2 9903   3.645   4.391   0.839  0.1556 -0.3853  0.4203
  666TMC3    C1 9904   2.869   3.560  10.126  0.0563  0.0692 -0.7114
  666TMC3    C2 9905   2.957   3.520  10.222 -0.3325 -0.0334 -0.1656
  666TMC3    C3 9906   3.057   3.599  10.269 -0.0429 -0.2648 -0.0445
  666TMC3    C4 9907   2.887   3.687  10.064 -0.9777 -0.3135 -0.3626
  666TMC3    C5 9908   2.985   3.771  10.114 -0.1108 -0.8349  0.0854
  666TMC3    C6 9909   3.070   3.729  10.219  0.3317 -0.5188  0.6255
  666TMC3     C 9910   2.748   3.486  10.104  0.0370 -0.3466  0.6602
  666TMC3     O 9911   2.702   3.491   9.989  0.1705 -0.6573 -0.9239
  666TMC3     H 9912   2.937   3.420  10.261 -1.0001 -0.3563 -1.3454
  666TMC3    H1 9913   2.801   3.707  10.002 -0.1826  0.5725 -1.1857
  666TMC3    H2 9914   3.138   3.803  10.259 -0.9145  0.6787  0.4990
  666TMC3    C7 9915   2.958   3.914  10.104 -0.0303 -0.1031 -0.6643
  666TMC3    C8 9916   3.129   3.566  10.388 -0.4322 -0.0605  0.3194
  666TMC3    O1 9917   2.850   3.955  10.065 -0.2187 -0.5438  0.0150
  666TMC3    O2 9918   3.084   3.467  10.447  0.0286 -0.6727 -0.1761
  667MPD2     C 9919   0.208   4.059  14.750 -0.0850  0.0941  0.2975
  667MPD2    C1 9920   0.121   4.105  14.846  0.3212  0.3450  0.1784
  667MPD2    C2 9921   4.728   4.085  14.833 -0.1511  0.2505 -0.0578
  667MPD2    C3 9922   4.680   4.020  14.717 -0.0984 -0.1009 -0.2730
  667MPD2    C4 9923   0.028   3.968  14.623 -0.5277 -0.4358  0.2809
  667MPD2    C5 9924   0.162   3.982  14.643  0.2907  0.4586 -0.2736
  667MPD2     H 9925   4.658   4.125  14.906 -0.7162  1.4708 -1.2818
  667MPD2    H1 9926   4.725   3.905  14.547 -0.0447 -1.7260  1.0781
  667MPD2    H2 9927   0.316   4.066  14.758 -0.0079 -1.6579  0.7990
  667MPD2    H3 9928   0.236   3.951  14.570 -1.2210 -1.4141 -1.0064
  667MPD2     N 9929   4.545   4.020  14.689 -0.0997 -0.2567  0.0021
  667MPD2    H5 9930   4.513   3.983  14.600 -0.9723  1.7822 -0.5310
  667MPD2    N1 9931   0.153   4.184  14.963 -0.7712 -0.5060  0.0970
  667MPD2    H7 9932   0.075   4.191  15.027 -0.0773  1.9270  0.6472
  668TMC3    C1 9933   0.250   4.329  15.109  0.3793 -0.0677 -0.0107
  668TMC3    C2 9934   0.299   4.459  15.113 -0.7047  0.1794  0.0129
  668TMC3    C3 9935   0.279   4.540  15.229 -0.6491 -0.1711 -0.3303
  668TMC3    C4 9936   0.188   4.280  15.214  0.0555 -0.3950 -0.6621
  668TMC3    C5 9937   0.154   4.367  15.313  0.5864 -0.5481 -0.4483
  668TMC3    C6 9938   0.199   4.493  15.329  0.8582  0.4214 -0.1750
  668TMC3     C 9939   0.261   4.264  14.986  0.4798  0.3499 -0.0381
  668TMC3     O 9940   0.333   4.299  14.889  0.3665 -0.2426  0.4715
  668TMC3     H 9941   0.365   4.498  15.035  0.5126 -1.4023  0.2613
  668TMC3    H1 9942   0.148   4.180  15.226 -2.7990  0.6211 -1.7342
  668TMC3    H2 9943   0.172   4.544  15.421 -0.9316 -0.9817  0.0995
  668TMC3    C7 9944   0.124   4.306  15.439  0.6101 -0.0445 -0.6371
  668TMC3    C8 9945   0.331   4.668  15.248  0.1762  0.0034 -0.3347
  668TMC3    O1 9946   0.174   4.197  15.458 -0.6888 -0.0894 -0.1450
  668TMC3    O2 9947   0.297   4.723  15.355  0.1378 -0.2767  0.3898
  669TMC3    C1 9948   2.979   4.014  14.803  0.1597  0.0270 -0.3752
  669TMC3    C2 9949   2.925   4.023  14.678  1.3866 -0.0302 -0.7843
  669TMC3    C3 9950   2.943   4.144  14.613  0.0294 -0.6039  0.4279
  669TMC3    C4 9951   3.055   4.111  14.867  0.4770 -1.1634 -0.1789
  669TMC3    C5 9952   3.079   4.223  14.790 -0.2853  0.2378  0.5185
  669TMC3    C6 9953   3.010   4.252  14.670  0.2251  0.3705 -0.1028
  669TMC3     C 9954   2.959   3.893  14.877 -0.2615 -0.7684 -0.3065
  669TMC3     O 9955   2.944   3.785  14.821 -0.0553 -0.0421 -0.3402
  669TMC3     H 9956   2.847   3.957  14.643  2.2411 -0.4365 -1.9180
  669TMC3    H1 9957   3.091   4.096  14.968 -0.4430  1.5744  0.5553
  669TMC3    H2 9958   3.024   4.352  14.629  0.9059  1.0686  1.8358
  669TMC3    C7 9959   3.209   4.299  14.802 -0.0249  0.3421  0.4228
  669TMC3    C8 9960   2.868   4.166  14.489  1.1987  0.4871 -0.3775
  669TMC3    O1 9961   3.230   4.405  14.747  0.4645 -0.0032 -0.1854
  669TMC3    O2 9962   2.835   4.064  14.426 -0.7215  0.6843  0.3962
  670MPD2     C 9963   1.127   2.081  13.504 -0.0287  0.7333  0.5861
  670MPD2    C1 9964   1.221   2.056  13.601 -0.0723 -0.4368 -0.0367
  670MPD2    C2 9965   1.189   1.955  13.688 -0.6201 -0.3437 -0.3128
  670MPD2    C3 9966   1.062   1.894  13.692  0.3060  0.4912  0.4962
  670MPD2    C4 9967   0.970   1.921  13.593  0.3838  1.4365  0.0437
  670MPD2    C5 9968   1.008   2.010  13.502  0.7321 -0.1513  0.2875
  670MPD2     H 9969   1.258   1.921  13.764 -0.5143  0.4020 -0.0800
  670MPD2    H1 9970   0.882   1.859  13.583  2.4055 -1.1692 -1.4010
  670MPD2    H2 9971   1.142   2.148  13.421 -0.4246  0.6320  0.4291
  670MPD2    H3 9972   0.937   2.039  13.426  1.9987 -1.4396 -1.3933
  670MPD2     N 9973   1.042   1.790  13.779 -0.2654 -0.3624  0.3805
  670MPD2    H5 9974   1.126   1.757  13.826  0.8928  1.9951 -0.0370
  670MPD2    N1 9975   1.353   2.120  13.607  0.2007 -0.3944  0.0133
  670MPD2    H7 9976   1.418   2.089  13.678 -1.4873 -1.5913  1.0346
  671TMC3    C1 9977   0.923   1.640  13.924  0.2921 -0.0921 -0.5180
  671TMC3    C2 9978   1.036   1.600  13.990  0.2895  0.3600  0.1708
  671TMC3    C3 9979   1.028   1.524  14.104  0.3711 -0.2819  0.4077
  671TMC3    C4 9980   0.802   1.583  13.966  0.6094 -0.5709  0.0590
  671TMC3    C5 9981   0.797   1.489  14.067 -0.5841  0.1459  0.3262
  671TMC3    C6 9982   0.911   1.469  14.141 -0.3380 -0.0523  0.4446
  671TMC3     C 9983   0.925   1.723  13.800  1.2577 -0.1010  0.3067
  671TMC3     O 9984   0.812   1.751  13.760 -0.2554  0.4465  0.9737
  671TMC3     H 9985   1.123   1.663  13.977  1.1340 -0.4540  1.9214
  671TMC3    H1 9986   0.714   1.592  13.904  1.3106  3.2366 -0.3601
  671TMC3    H2 9987   0.895   1.391  14.214 -1.3383 -0.1950  0.0633
  671TMC3    C7 9988   0.746   1.367  14.018  0.9126  0.8836 -0.2549
  671TMC3    C8 9989   1.148   1.452  14.146 -0.2283 -0.2802  0.0368
  671TMC3    O1 9990   0.823   1.285  13.963 -0.5233 -0.9822 -0.2187
  671TMC3    O2 9991   1.240   1.443  14.065 -0.0577  0.1872 -0.2732
  672MPD2     C 9992   1.504   2.723   1.091  0.7177 -0.6420 -0.0403
  672MPD2    C1 9993   1.601   2.690   1.001 -0.2377  0.4653 -0.4945
  672MPD2    C2 9994   1.700   2.781   0.984  0.2526  0.2941  0.1794
  672MPD2    C3 9995   1.687   2.911   1.035  0.4840  0.0065  0.6414
  672MPD2    C4 9996   1.569   2.953   1.100 -0.0084  0.4320 -0.2038
  672MPD2    C5 9997   1.488   2.853   1.136 -0.0151 -0.9328  0.1075
  672MPD2     H 9998   1.789   2.755   0.928  0.7704 -0.2460  1.2446
  672MPD2    H1 9999   1.547   3.055   1.127 -2.7857 -0.5554  1.2516
  672MPD2    H210000   1.445   2.647   1.140 -2.8427  2.1124 -0.0595
  672MPD2    H310001   1.404   2.875   1.202  0.4203  2.1061 -0.3586
  672MPD2     N10002   1.787   3.008   1.024 -1.2147  0.0424 -0.0319
  672MPD2    H510003   1.752   3.093   1.067 -1.9625 -0.5586  0.5499
  672MPD2    N110004   1.604   2.559   0.948  0.4761  0.6140 -0.4608
  672MPD2    H710005   1.686   2.533   0.894  2.0366  4.1671  0.2551
  673TMC3    C110006   1.524   2.399   0.803  0.3917 -0.3195  0.5256
  673TMC3    C210007   1.656   2.347   0.789  0.1739 -0.6570 -0.2599
  673TMC3    C310008   1.669   2.274   0.671  0.4590 -0.9523 -0.1482
  673TMC3    C410009   1.431   2.399   0.712 -0.2413  0.1535 -0.6497
  673TMC3    C510010   1.457   2.333   0.595  0.3941  0.7930  0.2561
  673TMC3    C610011   1.575   2.272   0.569  0.0745  0.0665  0.5969
  673TMC3     C10012   1.493   2.483   0.916 -0.1082 -0.8794 -0.7075
  673TMC3     O10013   1.376   2.522   0.928  0.8334  0.4735 -0.5170
  673TMC3     H10014   1.720   2.324   0.874  1.8727  1.2311 -1.0236
  673TMC3    H110015   1.337   2.450   0.723  0.5846  1.3631  0.7595
  673TMC3    H210016   1.592   2.239   0.467 -2.2053  3.2270 -0.8214
  673TMC3    C710017   1.375   2.362   0.476 -0.0279  0.0126  0.0086
  673TMC3    C810018   1.794   2.205   0.639 -0.4789 -0.2959 -0.9801
  673TMC3    O110019   1.353   2.289   0.380  0.4325  0.0093 -0.3061
  673TMC3    O210020   1.784   2.108   0.566 -0.1142  0.2605  0.0522
  674MPD2     C10021   1.285   2.880  17.685 -0.0266  0.4210 -0.2077
  674MPD2    C110022   1.212   2.759  17.678 -0.2439 -0.1898 -0.5671
  674MPD2    C210023   1.072   2.775  17.656 -0.2276  0.8628  0.1660
  674MPD2    C310024   1.007   2.896  17.656 -0.2908 -0.4280  0.1499
  674MPD2    C410025   1.085   3.011  17.679 -0.2481 -0.7471  0.2409
  674MPD2    C510026   1.223   2.999  17.694 -0.8763 -0.2748  0.9152
  674MPD2     H10027   1.006   2.690  17.651  0.1736  0.6722 -1.7339
  674MPD2    H110028   1.041   3.109  17.696  0.5412 -0.5092  0.9097
  674MPD2    H210029   1.393   2.883  17.692 -0.2065  2.0594  2.0838
  674MPD2    H310030   1.282   3.090  17.702  0.2131 -0.7263 -1.8315
  674MPD2     N10031   0.865   2.910  17.665  0.2012  0.2019  0.3080
  674MPD2    H510032   0.806   2.828  17.663 -1.5906  1.4545  3.0326
  674MPD2    N110033   1.287   2.632  17.684 -0.1104  0.0515  0.5942
  674MPD2    H710034   1.384   2.641  17.712  0.0124 -0.2663  0.2806
  675TMC3    C110035   1.314   2.404  17.724 -0.5979  0.5083  0.1042
  675TMC3    C210036   1.255   2.283  17.736 -0.7506  0.0226 -0.1411
  675TMC3    C310037   1.335   2.182   0.039 -0.2157 -0.2368  0.8522
  675TMC3    C410038   1.436   2.438   0.014  0.5792 -0.3180 -0.6722
  675TMC3    C510039   1.506   2.338   0.068  0.3653 -0.1976  0.5286
  675TMC3    C610040   1.457   2.212   0.094 -0.3002  0.3308  0.1810
  675TMC3     C10041   1.228   2.510  17.674  0.7038  0.6447 -0.4272
  675TMC3     O10042   1.111   2.491  17.640  0.3387  0.3611 -0.3147
  675TMC3     H10043   1.154   2.256  17.707 -0.4383  0.9841 -2.0907
  675TMC3    H110044   1.489   2.531  17.752  2.4095 -1.0795  0.8310
  675TMC3    H210045   1.513   2.135   0.146  0.4336 -1.1725 -2.8505
  675TMC3    C710046   1.630   2.360   0.149  0.2300  0.9212  0.1530
  675TMC3    C810047   1.265   2.070   0.088  0.0623  0.3382  0.1418
  675TMC3    O110048   1.709   2.268   0.138  0.3250  0.5683  0.0817
  675TMC3    O210049   1.253   1.962   0.030  0.1398 -0.0188 -0.3136
  676MPD2     C10050   3.785   0.261  11.462  0.0857  0.7888 -0.0448
  676MPD2    C110051   3.665   0.200  11.431 -0.3560  0.0071  0.2631
  676MPD2    C210052   3.672   0.082  11.365  0.2624  0.6956 -1.1422
  676MPD2    C310053   3.793   0.018  11.349  0.4165 -0.8238  0.6429
  676MPD2    C410054   3.911   0.084  11.371  0.3431 -0.0908 -0.0913
  676MPD2    C510055   3.905   0.209  11.428 -0.0597 -0.2621  0.1810
  676MPD2     H10056   3.579   0.033  11.337  0.8386 -1.1230  0.1326
  676MPD2    H110057   4.008   0.042  11.349  0.0600  0.4971 -2.4545
  676MPD2    H210058   3.793   0.358  11.510 -1.5546  1.8439 -1.9226
  676MPD2    H310059   3.994   0.267  11.452 -1.3326  1.0181  1.8384
  676MPD2     N10060   3.798   4.621  11.308  0.4303  0.2769 -0.0495
  676MPD2    H510061   3.880   4.594  11.254 -0.2514 -2.7996  0.4654
  676MPD2    N110062   3.535   0.249  11.454  0.1922 -0.2727  0.4149
  676MPD2    H710063   3.458   0.184  11.443  0.2313 -0.6422  2.4699
  677TMC3    C110064   3.363   0.381  11.517 -0.3529 -1.0364 -0.5057
  677TMC3    C210065   3.277   0.285  11.477 -0.5378 -0.1100 -0.4849
  677TMC3    C310066   3.157   0.295  11.534 -0.0613 -0.4249 -0.6005
  677TMC3    C410067   3.335   0.494  11.581 -0.0820  0.0804 -0.5456
  677TMC3    C510068   3.204   0.503  11.619 -0.1691 -0.3171 -0.8887
  677TMC3    C610069   3.105   0.415  11.589 -0.1436  0.1812  0.6540
  677TMC3     C10070   3.507   0.367  11.503  0.3379 -0.3713  0.0381
  677TMC3     O10071   3.580   0.460  11.534 -0.0490  0.4815 -1.3281
  677TMC3     H10072   3.300   0.205  11.408 -1.7938 -1.4670  0.6619
  677TMC3    H110073   3.409   0.563  11.618  0.0711 -0.8618  0.9142
  677TMC3    H210074   2.999   0.429  11.603 -0.4321  0.4213 -1.7011
  677TMC3    C710075   3.166   0.628  11.685  0.7833 -0.5950 -0.1236
  677TMC3    C810076   3.041   0.212  11.485 -0.7936  0.0360  0.1577
  677TMC3    O110077   3.054   0.633  11.728  0.1426  0.5566 -0.9014
  677TMC3    O210078   3.040   0.203  11.364  0.1008  0.5511 -0.1303
  678MPD2     C10079   0.731   0.993   1.549  0.7176  0.0010 -0.6106
  678MPD2    C110080   0.650   0.940   1.449 -0.3188 -0.3838  0.4205
  678MPD2    C210081   0.509   0.929   1.469  0.3120  0.6329 -0.1255
  678MPD2    C310082   0.452   1.000   1.580  0.8942  0.2770 -0.7368
  678MPD2    C410083   0.536   1.062   1.672 -0.2861  0.3756 -0.2834
  678MPD2    C510084   0.673   1.052   1.657  0.3603 -0.7002  0.0093
  678MPD2     H10085   0.437   0.886   1.399 -2.8285  4.2260  0.8606
  678MPD2    H110086   0.503   1.115   1.761 -0.5794  0.0312 -0.1844
  678MPD2    H210087   0.838   0.989   1.532  0.9107 -1.1336  0.9721
  678MPD2    H310088   0.743   1.094   1.728  0.7944 -1.6790  0.1707
  678MPD2     N10089   0.313   1.012   1.585  0.4292  0.2224 -0.1638
  678MPD2    H510090   0.260   0.968   1.510  0.4615 -0.8758  0.4555
  678MPD2    N110091   0.703   0.883   1.330 -0.2197  0.1469 -0.3192
  678MPD2    H710092   0.639   0.851   1.258 -0.1615  0.6219 -0.5826
  679TMC3    C110093   0.966   0.621   1.062  0.6160 -0.4299 -0.0797
  679TMC3    C210094   0.933   0.680   1.184  0.9388 -0.1818  0.2113
  679TMC3    C310095   0.866   0.794   1.179  0.0915 -0.1922  0.6330
  679TMC3    C410096   0.925   0.673   0.940 -0.5039  0.0935  0.1485
  679TMC3    C510097   0.854   0.793   0.949 -0.4949  0.4200  0.4139
  679TMC3    C610098   0.827   0.859   1.065  0.4403 -0.1123 -0.2562
  679TMC3     C10099   1.038   0.494   1.047 -0.1723  0.2677 -0.0692
  679TMC3     O10100   1.106   0.493   0.943  0.0246 -0.0774 -0.5487
  679TMC3     H10101   0.963   0.635   1.277 -0.6796 -1.3358  0.1771
  679TMC3    H110102   0.951   0.624   0.846 -0.0914 -1.4198  1.0487
  679TMC3    H210103   0.768   0.950   1.077  0.8389  0.1382 -0.1925
  679TMC3    C710104   0.783   0.828   0.832  0.4516 -0.0797  0.2754
  679TMC3    C810105   0.839   0.861   1.312  0.0004 -0.1775 -0.2509
  679TMC3    O110106   0.724   0.935   0.840  0.3755  0.1584  0.1520
  679TMC3    O210107   0.924   0.839   1.400 -0.1650  0.0474 -0.5657
  680MPD2     C10108   0.595   3.982  14.020 -0.3730  0.0977 -0.1401
  680MPD2    C110109   0.710   3.944  14.088  0.4982  0.7928  0.3660
  680MPD2    C210110   0.804   4.036  14.118 -0.4072  0.2760 -0.5084
  680MPD2    C310111   0.794   4.177  14.076 -0.4487 -1.0207  0.2521
  680MPD2    C410112   0.683   4.217  13.995 -0.3497 -0.2335 -0.7298
  680MPD2    C510113   0.589   4.114  13.971 -0.5445  0.7854  0.3060
  680MPD2     H10114   0.892   4.001  14.171 -1.9882 -0.2772  1.7390
  680MPD2    H110115   0.659   4.317  13.959  0.2656  0.1009 -0.2260
  680MPD2    H210116   0.521   3.906  13.999 -2.2499  1.5934  1.0743
  680MPD2    H310117   0.497   4.134  13.916 -0.3048  1.5080  0.1586
  680MPD2     N10118   0.895   4.264  14.107 -0.0449 -0.0506 -0.0748
  680MPD2    H510119   0.896   4.354  14.059  2.0131  0.3318  0.6784
  680MPD2    N110120   0.736   3.813  14.143  0.0024  0.3660  0.2575
  680MPD2    H710121   0.828   3.787  14.178  1.2076  4.0687 -0.1896
  681TMC3    C110122   0.710   3.601  14.209  0.3624 -0.0822 -0.2635
  681TMC3    C210123   0.766   3.627  14.330 -0.5038  0.2814 -0.5115
  681TMC3    C310124   0.879   3.565  14.364 -1.1388  0.2912 -0.6612
  681TMC3    C410125   0.781   3.523  14.119  0.1560 -1.0173  0.2117
  681TMC3    C510126   0.894   3.458  14.160  0.0758  0.7116 -0.9089
  681TMC3    C610127   0.938   3.467  14.289  0.2183  0.4842  0.0949
  681TMC3     C10128   0.644   3.718  14.152 -0.7081 -0.9233 -0.6921
  681TMC3     O10129   0.525   3.725  14.135  0.4945  0.0255  0.0866
  681TMC3     H10130   0.718   3.703  14.391  0.9210  0.5589  0.2882
  681TMC3    H110131   0.737   3.495  14.024  0.3392 -0.7700  0.0553
  681TMC3    H210132   1.031   3.427  14.326 -0.0301 -1.7354 -1.6184
  681TMC3    C710133   0.994   3.438  14.063 -0.4721 -0.3764 -0.2124
  681TMC3    C810134   0.918   3.555  14.496 -0.3735 -0.7668  0.5700
  681TMC3    O110135   1.092   3.380  14.114  0.2142 -0.0094  0.2128
  681TMC3    O210136   0.833   3.526  14.580  0.2415 -0.0373  0.1918
  682MPD2     C10137   2.712   0.456  10.574  0.0660 -0.3512 -0.1875
  682MPD2    C110138   2.644   0.340  10.608  0.0172  0.0319  0.0580
  682MPD2    C210139   2.556   0.346  10.717 -0.2032 -0.0460  0.2055
  682MPD2    C310140   2.542   0.457  10.801 -0.5644 -0.1886 -0.3804
  682MPD2    C410141   2.602   0.573  10.762  0.4167 -0.5241 -0.1789
  682MPD2    C510142   2.684   0.574  10.647 -0.2933  0.3015 -0.3170
  682MPD2     H10143   2.506   0.255  10.750  0.9379 -0.5963  0.4103
  682MPD2    H110144   2.574   0.665  10.811  0.7802 -0.4789 -0.0528
  682MPD2    H210145   2.782   0.454  10.491  0.0523  1.6015 -0.2504
  682MPD2    H310146   2.717   0.669  10.606 -0.5454  1.3925  1.9802
  682MPD2     N10147   2.472   0.467  10.933 -0.0097 -0.1883 -1.0982
  682MPD2    H510148   2.469   0.562  10.970 -0.8142  0.1861 -2.1056
  682MPD2    N110149   2.655   0.218  10.543 -0.3907 -0.0213  0.0835
  682MPD2    H710150   2.590   0.142  10.563 -0.1113 -0.3682 -0.3535
  683TMC3    C110151   2.403   0.504  11.349  0.1673 -0.2352 -0.7264
  683TMC3    C210152   2.300   0.433  11.403 -0.8288  0.0126 -0.6262
  683TMC3    C310153   2.237   0.338  11.326  0.1523 -0.6825  0.6031
  683TMC3    C410154   2.452   0.474  11.214 -0.4634  0.6415 -0.4567
  683TMC3    C510155   2.382   0.378  11.142 -0.0034  0.6285 -0.1210
  683TMC3    C610156   2.283   0.303  11.200  0.3800  0.4017  0.8550
  683TMC3     C10157   2.455   0.620  11.420 -0.4855  0.8929  0.2282
  683TMC3     O10158   2.420   0.628  11.536 -0.2997 -0.4024  0.0827
  683TMC3     H10159   2.278   0.449  11.508 -0.0546 -2.3489 -0.1091
  683TMC3    H110160   2.534   0.523  11.164 -0.6291 -0.0690 -1.4406
  683TMC3    H210161   2.229   0.232  11.138  3.2583 -0.0746 -1.1125
  683TMC3    C710162   2.422   0.355  11.003 -0.0604 -0.2516 -0.1721
  683TMC3    C810163   2.112   0.295  11.380  0.3188  0.5503  0.8489
  683TMC3    O110164   2.414   0.238  10.971  0.6146  0.1703 -0.5396
  683TMC3    O210165   2.050   0.366  11.456 -0.1734  0.9970 -0.4682
  684MPD2     C10166   1.138   4.428  16.368 -0.1400  0.4587 -0.4296
  684MPD2    C110167   1.118   4.500  16.248 -0.1756  0.0149 -0.7123
  684MPD2    C210168   1.151   4.630  16.250 -0.2489 -0.6244  0.2293
  684MPD2    C310169   1.202   4.698  16.363 -0.3821 -0.6214 -0.1551
  684MPD2    C410170   1.226   4.632  16.477  0.6577 -0.2612  0.4203
  684MPD2    C510171   1.182   4.502  16.479 -0.2360  0.0755  0.2180
  684MPD2     H10172   1.135   4.679  16.155 -0.6052  1.1799  1.2261
  684MPD2    H110173   1.270   4.688  16.559 -0.1203  0.3969  0.3821
  684MPD2    H210174   1.126   4.320  16.378 -1.1537  0.4901 -1.2998
  684MPD2    H310175   1.211   4.457  16.574 -0.7040  0.4314  0.5258
  684MPD2     N10176   1.233   0.094  16.364  0.5249  0.0799  0.0454
  684MPD2    H510177   1.288   0.133  16.440 -0.7216 -0.2972  1.1302
  684MPD2    N110178   1.078   4.449  16.124  0.2706 -0.8533 -0.1450
  684MPD2    H710179   1.045   4.511  16.050 -0.8495 -0.6151  0.5417
  685TMC3    C110180   1.082   4.332  15.938  0.3649 -0.0209  0.4121
  685TMC3    C210181   0.976   4.414  15.898  0.4381 -0.3581  0.0015
  685TMC3    C310182   1.004   4.485  15.784  0.2465  0.5423  0.4387
  685TMC3    C410183   1.205   4.331  15.881  0.5291 -0.1715  0.2843
  685TMC3    C510184   1.223   4.393  15.757  0.2452  0.0292  0.1270
  685TMC3    C610185   1.118   4.468  15.708  0.3297  0.2407  0.3026
  685TMC3     C10186   1.095   4.318  16.080  0.3040  0.6644 -0.3434
  685TMC3     O10187   1.147   4.228  16.137  0.4729  0.2132 -0.1543
  685TMC3     H10188   0.885   4.422  15.958 -0.1061  3.1631 -1.2823
  685TMC3    H110189   1.285   4.278  15.931 -1.0560 -2.2531  0.6233
  685TMC3    H210190   1.124   4.522  15.614 -1.0370  0.4660  0.3407
  685TMC3    C710191   1.361   4.419  15.712  0.5348 -0.4660 -0.2966
  685TMC3    C810192   0.886   4.516  15.711 -0.3223 -0.7679 -0.7117
  685TMC3    O110193   1.379   4.478  15.608 -0.4299 -0.2558  0.0489
  685TMC3    O210194   0.888   4.480  15.592 -0.3752 -0.6492  0.4888
  686MPD2     C10195   2.768   0.251  15.700  0.0903 -0.1436 -0.2890
  686MPD2    C110196   2.800   0.119  15.706  1.1399 -0.7692 -1.0250
  686MPD2    C210197   2.922   0.078  15.646 -0.1251  0.1185  0.1787
  686MPD2    C310198   2.995   0.158  15.565  0.0999 -0.3357 -0.7066
  686MPD2    C410199   2.954   0.284  15.565  0.1210  0.1318 -0.6121
  686MPD2    C510200   2.847   0.333  15.627 -0.2657  0.5213  0.5153
  686MPD2     H10201   2.962   4.719  15.669 -1.4888 -0.5480 -0.3335
  686MPD2    H110202   3.018   0.353  15.513  1.7424 -0.2870  0.8166
  686MPD2    H210203   2.680   0.294  15.747  0.8958  1.9314 -0.7120
  686MPD2    H310204   2.822   0.438  15.637  1.4153  0.9268  0.5014
  686MPD2     N10205   3.112   0.121  15.489  0.0816 -0.5653  0.8776
  686MPD2    H510206   3.169   0.200  15.462 -3.5430  2.1145  1.0558
  686MPD2    N110207   2.712   0.031  15.768  0.2621  0.0278 -0.3820
  686MPD2    H710208   2.619   0.064  15.793  0.1695 -0.2883 -0.3002
  687TMC3    C110209   3.073   4.616  15.464 -0.2989 -0.2467  0.7272
  687TMC3    C210210   2.943   4.610  15.439 -0.1142 -0.2804  0.3269
  687TMC3    C310211   2.893   4.486  15.452  0.4504 -0.3168 -0.5171
  687TMC3    C410212   3.151   4.514  15.514  0.1146  0.2935  0.1189
  687TMC3    C510213   3.089   4.392  15.522 -0.6196 -0.1655  0.4509
  687TMC3    C610214   2.962   4.372  15.488 -0.2128  0.1860 -0.0992
  687TMC3     C10215   3.150   4.737  15.437 -0.0526 -0.5927  0.1277
  687TMC3     O10216   3.257   4.711  15.381 -0.3224  0.0602 -0.1746
  687TMC3     H10217   2.887   4.690  15.392 -0.5395 -0.6362  0.2194
  687TMC3    H110218   3.252   4.521  15.553 -0.2412  1.2341  0.8426
  687TMC3    H210219   2.908   4.280  15.506 -1.1357  0.8230  0.4510
  687TMC3    C710220   3.155   4.293  15.605 -0.2890  0.0881  0.1250
  687TMC3    C810221   2.750   4.468  15.457 -0.3872 -0.4496  0.7530
  687TMC3    O110222   3.249   4.331  15.668 -0.4713 -0.0091 -0.3050
  687TMC3    O210223   2.705   4.354  15.446  0.4566 -0.1264  0.0567
  688MPD2     C10224   1.788   3.649  17.176  0.1184 -0.4559  0.2459
  688MPD2    C110225   1.789   3.512  17.206  0.3927  0.3887  0.2688
  688MPD2    C210226   1.884   3.436  17.144  0.5965  0.3990 -0.0965
  688MPD2    C310227   1.973   3.495  17.061 -0.2017  0.2074  0.0462
  688MPD2    C410228   1.969   3.630  17.032  0.3140 -0.0261 -0.2881
  688MPD2    C510229   1.874   3.712  17.086 -0.5058 -0.0047  1.1248
  688MPD2     H10230   1.888   3.329  17.164 -2.1730  0.5644  1.2924
  688MPD2    H110231   2.046   3.671  16.967  0.5941  0.0682  0.1026
  688MPD2    H210232   1.714   3.709  17.227  1.3630  0.3797  1.0583
  688MPD2    H310233   1.862   3.818  17.070  0.2270 -0.2277 -0.9422
  688MPD2     N10234   2.075   3.418  17.001 -0.1750  0.0213  0.2663
  688MPD2    H510235   2.141   3.471  16.946 -1.0396  1.0210  0.1920
  688MPD2    N110236   1.701   3.456  17.303 -0.2477 -0.5770 -0.3164
  688MPD2    H710237   1.733   3.367  17.338 -0.9667 -0.0820  1.6025
  689TMC3    C110238   1.521   3.434  17.445  0.8531 -0.3469  0.2939
  689TMC3    C210239   1.456   3.503  17.545  0.1077 -0.4256  0.3142
  689TMC3    C310240   1.462   3.457  17.676 -0.2623  0.1387 -1.0359
  689TMC3    C410241   1.558   3.311  17.471  0.2709 -0.3969  0.3029
  689TMC3    C510242   1.560   3.265  17.597 -1.1428 -0.0602 -0.3224
  689TMC3    C610243   1.526   3.337  17.703  0.3449  0.0352  0.1876
  689TMC3     C10244   1.589   3.514  17.355  0.1421  0.0717 -0.4537
  689TMC3     O10245   1.540   3.621  17.325  0.0237  0.2666 -0.0478
  689TMC3     H10246   1.430   3.607  17.526  1.1342 -0.1401  0.4476
  689TMC3    H110247   1.587   3.245  17.390 -1.2121  0.2014 -0.7232
  689TMC3    H210248   1.542   3.302   0.048 -1.4589  0.7558  0.7315
  689TMC3    C710249   1.614   3.136  17.633 -0.5152  0.3322  0.6604
  689TMC3    C810250   1.401   3.532   0.025 -0.0783 -0.4095 -0.8172
  689TMC3    O110251   1.664   3.114  17.744 -0.2643 -0.1045  0.0187
  689TMC3    O210252   1.431   3.494   0.138  0.3320 -0.3078  0.1300
  690MPD2     C10253   4.519   0.345  15.985  0.3231 -0.2877 -0.4490
  690MPD2    C110254   4.406   0.370  15.908  0.3380 -0.4847  0.4858
  690MPD2    C210255   4.410   0.467  15.807  0.7093  0.1136 -0.1342
  690MPD2    C310256   4.525   0.537  15.785 -0.5443  0.3452  0.6614
  690MPD2    C410257   4.632   0.522  15.871 -0.0745 -0.0085  0.4093
  690MPD2    C510258   4.628   0.425  15.967  0.2232  0.4327  0.7013
  690MPD2     H10259   4.330   0.480  15.735  0.1508 -0.5544  0.3630
  690MPD2    H110260   4.721   0.583  15.860  0.5425 -0.8930  0.4407
  690MPD2    H210261   4.523   0.281  16.072  0.2278 -0.4415 -0.5579
  690MPD2    H310262   4.712   0.409  16.035  0.4312 -0.2478  0.2843
  690MPD2     N10263   4.532   0.630  15.670  0.4954 -0.0109 -0.3334
  690MPD2    H510264   4.452   0.628  15.608  0.3586  0.9142 -0.1900
  690MPD2    N110265   4.283   0.291  15.922  1.0102  0.1274  0.4411
  690MPD2    H710266   4.207   0.315  15.859 -0.6129 -2.2690  1.4815
  691TMC3    C110267   4.147   0.101  15.960 -0.5810 -0.1735 -0.2900
  691TMC3    C210268   4.061   0.156  15.864 -1.2069 -0.3894 -0.5868
  691TMC3    C310269   3.983   0.067  15.803  0.1467 -0.0594 -0.0991
  691TMC3    C410270   4.164   4.705  15.975 -0.9048  0.1560  0.3231
  691TMC3    C510271   4.083   4.620  15.909  0.0299 -0.2442  0.1716
  691TMC3    C610272   3.990   4.673  15.817 -0.4049 -0.1697  0.3550
  691TMC3     C10273   4.273   0.167  15.987  0.6038 -0.5074  0.4904
  691TMC3     O10274   4.355   0.106  16.059  0.2088 -0.0480 -0.0242
  691TMC3     H10275   4.056   0.263  15.846 -0.2999 -0.4847 -1.4161
  691TMC3    H110276   4.244   4.664  16.036 -0.4864  0.3578 -0.0918
  691TMC3    H210277   3.927   4.611  15.755  0.9537 -1.6674  0.4706
  691TMC3    C710278   4.085   4.482  15.949  0.6013 -0.9408  0.4924
  691TMC3    C810279   3.939   0.104  15.666 -0.1648  0.3763  0.6071
  691TMC3    O110280   4.166   4.450  16.035  0.2961 -0.1302 -0.5224
  691TMC3    O210281   3.923   0.011  15.590  0.4853  0.0344  0.0032
  692TMC3    C110282   0.929   1.628  15.868  0.7114  0.5065  0.6591
  692TMC3    C210283   1.018   1.675  15.958 -0.5983 -0.3438  0.0910
  692TMC3    C310284   1.108   1.579  16.015  0.3938  1.0818 -0.2020
  692TMC3    C410285   0.907   1.492  15.865 -0.1047 -0.1152 -0.4339
  692TMC3    C510286   0.991   1.402  15.934  0.3008 -1.3927 -0.3020
  692TMC3    C610287   1.087   1.444  16.030 -0.3690  0.4973  0.1498
  692TMC3     C10288   0.817   1.716  15.826 -0.1681  0.0364 -0.2479
  692TMC3     O10289   0.710   1.657  15.798 -0.2218  0.0292 -0.0705
  692TMC3     H10290   1.057   1.774  15.935 -0.7399 -0.5460 -1.0351
  692TMC3    H110291   0.835   1.460  15.791 -1.7394 -0.6331  1.3889
  692TMC3    H210292   1.153   1.376  16.083 -1.1043 -1.6717 -1.7179
  692TMC3    C710293   0.965   1.258  15.914 -1.2661 -0.1648 -0.3170
  692TMC3    C810294   1.173   1.630  16.135 -0.6969  0.1827 -0.2747
  692TMC3    O110295   0.858   1.242  15.857 -0.6719  0.1476  0.0120
  692TMC3    O210296   1.249   1.559  16.201 -0.4267  0.4074  0.8075
  693MPD2     C10297   4.727   3.844  10.746 -0.1024  0.5328  0.5435
  693MPD2    C110298   4.636   3.888  10.836  0.3821 -0.4131 -0.4455
  693MPD2    C210299   4.673   3.908  10.967  0.4951 -0.5163 -0.0259
  693MPD2    C310300   0.062   3.881  11.007 -0.5426  0.0993 -0.3979
  693MPD2    C410301   0.156   3.867  10.917  0.1981  0.7446  0.9993
  693MPD2    C510302   0.117   3.855  10.781  0.0809 -0.5954  0.0516
  693MPD2     H10303   4.608   3.953  11.041  1.7096 -0.5951  1.0944
  693MPD2    H110304   0.260   3.855  10.947  0.1535 -0.7665  0.5790
  693MPD2    H210305   4.693   3.822  10.645 -2.2774  2.0665  0.9243
  693MPD2    H310306   0.192   3.839  10.704  0.2762 -0.8339  0.2875
  693MPD2     N10307   0.117   3.887  11.137  0.3085  0.0324 -0.4400
  693MPD2    H510308   0.205   3.837  11.143  0.2613 -0.1655 -1.3199
  693MPD2    N110309   4.499   3.889  10.817  0.2445 -0.6665 -0.7740
  693MPD2    H710310   4.444   3.920  10.896 -0.1142 -1.6320 -0.6439
  694TMC3    C110311   4.301   3.890  10.725 -0.5365  0.1785  0.4846
  694TMC3    C210312   4.214   3.796  10.683  0.5181 -0.5625  0.2207
  694TMC3    C310313   4.093   3.781  10.755 -0.5572 -0.0996 -0.0591
  694TMC3    C410314   4.272   3.967  10.835  0.1220  0.1598  0.1995
  694TMC3    C510315   4.164   3.941  10.911 -0.3278 -0.3965  0.2271
  694TMC3    C610316   4.074   3.846  10.875 -0.5539  0.2563 -0.1560
  694TMC3     C10317   4.432   3.866  10.702 -0.3550  0.6442  0.3361
  694TMC3     O10318   4.469   3.804  10.603  0.0062 -0.7227 -0.3302
  694TMC3     H10319   4.244   3.718  10.614  2.4590 -0.8773  1.4410
  694TMC3    H110320   4.333   4.056  10.846  2.1159 -1.0257 -1.2915
  694TMC3    H210321   3.983   3.835  10.932  0.1750  0.5349  1.0563
  694TMC3    C710322   4.196   3.970  11.053  0.0887 -0.3190 -0.4300
  694TMC3    C810323   3.997   3.687  10.721  0.0387 -0.5875 -0.2506
  694TMC3    O110324   4.289   4.048  11.069 -0.6631  0.3205 -0.2520
  694TMC3    O210325   3.913   3.654  10.804  0.0374 -0.1426 -0.4985
  695MPD2     C10326   1.478   1.128  13.481 -0.4008 -0.5152  0.6225
  695MPD2    C110327   1.387   1.035  13.540 -0.4095  0.3688 -0.2710
  695MPD2    C210328   1.256   1.026  13.492 -0.2429  0.3411 -0.1353
  695MPD2    C310329   1.212   1.121  13.396 -0.3352  0.2209  0.2785
  695MPD2    C410330   1.300   1.206  13.341 -0.0850  0.1505  0.7578
  695MPD2    C510331   1.434   1.201  13.376 -0.1898  0.2941  0.6490
  695MPD2     H10332   1.187   0.956  13.539  0.8657  0.2525  1.3653
  695MPD2    H110333   1.275   1.279  13.265  0.3948  0.9428  1.3568
  695MPD2    H210334   1.583   1.144  13.501 -0.1087 -1.1634 -0.4147
  695MPD2    H310335   1.507   1.257  13.318 -0.2781 -1.4651 -1.1802
  695MPD2     N10336   1.073   1.121  13.366  0.6875  0.1297 -0.7804
  695MPD2    H510337   1.020   1.046  13.410  2.2619  0.0402  0.9757
  695MPD2    N110338   1.435   0.946  13.639  0.1035  0.2582  0.8406
  695MPD2    H710339   1.359   0.896  13.684 -0.5971  0.0420 -0.5837
  696TMC3    C110340   0.870   1.204  13.305  0.0019  0.7017 -0.2930
  696TMC3    C210341   0.814   1.129  13.405 -0.0380 -0.4690 -0.0572
  696TMC3    C310342   0.680   1.139  13.432 -0.0299 -0.2410 -0.4443
  696TMC3    C410343   0.803   1.306  13.242  0.2324 -0.3250 -0.1859
  696TMC3    C510344   0.673   1.318  13.267 -0.3533 -0.3606  0.0705
  696TMC3    C610345   0.611   1.243  13.369 -0.7718  0.2659 -0.1604
  696TMC3     C10346   1.010   1.209  13.281 -0.6894 -0.2532 -0.1868
  696TMC3     O10347   1.057   1.308  13.220  0.1175  0.4567 -0.1429
  696TMC3     H10348   0.868   1.044  13.446 -1.4178 -1.2118  0.2241
  696TMC3    H110349   0.840   1.376  13.169 -1.0947 -0.2171 -0.7646
  696TMC3    H210350   0.510   1.266  13.402 -0.3534 -0.5774  1.7215
  696TMC3    C710351   0.609   1.455  13.254  0.8543 -0.6563  0.1387
  696TMC3    C810352   0.644   1.102  13.571  0.6319  0.1309  0.0108
  696TMC3    O110353   0.603   1.510  13.144 -0.1205 -0.7703  0.0248
  696TMC3    O210354   0.730   1.048  13.640  0.1469 -0.3970 -0.4021
  697MPD2     C10355   0.679   2.870  15.550 -0.3136 -0.0662  0.1787
  697MPD2    C110356   0.560   2.855  15.492  0.0858  0.2723  0.5871
  697MPD2    C210357   0.504   2.964  15.416  0.7337 -0.1873  0.3855
  697MPD2    C310358   0.576   3.086  15.412 -0.0839  0.7592 -0.4761
  697MPD2    C410359   0.700   3.099  15.470 -0.2382 -0.8730 -0.0744
  697MPD2    C510360   0.738   2.991  15.550  0.0621  0.0641 -0.1378
  697MPD2     H10361   0.404   2.954  15.376  0.4348  4.1496  0.0508
  697MPD2    H110362   0.751   3.194  15.481 -1.3044 -0.2428 -0.5555
  697MPD2    H210363   0.721   2.785  15.602  2.6536  0.6565 -1.0312
  697MPD2    H310364   0.821   2.998  15.619  0.0653 -1.3011  0.0078
  697MPD2     N10365   0.506   3.188  15.342 -0.3219 -0.0055 -0.1585
  697MPD2    H510366   0.416   3.167  15.301 -0.1891 -1.4169  0.2896
  697MPD2    N110367   0.495   2.726  15.477 -0.0451  0.5053  0.0835
  697MPD2    H710368   0.424   2.730  15.405 -0.9701 -1.6882  0.8594
  698TMC3    C110369   0.465   3.385  15.222  1.3355 -0.5122  0.8273
  698TMC3    C210370   0.459   3.520  15.225 -0.6308  0.3665 -0.5034
  698TMC3    C310371   0.398   3.591  15.122  1.3521  0.1560  0.3216
  698TMC3    C410372   0.397   3.306  15.126 -0.1334  0.4275  0.1061
  698TMC3    C510373   0.348   3.378  15.025 -0.0677  0.5125  1.1305
  698TMC3    C610374   0.345   3.516  15.017  1.0928  0.0547  0.1197
  698TMC3     C10375   0.550   3.317  15.319 -0.3915  0.2160 -0.9681
  698TMC3     O10376   0.641   3.375  15.375 -0.9084  0.0292 -0.2117
  698TMC3     H10377   0.488   3.572  15.316 -0.5355 -0.9203  0.2024
  698TMC3    H110378   0.404   3.198  15.119 -1.0044  0.4294 -0.6965
  698TMC3    H210379   0.294   3.570  14.938  1.8494 -0.8260 -0.9614
  698TMC3    C710380   0.259   3.317  14.935  0.1968  0.4398  0.3015
  698TMC3    C810381   0.424   3.728  15.098  0.4123  0.3919 -0.1577
  698TMC3    O110382   0.236   3.379  14.835 -0.1785 -0.3920 -0.7726
  698TMC3    O210383   0.350   3.790  15.023 -0.5918  0.1528  0.3030
  699TMC3    C110384   0.154   1.534  13.197 -0.2968  0.4023  0.7562
  699TMC3    C210385   0.187   1.410  13.151  0.2617 -0.5349  0.4922
  699TMC3    C310386   0.114   1.299  13.185  0.4883 -0.1455  0.4469
  699TMC3    C410387   0.046   1.541  13.268  0.2904 -0.9379  0.8119
  699TMC3    C510388   4.713   1.438  13.311  0.1406 -0.4552  0.3169
  699TMC3    C610389   0.010   1.307  13.273 -0.8042  0.7367 -0.0667
  699TMC3     C10390   0.158   1.640  13.099 -0.2868  0.5919  0.2240
  699TMC3     O10391   0.172   1.597  12.985 -0.1801  0.8405  0.3539
  699TMC3     H10392   0.275   1.412  13.088 -1.0231  2.0517 -1.2209
  699TMC3    H110393   0.016   1.635  13.315 -1.2555 -0.8398 -0.3462
  699TMC3    H210394   4.691   1.224  13.310 -0.1936  0.6424  0.6863
  699TMC3    C710395   4.588   1.460  13.386 -0.3460 -0.4955  0.2837
  699TMC3    C810396   0.166   1.167  13.171 -0.3648  0.1113 -0.8879
  699TMC3    O110397   4.586   1.556  13.462 -0.6846  0.0031  0.2816
  699TMC3    O210398   0.104   1.082  13.232  0.2068  0.2327  0.7856
  700TMC3    C110399   4.393   3.789  17.292 -0.2008 -0.7757 -0.0649
  700TMC3    C210400   4.439   3.659  17.301 -0.7964  1.0156 -0.0916
  700TMC3    C310401   4.511   3.624  17.415  2.0103 -0.8250 -0.0282
  700TMC3    C410402   4.414   3.886  17.392  0.3630 -0.0440  0.6450
  700TMC3    C510403   4.502   3.849  17.488  0.0800 -0.7763 -0.9267
  700TMC3    C610404   4.553   3.716  17.506  0.3964 -1.1722 -0.1413
  700TMC3     C10405   4.370   3.832  17.157 -0.5750 -0.1032  0.1618
  700TMC3     O10406   4.332   3.747  17.078  0.5251  0.8843  0.1175
  700TMC3     H10407   4.402   3.588  17.228 -0.0172  0.5647 -0.0491
  700TMC3    H110408   4.361   3.979  17.384  0.7604  0.1750  0.5463
  700TMC3    H210409   4.611   3.687  17.593 -1.5234  1.1911  1.9592
  700TMC3    C710410   4.525   3.934  17.600 -0.3282 -0.3669  0.4290
  700TMC3    C810411   4.589   3.505  17.401  0.5151  0.1378  1.2000
  700TMC3    O110412   4.629   3.925  17.662  0.3857  0.3524  0.2100
  700TMC3    O210413   4.711   3.516  17.403  0.4094  0.2684  0.6408
  701TMC3    C110414   4.472   2.276  15.450 -0.2030  0.2733 -0.0526
  701TMC3    C210415   4.478   2.286  15.311 -0.0099  0.5124  0.0119
  701TMC3    C310416   4.596   2.334  15.258 -0.3262 -0.7460 -0.2648
  701TMC3    C410417   4.571   2.329  15.527  0.6324 -0.4662 -0.0588
  701TMC3    C510418   4.682   2.386  15.470  0.8991 -0.1483 -0.2403
  701TMC3    C610419   4.691   2.394  15.335 -0.4035 -0.2085  0.5958
  701TMC3     C10420   4.351   2.233  15.516 -0.0716 -0.6952  0.0749
  701TMC3     O10421   4.329   2.262  15.633  0.5047 -0.0816 -0.0909
  701TMC3     H10422   4.408   2.235  15.245  0.7532 -1.4224  0.6890
  701TMC3    H110423   4.559   2.327  15.634 -2.3182 -0.5761 -0.3992
  701TMC3    H210424   0.040   2.434  15.286 -1.4349  2.2818  0.7470
  701TMC3    C710425   0.029   2.475  15.547  0.0709 -0.7127  0.0177
  701TMC3    C810426   4.634   2.304  15.124  0.3883 -0.1777 -0.4528
  701TMC3    O110427   0.075   2.568  15.485 -0.0366 -0.0739 -0.3499
  701TMC3    O210428   4.737   2.243  15.097 -0.1439  0.1660 -0.3054
  702MPD2     C10429   3.844   4.472  10.576  0.7779 -0.2496 -0.2001
  702MPD2    C110430   3.716   4.486  10.617 -0.4531 -0.0441 -0.1800
  702MPD2    C210431   3.607   4.495  10.519 -0.1165  0.3919 -0.1589
  702MPD2    C310432   3.633   4.516  10.383  0.6615  0.3780 -0.1015
  702MPD2    C410433   3.761   4.499  10.344  0.7306  0.6299 -0.3475
  702MPD2    C510434   3.860   4.467  10.439  0.5837  0.5906  0.2220
  702MPD2     H10435   3.504   4.511  10.549 -0.2974 -1.0315 -0.0132
  702MPD2    H110436   3.799   4.501  10.243  0.8548  0.9877 -0.2948
  702MPD2    H210437   3.930   4.461  10.641  2.2535  1.3813 -1.9024
  702MPD2    H310438   3.961   4.443  10.407 -0.3291 -1.6348 -0.9483
  702MPD2     N10439   3.518   4.533  10.300  0.4068  0.1236  0.0377
  702MPD2    H510440   3.426   4.536  10.343 -0.0415 -2.7802 -0.7041
  702MPD2    N110441   3.678   4.482  10.756 -0.3195  0.3667  0.0741
  702MPD2    H710442   3.580   4.477  10.783 -1.5176 -0.4198 -4.3165
  703TMC3    C110443   3.399   4.630  10.141  0.1214  0.0134 -1.1191
  703TMC3    C210444   3.287   4.589  10.210  0.2244 -0.2153 -0.6557
  703TMC3    C310445   3.189   4.672  10.232 -0.4714  0.9861  0.8850
  703TMC3    C410446   3.410   0.018  10.101  0.3974  0.3627 -0.1834
  703TMC3    C510447   3.324   0.113  10.150 -0.3312  0.1395 -0.2317
  703TMC3    C610448   3.209   0.066  10.215 -0.1269  0.4635 -0.8907
  703TMC3     C10449   3.515   4.553  10.164  0.0819  0.3792 -0.2176
  703TMC3     O10450   3.613   4.559  10.095 -0.0978  0.4447  0.1363
  703TMC3     H10451   3.261   4.484  10.215  2.0323 -0.6111  0.5983
  703TMC3    H110452   3.507   0.053  10.069  0.7492 -0.7171 -0.2752
  703TMC3    H210453   3.121   0.128  10.220 -0.7105 -0.3766 -0.6882
  703TMC3    C710454   3.396   0.219  10.228  0.6908  0.5905  0.0966
  703TMC3    C810455   3.123   4.649  10.355  0.4253 -0.9121 -0.5318
  703TMC3    O110456   3.511   0.234  10.196 -0.2030 -0.5449  0.3272
  703TMC3    O210457   3.091   0.015  10.411 -0.3080 -0.3497 -0.1525
  704TMC3    C110458   1.097   3.338  12.857  0.2762 -0.2973 -0.4838
  704TMC3    C210459   1.144   3.398  12.740  0.0095 -0.1730  0.3209
  704TMC3    C310460   1.284   3.405  12.720  0.2599 -0.7988 -0.3895
  704TMC3    C410461   1.185   3.303  12.956 -0.0427  0.8017 -0.2597
  704TMC3    C510462   1.323   3.313  12.934  0.0008  0.0217 -0.0213
  704TMC3    C610463   1.372   3.361  12.813  0.2722 -0.4258  0.7725
  704TMC3     C10464   0.973   3.264  12.858 -1.2009 -0.2314 -0.6020
  704TMC3     O10465   0.930   3.214  12.959  0.4198  0.6019 -0.2877
  704TMC3     H10466   1.081   3.429  12.658 -0.8749  1.2275  1.5412
  704TMC3    H110467   1.148   3.244  13.039 -0.7338 -1.7114 -2.3575
  704TMC3    H210468   1.476   3.383  12.797 -0.0784  1.3138  0.8808
  704TMC3    C710469   1.412   3.237  13.016  0.2828  0.0586  0.0752
  704TMC3    C810470   1.314   3.360  12.590 -0.3247 -0.2036 -0.1631
  704TMC3    O110471   1.359   3.212  13.124 -0.4980  0.2550 -0.5877
  704TMC3    O210472   1.381   3.265  12.562  0.4205  0.4211  0.0695
  705MPD2     C10473   1.108   0.881  16.375  0.0744 -0.3260  0.0106
  705MPD2    C110474   1.147   1.017  16.365  0.0795 -0.4436  0.6075
  705MPD2    C210475   1.055   1.112  16.409  0.0965  0.4991 -0.0695
  705MPD2    C310476   0.932   1.073  16.463 -0.4481 -0.1218 -0.4443
  705MPD2    C410477   0.899   0.938  16.461  0.0705 -0.2632 -0.2095
  705MPD2    C510478   0.986   0.843  16.418 -0.4899 -0.2767  0.2465
  705MPD2     H10479   1.092   1.213  16.419 -0.3537  0.6908 -0.3487
  705MPD2    H110480   0.796   0.909  16.481  0.3469 -0.1752  1.3962
  705MPD2    H210481   1.175   0.798  16.360 -0.3504 -0.5184 -0.8050
  705MPD2    H310482   0.957   0.740  16.437  1.1853 -0.5098  1.6278
  705MPD2     N10483   0.831   1.164  16.487 -0.2144  0.9668  0.3333
  705MPD2    H510484   0.740   1.120  16.493  0.2716 -0.1638 -0.6351
  705MPD2    N110485   1.274   1.066  16.322 -0.3180 -0.0676  0.6405
  705MPD2    H710486   1.286   1.166  16.334 -0.1132  0.0692 -0.7707
  706TMC3    C110487   1.633   1.109  16.045  0.3542 -0.5121  0.7137
  706TMC3    C210488   1.650   1.239  16.085  0.2717  0.4233 -0.7920
  706TMC3    C310489   1.590   1.284  16.200 -0.1522 -0.1760 -0.3995
  706TMC3    C410490   1.551   1.020  16.112  0.0626  0.9528 -0.0293
  706TMC3    C510491   1.492   1.065  16.225 -0.2109 -0.5159 -0.3387
  706TMC3    C610492   1.514   1.197  16.271 -0.1970  0.0877  0.2621
  706TMC3     C10493   1.674   1.078  15.912 -0.4865 -0.0285 -0.2127
  706TMC3     O10494   1.623   0.989  15.843 -0.1919  0.0055  0.2410
  706TMC3     H10495   1.708   1.308  16.026 -0.9772  2.1499 -0.0089
  706TMC3    H110496   1.541   0.918  16.076  3.3193 -0.0927  2.0821
  706TMC3    H210497   1.469   1.233  16.364  1.2862 -0.3580  1.1427
  706TMC3    C710498   1.378   0.991  16.268 -0.4627  0.3943 -0.3695
  706TMC3    C810499   1.529   1.409  16.178 -0.3592  0.3515  0.6378
  706TMC3    O110500   1.370   0.871  16.237  0.6051  0.2835  0.2037
  706TMC3    O210501   1.507   1.427  16.059 -0.0072  0.2364 -0.1031
  707TMC3    C110502   3.696   0.654   1.816  0.2701 -0.5120  0.3853
  707TMC3    C210503   3.756   0.563   1.897 -0.4962 -0.9291  0.1341
  707TMC3    C310504   3.694   0.445   1.923  0.4687  0.1541 -0.6328
  707TMC3    C410505   3.569   0.636   1.765 -0.1486  0.5009 -0.3758
  707TMC3    C510506   3.507   0.517   1.795 -0.3924 -0.3113  0.2865
  707TMC3    C610507   3.568   0.423   1.876 -0.5152  0.2052  0.6475
  707TMC3     C10508   3.776   0.765   1.776 -0.2555  0.0705 -0.1690
  707TMC3     O10509   3.827   0.837   1.862  0.2219 -0.0267 -0.0723
  707TMC3     H10510   3.848   0.593   1.948 -1.5804  0.0488  1.5103
  707TMC3    H110511   3.522   0.716   1.708 -1.5950 -1.7818 -2.4209
  707TMC3    H210512   3.513   0.334   1.906  0.7466 -1.0839 -0.8491
  707TMC3    C710513   3.364   0.515   1.783  1.0123 -0.3078  0.6120
  707TMC3    C810514   3.786   0.341   1.965 -0.3962 -0.4407 -0.0354
  707TMC3    O110515   3.316   0.411   1.832  0.1699  0.0417 -0.1704
  707TMC3    O210516   3.885   0.380   2.031  0.6709 -0.2427 -0.3114
  708MPD2     C10517   4.655   4.722  14.063 -0.0199  0.3332  0.4137
  708MPD2    C110518   4.583   4.640  14.140 -0.1663 -0.7892  0.3757
  708MPD2    C210519   4.629   4.605  14.263 -0.6630 -0.2503  0.0114
  708MPD2    C310520   0.011   4.652  14.317 -0.6151  0.3205 -0.5289
  708MPD2    C410521   0.072   0.010  14.252 -0.3583  0.4451 -0.3668
  708MPD2    C510522   0.024   0.043  14.127 -0.1063  0.2171 -0.3678
  708MPD2     H10523   4.567   4.537  14.321  1.5749 -0.2402  2.3827
  708MPD2    H110524   0.166   0.056  14.281 -0.6669  0.1177  1.1047
  708MPD2    H210525   4.618   0.007  13.964  1.0280 -1.1715 -0.3629
  708MPD2    H310526   0.075   0.121  14.072 -0.3084 -0.8111 -2.0192
  708MPD2     N10527   0.066   4.600  14.433  0.8547 -0.2708 -0.8429
  708MPD2    H510528   0.147   4.650  14.469 -0.1007  1.1060 -0.6210
  708MPD2    N110529   4.456   4.587  14.106 -0.4111  0.6901 -0.2243
  708MPD2    H710530   4.414   4.530  14.179 -0.2454  0.0934 -0.5930
  709TMC3    C110531   4.244   4.565  14.011  0.8067 -0.5991  0.2102
  709TMC3    C210532   4.195   4.471  13.924  0.0055  0.0376  0.1334
  709TMC3    C310533   4.126   4.369  13.990 -0.2606 -0.2249 -0.4551
  709TMC3    C410534   4.211   4.564  14.146  0.4654  0.3448 -0.6175
  709TMC3    C510535   4.139   4.461  14.202 -0.3847  0.0109  0.5467
  709TMC3    C610536   4.109   4.358  14.121 -0.5695 -0.3368 -0.1400
  709TMC3     C10537   4.382   4.601  13.988 -0.2224  0.2894  0.0943
  709TMC3     O10538   4.420   4.608  13.875 -0.1176 -0.4449  0.0144
  709TMC3     H10539   4.241   4.456  13.827 -1.4021 -4.0772  0.0856
  709TMC3    H110540   4.255   4.640  14.209 -1.5195  0.0888  1.0787
  709TMC3    H210541   4.079   4.269  14.176 -0.0754 -0.1587  0.4233
  709TMC3    C710542   4.212   4.430  14.318  0.0484 -0.1181 -0.0642
  709TMC3    C810543   4.101   4.250  13.913  0.2175 -0.4647 -0.1079
  709TMC3    O110544   4.333   4.451  14.307 -0.0494 -0.4334 -0.0729
  709TMC3    O210545   4.081   4.139  13.962  0.2850  0.2870 -0.3565
  710TMC3    C110546   0.436   1.339   0.198  0.1450  0.0258 -0.5100
  710TMC3    C210547   0.452   1.305   0.066  0.3543  0.1125  0.1253
  710TMC3    C310548   0.542   1.205   0.038  0.8998  0.0503  0.0845
  710TMC3    C410549   0.493   1.267   0.300  0.0917 -0.5837  0.4860
  710TMC3    C510550   0.580   1.161   0.266 -0.3305 -0.6268 -0.1910
  710TMC3    C610551   0.601   1.123   0.134 -0.3853 -0.1034 -0.1899
  710TMC3     C10552   0.346   1.454   0.229  0.4234 -0.3588 -0.9132
  710TMC3     O10553   0.267   1.493   0.145 -0.3315 -0.5750  0.3434
  710TMC3     H10554   0.398   1.367  17.751  0.4451  1.4456  1.2179
  710TMC3    H110555   0.489   1.299   0.404  1.7334  2.0773 -0.2923
  710TMC3    H210556   0.683   1.054   0.116  0.4405  0.9121 -0.3423
  710TMC3    C710557   0.615   1.067   0.378 -0.0428  0.3806 -0.4290
  710TMC3    C810558   0.557   1.189  17.654  0.3321  0.1470 -0.5330
  710TMC3    O110559   0.629   1.111   0.494 -0.1714 -0.7719  0.5544
  710TMC3    O210560   0.534   1.282  17.581 -0.4756  0.7235  0.0547
  711TMC3    C110561   0.471   1.983  14.838  0.4347 -0.1388  0.8223
  711TMC3    C210562   0.501   2.046  14.954 -0.0898  0.1079  0.4134
  711TMC3    C310563   0.629   2.063  14.986 -0.4893 -0.3593  0.0060
  711TMC3    C410564   0.562   1.927  14.753  0.0777 -0.2098  0.8067
  711TMC3    C510565   0.691   1.920  14.805 -0.0042  0.5851 -0.0820
  711TMC3    C610566   0.720   2.004  14.907  0.2166  0.8273 -0.1652
  711TMC3     C10567   0.328   1.976  14.802 -0.1750  0.0724  0.4710
  711TMC3     O10568   0.248   1.963  14.894  0.0115 -0.2591  0.1731
  711TMC3     H10569   0.417   2.085  15.011 -1.3774 -0.8983 -0.7830
  711TMC3    H110570   0.530   1.852  14.681  1.8335  0.6554 -0.8528
  711TMC3    H210571   0.825   2.011  14.934 -0.1025 -0.5037  1.4624
  711TMC3    C710572   0.728   1.785  14.849  0.2298  0.5743 -0.2953
  711TMC3    C810573   0.644   2.032  15.128 -0.5241  0.3428  0.4886
  711TMC3    O110574   0.847   1.769  14.877  0.1515 -0.6464  0.3319
  711TMC3    O210575   0.543   1.999  15.188  0.4240  0.0812 -0.1388
  712MPD2     C10576   1.559   2.733  14.164 -0.7379  0.4516 -0.3925
  712MPD2    C110577   1.471   2.826  14.110 -0.3874  0.5527 -0.2559
  712MPD2    C210578   1.520   2.956  14.076  1.0281  0.2074  0.6578
  712MPD2    C310579   1.655   2.989  14.105 -0.2821  0.5240 -0.3470
  712MPD2    C410580   1.731   2.890  14.163  0.0640 -0.1885  0.6102
  712MPD2    C510581   1.686   2.766  14.191 -0.1610  0.4267 -0.0918
  712MPD2     H10582   1.450   3.028  14.036 -0.2633 -1.6150 -0.3653
  712MPD2    H110583   1.837   2.899  14.182  0.1381  0.3523 -0.0536
  712MPD2    H210584   1.536   2.634  14.202  2.1266  1.0411  2.8648
  712MPD2    H310585   1.738   2.698  14.257  2.0625  2.9308  0.7256
  712MPD2     N10586   1.722   3.111  14.076  0.5790 -0.0596  0.1993
  712MPD2    H510587   1.819   3.121  14.104  0.6657 -0.2743 -0.0270
  712MPD2    N110588   1.342   2.798  14.077  0.0426  0.1646 -0.2291
  712MPD2    H710589   1.285   2.867  14.029 -0.2847 -0.3643 -0.6072
  713TMC3    C110590   1.745   3.333  13.998 -0.1496  0.7651  0.2083
  713TMC3    C210591   1.876   3.315  13.973  0.1539 -0.1034 -0.2045
  713TMC3    C310592   1.940   3.415  13.903  0.6658 -0.5962  0.1411
  713TMC3    C410593   1.676   3.443  13.967  0.5410  0.1699 -0.1869
  713TMC3    C510594   1.742   3.541  13.905  0.6380 -0.0209 -0.4525
  713TMC3    C610595   1.876   3.528  13.867  0.0681 -0.0832  0.1369
  713TMC3     C10596   1.658   3.225  14.028 -0.0367 -0.7288 -0.9096
  713TMC3     O10597   1.538   3.248  14.024  0.3781  0.2132 -0.5727
  713TMC3     H10598   1.929   3.222  13.993  1.0345  0.3731 -0.2924
  713TMC3    H110599   1.570   3.457  13.989  0.4778 -0.6081 -0.0184
  713TMC3    H210600   1.934   3.610  13.825 -0.0300 -0.1970 -0.2186
  713TMC3    C710601   1.687   3.679  13.895 -0.3525 -0.2070  0.1236
  713TMC3    C810602   2.063   3.391  13.837 -0.8656 -0.1787 -0.7903
  713TMC3    O110603   1.769   3.769  13.877 -0.4042 -0.0992  0.2117
  713TMC3    O210604   2.083   3.437  13.727  0.2201 -0.5376 -0.0643
  714MPD2     C10605   4.228   2.252   1.568 -0.0738  1.0895 -0.0446
  714MPD2    C110606   4.247   2.203   1.441 -1.1370  0.4377  0.0877
  714MPD2    C210607   4.153   2.234   1.346 -0.1300 -0.1005  0.4186
  714MPD2    C310608   4.042   2.317   1.373 -0.0022 -0.8479  0.0214
  714MPD2    C410609   4.027   2.378   1.496  0.2521  0.3707 -0.1834
  714MPD2    C510610   4.127   2.348   1.592 -0.0714 -0.6637  1.1892
  714MPD2     H10611   4.159   2.190   1.247 -0.3022  1.3067 -0.2229
  714MPD2    H110612   3.958   2.460   1.512 -2.7478 -2.0611 -0.7296
  714MPD2    H210613   4.298   2.224   1.646  0.4708  0.9642 -0.5834
  714MPD2    H310614   4.127   2.397   1.689  0.4373  2.9372 -0.6426
  714MPD2     N10615   3.958   2.336   1.262  0.3304 -0.7825  0.0947
  714MPD2    H510616   3.987   2.298   1.172  0.1441 -0.5665 -0.0572
  714MPD2    N110617   4.361   2.123   1.422  0.4752  0.3691 -0.2712
  714MPD2    H710618   4.425   2.121   1.500 -1.9616 -0.4122  1.7367
  715TMC3    C110619   4.520   1.995   1.325 -0.0894 -0.8201 -0.6597
  715TMC3    C210620   4.535   1.860   1.351  0.7905 -0.0456 -0.5168
  715TMC3    C310621   4.653   1.819   1.408 -0.3688 -0.4367  0.1095
  715TMC3    C410622   4.612   2.085   1.365  0.0573  0.1690  0.7326
  715TMC3    C510623   4.733   2.036   1.405  0.2455 -0.2024 -0.4126
  715TMC3    C610624   0.024   1.907   1.427  0.1047  0.9676 -0.6043
  715TMC3     C10625   4.388   2.049   1.308  0.1277 -0.3768  0.3256
  715TMC3     O10626   4.319   1.998   1.221  0.6949 -0.8692 -0.1520
  715TMC3     H10627   4.450   1.802   1.318  2.2435 -2.2759 -0.3457
  715TMC3    H110628   4.598   2.192   1.356 -2.1122 -0.0471  1.6872
  715TMC3    H210629   0.117   1.868   1.465 -0.7485 -1.1929 -0.7275
  715TMC3    C710630   0.071   2.139   1.473  0.0349  0.1023  0.9349
  715TMC3    C810631   4.662   1.677   1.414  0.3239  0.6999  0.1613
  715TMC3    O110632   0.192   2.136   1.456 -0.4171  0.7663 -0.6788
  715TMC3    O210633   4.560   1.618   1.378  0.0301  0.1288 -0.1585
  716MPD2     C10634   3.057   3.787   9.301  0.0582 -0.0024 -0.2289
  716MPD2    C110635   2.935   3.752   9.239 -0.4665  0.5120  0.8850
  716MPD2    C210636   2.903   3.623   9.222  0.0297 -0.4786 -0.5118
  716MPD2    C310637   2.989   3.529   9.267 -0.4210  0.0737 -0.3502
  716MPD2    C410638   3.097   3.565   9.350  0.0071  0.2721  0.1023
  716MPD2    C510639   3.135   3.697   9.358  0.1349 -0.5422 -0.0244
  716MPD2     H10640   2.812   3.600   9.169 -1.0822  0.7713  0.8695
  716MPD2    H110641   3.166   3.496   9.396  0.1776  0.5517  0.2715
  716MPD2    H210642   3.086   3.892   9.302 -2.3623  0.6599  2.6567
  716MPD2    H310643   3.226   3.720   9.411 -0.8384  2.8606  0.2139
  716MPD2     N10644   2.955   3.392   9.251  0.5643  0.0629 -0.8947
  716MPD2    H510645   2.870   3.376   9.197  0.0280  0.9987 -0.3297
  716MPD2    N110646   2.856   3.855   9.185  0.2390  0.2885 -0.5590
  716MPD2    H710647   2.896   3.946   9.207  0.5460 -0.2574  1.1563
  717TMC3    C110648   2.945   3.145   9.279  0.4820 -0.2613  0.2961
  717TMC3    C210649   2.806   3.150   9.258  0.1303 -0.0535 -0.1186
  717TMC3    C310650   2.728   3.042   9.296  0.2435  0.3489 -0.1345
  717TMC3    C410651   3.007   3.033   9.321 -0.6032 -0.5183  0.1512
  717TMC3    C510652   2.929   2.919   9.358 -0.3358 -0.1026  0.7002
  717TMC3    C610653   2.785   2.924   9.354  0.6265 -0.5538  0.1933
  717TMC3     C10654   3.027   3.278   9.282  0.2972 -0.1350 -0.4355
  717TMC3     O10655   3.138   3.269   9.331 -0.4295 -0.0005  0.8701
  717TMC3     H10656   2.765   3.248   9.236  1.4348  0.9366  1.9155
  717TMC3    H110657   3.114   3.023   9.334 -0.4814 -0.5287 -0.9234
  717TMC3    H210658   2.718   2.844   9.386 -0.4302  0.0759 -0.4443
  717TMC3    C710659   2.998   2.830   9.447  0.9600  0.5433 -0.9119
  717TMC3    C810660   2.583   3.047   9.310 -0.2135  0.4329  0.6618
  717TMC3    O110661   3.097   2.876   9.501  0.0228  0.0050 -0.2312
  717TMC3    O210662   2.528   2.961   9.378 -0.0754  0.0106  0.0593
  718MPD2     C10663   3.205   2.845  12.885  0.0387 -0.2429 -0.3528
  718MPD2    C110664   3.167   2.840  12.751  0.1228 -0.3392  0.1407
  718MPD2    C210665   3.041   2.789  12.732  0.2827  0.1548  0.2101
  718MPD2    C310666   2.948   2.775  12.839  0.4253  0.2447  0.0931
  718MPD2    C410667   2.988   2.778  12.968  0.1173  0.3449  0.3327
  718MPD2    C510668   3.122   2.800  12.983 -0.0708  0.3223 -0.4197
  718MPD2     H10669   3.004   2.768  12.632  1.1863 -0.2091 -0.0465
  718MPD2    H110670   2.922   2.766  13.053  1.2984  1.6271  1.4330
  718MPD2    H210671   3.307   2.866  12.917  0.3771 -1.6560 -0.4863
  718MPD2    H310672   3.168   2.798  13.081  0.4091  1.1215 -0.6334
  718MPD2     N10673   2.815   2.754  12.797 -0.0508  0.0153 -0.0177
  718MPD2    H510674   2.808   2.751  12.695  0.6101  1.4486 -0.1086
  718MPD2    N110675   3.240   2.881  12.632 -0.4193 -0.0872 -0.0924
  718MPD2    H710676   3.196   2.876  12.541 -1.6849 -1.4720  0.5832
  719TMC3    C110677   3.398   3.001  12.511 -0.0959  0.0333 -0.4172
  719TMC3    C210678   3.313   2.972  12.412 -0.6157 -0.2510  0.2651
  719TMC3    C310679   3.244   3.073  12.348 -0.0804  0.1785  0.0617
  719TMC3    C410680   3.453   3.125  12.527 -0.8354  0.4858 -0.0967
  719TMC3    C510681   3.381   3.228  12.468 -0.2439 -0.1683  0.3178
  719TMC3    C610682   3.276   3.200  12.383 -0.0078 -0.3835 -0.3826
  719TMC3     C10683   3.361   2.938  12.637 -0.1111  0.2191  0.0075
  719TMC3     O10684   3.418   2.969  12.737 -0.7488 -0.0741  0.2640
  719TMC3     H10685   3.277   2.871  12.397 -0.8178  0.1731 -2.1877
  719TMC3    H110686   3.516   3.136  12.615 -0.6864  2.0059 -0.4047
  719TMC3    H210687   3.209   3.281  12.355  1.1297  0.3421 -0.9897
  719TMC3    C710688   3.437   3.364  12.471  0.0873  0.9281  0.0386
  719TMC3    C810689   3.104   3.043  12.347 -0.6695 -0.3109 -0.1508
  719TMC3    O110690   3.426   3.428  12.366  0.2091 -0.7721  0.0501
  719TMC3    O210691   3.073   2.938  12.399 -0.4546 -0.0267  0.3278
  720MPD2     C10692   1.782   4.734  14.243  0.1986  0.0713  0.5961
  720MPD2    C110693   1.876   0.066  14.173 -0.0756  0.0495 -0.2003
  720MPD2    C210694   1.985   0.118  14.244 -0.1064  0.4768 -0.6865
  720MPD2    C310695   2.002   0.098  14.377 -0.1840  0.0570 -0.0202
  720MPD2    C410696   1.902   0.034  14.446 -0.5968 -0.5802 -0.7741
  720MPD2    C510697   1.798   4.709  14.379 -0.3351  0.2483 -0.0558
  720MPD2     H10698   2.059   0.177  14.192  0.3361  0.2370 -0.3326
  720MPD2    H110699   1.896   0.016  14.553  1.7118  0.5885 -0.4401
  720MPD2    H210700   1.687   4.703  14.200  0.1159  1.3912 -0.1807
  720MPD2    H310701   1.722   4.660  14.438  0.9043 -0.6108  0.8366
  720MPD2     N10702   2.124   0.145  14.434  0.3189  0.5042 -0.3358
  720MPD2    H510703   2.183   0.200  14.371 -1.7547  1.5096 -1.4119
  720MPD2    N110704   1.856   0.082  14.032 -0.3089  0.0085  0.3769
  720MPD2    H710705   1.776   0.034  13.993  0.1349  0.1788 -0.7587
  721TMC3    C110706   2.271   0.230  14.592  0.1696  0.5726 -0.1556
  721TMC3    C210707   2.273   0.308  14.704 -0.2297  0.7668 -0.0494
  721TMC3    C310708   2.383   0.375  14.737  0.4352  0.0841 -0.4216
  721TMC3    C410709   2.379   0.207  14.514 -0.0281 -0.6739 -0.5850
  721TMC3    C510710   2.498   0.273  14.561 -0.0102 -0.0917 -0.2214
  721TMC3    C610711   2.493   0.371  14.658  0.4250 -0.0631  0.1126
  721TMC3     C10712   2.149   0.149  14.570 -0.5288 -0.2487  0.3737
  721TMC3     O10713   2.086   0.109  14.664 -0.3929 -0.0691  0.0814
  721TMC3     H10714   2.188   0.311  14.770 -1.9755 -0.0828 -2.2333
  721TMC3    H110715   2.376   0.141  14.429 -0.3274  2.1093 -2.7481
  721TMC3    H210716   2.587   0.414  14.689 -0.9544  3.6466 -0.8818
  721TMC3    C710717   2.630   0.230  14.514 -0.0023  0.1770 -0.6538
  721TMC3    C810718   2.396   0.402  14.878  0.7674 -0.2421  0.8346
  721TMC3    O110719   2.707   0.323  14.485 -0.2903 -0.5981  0.4683
  721TMC3    O210720   2.319   0.489  14.924  0.2822 -0.3543  0.2747
  722MPD2     C10721   0.441   3.573  13.849 -0.4746 -0.1413 -0.8754
  722MPD2    C110722   0.451   3.644  13.733 -0.0887 -0.9462 -0.0714
  722MPD2    C210723   0.346   3.631  13.637  0.5509 -0.3460 -0.8606
  722MPD2    C310724   0.241   3.543  13.659  0.3054 -0.8140  0.0696
  722MPD2    C410725   0.240   3.469  13.774 -0.0356  0.4412 -0.5501
  722MPD2    C510726   0.336   3.490  13.862  0.0703 -0.1694 -0.0610
  722MPD2     H10727   0.336   3.690  13.548 -1.8928 -1.0121 -1.0372
  722MPD2    H110728   0.156   3.404  13.797  0.3705  1.5065  3.9150
  722MPD2    H210729   0.515   3.573  13.928  1.6474  0.0587 -2.8547
  722MPD2    H310730   0.343   3.426  13.950  1.0482 -0.9468 -0.7022
  722MPD2     N10731   0.128   3.544  13.570  0.0401 -0.3242 -0.2409
  722MPD2    H510732   0.140   3.610  13.493  2.5040  0.0690  0.4761
  722MPD2    N110733   0.558   3.731  13.708 -0.1443  0.1253  0.4174
  722MPD2    H710734   0.543   3.791  13.627  1.3302 -1.2050 -0.8431
  723TMC3    C110735   4.666   3.506  13.461 -0.6058 -0.4381 -0.3001
  723TMC3    C210736   4.578   3.409  13.423  0.3686 -0.1636  0.1223
  723TMC3    C310737   4.485   3.436  13.328 -0.1048  0.2119 -0.1399
  723TMC3    C410738   4.676   3.625  13.390 -0.1015 -0.2288 -0.3835
  723TMC3    C510739   4.582   3.650  13.295  0.8744 -0.2436  0.2315
  723TMC3    C610740   4.482   3.557  13.262 -0.2421  0.2359  0.4792
  723TMC3     C10741   0.013   3.474  13.573 -0.0531 -0.4431 -0.9095
  723TMC3     O10742   4.714   3.391  13.649  0.0606  0.1155  0.0589
  723TMC3     H10743   4.591   3.308  13.459 -1.2348 -0.5043 -0.2449
  723TMC3    H110744   0.007   3.700  13.425 -0.2382 -1.3179  2.2608
  723TMC3    H210745   4.394   3.572  13.201 -1.6680  0.6085  2.6292
  723TMC3    C710746   4.545   3.795  13.279  0.4974  1.1051  0.1419
  723TMC3    C810747   4.403   3.323  13.282 -0.2470 -0.1828  0.5955
  723TMC3    O110748   4.596   3.880  13.350  0.2109  0.1018  0.5771
  723TMC3    O210749   4.378   3.331  13.163 -0.1540  0.7505 -0.2570
  724TMC3    C110750   0.302   1.791  11.323  0.4846  0.4478 -0.2395
  724TMC3    C210751   0.253   1.762  11.193 -0.8932  0.4813  0.6730
  724TMC3    C310752   0.309   1.824  11.085  0.1588 -0.1095  0.2399
  724TMC3    C410753   0.377   1.906  11.339 -0.2608  0.6971 -0.4993
  724TMC3    C510754   0.412   1.972  11.226  0.2047 -0.2387  0.1415
  724TMC3    C610755   0.382   1.931  11.098 -0.3116  0.1357  0.0354
  724TMC3     C10756   0.274   1.710  11.436  0.3377 -0.0230  0.4929
  724TMC3     O10757   0.312   1.755  11.541 -0.0184  0.4748 -0.0471
  724TMC3     H10758   0.204   1.666  11.181  1.2571 -0.7567  1.7931
  724TMC3    H110759   0.416   1.937  11.435  0.0952 -1.1038 -0.0691
  724TMC3    H210760   0.405   2.000  11.017  0.8873 -0.3861 -0.0682
  724TMC3    C710761   0.512   2.077  11.234  0.1574 -0.0575  0.4241
  724TMC3    C810762   0.253   1.794  10.954 -0.7953  1.2930 -0.0849
  724TMC3    O110763   0.574   2.089  11.128  0.0990 -0.4035  0.2798
  724TMC3    O210764   0.157   1.718  10.950 -0.0370  0.2913  0.1012
  725TMC3    C110765   2.751   0.506  12.937  0.2415  0.1313  0.7225
  725TMC3    C210766   2.640   0.580  12.898 -0.0987  0.4691 -0.2219
  725TMC3    C310767   2.551   0.513  12.822 -0.4961 -0.0676  0.0777
  725TMC3    C410768   2.772   0.379  12.902 -0.6768  0.0424 -0.1024
  725TMC3    C510769   2.682   0.321  12.823  0.5951 -0.0221  0.1535
  725TMC3    C610770   2.578   0.387  12.769 -0.3893 -0.4468  1.2912
  725TMC3     C10771   2.843   0.570  13.029 -0.0508 -0.4453 -0.3688
  725TMC3     O10772   2.826   0.688  13.041 -0.2624 -0.0474 -0.1502
  725TMC3     H10773   2.611   0.669  12.953 -2.9338 -1.3554  1.2623
  725TMC3    H110774   2.860   0.322  12.929  0.2029 -0.2391 -3.5525
  725TMC3    H210775   2.515   0.337  12.696 -0.5166  2.3832 -0.4981
  725TMC3    C710776   2.708   0.189  12.754 -0.1478  0.2998 -0.4104
  725TMC3    C810777   2.427   0.568  12.776  0.2345  0.2787 -0.5693
  725TMC3    O110778   2.634   0.168  12.658  0.5319  0.1281 -0.2959
  725TMC3    O210779   2.326   0.497  12.762  0.3223 -0.0066 -0.3307
  726MPD2     C10780   4.395   2.373  10.899 -0.6306 -0.7819  0.2521
  726MPD2    C110781   4.354   2.360  10.769  0.2505  0.4506  0.1106
  726MPD2    C210782   4.275   2.259  10.727 -0.9309  0.0389 -0.0384
  726MPD2    C310783   4.243   2.155  10.814 -0.1314  0.2583 -0.6702
  726MPD2    C410784   4.296   2.162  10.943  0.3694  1.4742  0.3317
  726MPD2    C510785   4.356   2.276  10.990  0.1819  0.5124  0.2454
  726MPD2     H10786   4.252   2.260  10.621  0.1886 -2.4759 -0.2994
  726MPD2    H110787   4.266   2.091  11.019  1.6565 -1.4636 -1.9218
  726MPD2    H210788   4.445   2.461  10.937  0.3942 -1.0442 -0.5171
  726MPD2    H310789   4.376   2.288  11.095  0.3388  0.8657  0.1751
  726MPD2     N10790   4.157   2.046  10.783 -0.3730  0.2866  0.4020
  726MPD2    H510791   4.138   1.989  10.864 -1.6060 -1.6899 -1.2944
  726MPD2    N110792   4.393   2.450  10.669  0.2169 -0.5445  0.1112
  726MPD2    H710793   4.366   2.416  10.577  1.2625  0.6594 -0.6344
  727TMC3    C110794   4.520   2.608  10.553  0.1382 -0.2093  0.1078
  727TMC3    C210795   4.640   2.671  10.536  0.3441 -0.2950  1.1323
  727TMC3    C310796   4.656   2.745  10.420 -0.6532 -0.0236  0.2877
  727TMC3    C410797   4.415   2.628  10.460  0.0644  0.1812 -0.1579
  727TMC3    C510798   4.440   2.698  10.344 -0.2361 -0.1174 -0.3572
  727TMC3    C610799   4.559   2.761  10.329 -0.3065  0.0288 -0.1680
  727TMC3     C10800   4.489   2.550  10.682 -0.0658 -0.1621 -0.0927
  727TMC3     O10801   4.554   2.587  10.776 -1.0035 -0.2833 -0.1863
  727TMC3     H10802   4.725   2.658  10.602  1.5803  0.4822 -0.3072
  727TMC3    H110803   4.317   2.584  10.474  0.2816 -0.0414  0.6682
  727TMC3    H210804   4.577   2.805  10.232  0.5573 -1.7592 -0.8268
  727TMC3    C710805   4.382   2.625  10.225 -0.4304  0.5953  0.2028
  727TMC3    C810806   0.026   2.846  10.434  0.2946  0.5703 -0.5476
  727TMC3    O110807   4.324   2.522  10.247 -0.2065  0.2279  0.0795
  727TMC3    O210808   0.097   2.843  10.534 -0.5085 -0.2655  0.6607
  728TMC3    C110809   4.617   0.781  15.515  0.0089 -0.0537  0.2265
  728TMC3    C210810   4.733   0.807  15.451  0.0631  0.6231 -0.0524
  728TMC3    C310811   4.737   0.910  15.364 -0.5840  1.2804 -0.4780
  728TMC3    C410812   4.503   0.846  15.491 -0.2579  0.2178 -0.2618
  728TMC3    C510813   4.508   0.947  15.394  0.4168 -0.2824  0.1372
  728TMC3    C610814   4.624   0.979  15.327  0.1488  0.2121  0.0852
  728TMC3     C10815   4.635   0.714  15.639 -0.0898  0.7728  0.3346
  728TMC3     O10816   0.003   0.738  15.695 -0.2536  0.5786  0.1012
  728TMC3     H10817   0.087   0.764  15.486 -1.1180 -1.0411  1.0842
  728TMC3    H110818   4.421   0.838  15.562 -0.5218 -2.0969 -0.8405
  728TMC3    H210819   4.616   1.056  15.251 -0.9600 -0.4283 -0.4443
  728TMC3    C710820   4.386   0.950  15.312 -0.2905  0.2620 -0.6762
  728TMC3    C810821   0.094   0.921  15.254  0.5741  0.6155  0.5341
  728TMC3    O110822   4.301   0.870  15.335  0.1827  0.0651  0.7994
  728TMC3    O210823   0.056   0.974  15.153 -0.4639 -0.7175 -0.3462
  729MPD2     C10824   1.925   2.133  16.952 -0.3021  0.3656  0.1848
  729MPD2    C110825   2.051   2.116  16.901 -0.3615 -1.2225  0.6257
  729MPD2    C210826   2.161   2.148  16.978  0.8100  0.3843 -0.1906
  729MPD2    C310827   2.140   2.182  17.109  0.6819 -0.1390 -0.5296
  729MPD2    C410828   2.009   2.186  17.158  0.0652 -0.3464  0.1662
  729MPD2    C510829   1.903   2.160  17.084  0.5995 -0.3603  0.4027
  729MPD2     H10830   2.266   2.141  16.949  0.8590 -0.0411  0.1024
  729MPD2    H110831   1.982   2.203  17.262 -2.7620 -0.5040 -0.5344
  729MPD2    H210832   1.838   2.119  16.890  0.5490  0.3696 -1.0060
  729MPD2    H310833   1.803   2.164  17.125  0.7635 -0.5160  0.8163
  729MPD2     N10834   2.240   2.241  17.187  0.2179 -0.1580  0.1148
  729MPD2    H510835   2.198   2.293  17.263 -2.3585 -1.4617 -0.4058
  729MPD2    N110836   2.063   2.081  16.763  0.1676  0.8604  0.4353
  729MPD2    H710837   1.979   2.085  16.707  0.9290 -0.4201 -0.7986
  730TMC3    C110838   2.439   2.346  17.251  0.2724 -0.3421 -0.5853
  730TMC3    C210839   2.511   2.444  17.189 -0.2082 -0.5280  0.4411
  730TMC3    C310840   2.538   2.556  17.259 -0.7577 -0.3804 -0.1400
  730TMC3    C410841   2.382   2.363  17.375  0.0083 -0.4524 -0.2234
  730TMC3    C510842   2.401   2.484  17.437  0.4046 -0.2486 -0.4115
  730TMC3    C610843   2.477   2.580  17.379 -0.3637 -0.0390  0.4898
  730TMC3     C10844   2.373   2.248  17.161  0.4661  0.2628 -0.0089
  730TMC3     O10845   2.449   2.202  17.078 -0.0777 -0.0679 -0.2172
  730TMC3     H10846   2.545   2.422  17.088 -0.8585 -0.5028  0.2155
  730TMC3    H110847   2.315   2.285  17.410 -0.4791  0.7896  1.6000
  730TMC3    H210848   2.505   2.664  17.443 -0.9999  0.5732 -0.0332
  730TMC3    C710849   2.262   2.529  17.449  0.4658 -0.4529 -1.0664
  730TMC3    C810850   2.604   2.661  17.187 -0.1731 -0.3260  0.9004
  730TMC3    O110851   2.185   2.479  17.370 -0.2930 -0.0594  0.0445
  730TMC3    O210852   2.673   2.633  17.089 -1.3830  0.4932 -0.2210
  731MPD2     C10853   1.416   0.273  12.611 -0.1541 -0.3397  0.3575
  731MPD2    C110854   1.553   0.290  12.608  0.6873  0.4883 -0.5053
  731MPD2    C210855   1.634   0.250  12.713  0.5488 -0.1166 -0.2762
  731MPD2    C310856   1.572   0.210  12.830 -0.1033  0.0750 -0.0372
  731MPD2    C410857   1.432   0.197  12.836 -0.3643  0.0556 -0.2582
  731MPD2    C510858   1.358   0.228  12.727 -0.1840  0.0062 -0.0593
  731MPD2     H10859   1.742   0.255  12.703  0.2669  1.6377 -2.5697
  731MPD2    H110860   1.383   0.164  12.927  1.1923 -0.5224  0.3835
  731MPD2    H210861   1.344   0.321  12.546  0.9547 -1.2043 -1.4879
  731MPD2    H310862   1.250   0.235  12.736 -0.3140  0.2941 -1.8572
  731MPD2     N10863   1.655   0.163  12.931 -0.2347  0.4825  0.7158
  731MPD2    H510864   1.754   0.172  12.911 -0.4272  1.0992  0.0118
  731MPD2    N110865   1.597   0.331  12.480 -0.2377  0.2813  0.6625
  731MPD2    H710866   1.531   0.332  12.404  1.5563  2.1676 -0.8761
  732TMC3    C110867   1.741   0.418  12.305 -0.2388  0.1767  0.3977
  732TMC3    C210868   1.648   0.417  12.207 -0.0684  0.0805 -1.0177
  732TMC3    C310869   1.668   0.483  12.087  0.0593  0.7262  0.0228
  732TMC3    C410870   1.864   0.478  12.275 -0.0026 -0.2005 -0.1800
  732TMC3    C510871   1.883   0.533  12.150 -0.2558 -0.0567  0.0197
  732TMC3    C610872   1.784   0.534  12.051 -0.2724 -1.0903  0.1375
  732TMC3     C10873   1.723   0.375  12.443 -0.1768 -0.1978 -0.4794
  732TMC3     O10874   1.831   0.372  12.506 -0.2619  0.5254  0.1795
  732TMC3     H10875   1.565   0.356  12.240  0.7737 -0.2913  0.4000
  732TMC3    H110876   1.940   0.495  12.351 -0.4546 -0.5119  0.3504
  732TMC3    H210877   1.815   0.571  11.954  0.2865  0.7306  1.0144
  732TMC3    C710878   2.017   0.537  12.087  0.0599 -0.2878 -0.3332
  732TMC3    C810879   1.595   0.427  11.974  0.0024 -0.1172  0.0095
  732TMC3    O110880   2.034   0.619  11.996  0.2359 -0.3679  0.3649
  732TMC3    O210881   1.641   0.444  11.864 -0.3709  0.1381  0.2753
  733TMC3    C110882   2.337   2.755  12.764  0.1491  0.5221  0.2913
  733TMC3    C210883   2.455   2.717  12.825 -0.3703  0.2754 -0.7168
  733TMC3    C310884   2.576   2.774  12.790 -0.1282 -0.2180 -0.1886
  733TMC3    C410885   2.345   2.846  12.663  0.4884 -0.3055  0.1180
  733TMC3    C510886   2.464   2.886  12.624 -0.5037  0.2311 -0.1530
  733TMC3    C610887   2.584   2.859  12.689 -0.1423 -0.3774 -0.4127
  733TMC3     C10888   2.210   2.730  12.832  0.8448  0.0806  0.0027
  733TMC3     O10889   2.128   2.820  12.821 -0.5317  0.1874  1.1143
  733TMC3     H10890   2.453   2.656  12.915 -0.6552  2.6924  0.9213
  733TMC3    H110891   2.255   2.886  12.618 -0.6594 -0.6941  2.0971
  733TMC3    H210892   2.673   2.918  12.673 -0.2562 -0.2895 -0.7080
  733TMC3    C710893   2.482   2.978  12.511 -0.0057  0.1788  0.1339
  733TMC3    C810894   2.698   2.754  12.871 -0.3380  0.5832 -0.6142
  733TMC3    O110895   2.387   3.047  12.474 -0.4103 -0.3741 -0.0910
  733TMC3    O210896   2.679   2.724  12.988 -0.2209 -0.6200  0.0598
  734MPD2     C10897   4.126   0.628  12.981 -0.3730  0.1308  0.0499
  734MPD2    C110898   4.124   0.561  12.865 -0.2075  0.1342  0.1247
  734MPD2    C210899   4.141   0.626  12.743 -0.2525 -0.2623  0.1279
  734MPD2    C310900   4.171   0.759  12.743  0.5750  0.3115  0.5591
  734MPD2    C410901   4.164   0.834  12.861  0.1513 -0.3963  0.2175
  734MPD2    C510902   4.146   0.766  12.981  0.6289 -0.5823 -0.3111
  734MPD2     H10903   4.141   0.571  12.650  0.8635 -0.7133  0.4042
  734MPD2    H110904   4.175   0.942  12.868  0.6441 -0.5488  1.8595
  734MPD2    H210905   4.116   0.575  13.075  0.2759  0.0857  0.0984
  734MPD2    H310906   4.139   0.814  13.078 -0.2883 -0.7979 -0.2639
  734MPD2     N10907   4.180   0.817  12.615  0.0281 -0.3398 -0.0126
  734MPD2    H510908   4.172   0.743  12.546  0.8037 -0.5793  0.1550
  734MPD2    N110909   4.104   0.425  12.867 -0.3404  0.0705  0.6871
  734MPD2    H710910   4.141   0.374  12.947 -0.0141 -0.0720  0.4424
  735TMC3    C110911   4.032   0.206  12.804 -0.6810 -0.3386 -0.1625
  735TMC3    C210912   3.950   0.152  12.711 -0.4540 -1.0289  0.6347
  735TMC3    C310913   3.992   0.056  12.621  0.0179 -0.5870  0.1770
  735TMC3    C410914   4.156   0.151  12.818  0.5887 -0.2641  1.1882
  735TMC3    C510915   4.198   0.054  12.729 -0.1268  0.3460 -0.4995
  735TMC3    C610916   4.117   0.006  12.634  0.3258 -0.1883  0.4589
  735TMC3     C10917   4.031   0.347  12.781  0.2545  0.3088  0.0458
  735TMC3     O10918   3.980   0.388  12.676  0.0454  0.0887 -0.0918
  735TMC3     H10919   3.849   0.190  12.695  0.0898  0.6870  1.2942
  735TMC3    H110920   4.223   0.174  12.900  1.2891  2.0565 -0.0281
  735TMC3    H210921   4.156   4.678  12.559  0.8258  0.4451  0.1475
  735TMC3    C710922   4.344   0.021  12.726  0.3237 -0.0811  0.1022
  735TMC3    C810923   3.971   0.088  12.482  0.2557 -0.1746  0.0865
  735TMC3    O110924   4.419   0.080  12.796  0.1431 -0.3844 -0.1249
  735TMC3    O210925   4.007   0.004  12.402  0.5533 -0.1326 -0.3404
  736MPD2     C10926   4.489   4.431  12.698  0.3901 -0.4140  0.5850
  736MPD2    C110927   4.486   4.572  12.688 -0.5913  0.0659  0.2055
  736MPD2    C210928   4.601   4.643  12.661  0.5920 -0.0205 -0.8283
  736MPD2    C310929   4.715   4.566  12.645 -0.4776  0.6900  0.4295
  736MPD2    C410930   4.713   4.427  12.654 -0.5272 -0.0438 -0.0089
  736MPD2    C510931   4.602   4.356  12.680  0.5552 -0.5930  0.2475
  736MPD2     H10932   4.599   0.012  12.662 -1.1566 -0.0558  0.1523
  736MPD2    H110933   0.066   4.372  12.644 -0.7274 -0.5152  0.7948
  736MPD2    H210934   4.396   4.377  12.709  0.2177 -0.6133 -1.7636
  736MPD2    H310935   4.583   4.250  12.693  0.3318 -0.6176 -0.2586
  736MPD2     N10936   0.097   4.623  12.613  0.4378  0.0605 -0.2922
  736MPD2    H510937   0.172   4.561  12.584 -1.4511 -0.9862 -2.9657
  736MPD2    N110938   4.362   4.628  12.700  0.1004  0.6262  0.0477
  736MPD2    H710939   4.279   4.569  12.702 -0.3536  1.2817  0.4224
  737TMC3    C110940   0.229   0.043  12.502 -0.1323 -0.2661  0.2197
  737TMC3    C210941   0.214   0.158  12.436 -0.1377 -0.2135  0.3849
  737TMC3    C310942   0.267   0.174  12.311 -0.0799 -0.0072 -0.1702
  737TMC3    C410943   0.283   4.674  12.435  0.3842 -0.2755  0.2724
  737TMC3    C510944   0.342   4.694  12.308  0.9958  0.9532 -0.2425
  737TMC3    C610945   0.339   0.079  12.252 -0.1136  0.7474 -0.0605
  737TMC3     C10946   0.117   0.016  12.595 -0.7668 -0.4483 -0.2396
  737TMC3     O10947   0.056   0.111  12.637 -0.6046 -1.0193  0.2685
  737TMC3     H10948   0.166   0.236  12.493  0.3650  0.4822 -0.1557
  737TMC3    H110949   0.305   4.582  12.487 -1.4750 -0.9411 -0.1084
  737TMC3    H210950   0.368   0.090  12.148  2.8410 -0.4869  0.6408
  737TMC3    C710951   0.401   4.579  12.242  0.4122  0.9241  0.0099
  737TMC3    C810952   0.254   0.307  12.249  0.3020  0.1901  0.5206
  737TMC3    O110953   0.397   4.476  12.310  0.2690  0.2520  0.1787
  737TMC3    O210954   0.205   0.393  12.320 -0.5367 -0.7020  0.1663
  738MPD2     C10955   0.544   3.992  15.038  0.2823 -0.4586 -1.2949
  738MPD2    C110956   0.613   3.887  15.099 -0.1528 -0.2089  0.4095
  738MPD2    C210957   0.749   3.903  15.120  0.2321 -0.0635  0.2455
  738MPD2    C310958   0.817   4.012  15.081  1.0332 -0.2927  0.1337
  738MPD2    C410959   0.753   4.095  14.997  0.1785 -0.7535  0.1584
  738MPD2    C510960   0.614   4.095  14.978  0.2353 -0.1056  0.2873
  738MPD2     H10961   0.806   3.821  15.163  1.5688  0.4963 -0.4585
  738MPD2    H110962   0.815   4.172  14.952 -0.2488 -0.3408  0.2735
  738MPD2    H210963   0.436   3.987  15.034  0.2516 -0.5462 -0.2696
  738MPD2    H310964   0.565   4.175  14.923 -0.7059 -1.9720 -1.6121
  738MPD2     N10965   0.953   4.037  15.110 -0.3005 -0.3704  0.1217
  738MPD2    H510966   0.996   4.124  15.078  1.3089 -1.7207 -1.3591
  738MPD2    N110967   0.554   3.765  15.131 -0.2495 -0.2968 -0.5741
  738MPD2    H710968   0.613   3.691  15.168 -1.3179  0.0573  1.8033
  739TMC3    C110969   1.177   4.001  15.204 -0.0128 -0.2470 -0.2833
  739TMC3    C210970   1.218   4.074  15.096  0.3180 -0.5402  0.1959
  739TMC3    C310971   1.354   4.087  15.070  0.0343 -0.4571 -0.3101
  739TMC3    C410972   1.259   3.931  15.283 -0.8396  0.2796 -0.2520
  739TMC3    C510973   1.393   3.949  15.256  0.8385  0.0418 -0.1761
  739TMC3    C610974   1.443   4.020  15.146  0.9434 -0.5351 -0.2851
  739TMC3     C10975   1.035   3.965  15.198 -0.2659  0.6038 -0.2782
  739TMC3     O10976   1.005   3.866  15.265  0.6285 -0.0825  0.5041
  739TMC3     H10977   1.159   4.149  15.046  0.4714 -0.4003  0.2266
  739TMC3    H110978   1.228   3.868  15.366 -0.9812  0.7631  0.0593
  739TMC3    H210979   1.547   4.020  15.114  0.6205  0.5144 -1.3741
  739TMC3    C710980   1.479   3.916  15.368 -0.0405  0.2360  0.7652
  739TMC3    C810981   1.392   4.157  14.946  0.1194 -0.0762  0.8886
  739TMC3    O110982   1.437   3.907  15.482 -0.1134 -0.4674 -0.9713
  739TMC3    O210983   1.300   4.211  14.883  0.1209  0.5455 -0.5592
  740TMC3    C110984   1.671   0.592  14.413  0.0921  0.0804 -0.5562
  740TMC3    C210985   1.714   0.519  14.517  0.0224  0.2296 -0.5357
  740TMC3    C310986   1.809   0.428  14.494  0.4882  0.1058  0.6223
  740TMC3    C410987   1.722   0.583  14.283  1.3935 -0.4499 -0.1875
  740TMC3    C510988   1.817   0.487  14.258 -0.0717 -0.0477  0.7116
  740TMC3    C610989   1.861   0.412  14.368 -0.3368  0.9425 -0.4794
  740TMC3     C10990   1.566   0.689  14.438  0.1555 -0.9242 -0.4204
  740TMC3     O10991   1.554   0.777  14.351 -0.4514 -0.2366  0.5517
  740TMC3     H10992   1.695   0.545  14.620 -3.8580 -2.9406 -0.4703
  740TMC3    H110993   1.685   0.652  14.208 -1.2825 -1.1493  0.4986
  740TMC3    H210994   1.943   0.341  14.361  0.2664  1.8171 -2.3005
  740TMC3    C710995   1.922   0.514  14.154  0.1087  0.0895 -0.0822
  740TMC3    C810996   1.906   0.408  14.601 -0.2501 -0.0993 -0.2585
  740TMC3    O110997   2.037   0.504  14.195 -0.2194  0.0116  0.3966
  740TMC3    O210998   2.017   0.460  14.595  0.5456  0.0813 -0.0955
  741TMC3    C110999   1.289   4.640  14.595  0.1730 -0.0477 -0.3030
  741TMC3    C211000   1.162   4.589  14.602 -0.2843 -0.5563 -1.0682
  741TMC3    C311001   1.141   4.515  14.714 -0.8484  0.5984 -0.3679
  741TMC3    C411002   1.387   4.625  14.689  0.3375 -0.3360  0.6347
  741TMC3    C511003   1.359   4.545  14.797  0.1148  0.0693  0.4799
  741TMC3    C611004   1.232   4.486  14.816 -0.1337 -0.2475  0.3418
  741TMC3     C11005   1.340   4.680  14.458 -0.0986  0.0307  0.0327
  741TMC3     O11006   1.464   4.676  14.439 -0.1889  0.4639 -0.6510
  741TMC3     H11007   1.080   4.597  14.532 -2.3393 -1.6537  1.2093
  741TMC3    H111008   1.489   4.656  14.669 -0.5172  1.7486 -0.5317
  741TMC3    H211009   1.198   4.421  14.895  0.9359 -0.3278  0.7381
  741TMC3    C711010   1.454   4.535  14.901  0.3041  0.2504 -0.7192
  741TMC3    C811011   1.022   4.425  14.715  0.2912  0.1968 -0.6805
  741TMC3    O111012   1.569   4.565  14.867  0.2263  0.7714 -0.7598
  741TMC3    O211013   0.925   4.464  14.652 -0.0224  0.2119  0.6575
  742TMC3    C111014   1.122   3.231  15.640 -0.0290 -0.2988  0.2607
  742TMC3    C211015   1.027   3.248  15.549 -0.3904  0.3024  0.3544
  742TMC3    C311016   1.068   3.237  15.416 -0.0821 -0.0674  0.0774
  742TMC3    C411017   1.253   3.206  15.616  0.2098  0.0083  0.2553
  742TMC3    C511018   1.296   3.210  15.486  0.0385  0.0555  0.1997
  742TMC3    C611019   1.200   3.204  15.388  0.3370 -0.2884  0.3258
  742TMC3     C11020   1.075   3.228  15.781  0.5587 -0.4501 -0.5433
  742TMC3     O11021   0.977   3.162  15.810  0.1508 -0.5195 -0.1405
  742TMC3     H11022   0.937   3.300  15.580 -0.6765  0.5123 -0.8407
  742TMC3    H111023   1.311   3.170  15.700 -0.3090 -2.5426 -0.4879
  742TMC3    H211024   1.220   3.202  15.281 -0.8161 -0.6150  0.1158
  742TMC3    C711025   1.428   3.162  15.447 -0.4102 -0.3122  0.5144
  742TMC3    C811026   0.990   3.309  15.327  0.2271  0.0355  0.2050
  742TMC3    O111027   1.441   3.072  15.366  0.1843 -0.7038  1.0528
  742TMC3    O211028   0.972   3.426  15.349  0.0907 -0.1639  0.3719
  743MPD2     C11029   3.944   3.755   1.751  0.2325  0.5426  0.2163
  743MPD2    C111030   3.999   3.865   1.689  0.2628  0.4400  0.1297
  743MPD2    C211031   4.136   3.873   1.674 -0.5200  0.0891 -0.4952
  743MPD2    C311032   4.218   3.775   1.727 -0.6997 -0.0809 -0.8819
  743MPD2    C411033   4.157   3.661   1.777  0.2836 -0.5757 -0.1134
  743MPD2    C511034   4.026   3.657   1.795 -0.4786 -0.0635 -0.7882
  743MPD2     H11035   4.178   3.965   1.633 -2.6279  0.4538 -1.8300
  743MPD2    H111036   4.211   3.570   1.799 -0.8266 -0.9800  0.9649
  743MPD2    H211037   3.838   3.742   1.770  0.2998  0.4971  0.5634
  743MPD2    H311038   3.978   3.573   1.844 -1.5779  0.8595 -0.2799
  743MPD2     N11039   4.359   3.803   1.712  0.3242 -0.5234 -0.3099
  743MPD2    H511040   4.380   3.881   1.651  0.2741  0.6282  1.1411
  743MPD2    N111041   3.901   3.944   1.629 -0.4036  0.6129  0.6990
  743MPD2    H711042   3.809   3.924   1.668 -1.5102  0.4195 -2.0059
  744TMC3    C111043   3.791   4.144   1.584 -0.8574  0.3790  0.0975
  744TMC3    C211044   3.805   4.269   1.644 -0.3335 -0.4353  0.0665
  744TMC3    C311045   3.720   4.366   1.612 -0.4524 -0.2236  0.3628
  744TMC3    C411046   3.699   4.123   1.494  0.0005  0.0491  0.5128
  744TMC3    C511047   3.645   4.234   1.439  0.3117  0.4244  0.6943
  744TMC3    C611048   3.638   4.355   1.503 -0.8590  0.1390 -0.3690
  744TMC3     C11049   3.916   4.066   1.577  0.2624  0.5916 -0.7428
  744TMC3     O11050   4.017   4.128   1.546 -0.2667 -0.5509 -0.2391
  744TMC3     H11051   3.885   4.270   1.717 -0.6119 -0.4603  0.3711
  744TMC3    H111052   3.705   4.032   1.435  0.7579 -0.1845  0.9435
  744TMC3    H211053   3.586   4.446   1.474 -1.1184  1.0873  3.0266
  744TMC3    C711054   3.611   4.248   1.302 -0.0343  0.2418  0.1939
  744TMC3    C811055   3.734   4.498   1.674  0.1729  0.0052  0.1913
  744TMC3    O111056   3.605   4.356   1.244  0.3188  0.1093  0.0569
  744TMC3    O211057   3.648   4.575   1.626  0.2894 -0.3681  0.0619
  745TMC3    C111058   1.140   2.680  14.064 -0.0686 -0.1303  1.4282
  745TMC3    C211059   1.041   2.658  14.155 -0.3720 -0.5554 -0.3583
  745TMC3    C311060   0.915   2.703  14.130 -0.4354 -1.2061  0.8453
  745TMC3    C411061   1.117   2.743  13.941 -0.5297  0.4051  0.7564
  745TMC3    C511062   0.988   2.788  13.920  0.0627  0.2434 -0.2977
  745TMC3    C611063   0.887   2.769  14.009  0.1013  0.2929 -0.2613
  745TMC3     C11064   1.277   2.680  14.114  0.1727  0.7004  0.0986
  745TMC3     O11065   1.306   2.628  14.219  0.6223  0.2558  0.5383
  745TMC3     H11066   1.061   2.618  14.253 -2.6767  0.1651  0.4161
  745TMC3    H111067   1.196   2.753  13.868  0.1131 -2.9805  0.9561
  745TMC3    H211068   0.790   2.814  13.993 -0.6590 -0.8118  1.3097
  745TMC3    C711069   0.964   2.877  13.797 -0.2725  0.0558  0.3907
  745TMC3    C811070   0.868   2.785  14.243 -0.0768 -0.0189  0.5660
  745TMC3    O111071   0.852   2.924  13.788 -0.4567 -0.3490  0.1589
  745TMC3    O211072   0.752   2.830  14.243  0.4317 -0.3113  0.1977
  746TMC3    C111073   3.662   4.448  11.208 -0.9345  0.8195  0.2612
  746TMC3    C211074   3.736   4.463  11.091 -0.1078  0.2771  0.5189
  746TMC3    C311075   3.689   4.404  10.979  0.1672 -0.2307 -0.0953
  746TMC3    C411076   3.543   4.382  11.212 -0.1253  0.0266 -0.3399
  746TMC3    C511077   3.495   4.344  11.085  0.0557  0.3002  0.8147
  746TMC3    C611078   3.566   4.351  10.968 -0.4850 -0.3694  0.5083
  746TMC3     C11079   3.685   4.541  11.319 -0.0523  0.6546 -0.2712
  746TMC3     O11080   3.609   4.542  11.414 -0.0868 -0.1114  0.1816
  746TMC3     H11081   3.840   4.494  11.099  0.2346 -0.5839 -0.5972
  746TMC3    H111082   3.482   4.377  11.301  1.9205 -2.3826  0.9253
  746TMC3    H211083   3.539   4.312  10.871  0.3148  0.3400  0.0041
  746TMC3    C711084   3.391   4.241  11.090 -0.3490  0.6212  0.1906
  746TMC3    C811085   3.759   4.461  10.865 -0.0262 -1.0151  0.2294
  746TMC3    O111086   3.361   4.205  10.978 -0.2253 -0.3575  0.5755
  746TMC3    O211087   3.883   4.456  10.876 -0.0600 -0.3624 -0.1210
  747TMC3    C111088   1.011   4.567  11.373  0.0339  0.2260 -0.7265
  747TMC3    C211089   0.915   4.499  11.450  0.5279 -0.3233 -0.0130
  747TMC3    C311090   0.873   4.560  11.567  0.0412  0.1862 -0.6945
  747TMC3    C411091   1.055   4.688  11.410  0.0534 -0.6623  0.3792
  747TMC3    C511092   1.019   4.739  11.537  0.2224  0.0959  0.5972
  747TMC3    C611093   0.931   4.678  11.624 -0.3946 -0.7674  0.8247
  747TMC3     C11094   1.039   4.525  11.237 -0.0139  0.2835 -0.5097
  747TMC3     O11095   1.076   4.607  11.157  0.0109  0.4466 -0.4241
  747TMC3     H11096   0.867   4.410  11.413 -0.8509 -0.1586  1.4181
  747TMC3    H111097   1.104   0.003  11.330 -3.6638 -0.0486 -1.4848
  747TMC3    H211098   0.930   4.716  11.725  0.7337  2.7435 -0.4837
  747TMC3    C711099   1.050   0.136  11.558  0.1584  1.1455  0.5605
  747TMC3    C811100   0.802   4.466  11.647 -0.0753 -0.1967  0.3043
  747TMC3    O111101   0.977   0.191  11.634 -0.1084 -0.3181 -0.1501
  747TMC3    O211102   0.776   4.353  11.604  0.4168 -0.1629 -0.7741
  748MPD2     C11103   3.702   1.682   1.812  0.0474 -0.0091  0.6579
  748MPD2    C111104   3.716   1.546   1.780  0.1577  0.2073 -0.2147
  748MPD2    C211105   3.717   1.499   1.649 -0.4212 -0.6892  0.3579
  748MPD2    C311106   3.715   1.586   1.541  0.0529 -0.3969  0.4860
  748MPD2    C411107   3.699   1.722   1.569 -0.2606 -0.5166  0.1605
  748MPD2    C511108   3.691   1.765   1.702 -0.7645  0.1753  0.4054
  748MPD2     H11109   3.735   1.395   1.627 -0.8624 -0.1824 -2.4300
  748MPD2    H111110   3.691   1.798   1.493  0.2874 -1.1831 -0.5712
  748MPD2    H211111   3.704   1.716   1.915 -3.6709  0.3678  0.6087
  748MPD2    H311112   3.673   1.869   1.728  1.7999  0.5290  0.7724
  748MPD2     N11113   3.735   1.535   1.406  0.1544 -0.0561  0.2160
  748MPD2    H511114   3.762   1.437   1.406 -0.7842 -0.3171  0.6192
  748MPD2    N111115   3.731   1.456   1.891 -0.4267 -0.4312  0.0887
  748MPD2    H711116   3.752   1.508   1.976 -2.9583  1.6558 -0.5531
  749TMC3    C111117   3.772   1.539   1.176  0.6594 -0.5011  1.0376
  749TMC3    C211118   3.815   1.409   1.184 -0.4180 -0.0150 -0.0517
  749TMC3    C311119   3.865   1.353   1.069  0.2167 -0.3718  1.1112
  749TMC3    C411120   3.787   1.608   1.064  0.0031  0.5538  0.3215
  749TMC3    C511121   3.819   1.550   0.947 -0.3969  0.1654  0.3169
  749TMC3    C611122   3.859   1.414   0.946 -0.1392  0.0447  0.8319
  749TMC3     C11123   3.751   1.614   1.296  0.0712  0.0290  0.0993
  749TMC3     O11124   3.724   1.734   1.286  0.3529  0.7691 -0.3298
  749TMC3     H11125   3.817   1.353   1.277  1.7146  2.6041  1.4492
  749TMC3    H111126   3.769   1.714   1.073  1.7239  0.6549  2.7304
  749TMC3    H211127   3.909   1.375   0.858 -0.0603  0.7061  0.5844
  749TMC3    C711128   3.887   1.640   0.863  0.1831 -0.1573 -0.1640
  749TMC3    C811129   3.939   1.229   1.086  0.3609 -0.5541  0.3226
  749TMC3    O111130   3.927   1.742   0.918 -0.5642 -0.2328  0.6956
  749TMC3    O211131   3.933   1.135   1.003  0.4064  0.1072 -0.5498
  750MPD2     C11132   3.357   1.600  11.596 -0.5709 -0.7382  0.4764
  750MPD2    C111133   3.235   1.539  11.602  0.3191  0.6495 -0.1120
  750MPD2    C211134   3.220   1.414  11.544  0.0560  0.2327  0.4608
  750MPD2    C311135   3.319   1.360  11.470 -0.2631  0.8304 -0.3648
  750MPD2    C411136   3.439   1.426  11.459 -0.2338  0.0040 -0.0432
  750MPD2    C511137   3.457   1.544  11.529  0.1295 -0.1742 -0.1303
  750MPD2     H11138   3.126   1.360  11.550  0.9644 -1.2432  1.4353
  750MPD2    H111139   3.521   1.388  11.399 -0.1298  0.5590 -0.2513
  750MPD2    H211140   3.374   1.702  11.627  1.1697 -1.0337  0.5073
  750MPD2    H311141   3.557   1.586  11.538  0.7135 -1.3505 -1.2692
  750MPD2     N11142   3.307   1.237  11.397 -0.2877  0.4226  0.3525
  750MPD2    H511143   3.392   1.208  11.351 -1.6490 -1.7047 -0.7902
  750MPD2    N111144   3.128   1.616  11.652 -0.4900  0.0622 -0.4261
  750MPD2    H711145   3.153   1.713  11.671  0.2213 -0.3072  0.5460
  751TMC3    C111146   3.219   1.027  11.324  0.3533 -0.2870 -0.0015
  751TMC3    C211147   3.140   0.916  11.342 -0.2302 -0.0984 -0.5292
  751TMC3    C311148   3.159   0.808  11.261 -0.8247 -0.0438  0.1727
  751TMC3    C411149   3.317   1.019  11.230  0.2818  0.6984 -0.1620
  751TMC3    C511150   3.337   0.911  11.151 -0.3744 -0.7417 -0.0668
  751TMC3    C611151   3.257   0.803  11.163  0.1467  0.2869  0.4392
  751TMC3     C11152   3.202   1.143  11.403  0.1578  0.7861 -0.3980
  751TMC3     O11153   3.098   1.153  11.469  0.4867 -0.1481 -0.4397
  751TMC3     H11154   3.057   0.924  11.412 -0.1164 -0.5212 -0.3467
  751TMC3    H111155   3.386   1.101  11.217  3.3535 -1.4748  2.5846
  751TMC3    H211156   3.285   0.709  11.116  0.8312 -0.6959  2.7945
  751TMC3    C711157   3.440   0.919  11.043  0.3264 -0.5994  0.0358
  751TMC3    C811158   3.059   0.697  11.252  0.5045  0.8512  0.0068
  751TMC3    O111159   3.532   1.000  11.056  0.2818  0.4753  0.0740
  751TMC3    O211160   3.059   0.621  11.155  0.1432  0.5890 -0.5183
  752TMC3    C111161   2.762   2.242  17.253 -0.4215  0.2627  0.1439
  752TMC3    C211162   2.696   2.135  17.312 -0.1146 -0.3564  0.1700
  752TMC3    C311163   2.675   2.139  17.448 -1.0335 -0.8169  0.0729
  752TMC3    C411164   2.795   2.354  17.327  0.2721  0.6630  0.3714
  752TMC3    C511165   2.755   2.348  17.463  0.0279 -0.5137 -0.3008
  752TMC3    C611166   2.705   2.241  17.530 -0.3376 -0.9417 -0.0377
  752TMC3     C11167   2.815   2.240  17.120  0.0207  0.2825 -0.4657
  752TMC3     O11168   2.906   2.314  17.085  0.2035  0.1294 -0.6534
  752TMC3     H11169   2.682   2.046  17.252  4.3599 -2.1606  1.8059
  752TMC3    H111170   2.858   2.433  17.287  1.3285 -0.9123 -1.0260
  752TMC3    H211171   2.659   2.241  17.627 -2.1205  2.9121 -0.8753
  752TMC3    C711172   2.785   2.460  17.551  0.0921  0.4680  0.0485
  752TMC3    C811173   2.658   2.009  17.513  0.1602  0.6429 -0.3667
  752TMC3    O111174   2.756   2.448  17.668 -0.0027 -0.3792  0.0573
  752TMC3    O211175   2.561   1.939  17.481 -0.5647  0.3595 -0.2568
  753TMC3    C111176   4.508   2.811  13.333 -0.5007 -0.1198  0.1026
  753TMC3    C211177   4.447   2.766  13.449  0.0718 -0.2190 -0.2326
  753TMC3    C311178   4.346   2.681  13.439  0.6505  0.3157 -0.2893
  753TMC3    C411179   4.479   2.776  13.209 -0.7817  0.0166 -0.0320
  753TMC3    C511180   4.371   2.693  13.203  0.0187 -0.2594  0.1258
  753TMC3    C611181   4.311   2.641  13.313  0.3856 -0.0271  0.0844
  753TMC3     C11182   4.612   2.913  13.360  0.2863  0.9305  0.2476
  753TMC3     O11183   4.668   2.899  13.466  0.8712  0.1443  0.8614
  753TMC3     H11184   4.503   2.781  13.541 -1.5249 -0.0046  0.6961
  753TMC3    H111185   4.534   2.821  13.127 -0.9043  0.5064  0.1578
  753TMC3    H211186   4.242   2.558  13.298  0.6928 -0.3037  0.2061
  753TMC3    C711187   4.336   2.637  13.069  0.2926 -0.1257 -0.5086
  753TMC3    C811188   4.257   2.672  13.550 -0.4045  0.1881  0.2742
  753TMC3    O111189   4.250   2.549  13.065 -0.0679 -0.3630  0.4210
  753TMC3    O211190   4.158   2.596  13.544  0.0156  0.3262 -0.4415
  754MPD2     C11191   3.729   1.482  13.644 -0.4175 -0.0246 -0.8714
  754MPD2    C111192   3.722   1.346  13.651  0.7323 -0.3181  0.0672
  754MPD2    C211193   3.600   1.290  13.611 -0.0664 -0.0906 -0.0248
  754MPD2    C311194   3.496   1.367  13.565  0.0087  0.7715 -0.0552
  754MPD2    C411195   3.520   1.498  13.538 -0.3440 -0.6584  0.1595
  754MPD2    C511196   3.633   1.557  13.586 -0.4794 -0.1320 -0.2348
  754MPD2     H11197   3.583   1.184  13.627  0.7841 -0.3851 -1.0774
  754MPD2    H111198   3.444   1.559  13.490 -0.5066 -1.8411 -1.0902
  754MPD2    H211199   3.820   1.533  13.671  0.1934 -0.7735 -1.5180
  754MPD2    H311200   3.652   1.662  13.566 -0.7404 -0.6724 -3.2639
  754MPD2     N11201   3.363   1.317  13.532  0.6556 -0.5338  0.4447
  754MPD2    H511202   3.295   1.391  13.518  0.3072 -1.0466 -0.5981
  754MPD2    N111203   3.837   1.281  13.709 -0.1752 -0.1615 -0.9960
  754MPD2    H711204   3.919   1.340  13.721  0.4957 -1.0226 -1.3296
  755MPD2     C11205   2.764   1.860  13.418 -0.1524  0.0686  0.8766
  755MPD2    C111206   2.699   1.768  13.489 -0.3554 -0.3943  0.0437
  755MPD2    C211207   2.747   1.638  13.484 -0.1312  0.0630 -0.0421
  755MPD2    C311208   2.862   1.599  13.412  0.1683  0.3108  0.3774
  755MPD2    C411209   2.926   1.696  13.336 -0.1099 -0.0128  0.8291
  755MPD2    C511210   2.872   1.823  13.339 -0.4242  0.2112  0.5461
  755MPD2     H11211   2.699   1.558  13.540 -0.3616  0.4987  0.3786
  755MPD2    H111212   3.024   1.680  13.292 -0.2458 -1.9158  1.2217
  755MPD2    H211213   2.742   1.966  13.421  0.0718  0.1211  0.7008
  755MPD2    H311214   2.916   1.906  13.286  0.8320 -1.3584 -0.8738
  755MPD2     N11215   2.919   1.474  13.414 -0.3842  0.4902 -0.3456
  755MPD2    H511216   3.010   1.463  13.369  0.5680  2.9778  0.9683
  755MPD2    N111217   2.596   1.811  13.577 -0.7083 -0.2329 -0.2385
  755MPD2    H711218   2.556   1.735  13.631 -0.8757  0.4300  0.5669
  756MPD2     C11219   2.320   2.036   9.914  0.4201 -0.3198 -0.5131
  756MPD2    C111220   2.320   1.951  10.019 -0.3428  0.3203  0.9222
  756MPD2    C211221   2.196   1.897  10.058 -0.4914 -0.0104 -0.3424
  756MPD2    C311222   2.078   1.942   9.998  0.4084 -0.4765  0.1898
  756MPD2    C411223   2.086   2.035   9.897  0.7072  0.4752  0.2267
  756MPD2    C511224   2.203   2.083   9.856  0.4815 -0.5388 -0.2973
  756MPD2     H11225   2.199   1.830  10.143  0.1185  0.1696 -0.2227
  756MPD2    H111226   1.998   2.059   9.839  0.7613 -0.6803 -0.3537
  756MPD2    H211227   2.408   2.079   9.867  1.2710 -1.5662 -0.0567
  756MPD2    H311228   2.206   2.157   9.777 -0.8964  0.2587  0.3996
  756MPD2     N11229   1.959   1.888  10.040  0.1357  0.0368 -0.1726
  756MPD2    H511230   1.969   1.817  10.111 -0.1108  0.0966 -0.0757
  756MPD2    N111231   2.438   1.905  10.087  0.3848  0.5959 -0.3189
  756MPD2    H711232   2.434   1.832  10.157 -1.4711  0.5291 -0.5065
  757MPD2     C11233   1.856   1.037  10.016 -0.1872 -0.1568  0.1092
  757MPD2    C111234   1.958   1.127  10.015  0.7501  0.5324 -0.0751
  757MPD2    C211235   1.930   1.265  10.034 -0.0304  0.4373 -0.2099
  757MPD2    C311236   1.800   1.303  10.049 -0.2926 -0.5756  0.1239
  757MPD2    C411237   1.704   1.211  10.072 -0.4805  0.4613  0.4436
  757MPD2    C511238   1.730   1.078  10.042  0.1394  0.1155 -1.1607
  757MPD2     H11239   2.010   1.338  10.028 -0.0931  0.4346 -1.0369
  757MPD2    H111240   1.602   1.234  10.099 -0.4696  2.2474 -1.0152
  757MPD2    H211241   1.875   0.932  10.000 -3.1291 -0.5310 -0.9409
  757MPD2    H311242   1.645   1.011  10.040 -0.5887  0.9672  1.2374
  757MPD2     N11243   1.773   1.439  10.052  0.3200 -0.4693 -0.1762
  757MPD2    H511244   1.847   1.500  10.018  0.6160 -0.4400  0.5298
  757MPD2    N111245   2.084   1.072   9.970 -0.7121  0.1249  0.4300
  757MPD2    H711246   2.094   0.975   9.942 -1.1949  0.3923 -0.6560
  758MPD2     C11247   3.637   1.367  15.777  0.8241  0.4398  0.2255
  758MPD2    C111248   3.680   1.261  15.850  0.1356  0.6272 -0.5341
  758MPD2    C211249   3.618   1.238  15.972 -0.0594  0.2509  0.6475
  758MPD2    C311250   3.505   1.301  16.018  0.5555  0.5700  0.3639
  758MPD2    C411251   3.456   1.399  15.933  0.1383  0.0321  0.4063
  758MPD2    C511252   3.521   1.432  15.816  0.1516  1.0440  0.3715
  758MPD2     H11253   3.661   1.155  16.026  0.2757  0.6500  0.9904
  758MPD2    H111254   3.379   1.470  15.963  0.7837 -0.0199  2.2397
  758MPD2    H211255   3.671   1.382  15.675  0.3626  1.2296  0.1833
  758MPD2    H311256   3.475   1.501  15.746 -1.1230 -1.8167 -1.6046
  758MPD2     N11257   3.457   1.298  16.149  0.1757 -0.4134 -0.3329
  758MPD2    H511258   3.368   1.344  16.165  0.0303 -0.9492  0.3911
  758MPD2    N111259   3.794   1.191  15.811 -0.1631  0.2656 -0.3060
  758MPD2    H711260   3.854   1.239  15.745  1.3578  0.0926  0.9477
  759MPD2     C11261   2.411   3.592   9.801  0.5932 -0.1416 -0.8282
  759MPD2    C111262   2.293   3.658   9.829 -0.5466 -0.3392  0.0090
  759MPD2    C211263   2.293   3.793   9.821 -0.2315  0.4235  0.3831
  759MPD2    C311264   2.405   3.866   9.801 -0.2532  0.2328 -0.2699
  759MPD2    C411265   2.526   3.797   9.787  0.2311  0.0288  0.0949
  759MPD2    C511266   2.522   3.660   9.782  0.2419  0.0798  0.0687
  759MPD2     H11267   2.209   3.860   9.829 -0.0788  0.7594 -0.7749
  759MPD2    H111268   2.619   3.849   9.766  0.7893 -1.6234 -1.5107
  759MPD2    H211269   2.416   3.484   9.792  1.0394  0.0146 -2.4779
  759MPD2    H311270   2.609   3.599   9.759 -0.8104 -2.0251  1.5911
  759MPD2     N11271   2.393   4.004   9.809 -0.2162 -0.4858 -0.6124
  759MPD2    H511272   2.306   4.039   9.846  0.1967 -0.1758  0.0589
  759MPD2    N111273   2.181   3.589   9.860 -0.3820  0.7406  0.4801
  759MPD2    H711274   2.187   3.491   9.887 -2.0886  0.5252  0.1082
  760MPD2     C11275   1.513   1.529  11.959  0.1051 -0.0970  0.0020
  760MPD2    C111276   1.622   1.608  11.970 -0.1546  0.7131  0.3898
  760MPD2    C211277   1.731   1.569  12.039 -0.7232  0.7961 -0.1237
  760MPD2    C311278   1.723   1.450  12.110 -0.5817  0.0301  0.0848
  760MPD2    C411279   1.604   1.377  12.115 -0.1975 -1.0549  0.2688
  760MPD2    C511280   1.506   1.415  12.033 -0.5500 -0.0458 -0.3295
  760MPD2     H11281   1.820   1.631  12.040  0.0925 -0.3693 -0.2041
  760MPD2    H111282   1.599   1.283  12.168 -0.5697 -1.2001 -0.0270
  760MPD2    H211283   1.428   1.568  11.905  0.9171  1.1072 -0.3991
  760MPD2    H311284   1.422   1.347  12.021 -0.0598 -0.9158  1.1976
  760MPD2     N11285   1.844   1.402  12.159  0.0482  0.1275 -0.0731
  760MPD2    H511286   1.844   1.322  12.221 -1.7697  1.0229  1.0708
  760MPD2    N111287   1.647   1.722  11.891 -0.0274 -0.3081  0.9210
  760MPD2    H711288   1.740   1.762  11.904 -1.0383  2.1104  0.6436
  761MPD2     C11289   2.701   0.415  11.486  0.5545  0.1368 -0.1163
  761MPD2    C111290   2.759   0.402  11.357 -0.3940 -0.3858  0.7593
  761MPD2    C211291   2.857   0.494  11.320 -0.1972  0.5228 -0.7738
  761MPD2    C311292   2.890   0.592  11.403 -0.0703 -0.3466  0.0998
  761MPD2    C411293   2.832   0.602  11.528  0.0438 -0.5300 -0.1396
  761MPD2    C511294   2.734   0.516  11.575  0.2527  0.1925 -0.5078
  761MPD2     H11295   2.912   0.469  11.230  0.9387 -0.6772  0.2471
  761MPD2    H111296   2.869   0.682  11.590  0.8432  1.0109 -2.5863
  761MPD2    H211297   2.617   0.353  11.517  1.7472 -0.8288  1.1801
  761MPD2    H311298   2.696   0.525  11.675  1.7612 -1.3718  0.2085
  761MPD2     N11299   2.998   0.680  11.377 -0.2586  0.4573 -0.0776
  761MPD2    H511300   3.020   0.749  11.448 -1.1345 -1.2311  1.8421
  761MPD2    N111301   2.704   0.298  11.267 -0.3563 -0.7886  0.2168
  761MPD2    H711302   2.645   0.229  11.311 -1.0516  1.7637  3.2687
  762MPD2     C11303   2.886   4.339  10.683  0.3793 -0.3216  1.1080
  762MPD2    C111304   2.895   4.477  10.678  0.3482  0.6801  0.5359
  762MPD2    C211305   2.970   4.544  10.586 -0.1255  0.5666 -0.1666
  762MPD2    C311306   3.017   4.462  10.484 -1.1053 -0.1308 -0.6957
  762MPD2    C411307   3.012   4.324  10.485  0.4904 -0.3328  0.1415
  762MPD2    C511308   2.931   4.263  10.575  0.0552  0.5883 -0.3128
  762MPD2     H11309   2.979   4.652  10.579  1.8343  0.3718 -0.6375
  762MPD2    H111310   3.052   4.257  10.410 -3.7393  1.3727 -3.6103
  762MPD2    H211311   2.843   4.292  10.771 -0.6348 -1.7086 -0.1244
  762MPD2    H311312   2.925   4.154  10.579  0.6961  0.5652  0.1360
  762MPD2     N11313   3.085   4.516  10.371  1.4190 -0.5711 -0.0516
  762MPD2    H511314   3.116   4.456  10.295  1.0199  0.0286 -0.6942
  762MPD2    N111315   2.817   4.540  10.788  0.3676  0.0257  0.5606
  762MPD2    H711316   2.777   4.481  10.859 -0.3382 -0.9484 -0.6546
  763MPD2     C11317   0.808   1.496  16.218 -0.0268 -0.6575 -1.5552
  763MPD2    C111318   0.687   1.529  16.156  0.3476  0.0977 -0.0925
  763MPD2    C211319   0.638   1.663  16.173 -0.2670  0.2086 -0.1886
  763MPD2    C311320   0.697   1.742  16.273 -0.2503 -0.5426  0.0520
  763MPD2    C411321   0.818   1.700  16.333 -0.7311  0.2272  0.0468
  763MPD2    C511322   0.874   1.584  16.298 -0.4136 -0.0061 -0.2201
  763MPD2     H11323   0.547   1.695  16.122 -1.7714 -1.0384  1.7546
  763MPD2    H111324   0.868   1.753  16.413 -0.3053 -1.0320  0.6112
  763MPD2    H211325   0.858   1.400  16.213  1.0096 -0.3295  2.4718
  763MPD2    H311326   0.962   1.555  16.354 -0.3783 -1.4132 -0.9990
  763MPD2     N11327   0.647   1.866  16.326 -0.1652  0.8582  0.3896
  763MPD2    H511328   0.705   1.913  16.393  0.4388  1.9152 -0.8756
  763MPD2    N111329   0.614   1.442  16.071 -0.0327 -0.0253 -0.0959
  763MPD2    H711330   0.551   1.491  16.009  1.1788  1.6237 -0.0119
  764MPD2     C11331   3.577   2.932  17.626 -0.2081  0.0668 -0.0143
  764MPD2    C111332   3.457   2.987  17.582  0.1318  0.5177 -0.6432
  764MPD2    C211333   3.371   3.047  17.674 -0.5445 -0.0953 -0.4681
  764MPD2    C311334   3.404   3.053   0.052  0.3316  0.1488 -0.1208
  764MPD2    C411335   3.526   3.009   0.091  0.0517 -0.3897 -0.3604
  764MPD2    C511336   3.609   2.942   0.004 -0.4361  0.2128 -0.2471
  764MPD2     H11337   3.286   3.097  17.628 -1.9156 -1.6043  0.4181
  764MPD2    H111338   3.563   3.019   0.192 -2.3314  1.4495  0.3367
  764MPD2    H211339   3.637   2.872  17.559  0.2378  1.0142 -0.4534
  764MPD2    H311340   3.706   2.911   0.040 -0.9741 -0.7998  0.3414
  764MPD2     N11341   3.308   3.118   0.133  0.0295 -0.0734 -0.2885
  764MPD2    H511342   3.218   3.136   0.092  0.0321  0.6184 -0.0015
  764MPD2    N111343   3.414   2.992  17.446 -0.0728 -0.1209 -0.4907
  764MPD2    H711344   3.321   3.027  17.425  1.4628  2.2851 -3.0834
  765MPD2     C11345   3.646   0.397  15.377 -0.4037  0.5265 -0.0154
  765MPD2    C111346   3.681   0.472  15.485 -0.8004  0.0191 -0.1195
  765MPD2    C211347   3.764   0.418  15.583  0.8553 -0.4733 -0.3598
  765MPD2    C311348   3.811   0.292  15.562  0.2068 -0.0793 -0.0730
  765MPD2    C411349   3.793   0.230  15.442 -0.0451  0.1501  0.3326
  765MPD2    C511350   3.714   0.282  15.347 -0.1616 -0.0026 -0.6151
  765MPD2     H11351   3.778   0.461  15.682 -1.3642 -0.8819  0.1335
  765MPD2    H111352   3.825   0.128  15.425 -1.1799  0.0489 -1.1313
  765MPD2    H211353   3.566   0.430  15.312 -1.8269 -1.9293  0.5167
  765MPD2    H311354   3.697   0.219  15.260  2.5622 -1.9765  0.2906
  765MPD2     N11355   3.887   0.231  15.665 -0.1541 -0.2404  0.5475
  765MPD2    H511356   3.891   0.290  15.748  0.6848  1.0471 -0.3970
  765MPD2    N111357   3.592   0.578  15.512  0.3568  0.0393  0.0713
  765MPD2    H711358   3.517   0.597  15.446 -0.5026 -0.4263  0.9171
  766MPD2     C11359   2.888   0.596  15.428 -0.3123  0.2432 -0.5636
  766MPD2    C111360   3.018   0.590  15.395 -0.0306  0.4582  0.4557
  766MPD2    C211361   3.057   0.572  15.264 -0.4983 -0.3979  0.1180
  766MPD2    C311362   2.959   0.558  15.164 -0.5378  0.2845  0.0377
  766MPD2    C411363   2.823   0.555  15.200  0.7807  0.2317  0.2107
  766MPD2    C511364   2.794   0.571  15.334 -0.7873  0.3248 -0.5227
  766MPD2     H11365   3.162   0.574  15.236 -0.7787 -0.4928 -0.9450
  766MPD2    H111366   2.745   0.563  15.125  1.0116 -0.2045 -0.0816
  766MPD2    H211367   2.856   0.624  15.527  1.8323  3.4178 -0.7744
  766MPD2    H311368   2.688   0.577  15.353 -0.5916  0.4135  0.4947
  766MPD2     N11369   2.997   0.563  15.024  0.0828  0.5998  0.4850
  766MPD2    H511370   2.921   0.571  14.957  0.3025 -0.5815  0.0842
  766MPD2    N111371   3.128   0.624  15.480  0.0060 -0.1187 -0.5412
  766MPD2    H711372   3.219   0.609  15.439  0.2641  1.4251 -0.5116
  767MPD2     C11373   2.526   0.823  15.170  0.3674 -0.4411  0.6882
  767MPD2    C111374   2.644   0.863  15.117  0.0827 -0.0011  0.5613
  767MPD2    C211375   2.665   0.852  14.981  0.9073  0.6506  0.5472
  767MPD2    C311376   2.565   0.814  14.898 -0.5155 -0.1941  0.0562
  767MPD2    C411377   2.444   0.775  14.948 -0.2554  0.4584  0.2437
  767MPD2    C511378   2.432   0.780  15.088  0.2039  0.2023  0.7475
  767MPD2     H11379   2.749   0.896  14.930  0.2939  1.0080 -0.1640
  767MPD2    H111380   2.370   0.734  14.880  1.6018  0.3425 -1.7354
  767MPD2    H211381   2.516   0.819  15.278 -1.7772  0.8802  0.5489
  767MPD2    H311382   2.340   0.749  15.137 -0.7706  0.4445 -0.9195
  767MPD2     N11383   2.599   0.793  14.761  0.9160  0.0666  0.0761
  767MPD2    H511384   2.694   0.822  14.740  0.7855  1.7234  1.8086
  767MPD2    N111385   2.748   0.905  15.194  0.3253  1.1455  0.4841
  767MPD2    H711386   2.727   0.907  15.293  1.4609 -2.0424  0.7687
  768MPD2     C11387   3.231   3.902  10.615 -0.2517  0.1741 -0.5885
  768MPD2    C111388   3.202   3.851  10.739 -0.1146 -0.0396 -0.7390
  768MPD2    C211389   3.293   3.856  10.839  0.7103  0.2097  0.5359
  768MPD2    C311390   3.413   3.919  10.824 -0.1782  0.3418  0.3111
  768MPD2    C411391   3.436   3.990  10.704  0.1483  0.2233  0.2211
  768MPD2    C511392   3.355   3.965  10.604  0.3448 -0.2716 -0.7762
  768MPD2     H11393   3.261   3.803  10.928  1.9284 -1.3155  0.0565
  768MPD2    H111394   3.523   4.055  10.697 -1.3002  2.0206 -1.0738
  768MPD2    H211395   3.167   3.899  10.528 -0.4499 -0.9152 -0.4119
  768MPD2    H311396   3.372   4.019  10.512  0.4509 -0.2844 -0.7638
  768MPD2     N11397   3.508   3.933  10.932 -0.9689 -0.0377 -0.5103
  768MPD2    H511398   3.581   4.004  10.928  0.1564 -1.2578 -1.7634
  768MPD2    N111399   3.073   3.798  10.770  0.0403 -0.3417  0.3702
  768MPD2    H711400   3.050   3.783  10.867 -2.6914 -0.2314 -0.2445
  769MPD2     C11401   4.534   2.317  14.616 -0.1506 -0.0191  1.6907
  769MPD2    C111402   4.434   2.380  14.681  0.9026  0.0680 -0.6996
  769MPD2    C211403   4.439   2.390  14.822 -0.0746 -0.0701 -0.6257
  769MPD2    C311404   4.543   2.339  14.890 -0.5516 -0.4753 -0.6590
  769MPD2    C411405   4.653   2.289  14.820 -0.0624  0.2189 -0.5673
  769MPD2    C511406   4.644   2.273  14.687 -0.4476 -0.3725  0.6179
  769MPD2     H11407   4.360   2.430  14.885  0.2573 -2.2898  1.2099
  769MPD2    H111408   0.005   2.255  14.867 -1.4287 -1.8393  0.6109
  769MPD2    H211409   4.535   2.306  14.508  1.1124 -3.8957  2.0868
  769MPD2    H311410   4.720   2.219  14.632  1.2506 -0.2733  2.8566
  769MPD2     N11411   4.546   2.352  15.033  1.0384  0.1989  0.1855
  769MPD2    H511412   4.466   2.394  15.078  0.1957  0.2996 -1.4315
  769MPD2    N111413   4.318   2.426  14.604 -0.4922  0.0468  0.3057
  769MPD2    H711414   4.304   2.380  14.514 -0.6805 -1.2089  0.9835
  770MPD2     C11415   3.634   2.058  15.014 -0.2606  0.3036  0.3766
  770MPD2    C111416   3.765   2.040  14.978  0.3489  1.0002 -0.3728
  770MPD2    C211417   3.831   2.144  14.914 -0.2599 -0.4741 -0.2541
  770MPD2    C311418   3.757   2.259  14.879  0.2774  0.0378 -0.3198
  770MPD2    C411419   3.626   2.269  14.918 -0.2901 -0.2832  0.3330
  770MPD2    C511420   3.557   2.172  14.992 -0.7947 -0.4910  0.9710
  770MPD2     H11421   3.937   2.134  14.895 -0.5554 -3.5985 -0.1933
  770MPD2    H111422   3.568   2.360  14.902 -0.4885 -0.5295 -0.3588
  770MPD2    H211423   3.583   1.974  15.058 -0.2258  0.9005  1.5491
  770MPD2    H311424   3.453   2.176  15.023 -0.5025 -0.0963  1.9064
  770MPD2     N11425   3.826   2.365  14.815  0.2467 -0.7943  0.7043
  770MPD2    H511426   3.925   2.353  14.794  0.4951  0.1208  1.3569
  770MPD2    N111427   3.827   1.915  15.003  0.0204 -1.2063  0.0804
  770MPD2    H711428   3.767   1.843  15.042  0.4183 -1.3644  0.3963
  771MPD2     C11429   0.335   4.737  13.661 -0.1904 -0.2609  0.3441
  771MPD2    C111430   0.256   0.108  13.661 -0.1293 -0.2733  0.0189
  771MPD2    C211431   0.117   0.087  13.651 -0.1235 -0.6921  0.0595
  771MPD2    C311432   0.052   4.707  13.649  0.6805  0.3952  0.0301
  771MPD2    C411433   0.142   4.599  13.666  0.0757 -1.0441 -0.6711
  771MPD2    C511434   0.281   4.614  13.667 -1.0261  0.8844 -0.3176
  771MPD2     H11435   0.051   0.174  13.648  0.0882 -0.5310  0.0498
  771MPD2    H111436   0.115   4.494  13.664  0.6946 -1.2585  2.1992
  771MPD2    H211437   0.442   4.738  13.678  0.3134  0.7230 -2.9033
  771MPD2    H311438   0.347   4.528  13.668 -1.3911  0.6052 -0.5378
  771MPD2     N11439   4.654   4.693  13.616  0.4188 -0.3480 -0.0927
  771MPD2    H511440   4.599   0.037  13.603  1.6548  0.8157  2.2328
  771MPD2    N111441   0.303   0.239  13.641 -0.4522  0.1709  0.0832
  771MPD2    H711442   0.233   0.312  13.639 -2.1969 -1.4563  1.5394
  772MPD2     C11443   0.199   0.759  14.097 -0.7388  0.1073 -0.8392
  772MPD2    C111444   0.151   0.656  14.017 -0.9118 -1.0520 -0.4424
  772MPD2    C211445   0.052   0.581  14.068  0.6378  0.3650 -0.2167
  772MPD2    C311446   4.722   0.619  14.184  0.4397  0.3332 -0.1378
  772MPD2    C411447   0.023   0.730  14.252 -0.4989  0.1320  0.6244
  772MPD2    C511448   0.132   0.803  14.207 -0.1186 -0.0238  0.2709
  772MPD2     H11449   0.026   0.490  14.016  0.4469  0.5295 -0.4127
  772MPD2    H111450   4.712   0.772  14.339 -4.4461 -1.2650 -0.9553
  772MPD2    H211451   0.275   0.822  14.054 -0.7553  0.6241 -0.1145
  772MPD2    H311452   0.168   0.894  14.253 -0.5595  0.3745 -0.1750
  772MPD2     N11453   4.643   0.528  14.254  0.2404  0.3106  0.0955
  772MPD2    H511454   4.626   0.552  14.351 -1.2721  1.7254 -0.5163
  772MPD2    N111455   0.217   0.612  13.897  0.5842  0.6526  0.3945
  772MPD2    H711456   0.173   0.542  13.838  0.0777  0.8522  0.5377
  773MPD2     C11457   4.252   1.946   0.479 -0.2887 -0.0750 -0.2601
  773MPD2    C111458   4.228   1.835   0.392  0.1650  0.3275 -0.1437
  773MPD2    C211459   4.285   1.711   0.423  1.3551 -0.7576  0.2086
  773MPD2    C311460   4.369   1.692   0.531  0.0213 -0.0314 -0.0275
  773MPD2    C411461   4.386   1.799   0.612 -0.6090  0.3097  0.4359
  773MPD2    C511462   4.325   1.918   0.599  0.4859  0.2244 -0.5909
  773MPD2     H11463   4.261   1.629   0.356  0.8299  0.5124 -1.1701
  773MPD2    H111464   4.447   1.789   0.701 -1.2801  2.3463  1.1274
  773MPD2    H211465   4.203   2.042   0.483  0.6335  0.3827  0.0413
  773MPD2    H311466   4.343   1.999   0.668  0.2629  0.0199 -0.2931
  773MPD2     N11467   4.439   1.569   0.550 -0.2156 -1.0049  0.2834
  773MPD2    H511468   4.417   1.500   0.479 -0.9292 -0.4448 -0.0440
  773MPD2    N111469   4.139   1.856   0.282  0.1082  0.4332 -0.7100
  773MPD2    H711470   4.123   1.767   0.236  0.8762 -1.0097  1.7783
  774MPD2     C11471   3.414   0.264  13.650 -0.4657 -0.1258  0.1635
  774MPD2    C111472   3.411   0.300  13.779 -0.3093 -0.2078 -0.1906
  774MPD2    C211473   3.463   0.414  13.832 -0.0205  0.1715 -0.1380
  774MPD2    C311474   3.523   0.505  13.744 -0.6218  0.3735 -0.7562
  774MPD2    C411475   3.525   0.471  13.610 -0.1420 -0.0611 -0.1552
  774MPD2    C511476   3.468   0.353  13.565 -0.0000 -0.1348  0.5950
  774MPD2     H11477   3.463   0.446  13.935  0.9416 -1.2643  0.3056
  774MPD2    H111478   3.561   0.547  13.542  3.1702 -0.2536  1.3836
  774MPD2    H211479   3.373   0.172  13.612 -0.0546 -0.0886 -0.3775
  774MPD2    H311480   3.461   0.334  13.458 -1.6627 -1.1849  0.8817
  774MPD2     N11481   3.558   0.638  13.797  1.2175 -0.7501 -0.1339
  774MPD2    H511482   3.526   0.662  13.890 -0.2931 -1.8235 -0.3818
  774MPD2    N111483   3.346   0.205  13.868 -0.8613  0.4142  0.0360
  774MPD2    H711484   3.307   0.122  13.823 -0.4471  0.2041  0.0582
  775MPD2     C11485   4.577   1.919  15.563  0.3140 -0.0954  0.6926
  775MPD2    C111486   4.633   2.006  15.657 -0.1814  0.5295  0.0460
  775MPD2    C211487   0.019   2.061  15.621 -0.0295  0.5801 -0.4711
  775MPD2    C311488   0.071   2.059  15.490  0.3465  0.4549 -0.1347
  775MPD2    C411489   0.000   1.985  15.394 -1.3493  1.2658 -0.0877
  775MPD2    C511490   4.631   1.916  15.435 -0.5870 -1.1156  0.3995
  775MPD2     H11491   0.073   2.116  15.697  0.0518  0.4314 -0.4216
  775MPD2    H111492   0.040   1.964  15.295 -2.4101  0.5252 -0.3632
  775MPD2    H211493   4.488   1.860  15.583 -0.1373  0.5797  0.6495
  775MPD2    H311494   4.584   1.854  15.360  2.7824  1.2468 -3.7061
  775MPD2     N11495   0.174   2.139  15.442  0.3620 -0.4295 -0.3543
  775MPD2    H511496   0.188   2.130  15.342 -0.1078  1.3066 -0.5781
  775MPD2    N111497   4.565   2.028  15.776  0.1146 -0.7416 -0.0125
  775MPD2    H711498   4.487   1.967  15.801 -0.0880 -1.8378 -3.4084
  776MPD2     C11499   2.658   2.316  11.666  0.8611  0.3922 -0.3335
  776MPD2    C111500   2.783   2.261  11.639 -0.4399  0.1924 -0.4232
  776MPD2    C211501   2.862   2.322  11.547 -0.0005 -0.2001  0.5240
  776MPD2    C311502   2.826   2.447  11.501  0.2856  0.5632 -0.4107
  776MPD2    C411503   2.699   2.499  11.528  0.8863 -0.3519  0.5171
  776MPD2    C511504   2.617   2.431  11.606 -0.1557  1.0088  0.7133
  776MPD2     H11505   2.960   2.286  11.517 -0.4414  0.7253 -2.1146
  776MPD2    H111506   2.673   2.596  11.488 -0.5948 -0.8612  0.2484
  776MPD2    H211507   2.599   2.266  11.742 -1.2611 -0.1832 -2.3751
  776MPD2    H311508   2.518   2.467  11.629 -0.9727  0.7259 -2.3998
  776MPD2     N11509   2.903   2.527  11.414  0.4943  0.1859 -0.2727
  776MPD2    H511510   2.867   2.619  11.390 -0.0139  0.4390  1.4632
  776MPD2    N111511   2.808   2.138  11.706 -0.1712  0.2076 -0.2611
  776MPD2    H711512   2.740   2.109  11.775  0.0463  0.7614  0.1823
  777MPD2     C11513   3.783   0.429   0.672 -0.2046 -0.1879  0.3118
  777MPD2    C111514   3.771   0.343   0.782  0.7235 -0.1703  0.5421
  777MPD2    C211515   3.705   0.219   0.763 -0.7154  0.4495  0.6354
  777MPD2    C311516   3.657   0.188   0.632 -0.0403  0.4867 -0.7570
  777MPD2    C411517   3.666   0.266   0.526  0.4817  0.0311 -0.2513
  777MPD2    C511518   3.732   0.384   0.548 -0.1968  0.4238  0.0624
  777MPD2     H11519   3.702   0.148   0.845 -0.2618 -1.3856 -0.9198
  777MPD2    H111520   3.623   0.250   0.428  0.4151  3.2657 -0.7480
  777MPD2    H211521   3.843   0.519   0.682  0.3422 -0.5155 -0.0131
  777MPD2    H311522   3.744   0.451   0.463 -0.7853  0.9887  0.4196
  777MPD2     N11523   3.593   0.066   0.625  0.3450  0.1172  0.7822
  777MPD2    H511524   3.575   0.025   0.715  1.9468  0.1846  1.1256
  777MPD2    N111525   3.843   0.376   0.896  0.0839  0.8253 -0.2249
  777MPD2    H711526   3.900   0.459   0.885  0.1188  0.8375  0.0334
  778MPD2     C11527   0.405   0.215  15.224  0.7284 -0.0245  0.5502
  778MPD2    C111528   0.450   0.114  15.139  0.3656 -0.0950  0.3393
  778MPD2    C211529   0.536   0.139  15.038  0.1856  0.0888  0.4340
  778MPD2    C311530   0.584   0.270  15.009  0.1161 -0.5835  0.0978
  778MPD2    C411531   0.543   0.366  15.101 -0.3569 -0.0328  0.2263
  778MPD2    C511532   0.450   0.345  15.199  0.6442  0.0078  0.1652
  778MPD2     H11533   0.548   0.058  14.968  0.8535  2.0254 -1.6926
  778MPD2    H111534   0.565   0.470  15.084 -0.2788  0.2076  1.8256
  778MPD2    H211535   0.341   0.189  15.308 -0.5139  1.5786  0.1007
  778MPD2    H311536   0.425   0.427  15.265 -1.5804 -0.1976 -0.4211
  778MPD2     N11537   0.661   0.300  14.897  0.1307  0.3203  0.3996
  778MPD2    H511538   0.686   0.215  14.847 -2.3985 -0.5262  0.5564
  778MPD2    N111539   0.400   4.721  15.142 -0.5249  0.5276 -0.1134
  778MPD2    H711540   0.425   4.657  15.068  2.0808  1.4485 -0.0088
  779MPD2     C11541   0.006   3.539  14.004  0.0631 -0.3851  0.3739
  779MPD2    C111542   0.006   3.524  14.148  0.1204 -0.0965  0.0245
  779MPD2    C211543   0.081   3.609  14.226  0.1543  0.1371  0.1893
  779MPD2    C311544   0.132   3.720  14.165 -0.0709 -0.7325  0.3690
  779MPD2    C411545   0.111   3.745  14.027 -0.6703  0.4726  0.5861
  779MPD2    C511546   0.045   3.656  13.954 -0.7784 -0.2560 -1.1278
  779MPD2     H11547   0.082   3.592  14.333  2.2739  3.2169  0.6456
  779MPD2    H111548   0.163   3.826  13.976  1.2877 -1.1328  0.0249
  779MPD2    H211549   4.723   3.454  13.940  0.3953  0.8607 -1.4099
  779MPD2    H311550   0.041   3.667  13.846 -1.8313 -0.0210 -1.0667
  779MPD2     N11551   0.220   3.802  14.236  0.4486 -0.0948 -0.5138
  779MPD2    H511552   0.252   3.772  14.328 -1.9377  1.3252  0.8007
  779MPD2    N111553   4.674   3.422  14.217  0.6241 -0.0442  0.5688
  779MPD2    H711554   4.681   3.417  14.318  0.1371  2.7367  0.7482
  780MPD2     C11555   4.626   4.063   1.205  0.0942  0.0531  0.2201
  780MPD2    C111556   4.507   4.023   1.154  0.2307 -0.6765  0.0871
  780MPD2    C211557   4.490   4.033   1.014 -0.4427 -0.5925  0.2115
  780MPD2    C311558   4.591   4.070   0.932  0.0711 -0.1428 -0.2923
  780MPD2    C411559   4.717   4.091   0.991 -0.0985 -0.2858  0.0754
  780MPD2    C511560   4.732   4.096   1.128  0.5813  0.5738 -0.1002
  780MPD2     H11561   4.404   3.984   0.972 -0.1519 -1.5608  0.7512
  780MPD2    H111562   0.064   4.128   0.936 -0.2775  0.2799  0.1787
  780MPD2    H211563   4.634   4.057   1.313 -1.6187 -2.6680  0.1783
  780MPD2    H311564   0.083   4.143   1.164  0.8133 -0.8333  1.1690
  780MPD2     N11565   4.573   4.104   0.793  0.6715 -0.4387 -0.8584
  780MPD2    H511566   4.476   4.113   0.764  0.0881 -0.7423  0.9360
  780MPD2    N111567   4.410   3.973   1.243  0.8080 -0.1256 -0.2145
  780MPD2    H711568   4.428   3.972   1.342  1.5023  1.2605 -0.3282
  781MPD2     C11569   0.726   0.991  12.433  0.5119 -0.4030  0.1420
  781MPD2    C111570   0.814   0.896  12.391 -0.5100 -0.4571  0.0265
  781MPD2    C211571   0.870   0.899  12.267 -0.0787 -0.2837 -0.2659
  781MPD2    C311572   0.821   0.993  12.179 -0.0309  0.1978  0.4746
  781MPD2    C411573   0.731   1.088  12.219 -0.2288 -0.2943 -0.6021
  781MPD2    C511574   0.682   1.084  12.352 -0.4005  0.1159 -0.3802
  781MPD2     H11575   0.926   0.809  12.244  1.7908  1.1424 -1.2309
  781MPD2    H111576   0.685   1.154  12.147 -0.4790  0.1704 -0.0170
  781MPD2    H211577   0.679   0.980  12.530 -0.9805  3.0936 -0.1917
  781MPD2    H311578   0.596   1.145  12.378 -0.9664 -1.3206  1.1544
  781MPD2     N11579   0.871   1.000  12.047  0.1088 -0.7786  0.1844
  781MPD2    H511580   0.847   1.084  11.996 -1.0837  0.9588  3.5696
  781MPD2    N111581   0.849   0.780  12.469 -0.1149 -0.0918 -0.5175
  781MPD2    H711582   0.925   0.721  12.436 -0.2318 -0.7675  0.4158
  782MPD2     C11583   4.216   1.173  10.181  0.7001  0.2332  0.2322
  782MPD2    C111584   4.256   1.156  10.306  0.2351  0.3621  0.0841
  782MPD2    C211585   4.230   1.254  10.404 -0.3132  0.2804  0.1623
  782MPD2    C311586   4.158   1.366  10.371 -0.2256 -0.5868  0.4082
  782MPD2    C411587   4.127   1.392  10.237  0.1954 -0.2523  0.2585
  782MPD2    C511588   4.150   1.290  10.149  0.6201  0.2428 -0.1454
  782MPD2     H11589   4.257   1.241  10.508  1.7545 -0.4617 -0.4692
  782MPD2    H111590   4.085   1.485  10.203 -0.4626 -0.3960  0.6855
  782MPD2    H211591   4.233   1.102  10.101  0.9934 -0.2195  0.6957
  782MPD2    H311592   4.127   1.295  10.043 -0.1399  2.9414  0.1500
  782MPD2     N11593   4.107   1.456  10.476 -0.7267  0.0368 -0.2603
  782MPD2    H511594   4.148   1.446  10.569 -2.2798 -1.9266  0.2091
  782MPD2    N111595   4.343   1.044  10.327 -0.5720  0.1283 -0.2615
  782MPD2    H711596   4.378   1.002  10.242 -1.4171  0.6773 -0.8900
  783MPD2     C11597   3.440   0.755  10.710 -0.0256 -0.1182 -0.7489
  783MPD2    C111598   3.493   0.821  10.818 -0.2838  0.8055  0.3417
  783MPD2    C211599   3.624   0.857  10.819  0.8850 -0.2331 -0.0368
  783MPD2    C311600   3.708   0.846  10.702  0.1511 -0.6080 -0.0775
  783MPD2    C411601   3.648   0.796  10.589  0.6053  0.3182  0.3191
  783MPD2    C511602   3.521   0.740  10.602 -0.1376  0.2406  0.5858
  783MPD2     H11603   3.675   0.906  10.901  0.6605  0.0067 -0.0394
  783MPD2    H111604   3.690   0.782  10.490 -0.2743  2.5510 -0.3760
  783MPD2    H211605   3.341   0.713  10.704 -0.5218  0.8541  0.5716
  783MPD2    H311606   3.476   0.692  10.515 -0.1714  0.6743  0.3653
  783MPD2     N11607   3.841   0.883  10.708  0.6896  0.3136  0.3856
  783MPD2    H511608   3.869   0.940  10.788  1.3176  2.3529 -1.2753
  783MPD2    N111609   3.409   0.839  10.934 -0.0351 -0.4521  0.5001
  783MPD2    H711610   3.312   0.811  10.932  0.4251 -2.0589  0.6126
  784MPD2     C11611   2.302   2.129   0.651 -0.6559  0.0969  0.0542
  784MPD2    C111612   2.274   2.213   0.753  0.2190 -0.0917  0.1828
  784MPD2    C211613   2.147   2.263   0.765  0.4328 -0.3554  0.9426
  784MPD2    C311614   2.039   2.208   0.684  0.8149  0.0946  0.2809
  784MPD2    C411615   2.072   2.113   0.591 -0.1719 -0.2551  0.2718
  784MPD2    C511616   2.204   2.076   0.576 -0.5058  0.0170 -0.0400
  784MPD2     H11617   2.123   2.337   0.841 -1.8639 -1.4363  1.2792
  784MPD2    H111618   2.001   2.074   0.520 -2.2286 -0.3881  2.3944
  784MPD2    H211619   2.404   2.100   0.627  0.0816  1.7634  1.2106
  784MPD2    H311620   2.231   2.004   0.500  0.0168 -0.8226  0.9604
  784MPD2     N11621   1.902   2.245   0.701 -0.2915  0.5232 -0.2845
  784MPD2    H511622   1.889   2.325   0.762  1.0684  1.1648 -0.8343
  784MPD2    N111623   2.382   2.250   0.851  0.3387  0.2011 -0.3291
  784MPD2    H711624   2.469   2.199   0.847  0.1220 -0.1287 -0.8313
  785MPD2     C11625   0.897   4.668  10.553 -0.0669 -0.1615 -0.0434
  785MPD2    C111626   1.004   4.579  10.579  0.0667 -0.4331 -0.7394
  785MPD2    C211627   1.084   4.609  10.694  0.0223 -0.1572  0.4778
  785MPD2    C311628   1.067   4.725  10.761 -0.3215 -0.3621 -0.3836
  785MPD2    C411629   0.957   0.064  10.739 -0.2122 -0.3159  0.3927
  785MPD2    C511630   0.876   0.035  10.634 -0.9125 -0.7705 -0.2674
  785MPD2     H11631   1.173   4.548  10.702 -0.0989 -0.4214 -0.1783
  785MPD2    H111632   0.928   0.147  10.803 -0.9549  0.9052 -1.5372
  785MPD2    H211633   0.813   4.634  10.493 -1.2744  2.4621  0.1482
  785MPD2    H311634   0.780   0.085  10.629 -0.8488 -0.7136 -0.9507
  785MPD2     N11635   1.163   0.018  10.857  0.7316 -0.2880 -0.1990
  785MPD2    H511636   1.231   4.684  10.878  0.7874  0.1472  1.1700
  785MPD2    N111637   1.046   4.478  10.487 -0.1156 -0.6168  0.3808
  785MPD2    H711638   1.121   4.420  10.524  1.5667  1.6932  0.6193
  786MPD2     C11639   0.709   3.334  14.888  0.4731  0.0108  0.0631
  786MPD2    C111640   0.716   3.202  14.926  0.8209 -0.4459  0.3671
  786MPD2    C211641   0.795   3.173  15.041  0.1738 -0.7326  0.5298
  786MPD2    C311642   0.858   3.271  15.116  0.3250  0.3005  0.2243
  786MPD2    C411643   0.838   3.402  15.078 -0.2437 -0.8562 -0.3234
  786MPD2    C511644   0.773   3.432  14.961  0.5691  0.8516  0.3796
  786MPD2     H11645   0.801   3.069  15.069  1.1384 -0.5972  0.8363
  786MPD2    H111646   0.887   3.486  15.127  1.2551 -1.9450  0.0333
  786MPD2    H211647   0.660   3.362  14.796 -0.0342 -1.3916 -0.0935
  786MPD2    H311648   0.778   3.533  14.922 -1.3785  1.2635  1.2057
  786MPD2     N11649   0.937   3.227  15.226  0.2528 -0.1623  0.1299
  786MPD2    H511650   0.951   3.127  15.229  0.0935 -0.1775  0.4759
  786MPD2    N111651   0.654   3.099  14.855 -0.0298 -0.1642 -0.2218
  786MPD2    H711652   0.657   3.004  14.891  1.6964 -0.7514 -1.8905
  787MPD2     C11653   0.612   2.425  14.305 -0.2094 -0.2059  0.0913
  787MPD2    C111654   0.682   2.499  14.397 -0.2623  0.0776  0.0722
  787MPD2    C211655   0.810   2.463  14.428  0.8618  0.3634  0.0883
  787MPD2    C311656   0.878   2.374  14.349  0.3447  0.2363 -0.1571
  787MPD2    C411657   0.806   2.302  14.254  0.3211  0.0941 -0.4239
  787MPD2    C511658   0.672   2.327  14.234  0.1730  0.6375 -0.2125
  787MPD2     H11659   0.870   2.532  14.486  0.7857  0.7548 -0.2980
  787MPD2    H111660   0.855   2.229  14.192 -0.4709 -0.9220  0.1454
  787MPD2    H211661   0.505   2.441  14.296  0.0838  1.0870 -1.0650
  787MPD2    H311662   0.623   2.274  14.153  1.2658 -1.2619  0.3489
  787MPD2     N11663   1.020   2.356  14.368 -0.3260  0.0663 -0.4955
  787MPD2    H511664   1.066   2.435  14.413 -1.2334  1.1426 -1.4447
  787MPD2    N111665   0.619   2.602  14.459  0.7405  0.4838  0.0828
  787MPD2    H711666   0.528   2.629  14.424  1.0728  1.0828 -0.3257
  788MPD2     C11667   3.040   2.267   1.046  0.0126  0.9439 -0.9098
  788MPD2    C111668   2.942   2.190   0.980 -0.4234  0.2456  0.5693
  788MPD2    C211669   2.847   2.252   0.901 -0.7012 -0.2947 -0.1595
  788MPD2    C311670   2.850   2.381   0.886 -0.3089  0.2264  0.0272
  788MPD2    C411671   2.937   2.457   0.954 -0.0453 -1.1822 -0.4351
  788MPD2    C511672   3.042   2.401   1.036 -0.4712  0.0039 -0.0340
  788MPD2     H11673   2.782   2.185   0.844 -0.1585  0.8796 -2.1470
  788MPD2    H111674   2.944   2.565   0.942 -1.7570 -0.9781  0.2900
  788MPD2    H211675   3.113   2.219   1.110  1.5278  3.9356 -0.3916
  788MPD2    H311676   3.111   2.460   1.095  1.0830 -1.7397 -0.0924
  788MPD2     N11677   2.760   2.456   0.805 -0.7620  0.1786  0.5503
  788MPD2    H511678   2.786   2.554   0.796 -0.3343 -0.0688 -0.9202
  788MPD2    N111679   2.956   2.048   0.993 -0.0412 -0.9950 -0.3409
  788MPD2    H711680   3.038   2.018   1.044  1.1040  0.7969 -1.1578
  789MPD2     C11681   3.222   0.906  16.428 -0.1894  0.3137 -0.3983
  789MPD2    C111682   3.155   0.963  16.327 -0.0039  0.2964 -0.0916
  789MPD2    C211683   3.096   1.083  16.355 -0.0969  0.5936 -1.2324
  789MPD2    C311684   3.114   1.153  16.476  0.2795 -0.3816  0.7392
  789MPD2    C411685   3.195   1.099  16.570 -0.5127 -0.2282 -0.5738
  789MPD2    C511686   3.239   0.972  16.547  0.1248 -0.5378 -0.3822
  789MPD2     H11687   3.031   1.128  16.281 -2.5426  1.3865  1.4039
  789MPD2    H111688   3.218   1.140  16.668  0.0881 -0.5486 -0.5802
  789MPD2    H211689   3.269   0.808  16.427  1.7930  1.2702 -1.7199
  789MPD2    H311690   3.286   0.916  16.627  0.1823  3.3803  2.3681
  789MPD2     N11691   3.049   1.275  16.506 -0.3416 -0.0697  1.3206
  789MPD2    H511692   3.070   1.304  16.601  1.2161  0.5941  0.7857
  789MPD2    N111693   3.147   0.906  16.197  0.3347 -0.1979  0.7150
  789MPD2    H711694   3.101   0.957  16.122  1.3997 -0.5486 -0.1741
  790MPD2     C11695   3.228   2.746  13.768  0.6988  0.2018  0.3052
  790MPD2    C111696   3.319   2.643  13.738  0.4962 -0.1052  0.1201
  790MPD2    C211697   3.332   2.599  13.611 -0.5042 -0.8423  0.2592
  790MPD2    C311698   3.252   2.656  13.513 -0.2508  0.1973  0.2090
  790MPD2    C411699   3.171   2.766  13.539  0.2790 -0.0022  0.3183
  790MPD2    C511700   3.165   2.811  13.664 -1.0314 -0.4213 -0.1559
  790MPD2     H11701   3.393   2.512  13.592 -2.2491 -1.3296 -3.1665
  790MPD2    H111702   3.092   2.804  13.475  0.0187 -0.9894  0.0517
  790MPD2    H211703   3.213   2.783  13.869 -0.1002  0.5716  0.0464
  790MPD2    H311704   3.095   2.887  13.696  0.6122  0.3452  1.6261
  790MPD2     N11705   3.252   2.585  13.388  0.0599  0.0760 -0.1666
  790MPD2    H511706   3.324   2.514  13.375  1.1733  0.8080  1.8728
  790MPD2    N111707   3.403   2.600  13.843 -0.0113  0.1610 -0.0961
  790MPD2    H711708   3.382   2.629  13.938 -1.1110  2.6610 -1.0936
  791MPD2     C11709   2.713   2.412  12.804 -0.0908  0.3727  0.5398
  791MPD2    C111710   2.731   2.318  12.904  0.3974  0.2728  0.5260
  791MPD2    C211711   2.635   2.221  12.921 -0.0482 -0.2241  0.1041
  791MPD2    C311712   2.514   2.224  12.849  0.1471  0.4450  0.0966
  791MPD2    C411713   2.502   2.315  12.751  0.3929 -0.7596  0.4202
  791MPD2    C511714   2.603   2.408  12.728  0.1523  0.1676 -0.4420
  791MPD2     H11715   2.638   2.151  13.003  0.7258  1.6029  1.6550
  791MPD2    H111716   2.415   2.302  12.688  1.3529 -1.8146 -0.6904
  791MPD2    H211717   2.805   2.469  12.799 -1.1006  1.9344  0.1429
  791MPD2    H311718   2.594   2.481  12.649 -1.0819  1.5362  0.9410
  791MPD2     N11719   2.414   2.124  12.869  0.2214  0.0242  0.2917
  791MPD2    H511720   2.443   2.055  12.937 -1.1144 -1.4009 -0.5977
  791MPD2    N111721   2.848   2.337  12.981  0.9265  0.4527  0.4402
  791MPD2    H711722   2.895   2.427  12.971  1.3181  0.2330  0.3183
  792MPD2     C11723   3.290   1.961  11.288 -0.7124 -0.2639 -0.5054
  792MPD2    C111724   3.363   1.958  11.171 -0.5018 -1.1241 -0.3008
  792MPD2    C211725   3.411   1.835  11.126  0.1144 -0.4287  1.0117
  792MPD2    C311726   3.348   1.721  11.176  0.1975 -0.6522  0.1595
  792MPD2    C411727   3.265   1.736  11.285 -0.1790  0.4039 -0.5671
  792MPD2    C511728   3.243   1.854  11.349  0.2196  0.3108  0.3556
  792MPD2     H11729   3.480   1.836  11.042 -0.1676 -1.4168  0.7666
  792MPD2    H111730   3.239   1.647  11.342  2.8410 -0.2530 -0.2518
  792MPD2    H211731   3.277   2.058  11.335 -1.5323 -1.4725  1.7431
  792MPD2    H311732   3.193   1.859  11.445 -0.8278 -1.1072 -0.1256
  792MPD2     N11733   3.373   1.589  11.129 -0.0168 -0.2215 -0.1624
  792MPD2    H511734   3.326   1.511  11.176  1.4736 -0.5637  0.7452
  792MPD2    N111735   3.422   2.081  11.133  0.2198  0.0655 -0.3004
  792MPD2    H711736   3.398   2.160  11.192  1.9440  0.9289 -0.7684
  793MPD2     C11737   2.798   1.338  10.499  0.3238  0.3490 -1.0213
  793MPD2    C111738   2.874   1.452  10.514  0.2060  0.1038 -0.8481
  793MPD2    C211739   2.976   1.444  10.609  0.5699  0.3568  0.2456
  793MPD2    C311740   3.011   1.335  10.682  0.1917 -0.2240  0.0406
  793MPD2    C411741   2.947   1.214  10.654 -0.2231 -0.3680 -0.0971
  793MPD2    C511742   2.836   1.224  10.570 -0.3849 -0.5718  0.1269
  793MPD2     H11743   3.035   1.535  10.619  2.8864 -1.3174  1.5602
  793MPD2    H111744   2.965   1.118  10.701  0.0032 -0.0578  0.4592
  793MPD2    H211745   2.720   1.328  10.425  0.5153 -2.0219 -0.8983
  793MPD2    H311746   2.777   1.137  10.543 -1.5416  0.1679  0.2503
  793MPD2     N11747   3.127   1.346  10.764  0.1081 -0.2872  0.0874
  793MPD2    H511748   3.171   1.437  10.770  0.3302 -0.4109  0.3300
  793MPD2    N111749   2.855   1.578  10.451 -0.0102  0.1479  0.0604
  793MPD2    H711750   2.918   1.654  10.473  1.2415 -0.8967  0.1065
  794MPD2     C11751   3.950   2.290  17.305  0.4684 -0.3536 -0.5593
  794MPD2    C111752   3.913   2.157  17.307  0.3298 -0.1840 -0.6303
  794MPD2    C211753   3.847   2.103  17.200  0.0661 -0.5548  0.1543
  794MPD2    C311754   3.806   2.185  17.100 -0.4097  0.2705 -0.0875
  794MPD2    C411755   3.843   2.315  17.094  0.6277  0.6370  0.4939
  794MPD2    C511756   3.919   2.369  17.203  0.6571  0.4813  0.1179
  794MPD2     H11757   3.815   2.000  17.212  0.9126 -1.1502 -2.7187
  794MPD2    H111758   3.815   2.390  17.021  2.5013 -0.2359 -1.1490
  794MPD2    H211759   3.987   2.343  17.392 -1.6341  0.4691 -0.1756
  794MPD2    H311760   3.948   2.473  17.188  1.1345  0.5206  1.3839
  794MPD2     N11761   3.711   2.147  16.998  0.3390 -0.7326 -0.3368
  794MPD2    H511762   3.671   2.224  16.946  0.6218  0.3919  1.1264
  794MPD2    N111763   3.933   2.070  17.420 -0.4517 -0.6551  0.2331
  794MPD2    H711764   3.884   1.981  17.409  1.9302 -1.8456 -0.6722
  795MPD2     C11765   1.349   4.061  13.851 -0.0266  0.3567  0.9732
  795MPD2    C111766   1.273   3.941  13.847 -0.7270 -0.6425 -0.4593
  795MPD2    C211767   1.345   3.820  13.864  0.1344  0.9583  0.5553
  795MPD2    C311768   1.485   3.819  13.871 -0.5041 -0.4669 -0.3840
  795MPD2    C411769   1.554   3.943  13.877 -0.6449 -0.8913  0.5626
  795MPD2    C511770   1.489   4.056  13.862  0.1081 -0.0206 -0.1533
  795MPD2     H11771   1.291   3.727  13.858  3.5104 -0.9720 -0.2981
  795MPD2    H111772   1.661   3.956  13.891 -1.1070  1.3830  1.8999
  795MPD2    H211773   1.297   4.156  13.837 -1.3615 -0.7656 -1.7736
  795MPD2    H311774   1.542   4.150  13.858 -1.7960  1.0389 -0.2446
  795MPD2     N11775   1.552   3.693  13.898  0.2023  0.4456  0.4011
  795MPD2    H511776   1.492   3.611  13.899 -0.7258  1.1303  1.6708
  795MPD2    N111777   1.126   3.935  13.830 -0.0691  0.7164  0.5126
  795MPD2    H711778   1.083   3.843  13.824  1.0591  0.4806 -4.5592
  796MPD2     C11779   1.034   0.768  15.874 -0.4007  0.5234  0.1564
  796MPD2    C111780   1.127   0.812  15.968 -0.2044  0.1416 -0.2748
  796MPD2    C211781   1.133   0.942  15.991 -0.1581 -0.4955 -0.0507
  796MPD2    C311782   1.047   1.028  15.928 -0.3769 -0.1572 -0.6981
  796MPD2    C411783   0.958   0.984  15.834 -0.7561 -0.6117  0.5642
  796MPD2    C511784   0.946   0.850  15.805 -0.0962 -0.0195 -0.0046
  796MPD2     H11785   1.201   0.977  16.067 -0.1886 -0.4049 -0.0659
  796MPD2    H111786   0.890   1.048  15.778 -2.0092 -0.6098  2.1094
  796MPD2    H211787   1.023   0.670  15.830  1.1703 -0.6368  2.3573
  796MPD2    H311788   0.887   0.809  15.725 -1.0433 -0.0927  0.7369
  796MPD2     N11789   1.056   1.167  15.956  0.4666 -0.0439 -0.6739
  796MPD2    H511790   1.123   1.194  16.028  0.5523 -3.0967  0.4149
  796MPD2    N111791   1.196   0.723  16.052  0.1758  0.4691  0.3965
  796MPD2    H711792   1.259   0.756  16.124  1.0778  0.9803 -0.6249
  797MPD2     C11793   1.782   0.667  17.570 -0.3974  0.2820 -0.0398
  797MPD2    C111794   1.748   0.803  17.579 -0.5368  0.4913 -0.0915
  797MPD2    C211795   1.653   0.846  17.490  0.1038 -0.0274 -0.1000
  797MPD2    C311796   1.576   0.757  17.422 -0.1813  0.4600  0.3294
  797MPD2    C411797   1.602   0.622  17.428 -0.0865 -0.4165 -0.3530
  797MPD2    C511798   1.712   0.575  17.496 -0.0308 -0.6503  0.2287
  797MPD2     H11799   1.637   0.953  17.477  1.0473  0.3080  1.4490
  797MPD2    H111800   1.545   0.547  17.375 -0.5922 -1.1507  1.2333
  797MPD2    H211801   1.863   0.631  17.633 -1.1195 -0.9268  0.2029
  797MPD2    H311802   1.738   0.470  17.500 -1.1497 -0.9581 -0.7214
  797MPD2     N11803   1.476   0.819  17.341  0.5630 -0.1634 -0.3882
  797MPD2    H511804   1.474   0.921  17.339  1.5885 -0.1033  1.1299
  797MPD2    N111805   1.816   0.898  17.647  0.0676 -0.7376 -0.1962
  797MPD2    H711806   1.772   0.990  17.646  0.4771 -0.5175  2.9005
  798MPD2     C11807   1.687   1.416  17.146  0.3167 -0.2127 -0.2166
  798MPD2    C111808   1.639   1.330  17.230 -0.8173  0.0274 -0.3411
  798MPD2    C211809   1.696   1.317  17.358  0.1655 -0.3760  0.1627
  798MPD2    C311810   1.817   1.377  17.384 -0.0212 -0.7386  0.4110
  798MPD2    C411811   1.877   1.455  17.282 -0.3499  0.1670  0.0693
  798MPD2    C511812   1.808   1.482  17.165  0.4599 -0.3839 -0.0379
  798MPD2     H11813   1.650   1.254  17.433 -1.6154  1.1585  0.3684
  798MPD2    H111814   1.982   1.482  17.283 -0.4919  0.7204  0.7160
  798MPD2    H211815   1.641   1.423  17.048  0.3495 -0.1708 -0.2293
  798MPD2    H311816   1.853   1.525  17.076 -1.0595 -1.4704 -1.3539
  798MPD2     N11817   1.888   1.327  17.493 -0.4967  0.5038 -0.1616
  798MPD2    H511818   1.836   1.274  17.562  0.2841  3.2556  2.5172
  798MPD2    N111819   1.526   1.260  17.184 -0.0599 -0.1217 -0.4156
  798MPD2    H711820   1.493   1.294  17.094  0.6699 -0.3212 -0.7530
  799MPD2     C11821   1.192   1.737  14.414  0.4094  0.3123 -0.4931
  799MPD2    C111822   1.052   1.736  14.411 -0.1644  0.0788 -0.4515
  799MPD2    C211823   0.986   1.792  14.302 -0.0124 -0.1174  0.6215
  799MPD2    C311824   1.056   1.856  14.204  0.2869 -0.3993 -0.6530
  799MPD2    C411825   1.196   1.858  14.208 -0.4958  0.6922 -0.4171
  799MPD2    C511826   1.261   1.791  14.305  0.1982 -0.5161  0.4841
  799MPD2     H11827   0.878   1.790  14.302  0.0136 -1.3739  0.1410
  799MPD2    H111828   1.252   1.918  14.137 -0.1827 -0.8547 -1.4828
  799MPD2    H211829   1.253   1.712  14.499 -0.8631  2.0935  0.9323
  799MPD2    H311830   1.368   1.787  14.315  0.3269  0.1400 -0.7157
  799MPD2     N11831   0.999   1.924  14.093 -0.2220  1.0867 -0.2470
  799MPD2    H511832   1.056   1.983  14.033 -1.5934  1.5003 -1.1599
  799MPD2    N111833   0.963   1.679  14.505 -0.2571 -0.5453 -0.4062
  799MPD2    H711834   0.864   1.698  14.492 -0.0725  0.0502 -0.9822
  800MPD2     C11835   1.038   3.182  14.517  0.6749  0.1235 -0.2007
  800MPD2    C111836   1.142   3.099  14.486  1.1331  0.1882  0.7694
  800MPD2    C211837   1.120   2.977  14.425 -0.4174 -0.6357 -0.2568
  800MPD2    C311838   0.992   2.935  14.402 -0.0017 -0.1789 -0.0975
  800MPD2    C411839   0.886   3.016  14.435  0.3304 -0.2239  0.5361
  800MPD2    C511840   0.910   3.137  14.493  0.2273  0.1705  0.6451
  800MPD2     H11841   1.195   2.914  14.380 -0.5132  2.1547 -4.2756
  800MPD2    H111842   0.788   2.986  14.402 -0.1356  3.0169 -1.0486
  800MPD2    H211843   1.056   3.283  14.553 -0.8728  0.3231  0.0158
  800MPD2    H311844   0.825   3.204  14.498 -0.4160 -0.7636  2.3254
  800MPD2     N11845   0.978   2.824  14.314  0.2204  0.4829  0.0872
  800MPD2    H511846   1.066   2.778  14.294 -0.6964 -0.5646 -1.4979
  800MPD2    N111847   1.271   3.152  14.487 -0.1279 -0.3071  0.0112
  800MPD2    H711848   1.280   3.249  14.514 -1.6603 -0.3318  0.6325
  801MPD2     C11849   1.540   3.794  14.227 -0.2991  0.5648 -0.0720
  801MPD2    C111850   1.626   3.739  14.320  0.0298 -0.1162 -0.3023
  801MPD2    C211851   1.710   3.820  14.385 -0.1998 -0.1377 -0.6148
  801MPD2    C311852   1.701   3.960  14.377 -0.2551  0.0123 -0.2207
  801MPD2    C411853   1.622   4.017  14.277  0.1113 -0.5823  0.6580
  801MPD2    C511854   1.542   3.928  14.203  0.0684 -0.5226 -0.5738
  801MPD2     H11855   1.772   3.778  14.463  1.1385  0.4375 -1.3644
  801MPD2    H111856   1.622   4.123  14.253 -1.4626 -1.3316 -2.6070
  801MPD2    H211857   1.471   3.736  14.167  0.1530 -1.3863  1.2817
  801MPD2    H311858   1.481   3.969  14.124 -1.0834  1.3934  1.3013
  801MPD2     N11859   1.770   4.052  14.457 -0.2418 -0.3996  0.1633
  801MPD2    H511860   1.773   4.145  14.416 -0.3979 -1.1763 -1.6076
  801MPD2    N111861   1.637   3.598  14.339  0.1752 -0.6284  0.1351
  801MPD2    H711862   1.713   3.572  14.401 -0.0286 -3.0668 -0.6366
  802MPD2     C11863   0.630   0.429  17.568 -0.2665  0.9271 -0.3943
  802MPD2    C111864   0.668   0.316  17.635 -0.2888 -0.4043  0.8111
  802MPD2    C211865   0.792   0.265  17.620 -0.4796 -0.1749 -0.4984
  802MPD2    C311866   0.886   0.337  17.544 -0.0187  0.0103 -0.8717
  802MPD2    C411867   0.849   0.453  17.479 -0.3567  0.0687  0.3664
  802MPD2    C511868   0.716   0.491  17.481  0.6197 -0.2598 -0.0738
  802MPD2     H11869   0.814   0.171  17.672  2.0768  0.4980 -0.3758
  802MPD2    H111870   0.909   0.517  17.416  1.7454 -0.1266  2.1640
  802MPD2    H211871   0.528   0.466  17.567 -0.1354  1.4388  3.6195
  802MPD2    H311872   0.687   0.581  17.429 -0.5677 -1.2873 -1.1753
  802MPD2     N11873   1.017   0.290  17.532  0.4710  0.5923 -0.5285
  802MPD2    H511874   1.039   0.205  17.583  0.6225  0.1791 -1.2681
  802MPD2    N111875   0.593   0.263  17.740 -0.7563  0.4876  0.0893
  802MPD2    H711876   0.645   0.193   0.036 -0.8578 -2.2826 -3.5448
  803MPD2     C11877   0.857   2.490  12.378 -0.0526  0.1592 -0.6051
  803MPD2    C111878   0.978   2.549  12.398  0.5170  0.1975  0.4373
  803MPD2    C211879   1.039   2.550  12.527  0.0219 -0.0751 -0.3340
  803MPD2    C311880   0.983   2.475  12.634  0.2009 -0.3921  0.1464
  803MPD2    C411881   0.867   2.410  12.604 -0.3445  0.1423  0.0482
  803MPD2    C511882   0.807   2.411  12.479 -0.1263 -0.5831  0.7699
  803MPD2     H11883   1.132   2.603  12.540 -0.7745  1.3315 -0.4118
  803MPD2    H111884   0.820   2.358  12.687  3.6666 -0.1258  2.1531
  803MPD2    H211885   0.797   2.494  12.288 -1.3094  2.3390  0.3196
  803MPD2    H311886   0.715   2.355  12.477  0.2299 -1.0332 -2.8770
  803MPD2     N11887   1.036   2.455  12.761  0.1181 -1.0759  0.4237
  803MPD2    H511888   0.983   2.391  12.818 -0.4863 -1.5630 -0.6804
  803MPD2    N111889   1.044   2.619  12.298  0.0782  0.3523  0.5306
  803MPD2    H711890   1.128   2.672  12.319  0.3928 -0.6583  1.7897
  804MPD2     C11891   1.530   4.028  17.054 -1.1212  0.0662 -0.0383
  804MPD2    C111892   1.546   3.927  17.152  0.0274  0.2574 -0.5954
  804MPD2    C211893   1.644   3.935  17.247 -0.2067 -0.1215 -0.3439
  804MPD2    C311894   1.742   4.031  17.232  0.0555 -0.5689  0.4022
  804MPD2    C411895   1.729   4.122  17.126 -0.2730  0.0015 -0.4475
  804MPD2    C511896   1.625   4.124  17.039  0.3056  0.2477  0.0343
  804MPD2     H11897   1.647   3.860  17.325 -0.6525 -1.0096 -1.1740
  804MPD2    H111898   1.797   4.206  17.120  1.0575 -1.1303 -1.3595
  804MPD2    H211899   1.453   4.022  16.978 -0.0188  1.0322 -1.2388
  804MPD2    H311900   1.615   4.203  16.966  0.8144  0.9400  0.7129
  804MPD2     N11901   1.858   4.028  17.313  0.1824 -0.3945  0.6720
  804MPD2    H511902   1.863   3.943  17.369 -0.0276 -0.1168  1.1169
  804MPD2    N111903   1.460   3.819  17.163  0.3492  0.5704 -0.4111
  804MPD2    H711904   1.479   3.749  17.233  2.4545 -0.2706 -1.8081
  805MPD2     C11905   0.737   1.864  15.351 -0.0049 -0.5121 -0.1446
  805MPD2    C111906   0.817   1.952  15.284  0.0053  0.0393 -0.4840
  805MPD2    C211907   0.943   1.977  15.332  0.7426 -0.0590  1.3785
  805MPD2    C311908   0.988   1.910  15.450  0.8300  0.5497 -0.2655
  805MPD2    C411909   0.909   1.812  15.509  0.2068 -1.0106  0.1563
  805MPD2    C511910   0.787   1.790  15.453  0.2757 -0.1611  0.0057
  805MPD2     H11911   1.007   2.051  15.287 -0.7765  0.8149  0.6599
  805MPD2    H111912   0.930   1.752  15.597  1.3872 -0.7985  0.0237
  805MPD2    H211913   0.641   1.843  15.306 -0.7493  2.4070  0.0726
  805MPD2    H311914   0.734   1.706  15.496 -1.9447  1.1103 -0.2382
  805MPD2     N11915   1.102   1.960  15.510 -0.8836  0.0110 -0.1673
  805MPD2    H511916   1.158   2.033  15.467  1.6097 -2.2086 -0.7009
  805MPD2    N111917   0.774   2.013  15.161  0.1689  0.7811  0.6007
  805MPD2    H711918   0.836   2.071  15.104  0.0689  0.7524  0.4616
  806MPD2     C11919   0.975   1.890   0.478 -0.2270 -0.8814 -0.5652
  806MPD2    C111920   1.015   2.011   0.518  0.5905  0.3957  0.5228
  806MPD2    C211921   1.085   2.088   0.422 -0.0783 -0.6395 -0.0202
  806MPD2    C311922   1.126   2.033   0.296  0.0963  0.1293  0.3285
  806MPD2    C411923   1.085   1.908   0.267 -0.1142  0.1999 -0.1085
  806MPD2    C511924   1.007   1.840   0.354 -0.0481  0.0095  0.2829
  806MPD2     H11925   1.121   2.186   0.450  0.4376 -0.3380 -1.7289
  806MPD2    H111926   1.112   1.856   0.175  3.0770 -3.7781  3.1027
  806MPD2    H211927   0.925   1.828   0.551  0.0558 -0.9768 -0.4510
  806MPD2    H311928   0.998   1.732   0.347 -1.0672  0.0390  1.2662
  806MPD2     N11929   1.214   2.106   0.214 -0.4136  0.8752 -0.3455
  806MPD2    H511930   1.265   2.188   0.246  2.5643 -1.0222 -0.2480
  806MPD2    N111931   0.991   2.051   0.656 -0.1432 -0.2308  0.2141
  806MPD2    H711932   0.952   1.978   0.715  0.4505 -0.1334  0.7280
  807MPD2     C11933   0.762   1.686   1.215 -0.1153  0.5765  0.3699
  807MPD2    C111934   0.786   1.807   1.275 -0.0498  0.3288  0.2096
  807MPD2    C211935   0.724   1.829   1.394  0.4088  0.2037  0.2242
  807MPD2    C311936   0.640   1.737   1.459  0.0160  0.1966 -0.3676
  807MPD2    C411937   0.639   1.612   1.401 -0.1059  0.2553 -0.5429
  807MPD2    C511938   0.695   1.588   1.276  0.1420  0.3865  0.1029
  807MPD2     H11939   0.750   1.926   1.435  1.3845 -0.0356  0.1774
  807MPD2    H111940   0.589   1.529   1.450 -2.0611  1.0221 -1.2334
  807MPD2    H211941   0.806   1.665   1.118 -0.5747 -1.7049  0.6479
  807MPD2    H311942   0.696   1.492   1.226 -2.3650  0.4275 -0.0123
  807MPD2     N11943   0.583   1.768   1.581  0.0837  0.0121 -0.2878
  807MPD2    H511944   0.598   1.862   1.615  0.5521 -0.2683  0.2686
  807MPD2    N111945   0.868   1.908   1.210 -0.1526  0.3405 -0.0406
  807MPD2    H711946   0.889   1.987   1.271 -1.5305  0.4180  0.3347
  808MPD2     C11947   1.060   2.638  10.269  0.1384  0.4579 -0.2993
  808MPD2    C111948   1.000   2.572  10.160 -0.7276  0.9917  0.7319
  808MPD2    C211949   0.994   2.639  10.040 -0.8282  0.2486 -0.4666
  808MPD2    C311950   1.048   2.763  10.022  0.2345 -0.3404 -0.4653
  808MPD2    C411951   1.125   2.821  10.123 -0.3028 -0.7370  0.3155
  808MPD2    C511952   1.128   2.756  10.242  0.1150 -0.0313 -0.8527
  808MPD2     H11953   0.932   2.594   9.964  0.2272 -2.3579  0.2425
  808MPD2    H111954   1.171   2.917  10.107  0.1019 -0.9766  0.0512
  808MPD2    H211955   1.071   2.604  10.372 -1.0840 -0.3384 -0.4375
  808MPD2    H311956   1.191   2.801  10.318 -1.1813 -0.4253  0.4642
  808MPD2     N11957   1.034   2.836   9.906 -0.3433  0.1698  0.1708
  808MPD2    H511958   1.093   2.918   9.889 -2.1508  1.8545  1.9563
  808MPD2    N111959   0.936   2.445  10.170 -0.3587  0.0344 -0.0924
  808MPD2    H711960   0.899   2.406  10.084 -1.2253  0.1697  0.2138
  809MPD2     C11961   1.522   2.396   9.521  0.2770 -0.2902 -0.3449
  809MPD2    C111962   1.536   2.536   9.534 -0.6762 -0.4882  0.8380
  809MPD2    C211963   1.443   2.625   9.493 -0.1610 -0.2676  0.1978
  809MPD2    C311964   1.320   2.573   9.433 -0.5403  0.6638  0.0159
  809MPD2    C411965   1.305   2.435   9.421  0.8198 -0.1945  0.0706
  809MPD2    C511966   1.407   2.355   9.465  1.1159  0.3121  0.4379
  809MPD2     H11967   1.464   2.729   9.517  0.2623 -0.4878  0.7885
  809MPD2    H111968   1.213   2.387   9.389  0.2098  0.7640  0.3885
  809MPD2    H211969   1.595   2.320   9.548  0.6423 -0.3330 -1.4619
  809MPD2    H311970   1.396   2.249   9.445  2.0506 -0.0025  1.5250
  809MPD2     N11971   1.211   2.666   9.424 -0.1441  0.1843 -0.1997
  809MPD2    H511972   1.120   2.624   9.405 -0.1301 -0.6035  1.4694
  809MPD2    N111973   1.645   2.588   9.604  0.0153  0.3155  0.2288
  809MPD2    H711974   1.649   2.689   9.614 -1.5054  0.6732 -2.7498
  810MPD2     C11975   0.230   2.707  11.221 -0.3885 -0.6364  0.7440
  810MPD2    C111976   0.233   2.712  11.085  0.2310 -0.7110 -0.1427
  810MPD2    C211977   0.265   2.838  11.022  1.1644  0.0415  0.2351
  810MPD2    C311978   0.276   2.955  11.098 -0.2480 -0.5519  0.3705
  810MPD2    C411979   0.276   2.940  11.238 -0.0816 -0.2295 -0.3823
  810MPD2    C511980   0.253   2.819  11.303  0.4553  0.1906  0.2364
  810MPD2     H11981   0.261   2.852  10.915  0.0270 -1.9402  0.0258
  810MPD2    H111982   0.290   3.022  11.308  0.1070 -0.3969 -0.2240
  810MPD2    H211983   0.212   2.611  11.267 -0.2851 -1.8576 -1.8183
  810MPD2    H311984   0.258   2.811  11.411 -0.3068 -0.9614  0.1833
  810MPD2     N11985   0.293   3.075  11.031 -0.4571 -0.0522 -0.9159
  810MPD2    H511986   0.323   3.074  10.935  0.9317 -1.0090 -0.4708
  810MPD2    N111987   0.222   2.583  11.018 -0.0637  0.6171  0.2895
  810MPD2    H711988   0.192   2.503  11.073  0.9557  0.5156  0.6912
  811MPD2     C11989   0.019   2.406  10.245 -0.0034 -0.2677  0.4743
  811MPD2    C111990   0.133   2.442  10.320  0.1933 -0.3124  0.2765
  811MPD2    C211991   0.192   2.562  10.283  0.3460 -0.1857 -0.1267
  811MPD2    C311992   0.158   2.637  10.174 -0.4513 -0.3701 -0.3840
  811MPD2    C411993   0.052   2.598  10.104  0.0333  0.8707  0.7512
  811MPD2    C511994   4.725   2.482  10.138  0.3541  0.3465  0.2457
  811MPD2     H11995   0.286   2.586  10.332  0.8920 -2.5771  0.0217
  811MPD2    H111996   0.010   2.650  10.018 -1.3733  0.6091  1.2855
  811MPD2    H211997   4.711   2.311  10.268 -0.7277 -0.5650 -2.2561
  811MPD2    H311998   4.636   2.462  10.079 -0.8782 -1.3191  2.6961
  811MPD2     N11999   0.241   2.756  10.151 -0.1931  0.1256 -0.5339
  811MPD2    H512000   0.320   2.769  10.214  0.5620 -1.6012 -1.1075
  811MPD2    N112001   0.171   2.378  10.440  0.3092  0.0318 -0.1242
  811MPD2    H712002   0.246   2.417  10.497  0.5566 -0.1029 -0.3577
  812MPD2     C12003   4.022   2.119  12.223 -0.4057  0.1274 -0.2788
  812MPD2    C112004   3.995   2.228  12.300  0.3445 -0.0709  0.3796
  812MPD2    C212005   4.010   2.218  12.437  0.1062  0.6329  0.5759
  812MPD2    C312006   4.066   2.109  12.500 -0.2305  0.2958 -0.5537
  812MPD2    C412007   4.105   2.007  12.422 -0.9484  0.8452  0.1458
  812MPD2    C512008   4.072   2.009  12.290 -0.3373 -0.5567 -0.6723
  812MPD2     H12009   3.990   2.309  12.492  0.9214  1.1879 -0.0556
  812MPD2    H112010   4.149   1.917  12.463 -0.5046  0.7986 -0.4264
  812MPD2    H212011   4.003   2.113  12.117  1.6821  0.7531 -0.6726
  812MPD2    H312012   4.109   1.924  12.233  1.2895 -0.6058  0.4381
  812MPD2     N12013   4.097   2.118  12.637 -0.0091 -0.1443 -0.0092
  812MPD2    H512014   4.069   2.200  12.689 -1.0625  1.4668 -3.1149
  812MPD2    N112015   3.927   2.338  12.240 -0.0463 -0.4382  0.3326
  812MPD2    H712016   3.910   2.329  12.141 -1.6662 -1.3538  0.6895
  813MPD2     C12017   3.353   3.976  13.025 -1.2515  0.4901 -0.5308
  813MPD2    C112018   3.389   4.097  13.083 -0.5296  0.1818  0.6648
  813MPD2    C212019   3.318   4.143  13.193  0.0937 -0.0821 -0.0477
  813MPD2    C312020   3.205   4.075  13.230  0.1246 -0.2634 -0.6520
  813MPD2    C412021   3.164   3.963  13.160  0.6375  0.2902 -0.3071
  813MPD2    C512022   3.241   3.914  13.057  0.5446 -0.1769  0.0668
  813MPD2     H12023   3.349   4.223  13.260 -0.0545 -1.2063  1.3581
  813MPD2    H112024   3.075   3.906  13.183  0.0545  0.7733 -1.3166
  813MPD2    H212025   3.420   3.937  12.949 -0.6794  0.7504 -0.1636
  813MPD2    H312026   3.208   3.832  12.995  0.0201  0.1000 -0.0177
  813MPD2     N12027   3.133   4.121  13.341  0.2130  0.0717  0.1847
  813MPD2    H512028   3.163   4.206  13.388  2.1627 -0.3208 -0.3509
  813MPD2    N112029   3.497   4.169  13.036 -0.0515  0.2110  0.7906
  813MPD2    H712030   3.570   4.124  12.981 -0.5776 -0.4935  0.6781
  814MPD2     C12031   3.602   0.359  12.559  0.6841 -0.3347 -0.6807
  814MPD2    C112032   3.631   0.447  12.455 -0.5225 -0.0769 -0.0514
  814MPD2    C212033   3.681   0.576  12.483  0.7502 -0.4096  0.4225
  814MPD2    C312034   3.701   0.615  12.615  0.5979 -0.7022  0.2097
  814MPD2    C412035   3.664   0.527  12.717  0.5124 -0.2796  0.0374
  814MPD2    C512036   3.614   0.399  12.688  0.2839  0.3374  0.8268
  814MPD2     H12037   3.697   0.647  12.402  0.5010 -0.8110  0.0206
  814MPD2    H112038   3.673   0.551  12.822  0.2431 -1.2325  0.2845
  814MPD2    H212039   3.561   0.260  12.540 -1.8677  0.4510  0.6630
  814MPD2    H312040   3.604   0.334  12.775  0.0523  0.6330  1.0216
  814MPD2     N12041   3.743   0.741  12.658  0.5060  0.4108 -0.8074
  814MPD2    H512042   3.737   0.765  12.757 -0.0862  0.0432 -0.7517
  814MPD2    N112043   3.622   0.403  12.320 -0.2027  0.7365  0.0832
  814MPD2    H712044   3.664   0.462  12.248 -0.3134 -0.1968 -0.7441
  815MPD2     C12045   4.368   4.103  11.833 -0.2731  0.0811  0.2568
  815MPD2    C112046   4.316   3.986  11.880  0.1645 -0.6795  0.2367
  815MPD2    C212047   4.212   3.987  11.970  0.1420 -0.7758 -0.1648
  815MPD2    C312048   4.162   4.106  12.009 -0.5605 -0.9587  0.1369
  815MPD2    C412049   4.229   4.221  11.966 -0.8268  0.3813  0.9493
  815MPD2    C512050   4.333   4.222  11.884  0.0841  0.2575 -0.6921
  815MPD2     H12051   4.171   3.894  12.008 -0.1637 -0.1512  0.9980
  815MPD2    H112052   4.188   4.318  11.992  0.3594  1.1001  0.1520
  815MPD2    H212053   4.456   4.102  11.770  0.6761 -0.0510  1.5797
  815MPD2    H312054   4.357   4.320  11.845 -2.1918  1.6124  1.3424
  815MPD2     N12055   4.057   4.114  12.102  0.5716 -0.2277  0.1291
  815MPD2    H512056   4.018   4.023  12.126 -0.0581  0.1427  0.5160
  815MPD2    N112057   4.360   3.859  11.830  0.5804 -0.6393 -0.4785
  815MPD2    H712058   4.428   3.866  11.754  1.0850  2.2612  0.2300
  816MPD2     C12059   4.449   3.158  17.401 -0.1888 -0.5953  0.3200
  816MPD2    C112060   4.542   3.262  17.382  0.9342  0.3879 -0.7357
  816MPD2    C212061   4.669   3.233  17.330  0.5408 -0.4984  0.3221
  816MPD2    C312062   4.697   3.102  17.287 -0.1635  0.4955  0.5779
  816MPD2    C412063   4.605   2.999  17.309  1.2875 -0.1916 -0.4100
  816MPD2    C512064   4.481   3.028  17.370  0.3370  0.5253  0.5695
  816MPD2     H12065   0.006   3.304  17.301  0.9740 -0.8256  0.6827
  816MPD2    H112066   4.621   2.895  17.281  1.2997 -0.5070  0.7945
  816MPD2    H212067   4.356   3.182  17.452  1.9146  3.8497  2.0350
  816MPD2    H312068   4.412   2.948  17.395 -0.5795  1.7429  1.8733
  816MPD2     N12069   0.082   3.079  17.223  0.4987 -0.9225 -0.0878
  816MPD2    H512070   0.130   3.168  17.211  0.2841 -0.8402 -0.3342
  816MPD2    N112071   4.508   3.398  17.408  0.2702 -0.3996 -0.1510
  816MPD2    H712072   4.409   3.408  17.426  0.1295  2.6338 -2.4851
  817MPD2     C12073   3.521   4.497   9.799  0.1767  0.7014  0.4633
  817MPD2    C112074   3.457   4.387   9.744 -0.0613 -0.0418 -0.1799
  817MPD2    C212075   3.364   4.411   9.638 -0.1846  0.1366  0.2181
  817MPD2    C312076   3.324   4.541   9.607 -0.1622 -0.5350 -0.0367
  817MPD2    C412077   3.396   4.646   9.662  0.6026  0.1334 -0.0196
  817MPD2    C512078   3.494   4.624   9.751 -0.1341 -0.2672 -0.4856
  817MPD2     H12079   3.318   4.325   9.589  1.2213 -0.0182 -0.8501
  817MPD2    H112080   3.390   0.009   9.628  0.1672  0.8325  2.2011
  817MPD2    H212081   3.595   4.497   9.879 -0.0729  0.1770  0.6921
  817MPD2    H312082   3.556   4.705   9.788 -0.8859 -0.9231  2.1997
  817MPD2     N12083   3.232   4.555   9.500 -0.5183  0.0768 -0.5859
  817MPD2    H512084   3.194   4.468   9.466 -0.2007 -0.1106 -0.4630
  817MPD2    N112085   3.488   4.256   9.793  0.7542 -0.0848 -0.1930
  817MPD2    H712086   3.435   4.186   9.741 -1.5448  1.6526 -0.1751
  818MPD2     C12087   3.076   4.397  10.010  0.1089 -0.0184  0.1131
  818MPD2    C112088   2.972   4.351  10.089  0.6300  0.8479 -0.1284
  818MPD2    C212089   2.968   4.218  10.120  0.1232 -0.3194 -0.1500
  818MPD2    C312090   3.065   4.128  10.078 -0.4415 -0.8112  0.0203
  818MPD2    C412091   3.177   4.181  10.022 -0.5777 -0.0341 -1.0219
  818MPD2    C512092   3.180   4.316   9.985 -0.2337 -0.1442  0.8249
  818MPD2     H12093   2.884   4.180  10.177  0.1822 -0.3891 -0.1091
  818MPD2    H112094   3.265   4.123   9.997  0.3584  1.3715 -1.0151
  818MPD2    H212095   3.089   4.497   9.970  1.2855 -0.5616 -0.8523
  818MPD2    H312096   3.263   4.354   9.927 -0.2954 -0.9361  0.2313
  818MPD2     N12097   3.070   3.990  10.108 -0.1423 -0.8608  0.0834
  818MPD2    H512098   3.158   3.940  10.112  0.7824  0.7766  0.3388
  818MPD2    N112099   2.863   4.432  10.135 -0.0574 -1.0207  0.2967
  818MPD2    H712100   2.793   4.386  10.192 -0.3746 -0.5262  0.3040
  819MPD2     C12101   1.446   1.791  15.521  0.0371 -0.2798 -0.0641
  819MPD2    C112102   1.419   1.676  15.596 -0.0287 -0.0507  0.5019
  819MPD2    C212103   1.501   1.642  15.702  0.5350 -0.3564 -0.2040
  819MPD2    C312104   1.588   1.733  15.747 -0.7206  0.9048  0.7576
  819MPD2    C412105   1.617   1.851  15.677 -1.0283 -0.0362 -0.0431
  819MPD2    C512106   1.544   1.879  15.563 -0.0842  0.0021 -0.6135
  819MPD2     H12107   1.491   1.546  15.750 -0.9106 -0.6367 -1.0557
  819MPD2    H112108   1.680   1.933  15.711 -1.5320  0.2926  0.0975
  819MPD2    H212109   1.388   1.828  15.437 -0.2028 -2.2976 -0.7918
  819MPD2    H312110   1.559   1.970  15.507  3.3528 -1.2599 -1.7415
  819MPD2     N12111   1.655   1.694  15.863 -0.2926  0.6378  0.0694
  819MPD2    H512112   1.641   1.601  15.901 -0.6288  0.6093 -0.1221
  819MPD2    N112113   1.307   1.597  15.547  0.3248  0.2067 -0.1384
  819MPD2    H712114   1.266   1.614  15.456  2.4353 -1.0541 -1.2979
  820MPD2     C12115   0.507   1.516  14.943 -0.5835 -0.0822  0.0451
  820MPD2    C112116   0.613   1.601  14.968  0.5193  0.4002  0.7573
  820MPD2    C212117   0.711   1.568  15.065 -0.3835  0.1616 -0.5551
  820MPD2    C312118   0.686   1.458  15.145  0.2406 -0.0693 -0.6087
  820MPD2    C412119   0.587   1.364  15.110  0.0357 -0.7193  0.2432
  820MPD2    C512120   0.498   1.399  15.009 -0.4512  0.1121  0.4351
  820MPD2     H12121   0.789   1.640  15.086  2.0138 -2.4937 -0.3317
  820MPD2    H112122   0.569   1.273  15.166 -0.4520  0.0985  1.4089
  820MPD2    H212123   0.431   1.540  14.870 -0.1819  1.9310  0.2731
  820MPD2    H312124   0.411   1.340  14.983 -0.2758 -0.3657  0.9278
  820MPD2     N12125   0.765   1.441  15.257  0.2349 -0.9123 -0.4389
  820MPD2    H512126   0.729   1.377  15.326  1.4026  0.3090  1.3154
  820MPD2    N112127   0.618   1.711  14.881 -0.0193 -0.1335  0.3845
  820MPD2    H712128   0.534   1.738  14.830  0.6388  1.1205 -0.0196
  821MPD2     C12129   0.975   3.062  13.551 -0.0406 -0.4429  0.2467
  821MPD2    C112130   1.083   2.989  13.605 -0.5293  0.7275  0.4831
  821MPD2    C212131   1.207   2.993  13.544  0.0367  0.3117  0.4737
  821MPD2    C312132   1.229   3.066  13.427 -0.2091 -0.2730  0.0882
  821MPD2    C412133   1.123   3.138  13.373  0.8761  0.1992 -0.5127
  821MPD2    C512134   0.997   3.134  13.430  0.1395 -0.3967 -0.2517
  821MPD2     H12135   1.291   2.944  13.591 -0.6861 -2.1140 -0.7639
  821MPD2    H112136   1.139   3.185  13.277  2.0360 -1.2531 -1.0343
  821MPD2    H212137   0.877   3.061  13.596 -0.1630 -1.2607 -0.0334
  821MPD2    H312138   0.913   3.185  13.383  1.1005  1.0991 -0.3363
  821MPD2     N12139   1.357   3.073  13.366 -0.1845 -0.3382  0.1307
  821MPD2    H512140   1.365   3.144  13.293 -0.6408 -0.2181  0.1931
  821MPD2    N112141   1.076   2.909  13.723 -0.7464  0.1191  0.3921
  821MPD2    H712142   1.163   2.870  13.759 -0.2675  1.3669  0.5640
  822MPD2     C12143   2.339   2.977  15.818 -0.0745 -0.7743 -0.2363
  822MPD2    C112144   2.320   2.947  15.951 -0.3170 -0.0576  0.3804
  822MPD2    C212145   2.228   3.030  16.027  0.1633 -0.2009  0.5138
  822MPD2    C312146   2.168   3.135  15.955 -0.1165 -0.5507  0.2588
  822MPD2    C412147   2.180   3.150  15.817 -0.2306  0.5738  0.0451
  822MPD2    C512148   2.263   3.069  15.751  0.5384  0.2688 -0.5206
  822MPD2     H12149   2.214   3.018  16.134 -0.1276  0.7477  0.5815
  822MPD2    H112150   2.122   3.219  15.757 -0.3900 -0.7535 -1.3195
  822MPD2    H212151   2.413   2.922  15.760  1.9369 -0.8570  2.3911
  822MPD2    H312152   2.280   3.082  15.645  0.2630 -1.8505 -0.8309
  822MPD2     N12153   2.096   3.233  16.033  0.0492 -0.1494 -0.5820
  822MPD2    H512154   2.094   3.221  16.134 -3.3950  1.9465 -0.4050
  822MPD2    N112155   2.386   2.837  16.007  0.7065  0.1168 -0.3409
  822MPD2    H712156   2.382   2.842  16.109 -1.2082  1.0375 -0.4671
  823MPD2     C12157   1.665   3.604  16.681 -0.1250 -0.0853 -0.1347
  823MPD2    C112158   1.709   3.484  16.630  0.5672  0.4187  0.1455
  823MPD2    C212159   1.716   3.376  16.710  0.4441  0.5997  0.7796
  823MPD2    C312160   1.656   3.371  16.839  0.7764  0.5591 -0.5922
  823MPD2    C412161   1.598   3.486  16.884  0.9461  0.4797  0.2039
  823MPD2    C512162   1.607   3.603  16.805 -0.7807  0.0285 -0.3702
  823MPD2     H12163   1.756   3.287  16.662 -0.8740 -0.5422  1.8123
  823MPD2    H112164   1.554   3.500  16.982  0.6439 -1.5560  0.3421
  823MPD2    H212165   1.660   3.697  16.626 -0.6698  0.5338  0.9648
  823MPD2    H312166   1.574   3.698  16.846 -0.8538 -0.4954  0.8055
  823MPD2     N12167   1.639   3.255  16.924 -0.8332  0.5899 -0.1590
  823MPD2    H512168   1.603   3.268  17.018  0.5521 -0.3176  0.5061
  823MPD2    N112169   1.763   3.494  16.497 -0.1420 -0.4494 -0.1979
  823MPD2    H712170   1.765   3.585  16.452  0.8763 -0.4487 -0.1666
  824MPD2     C12171   2.778   2.004  16.173  0.3494 -0.0977  0.7490
  824MPD2    C112172   2.744   2.087  16.065  0.5343 -0.3557 -0.4224
  824MPD2    C212173   2.798   2.059  15.940 -0.2408  0.0956  0.5297
  824MPD2    C312174   2.878   1.947  15.921  0.8354  0.1713 -0.4504
  824MPD2    C412175   2.900   1.868  16.028  0.5208  0.1608 -0.1265
  824MPD2    C512176   2.859   1.895  16.157 -0.0611  0.0489 -0.2232
  824MPD2     H12177   2.774   2.121  15.854  2.6963  2.0840  1.1578
  824MPD2    H112178   2.962   1.781  16.015 -0.0988 -0.2648 -0.2474
  824MPD2    H212179   2.733   2.026  16.269 -0.8497  2.0662 -0.3195
  824MPD2    H312180   2.884   1.832  16.242 -0.3529  0.5326  0.2196
  824MPD2     N12181   2.947   1.925  15.804  0.0522 -0.3340  0.4693
  824MPD2    H512182   2.934   1.996  15.733 -0.6332 -0.7949  0.1339
  824MPD2    N112183   2.675   2.206  16.101  0.3132 -0.2114 -0.3129
  824MPD2    H712184   2.640   2.212  16.196 -0.3719 -0.0797 -0.5736
  825MPD2     C12185   3.548   2.288  15.359 -0.0138 -0.2547  0.1627
  825MPD2    C112186   3.425   2.284  15.425  0.8786  0.7891 -0.4216
  825MPD2    C212187   3.382   2.398  15.490  0.1517 -0.9398  0.1680
  825MPD2    C312188   3.458   2.515  15.479 -0.3190 -0.8020  0.8203
  825MPD2    C412189   3.581   2.515  15.416  0.4941 -1.3211 -0.2367
  825MPD2    C512190   3.627   2.399  15.353  0.8857 -0.3539  0.6488
  825MPD2     H12191   3.284   2.395  15.535  0.2549 -0.1936  0.4370
  825MPD2    H112192   3.645   2.602  15.416 -0.3188 -0.7372 -1.9844
  825MPD2    H212193   3.578   2.206  15.296  0.6045 -1.5125  2.0769
  825MPD2    H312194   3.728   2.403  15.315  0.3823  2.4568 -0.4022
  825MPD2     N12195   3.410   2.639  15.528 -0.0567  0.0063 -0.2626
  825MPD2    H512196   3.463   2.724  15.506  0.6344 -0.9213 -2.1857
  825MPD2    N112197   3.350   2.159  15.425  0.4792 -0.3187 -0.3311
  825MPD2    H712198   3.404   2.081  15.389  1.3708  0.5645 -0.9126
  826MPD2     C12199   2.804   2.065  14.056  0.9471  0.0323  0.2983
  826MPD2    C112200   2.788   2.086  13.927 -0.2001  0.1256 -0.0902
  826MPD2    C212201   2.725   2.206  13.882  0.3954  0.2698 -0.2706
  826MPD2    C312202   2.680   2.300  13.973  0.0606 -0.3806 -0.0403
  826MPD2    C412203   2.679   2.263  14.107  0.0278 -0.3674  0.8819
  826MPD2    C512204   2.751   2.153  14.145  0.6586 -0.5420 -0.3598
  826MPD2     H12205   2.717   2.233  13.777 -2.7631 -0.4025 -0.2231
  826MPD2    H112206   2.634   2.333  14.176 -0.7992  0.7982 -0.8376
  826MPD2    H212207   2.857   1.980  14.098 -0.2050 -0.0628  1.5674
  826MPD2    H312208   2.757   2.116  14.247  0.4035 -1.0808 -0.5437
  826MPD2     N12209   2.623   2.426  13.944  0.0277  0.0815 -0.1131
  826MPD2    H512210   2.632   2.496  14.017 -1.2823 -1.4690  1.5306
  826MPD2    N112211   2.865   2.005  13.844 -0.0389 -0.5826 -0.3266
  826MPD2    H712212   2.917   1.932  13.893 -0.0891 -1.4382 -1.5364
  827MPD2     C12213   3.201   3.232  10.202  0.0038  0.6647 -0.1616
  827MPD2    C112214   3.150   3.180  10.320  0.0767 -0.3535 -0.6070
  827MPD2    C212215   3.019   3.140  10.314 -0.2062 -0.5516 -0.0637
  827MPD2    C312216   2.944   3.141  10.201 -0.6408  0.3088 -0.0215
  827MPD2    C412217   2.998   3.190  10.087  0.3211 -0.0985 -0.5844
  827MPD2    C512218   3.132   3.232  10.087 -0.6579 -0.0097 -0.1677
  827MPD2     H12219   2.964   3.101  10.399 -2.0767  0.6978 -0.6863
  827MPD2    H112220   2.939   3.190   9.996  1.0803 -0.3763 -1.0774
  827MPD2    H212221   3.306   3.261  10.197  0.7768 -2.2315 -0.6079
  827MPD2    H312222   3.177   3.255   9.991  0.1259 -0.1642  0.1664
  827MPD2     N12223   2.813   3.096  10.210  0.4138  0.0676 -0.2573
  827MPD2    H512224   2.769   3.078  10.300 -0.0360 -0.5286 -0.5954
  827MPD2    N112225   3.232   3.188  10.441  0.6876  0.1967  0.5920
  827MPD2    H712226   3.321   3.237  10.438  0.1811  1.1246  0.9037
  828MPD2     C12227   1.768   3.284  12.322 -0.5318  0.5976  0.4393
  828MPD2    C112228   1.664   3.367  12.276 -0.4765  0.2814 -0.3657
  828MPD2    C212229   1.603   3.330  12.155  0.1279 -0.4589 -0.7905
  828MPD2    C312230   1.638   3.218  12.081 -0.4066 -0.0301 -0.1015
  828MPD2    C412231   1.745   3.142  12.125  0.0961  0.1607 -0.2181
  828MPD2    C512232   1.806   3.177  12.246  0.9013 -0.4840  1.0814
  828MPD2     H12233   1.514   3.383  12.124  1.6335  1.9133 -1.0979
  828MPD2    H112234   1.781   3.057  12.068 -0.2372 -1.9058  2.6672
  828MPD2    H212235   1.819   3.286  12.417 -0.3431  1.5028  0.3193
  828MPD2    H312236   1.891   3.115  12.272  0.6101 -1.4044 -0.1694
  828MPD2     N12237   1.570   3.181  11.956 -0.4236  0.3373 -0.1053
  828MPD2    H512238   1.602   3.091  11.921 -1.2364 -0.4225  1.1099
  828MPD2    N112239   1.618   3.480  12.339 -0.4513 -1.0506  0.4671
  828MPD2    H712240   1.560   3.540  12.282  1.3131 -0.7566 -1.0258
  829MPD2     C12241   1.062   3.807  11.969  0.0631  0.5465 -0.0536
  829MPD2    C112242   1.031   3.831  12.099  0.0380 -0.2853 -0.2871
  829MPD2    C212243   1.137   3.868  12.182  0.3543 -0.2550 -0.0271
  829MPD2    C312244   1.268   3.866  12.136  0.1127  0.1870 -0.0327
  829MPD2    C412245   1.293   3.859  12.000  0.3474 -0.6286  0.3377
  829MPD2    C512246   1.185   3.827  11.920 -0.1319 -0.2125  0.8107
  829MPD2     H12247   1.120   3.876  12.288 -2.1661 -2.1016 -0.2869
  829MPD2    H112248   1.395   3.841  11.966  1.0859  0.9681  1.7479
  829MPD2    H212249   0.990   3.778  11.893 -1.1901  1.6171  0.7151
  829MPD2    H312250   1.207   3.804  11.816 -0.9898  0.8602  0.3921
  829MPD2     N12251   1.375   3.869  12.227  0.1135  0.4630 -0.3636
  829MPD2    H512252   1.464   3.835  12.192 -1.2794 -2.8943 -0.6027
  829MPD2    N112253   0.900   3.796  12.142 -0.3048  0.3191  0.1928
  829MPD2    H712254   0.832   3.765  12.073  1.1417 -0.3025 -0.9594
  830MPD2     C12255   2.343   1.361  16.116 -0.5524 -0.4751 -0.1279
  830MPD2    C112256   2.231   1.405  16.049 -0.2518  0.1552 -0.7141
  830MPD2    C212257   2.238   1.429  15.911  0.1884  0.3117  0.0266
  830MPD2    C312258   2.356   1.413  15.849  0.1012  0.5677 -0.1653
  830MPD2    C412259   2.468   1.381  15.927  0.0288  0.4009  0.6630
  830MPD2    C512260   2.452   1.330  16.053 -0.4444  0.6646  0.5638
  830MPD2     H12261   2.158   1.482  15.860  0.7925  0.3382 -0.8718
  830MPD2    H112262   2.568   1.366  15.887 -1.2765 -3.3461 -1.2874
  830MPD2    H212263   2.343   1.333  16.221 -0.5252 -0.9040 -0.2440
  830MPD2    H312264   2.537   1.296  16.112 -0.2991  1.1404  0.6283
  830MPD2     N12265   2.386   1.446  15.712 -0.0992  0.5556  0.0275
  830MPD2    H512266   2.482   1.429  15.683 -0.0708  0.7558  0.0011
  830MPD2    N112267   2.113   1.428  16.122 -0.0493  0.0947 -0.2026
  830MPD2    H712268   2.116   1.438  16.223 -1.5042  0.4894 -0.2096
  831MPD2     C12269   2.290   3.380  16.396 -0.2504 -0.0374 -0.2270
  831MPD2    C112270   2.319   3.254  16.350  0.3729  0.0469 -0.0992
  831MPD2    C212271   2.223   3.155  16.370 -0.6154 -0.1430 -0.3913
  831MPD2    C312272   2.112   3.176  16.441  0.2932 -0.3373  0.0083
  831MPD2    C412273   2.104   3.294  16.513  0.5094 -0.2529 -0.4005
  831MPD2    C512274   2.191   3.394  16.485 -0.3109  0.6997  0.4020
  831MPD2     H12275   2.240   3.055  16.330 -1.1422 -0.3473 -0.1098
  831MPD2    H112276   2.023   3.312  16.583  2.1389 -1.5525  1.7961
  831MPD2    H212277   2.348   3.467  16.367  1.1689 -0.4765  1.2527
  831MPD2    H312278   2.176   3.491  16.530 -1.3960  0.7708 -0.1225
  831MPD2     N12279   2.002   3.082  16.455 -0.0363  0.0853  0.2068
  831MPD2    H512280   1.930   3.110  16.520  0.0716 -0.4174  0.5450
  831MPD2    N112281   2.434   3.239  16.268  0.9169 -0.3528  0.4116
  831MPD2    H712282   2.478   3.327  16.243  1.4188 -0.3268  1.3815
  832MPD2     C12283   0.712   4.575  17.358 -0.3816 -0.3484  0.4393
  832MPD2    C112284   0.686   4.693  17.291 -0.3139  0.6649  0.1911
  832MPD2    C212285   0.568   4.708  17.222 -0.3270 -0.0480 -0.3776
  832MPD2    C312286   0.479   4.606  17.217 -0.0926  0.1268  1.3476
  832MPD2    C412287   0.503   4.496  17.296 -0.1096 -0.3113 -0.0937
  832MPD2    C512288   0.626   4.472  17.360 -0.2938  0.0695  0.1102
  832MPD2     H12289   0.564   0.044  17.144 -1.0292  1.5735  1.2007
  832MPD2    H112290   0.435   4.411  17.296  0.3524 -0.6781 -3.2675
  832MPD2    H212291   0.806   4.560  17.410  0.8910  1.1472 -1.4107
  832MPD2    H312292   0.642   4.385  17.421  1.3692  1.4356  1.5908
  832MPD2     N12293   0.354   4.599  17.146 -0.3168 -0.0806  0.1462
  832MPD2    H512294   0.313   4.509  17.120 -2.5779  0.6172  1.3340
  832MPD2    N112295   0.790   0.046  17.289 -0.8176 -0.3551 -0.2007
  832MPD2    H712296   0.876   0.017  17.334 -1.4676  0.5040  1.5810
  833MPD2     C12297   2.711   0.878  12.760 -0.4293  0.6387 -0.2890
  833MPD2    C112298   2.650   0.977  12.696  0.5519 -0.6254  0.5785
  833MPD2    C212299   2.679   1.000  12.560 -0.0913 -0.3693  0.5385
  833MPD2    C312300   2.767   0.918  12.487 -0.5781  0.3913 -0.6939
  833MPD2    C412301   2.832   0.821  12.553 -0.2841 -0.3441  0.8326
  833MPD2    C512302   2.808   0.808  12.686  0.3903  0.4349  0.3030
  833MPD2     H12303   2.619   1.080  12.519 -0.6947 -0.7131  0.7597
  833MPD2    H112304   2.904   0.751  12.512 -0.1630  0.0422  0.3918
  833MPD2    H212305   2.697   0.850  12.864  0.7043 -0.7992 -0.5215
  833MPD2    H312306   2.861   0.732  12.744  1.3413  0.6913 -0.2364
  833MPD2     N12307   2.775   0.927  12.347  0.8787 -0.6621 -0.3061
  833MPD2    H512308   2.843   0.862  12.307 -0.2086 -1.8767 -0.1985
  833MPD2    N112309   2.559   1.070  12.750 -0.6120 -0.0797  0.2120
  833MPD2    H712310   2.531   1.150  12.694 -1.7280 -0.1898  0.5953
  834MPD2     C12311   2.691   0.865  11.285 -0.2995  0.0447 -0.2989
  834MPD2    C112312   2.617   0.802  11.380 -0.0754 -0.4447 -0.0614
  834MPD2    C212313   2.634   0.841  11.511  1.1888  0.0871 -0.3965
  834MPD2    C312314   2.730   0.932  11.545 -0.0761  0.3243 -0.0294
  834MPD2    C412315   2.815   0.987  11.451 -0.2204 -0.0785 -0.2903
  834MPD2    C512316   2.785   0.958  11.327  0.4773  0.4672 -0.5131
  834MPD2     H12317   2.571   0.800  11.589 -1.7625 -0.1520 -2.9135
  834MPD2    H112318   2.888   1.065  11.466 -0.4074 -0.5493  2.9542
  834MPD2    H212319   2.680   0.831  11.183 -0.7416 -1.0028  0.0976
  834MPD2    H312320   2.855   1.000  11.256 -0.5090  2.6923 -0.1760
  834MPD2     N12321   2.735   0.983  11.680 -0.0892 -0.4646  0.3165
  834MPD2    H512322   2.796   1.064  11.690 -1.8916  0.8252  0.7476
  834MPD2    N112323   2.524   0.701  11.334 -0.2459  0.6147 -0.3006
  834MPD2    H712324   2.528   0.685  11.234 -1.6294  3.7684 -0.8813
  835MPD2     C12325   1.737   3.470  11.713 -0.1987  0.4690  0.8521
  835MPD2    C112326   1.837   3.516  11.638  0.8339  1.0665  0.2879
  835MPD2    C212327   1.939   3.595  11.698 -0.0080 -0.1409  0.3986
  835MPD2    C312328   1.942   3.611  11.835  0.2326  0.1493  0.0194
  835MPD2    C412329   1.843   3.564  11.915 -0.4377  0.1767 -0.1826
  835MPD2    C512330   1.741   3.494  11.852  0.4587  0.7007  0.4964
  835MPD2     H12331   2.016   3.633  11.632  0.1581  0.4112  0.9131
  835MPD2    H112332   1.862   3.564  12.022  0.8335 -0.9924 -0.4062
  835MPD2    H212333   1.646   3.432  11.670  0.1060  0.6344  0.0655
  835MPD2    H312334   1.664   3.459  11.921  0.2973 -0.0271 -0.0659
  835MPD2     N12335   2.045   3.681  11.898  0.0059  0.2094  0.3573
  835MPD2    H512336   2.020   3.699  11.995  4.0289  0.9130  1.2552
  835MPD2    N112337   1.842   3.498  11.497 -0.2712 -0.8001 -0.4528
  835MPD2    H712338   1.921   3.540  11.449 -0.0674 -1.0376 -0.3259
  836MPD2     C12339   2.414   4.300  12.364  0.4880  0.7934 -0.6586
  836MPD2    C112340   2.331   4.190  12.353 -0.2302  0.3836 -0.2952
  836MPD2    C212341   2.230   4.172  12.442 -0.1581 -0.1009 -0.2881
  836MPD2    C312342   2.208   4.266  12.534  0.3088 -0.5769 -0.1301
  836MPD2    C412343   2.286   4.383  12.538  0.0099 -0.5939  0.4480
  836MPD2    C512344   2.386   4.402  12.453  0.2184 -0.0978  0.0599
  836MPD2     H12345   2.182   4.077  12.466  0.4962 -0.1013  1.0072
  836MPD2    H112346   2.268   4.458  12.613 -0.9847 -0.5051  0.1226
  836MPD2    H212347   2.499   4.317  12.299  2.3002 -3.1134  0.6441
  836MPD2    H312348   2.450   4.489  12.461  1.4034 -0.8360 -1.3762
  836MPD2     N12349   2.129   4.232  12.653  0.3011  0.0499  0.7302
  836MPD2    H512350   2.103   4.313  12.709 -1.4362  0.6954 -1.0036
  836MPD2    N112351   2.354   4.107  12.239  0.6586  0.2600  0.5962
  836MPD2    H712352   2.435   4.121  12.180 -2.8550  0.1770 -4.3192
  837MPD2     C12353   0.595   3.199  10.512 -0.3896  0.2764  0.0461
  837MPD2    C112354   0.613   3.273  10.396  0.2435 -0.0655  0.0887
  837MPD2    C212355   0.642   3.412  10.407 -0.5744  0.5441 -0.3181
  837MPD2    C312356   0.657   3.471  10.529 -0.7137 -0.4818  0.3051
  837MPD2    C412357   0.641   3.389  10.641  0.4832  0.7635  0.4290
  837MPD2    C512358   0.619   3.256  10.633 -0.0487  0.2883  0.2435
  837MPD2     H12359   0.638   3.480  10.322  0.3350  1.1361  0.1064
  837MPD2    H112360   0.666   3.430  10.738 -0.9224  2.0142  0.2573
  837MPD2    H212361   0.574   3.093  10.510  0.3920  0.1121  0.5919
  837MPD2    H312362   0.621   3.196  10.724 -2.4562  0.1133  0.2004
  837MPD2     N12363   0.666   3.615  10.526  0.1689 -0.2937  0.1661
  837MPD2    H512364   0.657   3.658  10.434 -1.7466  0.4565  0.7121
  837MPD2    N112365   0.595   3.224  10.261  0.6141  1.1073 -0.2190
  837MPD2    H712366   0.594   3.285  10.180  3.0714 -1.1364 -1.9344
  838MPD2     C12367   3.841   1.644  12.134  0.2357 -0.2005 -0.4740
  838MPD2    C112368   3.749   1.548  12.099 -0.0322 -0.0752  0.5892
  838MPD2    C212369   3.637   1.534  12.182  0.1939  0.0591  0.7229
  838MPD2    C312370   3.613   1.620  12.289 -0.5212  0.4539 -0.0369
  838MPD2    C412371   3.708   1.716  12.314  0.3616 -0.1787  0.1304
  838MPD2    C512372   3.825   1.719  12.244  0.2348  0.3018  0.3774
  838MPD2     H12373   3.564   1.456  12.164  0.5542 -0.1720  0.2596
  838MPD2    H112374   3.699   1.775  12.404 -0.7870  0.7909 -0.6224
  838MPD2    H212375   3.936   1.647  12.082  0.0279 -1.0242 -0.9086
  838MPD2    H312376   3.903   1.771  12.298  1.4248 -0.3451 -0.7153
  838MPD2     N12377   3.502   1.604  12.373  0.1870  0.1518 -0.2389
  838MPD2    H512378   3.447   1.519  12.367  0.1779  0.1417  0.0186
  838MPD2    N112379   3.758   1.469  11.984 -0.6122  0.4349  0.1052
  838MPD2    H712380   3.678   1.407  11.977  0.2247 -0.6473  0.2049
  839MPD2     C12381   3.151   0.907  11.792  0.0291 -0.5154 -0.6276
  839MPD2    C112382   3.259   0.861  11.720 -0.8449 -1.1046  0.1310
  839MPD2    C212383   3.362   0.940  11.693  0.4184  0.2073 -0.5128
  839MPD2    C312384   3.382   1.064  11.755  0.5178  0.1839  0.0321
  839MPD2    C412385   3.279   1.114  11.835  0.3851  0.1554 -0.1287
  839MPD2    C512386   3.166   1.036  11.855  0.3957  0.7021 -0.5988
  839MPD2     H12387   3.447   0.894  11.643  1.9501 -0.2983  2.5252
  839MPD2    H112388   3.282   1.216  11.872 -1.3253 -0.6669  2.2472
  839MPD2    H212389   3.057   0.856  11.810 -0.4682  0.8962  0.7883
  839MPD2    H312390   3.076   1.083  11.894  0.8334  0.3263  0.8279
  839MPD2     N12391   3.501   1.139  11.749 -0.2981 -0.2611  0.4701
  839MPD2    H512392   3.494   1.227  11.800  2.7365 -0.4667  1.2159
  839MPD2    N112393   3.252   0.733  11.657 -0.6701  0.1579 -0.4780
  839MPD2    H712394   3.328   0.709  11.593  0.2179  1.3459  0.1309
  840MPD2     C12395   3.832   3.324  10.388  0.4701 -0.1312 -0.6550
  840MPD2    C112396   3.791   3.350  10.518 -0.1939 -0.0768  0.0909
  840MPD2    C212397   3.854   3.452  10.587  0.6964  0.5827 -0.2184
  840MPD2    C312398   3.955   3.529  10.530  1.0291  0.5833  0.0652
  840MPD2    C412399   3.995   3.508  10.400 -0.1147  0.1991 -0.0382
  840MPD2    C512400   3.937   3.399  10.332  0.2987 -0.1821  0.1982
  840MPD2     H12401   3.822   3.479  10.687  0.1065 -0.9961  0.0296
  840MPD2    H112402   4.071   3.567  10.351 -2.0268  0.2583 -2.9615
  840MPD2    H212403   3.775   3.253  10.330  0.6435 -0.6259 -0.2151
  840MPD2    H312404   3.961   3.379  10.229 -0.4113  2.7694 -0.5475
  840MPD2     N12405   4.016   3.640  10.594 -0.3063  0.6545  0.1298
  840MPD2    H512406   4.075   3.699  10.536 -1.3267  1.1995 -0.3631
  840MPD2    N112407   3.683   3.275  10.572 -0.2553 -0.1516 -0.0300
  840MPD2    H712408   3.632   3.214  10.509  0.5442  0.0698 -0.8905
  841MPD2     C12409   3.597   3.634  14.838  0.4613 -0.5829  0.2070
  841MPD2    C112410   3.611   3.658  14.701 -0.1840  0.3046  0.2596
  841MPD2    C212411   3.702   3.761  14.661  0.1027 -0.2893 -0.0187
  841MPD2    C312412   3.771   3.833  14.758 -0.2283  0.5429  0.4619
  841MPD2    C412413   3.756   3.795  14.890  0.4888 -0.1993  0.5868
  841MPD2    C512414   3.676   3.698  14.930 -0.4107  0.3706 -0.7825
  841MPD2     H12415   3.720   3.784  14.557  2.6399 -1.1286  0.2341
  841MPD2    H112416   3.821   3.845  14.961  0.5839  0.3522  0.1118
  841MPD2    H212417   3.542   3.551  14.880  2.9563 -2.5247 -0.3425
  841MPD2    H312418   3.666   3.674  15.035 -1.7086 -1.4433 -1.3388
  841MPD2     N12419   3.876   3.914  14.712  0.6333 -0.3548 -0.1688
  841MPD2    H512420   3.884   3.914  14.611  0.4663 -2.4411 -0.1772
  841MPD2    N112421   3.552   3.570  14.605  0.3017 -0.0890 -0.0079
  841MPD2    H712422   3.595   3.565  14.513 -2.2101 -0.6762 -1.1515
  842MPD2     C12423   4.640   0.198  17.012 -0.0081 -0.3040  0.0308
  842MPD2    C112424   4.532   0.118  16.985  0.1383 -0.3879 -0.9146
  842MPD2    C212425   4.484   0.034  17.082 -0.4663 -0.5638  0.5638
  842MPD2    C312426   4.551   0.027  17.206  0.3837 -0.1365 -0.3285
  842MPD2    C412427   4.671   0.097  17.225  0.1174  0.1193 -0.3994
  842MPD2    C512428   4.710   0.186  17.128  0.3208 -0.1850  0.2791
  842MPD2     H12429   4.391   4.721  17.068 -0.3938 -0.0263 -1.8054
  842MPD2    H112430   4.733   0.088  17.313  0.0358 -0.2190 -0.3774
  842MPD2    H212431   4.682   0.269  16.942 -1.1151  0.7921  0.4973
  842MPD2    H312432   0.062   0.243  17.141 -1.1094  2.3869 -1.0411
  842MPD2     N12433   4.488   4.698  17.317  0.6451 -0.1556 -0.2983
  842MPD2    H512434   4.530   4.707  17.409  3.3205 -0.2601 -1.5103
  842MPD2    N112435   4.477   0.126  16.859 -0.2846 -0.1242  0.0444
  842MPD2    H712436   4.499   0.211  16.809  0.9445 -0.7892 -0.5462
  843MPD2     C12437   1.611   1.275   0.197  0.0482  0.7514  0.3424
  843MPD2    C112438   1.704   1.174   0.214 -0.4365  0.7110 -0.6854
  843MPD2    C212439   1.840   1.204   0.236 -0.3526  0.5860 -0.7578
  843MPD2    C312440   1.877   1.341   0.226 -0.6624 -0.3335 -0.1918
  843MPD2    C412441   1.782   1.435   0.202 -0.4819 -0.5743 -0.0800
  843MPD2    C512442   1.647   1.401   0.194  0.0141  0.2600  0.4450
  843MPD2     H12443   1.915   1.127   0.247 -1.1833 -0.1240 -0.1006
  843MPD2    H112444   1.797   1.543   0.202 -2.5766 -0.2553 -3.6030
  843MPD2    H212445   1.504   1.259   0.184  0.5577  0.3473 -3.5379
  843MPD2    H312446   1.575   1.481   0.191 -1.3430 -1.0634 -2.7535
  843MPD2     N12447   2.007   1.393   0.231 -0.7847 -0.1758 -0.3891
  843MPD2    H512448   2.006   1.495   0.228  2.1806 -0.1254  0.2855
  843MPD2    N112449   1.662   1.037   0.200  0.3465  0.4140 -0.9960
  843MPD2    H712450   1.562   1.030   0.186  0.0423  1.5780  0.5872
  844MPD2     C12451   0.969   3.662  16.580 -0.3313 -0.3100  0.8894
  844MPD2    C112452   0.861   3.736  16.557 -0.1404 -0.2297  1.0004
  844MPD2    C212453   0.827   3.829  16.648  0.2940  0.7455 -0.4705
  844MPD2    C312454   0.895   3.839  16.771 -0.1442 -0.5084  0.5490
  844MPD2    C412455   1.010   3.767  16.796  0.1547 -0.1145 -0.1859
  844MPD2    C512456   1.040   3.677  16.691 -0.8797  0.4777 -0.0343
  844MPD2     H12457   0.736   3.886  16.631 -0.9394 -0.8274  0.8913
  844MPD2    H112458   1.073   3.758  16.884 -0.2608 -1.4576 -0.0148
  844MPD2    H212459   0.998   3.582  16.512  1.4343  0.7877  0.3380
  844MPD2    H312460   1.120   3.603  16.698  0.7616  2.0167 -2.3977
  844MPD2     N12461   0.857   3.938  16.864  0.3073  0.1525  0.0645
  844MPD2    H512462   0.784   3.993  16.820  0.3366  0.5110  0.4596
  844MPD2    N112463   0.784   3.720  16.437 -0.5854  0.1619 -0.3635
  844MPD2    H712464   0.718   3.794  16.416 -0.2013  0.0910 -1.7971
  845MPD2     C12465   0.496   0.028  16.695 -0.0438  0.3226  0.3608
  845MPD2    C112466   0.598   0.064  16.774 -0.0498 -0.8839 -0.4186
  845MPD2    C212467   0.663   4.707  16.854 -0.3001  0.0794 -0.2404
  845MPD2    C312468   0.621   4.581  16.861  0.2400  0.3749  0.4215
  845MPD2    C412469   0.500   4.554  16.797 -0.9990  0.0612  0.2032
  845MPD2    C512470   0.440   4.647  16.713  0.4032 -0.0971 -0.0810
  845MPD2     H12471   0.756   4.734  16.903 -0.4739 -1.1051  0.7491
  845MPD2    H112472   0.444   4.461  16.808  1.1398 -1.2984 -0.5000
  845MPD2    H212473   0.446   0.096  16.628  0.6499  0.4184 -0.0498
  845MPD2    H312474   0.348   4.624  16.660 -0.3670  0.3017  1.0927
  845MPD2     N12475   0.692   4.486  16.935  0.0049  0.2190 -0.3155
  845MPD2    H512476   0.780   4.518  16.974  0.5445 -1.0613 -0.5076
  845MPD2    N112477   0.629   0.202  16.778  0.0878 -0.4685 -0.1631
  845MPD2    H712478   0.563   0.269  16.739  2.8391  1.1094 -2.1027
  846MPD2     C12479   2.102   0.623  13.706  0.4207  0.2006 -0.1499
  846MPD2    C112480   1.967   0.635  13.683 -0.3767 -0.4338  0.4201
  846MPD2    C212481   1.892   0.598  13.797  0.1152  0.5397 -0.1517
  846MPD2    C312482   1.942   0.549  13.912 -0.6242  0.2714  0.6052
  846MPD2    C412483   2.074   0.514  13.911  0.2475 -0.0900 -0.1202
  846MPD2    C512484   2.158   0.565  13.820 -0.1265 -0.3101 -0.7571
  846MPD2     H12485   1.786   0.620  13.798 -0.0843 -0.3392 -1.3237
  846MPD2    H112486   2.120   0.463  13.995 -2.1285 -1.0286  0.6129
  846MPD2    H212487   2.177   0.666  13.640  1.0978 -2.5367 -1.1828
  846MPD2    H312488   2.266   0.563  13.826 -0.2444  3.1850  2.3400
  846MPD2     N12489   1.867   0.543  14.032 -0.6336  0.2261 -0.2820
  846MPD2    H512490   1.767   0.553  14.019 -0.7078 -0.6822 -0.4347
  846MPD2    N112491   1.914   0.702  13.569  0.1996  0.0067  0.0032
  846MPD2    H712492   1.971   0.766  13.514 -0.0344  0.1474 -0.0749
  847MPD2     C12493   1.803   1.450  14.887 -0.7187 -1.1470 -0.5800
  847MPD2    C112494   1.937   1.485  14.869 -0.7480  0.7776  0.3407
  847MPD2    C212495   2.041   1.392  14.893  0.1580  0.3139  0.2837
  847MPD2    C312496   2.016   1.266  14.957  0.4438  0.4755 -0.4486
  847MPD2    C412497   1.885   1.238  14.981 -0.5235 -0.6236 -0.1700
  847MPD2    C512498   1.783   1.323  14.932 -0.1877  0.2131  0.2211
  847MPD2     H12499   2.142   1.427  14.877 -0.3572  1.6972  0.0112
  847MPD2    H112500   1.855   1.155  15.044  2.7262 -1.0593  0.8322
  847MPD2    H212501   1.718   1.517  14.883  0.8788  0.7127 -3.3053
  847MPD2    H312502   1.679   1.304  14.959  0.2381  0.9949  2.4570
  847MPD2     N12503   2.129   1.187  15.003  0.1715  1.3575 -0.3576
  847MPD2    H512504   2.219   1.229  14.982  0.9076 -0.3570 -0.6376
  847MPD2    N112505   1.977   1.615  14.825  0.5851  0.0124  0.0536
  847MPD2    H712506   2.078   1.627  14.818  0.5843 -0.9255 -1.7797
  848MPD2     C12507   0.053   0.034  16.392 -0.3853  0.5463 -0.2631
  848MPD2    C112508   0.093   0.127  16.491  0.7160 -0.4953 -0.0469
  848MPD2    C212509   0.139   0.250  16.453 -0.8203 -0.3519 -0.2995
  848MPD2    C312510   0.136   0.290  16.321 -0.0261 -0.1252 -0.3572
  848MPD2    C412511   0.081   0.209  16.228 -0.3281  0.5673  0.8645
  848MPD2    C512512   0.047   0.079  16.261  0.2113  0.5997 -0.5407
  848MPD2     H12513   0.164   0.316  16.536 -2.3189 -1.8127  1.3319
  848MPD2    H112514   0.073   0.244  16.126 -0.4168 -0.1624  0.6179
  848MPD2    H212515   0.013   4.674  16.410  0.1494  0.5030  0.6717
  848MPD2    H312516   0.010   0.007  16.189 -1.4190  0.5516  0.3294
  848MPD2     N12517   0.179   0.413  16.281 -0.7820  0.4609  0.4809
  848MPD2    H512518   0.172   0.432  16.181  0.0009 -1.5823  0.0421
  848MPD2    N112519   0.103   0.087  16.627  0.6112 -0.2778 -0.3276
  848MPD2    H712520   0.125   0.154  16.699  1.3939 -1.1794  0.2874
  849MPD2     C12521   4.089   4.358  14.654  0.2229  0.3855  0.2325
  849MPD2    C112522   4.179   4.391  14.558  0.5204  0.1462 -0.5862
  849MPD2    C212523   4.309   4.412  14.590 -0.0617  0.3187  0.4840
  849MPD2    C312524   4.352   4.397  14.716  0.8330 -0.3441 -0.2325
  849MPD2    C412525   4.263   4.382  14.819 -0.4547  0.3193  0.0074
  849MPD2    C512526   4.128   4.362  14.783  0.4913  0.0692  0.0382
  849MPD2     H12527   4.385   4.424  14.514  0.3749 -0.9281  0.7281
  849MPD2    H112528   4.288   4.375  14.925  5.2678  0.3251 -1.3476
  849MPD2    H212529   3.987   4.336  14.623  0.5182  2.5891 -2.3518
  849MPD2    H312530   4.058   4.358  14.866  0.7204  0.1247  0.2343
  849MPD2     N12531   4.489   4.412  14.739 -0.3779  0.1289 -0.2724
  849MPD2    H512532   4.550   4.422  14.659  3.0576 -0.7709  2.2725
  849MPD2    N112533   4.131   4.403  14.421 -0.2939 -0.4788  0.8544
  849MPD2    H712534   4.030   4.399  14.411 -0.1925  1.3820 -0.7765
  850MPD2     C12535   2.191   2.404  14.838 -0.7368 -0.0979  0.2312
  850MPD2    C112536   2.208   2.457  14.964 -0.5624  0.0606  0.4844
  850MPD2    C212537   2.336   2.495  15.000  0.0041  0.0806  0.0804
  850MPD2    C312538   2.445   2.487  14.915  0.0539 -0.3263 -0.2700
  850MPD2    C412539   2.419   2.418  14.801  0.3393  0.1226  0.0517
  850MPD2    C512540   2.291   2.374  14.755  0.0265  0.1650 -0.6343
  850MPD2     H12541   2.342   2.544  15.096  1.0482  0.1593 -0.0299
  850MPD2    H112542   2.497   2.401  14.728  1.5769 -1.2706  1.7273
  850MPD2    H212543   2.093   2.402  14.790 -0.3786  1.6128 -0.5862
  850MPD2    H312544   2.269   2.324  14.662  1.4545 -0.7272 -0.5025
  850MPD2     N12545   2.582   2.530  14.946 -0.4956  0.6006 -0.5800
  850MPD2    H512546   2.655   2.519  14.877 -1.4259 -1.6746 -1.2139
  850MPD2    N112547   2.095   2.468  15.045  0.1882 -1.4202 -1.1878
  850MPD2    H712548   2.024   2.397  15.036 -0.3213 -0.7479 -2.4587
  851MPD2     C12549   2.329   2.225  15.775  0.2365  0.2561  0.1363
  851MPD2    C112550   2.245   2.190  15.671 -0.1255  0.2262  0.2618
  851MPD2    C212551   2.288   2.088  15.593  0.1295 -0.0242  0.3241
  851MPD2    C312552   2.403   2.012  15.615 -0.3546  0.4746  0.3565
  851MPD2    C412553   2.471   2.039  15.727  0.2777 -0.3213 -0.1802
  851MPD2    C512554   2.433   2.146  15.808 -0.2282 -0.0826 -0.4235
  851MPD2     H12555   2.225   2.066  15.508  0.6015 -0.3392  0.0579
  851MPD2    H112556   2.560   1.985  15.757 -0.6309 -2.3934 -1.2283
  851MPD2    H212557   2.315   2.317  15.830 -2.9162  0.4024 -0.9324
  851MPD2    H312558   2.502   2.169  15.888 -2.3104  3.2806  0.4009
  851MPD2     N12559   2.428   1.909  15.520  0.9571  0.1181 -0.0579
  851MPD2    H512560   2.354   1.893  15.451 -0.1556 -1.1867  1.4382
  851MPD2    N112561   2.156   2.287  15.621  0.3937  0.0592 -0.1333
  851MPD2    H712562   2.160   2.383  15.656 -0.9255 -0.0191  0.2550
  852MPD2     C12563   1.629   0.532  10.684  0.2512 -0.7969  0.2056
  852MPD2    C112564   1.594   0.399  10.659  0.8535  0.8392 -0.3918
  852MPD2    C212565   1.600   0.361  10.522  0.3267  0.1337  0.0146
  852MPD2    C312566   1.624   0.458  10.419  0.6592  0.6307  0.2979
  852MPD2    C412567   1.663   0.590  10.450  0.6430 -0.9130 -0.2372
  852MPD2    C512568   1.649   0.620  10.580  0.4526 -1.2310  0.2781
  852MPD2     H12569   1.578   0.259  10.493  0.0948  0.3697 -0.6416
  852MPD2    H112570   1.693   0.666  10.379 -1.5094  2.1940  2.1572
  852MPD2    H212571   1.636   0.572  10.785 -1.0048 -0.4377  0.1465
  852MPD2    H312572   1.669   0.722  10.609 -1.4739 -0.9480  0.6310
  852MPD2     N12573   1.621   0.409  10.283 -0.3348 -0.0629 -0.1141
  852MPD2    H512574   1.589   0.313  10.286 -1.3940  0.3050  0.1985
  852MPD2    N112575   1.551   0.309  10.752 -0.1381  0.3502  0.5772
  852MPD2    H712576   1.559   0.210  10.730 -2.8588 -0.1717  1.8857
  853MPD2     C12577   3.634   4.656  12.393  0.0653 -0.1669 -0.6077
  853MPD2    C112578   3.500   4.642  12.377 -0.0718 -0.4160 -0.0726
  853MPD2    C212579   3.454   4.570  12.270  0.3469 -0.0652  0.5287
  853MPD2    C312580   3.541   4.536  12.168  0.1295 -0.1345 -0.3353
  853MPD2    C412581   3.672   4.555  12.186  0.3990 -0.0241  0.4366
  853MPD2    C512582   3.723   4.604  12.301 -0.2045 -0.5559  0.4922
  853MPD2     H12583   3.347   4.563  12.257  0.5930 -2.1248 -0.3391
  853MPD2    H112584   3.745   4.521  12.114 -1.0890 -3.4556  0.5883
  853MPD2    H212585   3.674   4.706  12.481  1.1372  0.9149 -1.7003
  853MPD2    H312586   3.828   4.631  12.297 -0.1712 -0.3415  2.7987
  853MPD2     N12587   3.504   4.484  12.045  0.1249  0.7356 -0.5093
  853MPD2    H512588   3.577   4.471  11.976 -0.1335  1.0879 -0.8488
  853MPD2    N112589   3.418   4.701  12.474  0.4323  0.1289  0.1429
  853MPD2    H712590   3.467   0.033  12.526  1.0155  0.1663 -0.4627
  854MPD2     C12591   0.134   4.539  12.932 -0.1607  0.5497  0.5761
  854MPD2    C112592   0.189   4.654  12.982 -0.5535  0.1688 -0.3053
  854MPD2    C212593   0.323   4.654  13.025 -1.0180  0.5277  0.5548
  854MPD2    C312594   0.389   4.534  13.033  0.0421  0.1913 -0.5404
  854MPD2    C412595   0.333   4.415  12.979 -0.0625 -0.4301 -0.3078
  854MPD2    C512596   0.201   4.419  12.933 -0.2679  0.3993  0.3252
  854MPD2     H12597   0.382   0.004  13.044  0.6340 -1.1030  3.1772
  854MPD2    H112598   0.393   4.324  12.977  2.1921  1.0304  0.8740
  854MPD2    H212599   0.036   4.550  12.887 -0.5536 -1.1638  1.0245
  854MPD2    H312600   0.156   4.334  12.883 -0.0070  0.5094 -0.0989
  854MPD2     N12601   0.514   4.525  13.086 -0.6928  0.1358 -0.1052
  854MPD2    H512602   0.555   4.432  13.085 -0.1649  0.3806 -1.3753
  854MPD2    N112603   0.117   0.032  12.972  0.3748  0.0401  0.3064
  854MPD2    H712604   0.016   0.024  12.966  0.5063 -1.1136 -0.4842
  855MPD2     C12605   1.420   4.533  13.689 -0.2178  0.2552  0.1225
  855MPD2    C112606   1.287   4.499  13.735  0.1542  0.7039  0.1461
  855MPD2    C212607   1.181   4.513  13.647  0.8945  0.7222  0.1889
  855MPD2    C312608   1.212   4.549  13.521  0.5993  0.6886 -0.5337
  855MPD2    C412609   1.341   4.581  13.481  0.1562 -0.3337 -0.2821
  855MPD2    C512610   1.446   4.578  13.563 -0.7054  0.2748 -0.5568
  855MPD2     H12611   1.080   4.488  13.677  0.7532  0.3083 -0.6453
  855MPD2    H112612   1.349   4.608  13.377  0.7020  1.0626  0.1254
  855MPD2    H212613   1.508   4.514  13.749  1.4020  1.8998 -1.7576
  855MPD2    H312614   1.549   4.593  13.533 -0.6689  1.9888  0.4956
  855MPD2     N12615   1.114   4.560  13.413 -0.5216  0.3881  0.7106
  855MPD2    H512616   1.156   4.565  13.321 -2.2320  1.0773 -0.0241
  855MPD2    N112617   1.259   4.440  13.859 -0.6805 -0.3937  0.2854
  855MPD2    H712618   1.160   4.426  13.875 -0.6578  0.3825  1.1420
  856MPD2     C12619   3.226   0.587  14.007 -0.2141  0.1973  0.5233
  856MPD2    C112620   3.221   0.719  14.050  0.1918 -0.4605  0.2394
  856MPD2    C212621   3.122   0.806  13.993 -1.1755  0.1162 -0.2728
  856MPD2    C312622   3.022   0.757  13.912  0.0209  0.3984  0.5350
  856MPD2    C412623   3.013   0.621  13.877  0.3203 -0.3477  0.1215
  856MPD2    C512624   3.132   0.545  13.910  0.0155 -0.1648 -0.2147
  856MPD2     H12625   3.109   0.911  14.019 -1.9175  0.2106 -1.0092
  856MPD2    H112626   2.944   0.575  13.807 -2.7426  2.2866  1.4334
  856MPD2    H212627   3.297   0.511  14.039  3.0712  3.0098 -0.0553
  856MPD2    H312628   3.125   0.438  13.895  0.4369  0.0625 -2.0249
  856MPD2     N12629   2.922   0.855  13.878 -0.3433 -0.0087  0.1062
  856MPD2    H512630   2.937   0.951  13.907  0.3185 -1.5861  4.9568
  856MPD2    N112631   3.312   0.770  14.144 -0.4747  0.2087  0.1691
  856MPD2    H712632   3.291   0.865  14.174  0.1857 -0.8381  3.8924
  857MPD2     C12633   4.081   2.927  13.348  0.5169  1.2366 -0.2376
  857MPD2    C112634   4.131   2.981  13.234  0.0062  0.2390 -1.1175
  857MPD2    C212635   4.229   3.080  13.244  0.9569 -0.4585  0.0624
  857MPD2    C312636   4.272   3.126  13.366 -0.1469  0.3172  0.4798
  857MPD2    C412637   4.218   3.073  13.479  0.8232 -0.5163  0.6513
  857MPD2    C512638   4.119   2.974  13.475  0.1286  0.0659 -0.4752
  857MPD2     H12639   4.260   3.126  13.151  1.0248 -3.2863 -1.3137
  857MPD2    H112640   4.251   3.104  13.578  3.0104 -0.8440  0.0415
  857MPD2    H212641   3.999   2.858  13.335  1.3806  0.1204  0.2220
  857MPD2    H312642   4.074   2.931  13.564  1.5674  1.2411  0.8321
  857MPD2     N12643   4.364   3.232  13.385 -0.0134  0.0731 -0.3689
  857MPD2    H512644   4.383   3.265  13.479 -0.6453 -0.9652  0.1251
  857MPD2    N112645   4.084   2.920  13.109  0.3193 -0.2553  0.6224
  857MPD2    H712646   4.015   2.846  13.110 -0.8993  0.8746 -0.0562
  858MPD2     C12647   0.286   2.304  16.818 -0.0478 -0.2242  0.0928
  858MPD2    C112648   0.413   2.265  16.828  0.0726 -0.5999 -0.4904
  858MPD2    C212649   0.485   2.285  16.944 -0.0082 -0.0836  0.3755
  858MPD2    C312650   0.426   2.336  17.058 -0.1353 -0.6465  0.4966
  858MPD2    C412651   0.300   2.392  17.039  0.5478 -1.1238 -0.0093
  858MPD2    C512652   0.236   2.374  16.922  0.2983  0.1898 -0.1243
  858MPD2     H12653   0.586   2.248  16.956  0.2046  0.6097  0.7093
  858MPD2    H112654   0.237   2.427  17.120  0.0458 -0.9297 -0.4828
  858MPD2    H212655   0.220   2.285  16.734  0.3497  0.8786 -0.4613
  858MPD2    H312656   0.137   2.416  16.910  0.1741 -0.2093 -0.5277
  858MPD2     N12657   0.486   2.368  17.179 -0.2392 -0.0586  0.9963
  858MPD2    H512658   0.430   2.403  17.256 -2.7387  0.7342 -1.1765
  858MPD2    N112659   0.468   2.201  16.714 -0.0410 -0.1191  0.5008
  858MPD2    H712660   0.406   2.181  16.637 -1.1086 -0.6832  1.5062
  859MPD2     C12661   4.279   4.159  15.556  0.2986  0.0506 -0.9851
  859MPD2    C112662   4.260   4.179  15.420 -0.4266 -0.3695  0.0766
  859MPD2    C212663   4.229   4.071  15.337 -0.2162 -0.0966  0.2877
  859MPD2    C312664   4.222   3.944  15.392  0.5497 -0.2369  0.3423
  859MPD2    C412665   4.237   3.932  15.533  0.7846 -0.2454 -0.0820
  859MPD2    C512666   4.261   4.036  15.613 -0.0458 -0.3467  0.1937
  859MPD2     H12667   4.209   4.085  15.231  1.3222  0.9730  0.1558
  859MPD2    H112668   4.232   3.836  15.583 -0.1320  0.7529  1.7110
  859MPD2    H212669   4.302   4.249  15.612 -1.3089 -0.1568 -0.0111
  859MPD2    H312670   4.268   4.029  15.721 -0.1025  1.4387  0.3102
  859MPD2     N12671   4.197   3.828  15.320 -0.5137 -0.3383  0.0048
  859MPD2    H512672   4.184   3.744  15.376 -0.0389 -0.9137 -0.7559
  859MPD2    N112673   4.285   4.310  15.381  0.2987 -0.2955  0.0665
  859MPD2    H712674   4.340   4.366  15.446 -0.5818  0.5004  0.1275
  860MPD2     C12675   1.451   0.232  11.795  0.6695 -0.5229 -0.2928
  860MPD2    C112676   1.430   0.246  11.929 -0.2212 -0.7735  0.4798
  860MPD2    C212677   1.337   0.165  11.997  0.9285  0.1202 -0.4512
  860MPD2    C312678   1.267   0.067  11.933 -0.5223  0.1130 -0.1083
  860MPD2    C412679   1.292   0.054  11.800 -0.3088 -0.2384 -0.0782
  860MPD2    C512680   1.376   0.136  11.728 -0.3331  0.0977 -0.9136
  860MPD2     H12681   1.313   0.180  12.101  0.2027 -2.6204 -0.2471
  860MPD2    H112682   1.243   4.712  11.747 -0.8679  1.3755 -2.0271
  860MPD2    H212683   1.526   0.279  11.733  2.0895 -2.7654 -0.2679
  860MPD2    H312684   1.382   0.122  11.621 -0.2349  0.8030 -1.0007
  860MPD2     N12685   1.161   0.010  11.999  0.3658 -0.7796 -0.3297
  860MPD2    H512686   1.143   0.034  12.096  0.8319  2.2746 -0.9992
  860MPD2    N112687   1.501   0.336  12.012 -0.1188  0.0993  0.1353
  860MPD2    H712688   1.471   0.349  12.108 -2.0487 -0.0794 -0.4444
  861MPD2     C12689   4.596   2.787  11.214  0.8285 -0.1354  0.5731
  861MPD2    C112690   4.475   2.727  11.230 -0.1968 -0.7116 -0.0579
  861MPD2    C212691   4.380   2.740  11.131 -0.0297 -0.0773  0.7910
  861MPD2    C312692   4.407   2.831  11.018  0.2812  1.1390  0.5429
  861MPD2    C412693   4.539   2.879  10.999 -0.3138  0.0544 -0.0205
  861MPD2    C512694   4.624   2.862  11.102  0.2934  0.0147  0.2751
  861MPD2     H12695   4.283   2.691  11.143  0.9425 -2.4188 -0.9162
  861MPD2    H112696   4.566   2.942  10.914 -0.2954  0.5582  0.3620
  861MPD2    H212697   4.674   2.789  11.290  1.8587 -0.6337 -0.4653
  861MPD2    H312698   4.721   2.909  11.099 -0.2099  1.0562  0.3680
  861MPD2     N12699   4.318   2.858  10.922 -0.6555  0.6115  0.1120
  861MPD2    H512700   4.346   2.903  10.836 -3.1523 -0.8723 -1.4474
  861MPD2    N112701   4.445   2.649  11.344  0.2169 -0.0228 -0.3522
  861MPD2    H712702   4.354   2.604  11.351  1.8608 -3.7319 -2.8922
  862MPD2     C12703   4.110   2.991  10.231  0.3681 -0.1226  0.1840
  862MPD2    C112704   4.111   2.912  10.343 -0.9518  0.0609  0.1850
  862MPD2    C212705   4.074   2.776  10.341 -0.1946 -0.0309  0.3036
  862MPD2    C312706   4.042   2.712  10.224 -0.3218  0.0569 -0.1991
  862MPD2    C412707   4.061   2.784  10.110 -0.4038  0.0022 -0.1844
  862MPD2    C512708   4.093   2.920  10.115 -0.4200  0.3291 -0.0410
  862MPD2     H12709   4.077   2.730  10.439 -0.8947 -2.1160 -0.6505
  862MPD2    H112710   4.047   2.744  10.011  1.4730 -0.9894 -0.0507
  862MPD2    H212711   4.129   3.098  10.226 -0.1203 -0.1603 -2.6334
  862MPD2    H312712   4.103   2.972  10.020  0.1023  0.8784  0.3102
  862MPD2     N12713   3.997   2.581  10.215  0.2016 -0.7120 -0.1879
  862MPD2    H512714   3.985   2.537  10.124  1.3398 -2.0856  0.3289
  862MPD2    N112715   4.126   2.964  10.470 -0.1170 -0.6460 -0.5177
  862MPD2    H712716   4.099   2.898  10.543 -3.6457  2.2984  0.8802
  863MPD2     C12717   3.937   1.076  16.568 -0.2510  0.2899  0.7617
  863MPD2    C112718   3.854   1.126  16.662  0.3877 -0.0798 -0.6142
  863MPD2    C212719   3.893   1.122  16.796  0.2750  0.1148  0.3864
  863MPD2    C312720   4.011   1.053  16.835 -0.1958 -0.6056 -0.7473
  863MPD2    C412721   4.105   1.024  16.736  0.4689  0.1160 -0.4091
  863MPD2    C512722   4.059   1.030  16.610  0.1567  0.2354  1.1486
  863MPD2     H12723   3.818   1.153  16.868 -0.3343 -1.2326  0.3143
  863MPD2    H112724   4.204   0.989  16.761  0.1419 -0.3161  0.2696
  863MPD2    H212725   3.909   1.061  16.465  1.6755 -1.7169  0.5236
  863MPD2    H312726   4.133   0.998  16.537 -0.2617 -0.0718  0.8609
  863MPD2     N12727   4.052   1.041  16.965  0.3241 -0.0590 -0.5236
  863MPD2    H512728   4.147   1.006  16.980  0.5790 -0.2154 -2.5318
  863MPD2    N112729   3.731   1.169  16.612 -0.2868 -0.4203  0.2864
  863MPD2    H712730   3.711   1.156  16.513 -2.3020 -0.8678  0.7517
  864MPD2     C12731   4.249   2.456  17.353 -0.6335 -0.0302  0.4679
  864MPD2    C112732   4.313   2.388  17.253 -1.0649  0.1189 -0.1717
  864MPD2    C212733   4.408   2.458  17.172 -0.6829 -0.1322 -0.1716
  864MPD2    C312734   4.413   2.597  17.178  0.4952 -0.4518 -0.1569
  864MPD2    C412735   4.328   2.656  17.264  0.5198 -0.1492 -0.4926
  864MPD2    C512736   4.248   2.589  17.349  0.2197  0.0461 -0.0315
  864MPD2     H12737   4.463   2.406  17.094  0.0394  3.3017 -1.9503
  864MPD2    H112738   4.318   2.764  17.272  1.1815 -0.1290 -0.0023
  864MPD2    H212739   4.168   2.415  17.412 -1.2233 -1.4914 -1.3954
  864MPD2    H312740   4.182   2.639  17.419 -1.6726 -3.5141  0.7058
  864MPD2     N12741   4.497   2.673  17.092  0.6542  0.7836 -0.7030
  864MPD2    H512742   4.470   2.769  17.072 -0.8642  0.5739  0.3986
  864MPD2    N112743   4.276   2.249  17.242 -0.4039  0.3078  0.2675
  864MPD2    H712744   4.208   2.219  17.311  0.2865  0.7980  1.1544
  865MPD2     C12745   4.407   2.711  16.110 -0.4872 -0.3916  0.7961
  865MPD2    C112746   4.433   2.616  16.202  0.3361  0.0701 -0.2993
  865MPD2    C212747   4.461   2.661  16.330  0.3167  0.2052  0.0942
  865MPD2    C312748   4.480   2.794  16.357  0.7598 -0.1465 -0.1139
  865MPD2    C412749   4.455   2.888  16.262 -0.0310  0.7086 -0.4990
  865MPD2    C512750   4.418   2.846  16.135  0.0519  0.0479 -1.1359
  865MPD2     H12751   4.468   2.596  16.416  1.3522 -0.3555 -0.4200
  865MPD2    H112752   4.478   2.991  16.285 -1.3167  0.9892 -0.4725
  865MPD2    H212753   4.368   2.684  16.013 -0.4676 -1.6697  1.1365
  865MPD2    H312754   4.431   2.925  16.062  2.5618  1.2963  0.6686
  865MPD2     N12755   4.508   2.842  16.488  0.4445 -0.7023 -0.0374
  865MPD2    H512756   4.566   2.925  16.482  1.2616 -1.3719 -1.4449
  865MPD2    N112757   4.434   2.482  16.159 -0.1241 -0.2884  0.0449
  865MPD2    H712758   4.411   2.447  16.066 -0.7563  0.8723 -0.2316
  866MPD2     C12759   0.271   2.801  11.758 -0.6663  1.0669 -0.3419
  866MPD2    C112760   0.303   2.913  11.686  0.2321 -0.8158 -0.4485
  866MPD2    C212761   0.203   2.981  11.616 -0.3709 -0.4279 -0.0078
  866MPD2    C312762   0.070   2.932  11.610 -0.8668  0.4163 -0.5031
  866MPD2    C412763   0.040   2.815  11.682 -0.9637  0.0377  0.3672
  866MPD2    C512764   0.142   2.753  11.747 -0.2449  0.5737 -0.6856
  866MPD2     H12765   0.225   3.073  11.563 -0.2744 -0.4312  0.0263
  866MPD2    H112766   4.679   2.785  11.711 -0.6360 -0.1948  1.2624
  866MPD2    H212767   0.348   2.736  11.798 -0.8133  1.1431  0.0592
  866MPD2    H312768   0.124   2.668  11.813 -1.0562  2.8570  2.0391
  866MPD2     N12769   4.705   2.983  11.535 -0.7648  0.0706 -0.5346
  866MPD2    H512770   4.630   2.917  11.516 -1.8042  0.5390  1.8912
  866MPD2    N112771   0.441   2.938  11.670 -0.0120 -0.1563 -0.1213
  866MPD2    H712772   0.499   2.875  11.725 -0.7519 -0.1989  0.6069
  867MPD2     C12773   3.138   2.519  16.592  1.1562 -0.1108  0.0113
  867MPD2    C112774   3.230   2.492  16.690  0.3573 -0.4807 -0.2847
  867MPD2    C212775   3.280   2.600  16.760 -0.5713 -0.0470 -0.1431
  867MPD2    C312776   3.226   2.730  16.744 -0.0211 -0.2675 -0.1381
  867MPD2    C412777   3.124   2.742  16.657  0.0639 -0.2188 -0.5525
  867MPD2    C512778   3.084   2.638  16.574 -0.0365  0.1312 -0.0470
  867MPD2     H12779   3.351   2.578  16.839  1.2000  1.3757 -1.3280
  867MPD2    H112780   3.084   2.843  16.649 -2.9016 -1.2440  1.4249
  867MPD2    H212781   3.100   2.442  16.526 -1.7254  1.3330  0.0081
  867MPD2    H312782   3.012   2.646  16.494  0.7008  1.8536 -0.5623
  867MPD2     N12783   3.268   2.842  16.818  0.1626 -0.3045 -0.7745
  867MPD2    H512784   3.194   2.910  16.829 -2.0196 -2.8979  0.5302
  867MPD2    N112785   3.278   2.363  16.699  1.1562 -0.3397 -0.3279
  867MPD2    H712786   3.245   2.310  16.618  2.6283 -2.4529  0.4687
  868MPD2     C12787   4.260   1.353  13.248  0.7161  0.0800 -0.6963
  868MPD2    C112788   4.348   1.431  13.317 -0.5005 -0.6634  0.0272
  868MPD2    C212789   4.301   1.552  13.367  0.6863  0.1142 -0.0404
  868MPD2    C312790   4.164   1.586  13.367 -0.0147 -0.9513 -0.1467
  868MPD2    C412791   4.081   1.505  13.293 -0.4946  0.1012  0.5322
  868MPD2    C512792   4.128   1.387  13.232  0.3080 -0.1483 -0.1374
  868MPD2     H12793   4.371   1.622  13.412  1.6077  0.0137 -1.3471
  868MPD2    H112794   3.974   1.521  13.289 -0.1570  2.2661 -0.0191
  868MPD2    H212795   4.290   1.260  13.200  0.4092  0.8702 -2.4036
  868MPD2    H312796   4.059   1.330  13.172 -0.4350  0.5047  0.1001
  868MPD2     N12797   4.115   1.701  13.440  0.4261  0.1099 -0.0170
  868MPD2    H512798   4.184   1.770  13.470 -0.3834  1.1242 -0.4919
  868MPD2    N112799   4.485   1.388  13.328 -0.3179 -0.0725 -0.6136
  868MPD2    H712800   4.517   1.307  13.275  1.9071 -0.2663  1.0253
  869MPD2     C12801   1.550   3.987   0.275  0.5753  0.6183  0.4384
  869MPD2    C112802   1.442   4.070   0.281 -0.5231  0.2546  0.0750
  869MPD2    C212803   1.445   4.159   0.386  0.7419  1.2472  0.1250
  869MPD2    C312804   1.557   4.170   0.467 -0.5775  0.2156  0.5379
  869MPD2    C412805   1.665   4.087   0.447 -0.2179  0.7865 -0.7610
  869MPD2    C512806   1.664   3.994   0.357  0.3784  0.0993 -0.3721
  869MPD2     H12807   1.355   4.217   0.405  1.4527  3.0509 -2.0735
  869MPD2    H112808   1.760   4.096   0.500 -0.5255  0.1567 -0.0987
  869MPD2    H212809   1.556   3.916   0.193  0.5762  0.1452  0.8445
  869MPD2    H312810   1.751   3.935   0.331 -0.8325 -2.3416  1.1780
  869MPD2     N12811   1.567   4.269   0.567 -0.0320 -0.1968 -0.1350
  869MPD2    H512812   1.662   4.280   0.603 -0.6409  0.7415  1.2219
  869MPD2    N112813   1.340   4.051   0.182 -0.5360  0.3956 -0.6092
  869MPD2    H712814   1.359   3.980   0.111  1.2003  0.7949 -0.5464
  870MPD2     C12815   2.062   3.490   1.415  0.0140  0.3709 -0.1161
  870MPD2    C112816   1.969   3.417   1.345  0.3647 -0.2773 -0.8667
  870MPD2    C212817   1.867   3.482   1.291 -0.8671  0.0867  0.2444
  870MPD2    C312818   1.856   3.621   1.292 -0.0216  1.0471 -1.1499
  870MPD2    C412819   1.965   3.693   1.345 -0.0540  0.0525 -0.3675
  870MPD2    C512820   2.055   3.626   1.418 -0.5525  0.2876 -0.6084
  870MPD2     H12821   1.786   3.421   1.251  0.0174  0.8546 -2.7017
  870MPD2    H112822   1.975   3.801   1.343 -2.0169  0.2724  1.2877
  870MPD2    H212823   2.146   3.448   1.468 -2.3300 -0.3919  2.9812
  870MPD2    H312824   2.144   3.668   1.463 -0.4722  0.3574 -0.8313
  870MPD2     N12825   1.741   3.682   1.235 -0.1725  0.2205  0.1140
  870MPD2    H512826   1.670   3.624   1.192 -2.8410  2.4906  1.5069
  870MPD2    N112827   1.974   3.279   1.361 -0.4202 -0.4106  0.4778
  870MPD2    H712828   2.055   3.236   1.404  0.2640  0.1563 -0.2458
  871MPD2     C12829   2.072   2.866  16.718  0.5137 -0.0454 -0.1822
  871MPD2    C112830   1.991   2.759  16.761  0.1759  0.2233  0.3780
  871MPD2    C212831   2.015   2.633  16.721 -0.0466  0.3273  0.1968
  871MPD2    C312832   2.104   2.606  16.621  0.3842  0.1063  0.1584
  871MPD2    C412833   2.182   2.705  16.577  0.0036  0.3417 -0.0138
  871MPD2    C512834   2.170   2.835  16.626 -0.4737 -0.0775 -0.1193
  871MPD2     H12835   1.948   2.552  16.745  2.0120 -1.7997 -1.2870
  871MPD2    H112836   2.265   2.684  16.510 -0.7315 -0.2065 -0.7578
  871MPD2    H212837   2.058   2.971  16.742 -0.4785 -0.0847 -0.5644
  871MPD2    H312838   2.230   2.913  16.581 -0.4301  1.1606  2.1156
  871MPD2     N12839   2.120   2.472  16.580  0.3673 -0.1260  0.1006
  871MPD2    H512840   2.076   2.402  16.639 -0.8224  1.8657  1.5915
  871MPD2    N112841   1.895   2.791  16.859  0.2114 -0.5753  0.6252
  871MPD2    H712842   1.902   2.888  16.886 -1.0963 -0.2192 -0.3048
  872MPD2     C12843   3.015   4.651  14.577  0.0853  0.4122 -0.6156
  872MPD2    C112844   3.006   0.020  14.492 -0.0600 -0.5337  0.6636
  872MPD2    C212845   2.880   0.085  14.491  1.0552 -0.1493 -0.3180
  872MPD2    C312846   2.776   0.031  14.562 -0.2352  0.4544  0.4986
  872MPD2    C412847   2.792   4.665  14.649  0.3700  0.5432 -0.0819
  872MPD2    C512848   2.920   4.616  14.667 -0.2550 -0.2870  0.0099
  872MPD2     H12849   2.866   0.170  14.426 -1.6116  0.2663  0.8003
  872MPD2    H112850   2.713   4.631  14.715 -0.2034  1.3940 -0.3345
  872MPD2    H212851   3.109   4.598  14.587  0.7164  1.5230 -0.6735
  872MPD2    H312852   2.943   4.533  14.734 -3.9836 -0.2466  1.3306
  872MPD2     N12853   2.652   0.102  14.564 -0.5562  0.2062 -0.2995
  872MPD2    H512854   2.577   0.069  14.624 -1.2359 -2.3686 -2.5426
  872MPD2    N112855   3.104   0.057  14.403  0.7483 -0.5381  0.5672
  872MPD2    H712856   3.080   0.099  14.314  1.3005 -0.3281  0.5120
  873MPD2     C12857   4.349   0.827   1.228 -0.5866  0.1413  1.0509
  873MPD2    C112858   4.442   0.784   1.321  0.7711 -0.1185 -0.0976
  873MPD2    C212859   4.477   0.654   1.318 -0.7658  0.5085  0.2280
  873MPD2    C312860   4.427   0.569   1.212 -0.1045 -0.1474  0.1249
  873MPD2    C412861   4.333   0.620   1.127 -0.5183 -0.1343  0.8288
  873MPD2    C512862   4.297   0.749   1.131 -0.4299 -0.1488 -0.0218
  873MPD2     H12863   4.557   0.619   1.381 -2.9922 -0.3983  2.5642
  873MPD2    H112864   4.301   0.568   1.037 -1.1367  1.7011 -0.0125
  873MPD2    H212865   4.302   0.925   1.231  1.2237  1.0743 -1.6210
  873MPD2    H312866   4.227   0.781   1.056 -1.5015 -1.5206  0.3964
  873MPD2     N12867   4.468   0.440   1.191  0.2486  0.4798  0.1919
  873MPD2    H512868   4.422   0.388   1.117  0.0093 -0.4914  1.0206
  873MPD2    N112869   4.501   0.874   1.418  0.5875  0.8673  0.0802
  873MPD2    H712870   4.458   0.966   1.411 -0.5043  0.4209  0.8628
  874MPD2     C12871   4.256   0.539  16.148  0.2059 -0.0960 -0.2087
  874MPD2    C112872   4.345   0.503  16.249  0.0664 -0.1220 -0.6518
  874MPD2    C212873   4.463   0.567  16.256 -0.3512 -0.0165  0.9193
  874MPD2    C312874   4.498   0.677  16.176 -0.1775 -0.2510  0.8176
  874MPD2    C412875   4.411   0.712  16.076 -0.2990 -0.4503 -0.1807
  874MPD2    C512876   4.289   0.643  16.063  0.3595  0.5977 -0.0257
  874MPD2     H12877   4.549   0.535  16.315  0.4825  0.2295 -0.1576
  874MPD2    H112878   4.430   0.792  16.005 -2.8592  1.5637  1.4108
  874MPD2    H212879   4.156   0.498  16.139 -0.0983  0.7154 -0.5015
  874MPD2    H312880   4.232   0.682  15.980 -0.4060 -1.1120 -0.3079
  874MPD2     N12881   4.625   0.729  16.202  0.0317 -0.6064 -0.2702
  874MPD2    H512882   4.672   0.678  16.276 -1.4958  2.1636  2.6232
  874MPD2    N112883   4.314   0.395  16.326 -0.2727  0.0331 -0.0093
  874MPD2    H712884   4.227   0.344  16.310 -1.6375  2.1851  0.5133
  875MPD2     C12885   4.588   3.053  14.867  0.2573 -0.6238 -0.4360
  875MPD2    C112886   4.654   3.126  14.773  0.1357  0.8783  0.3154
  875MPD2    C212887   0.036   3.172  14.804 -0.5521  0.1398 -0.0249
  875MPD2    C312888   0.095   3.132  14.925 -0.2222  0.1337 -0.8532
  875MPD2    C412889   0.036   3.036  14.999  0.0322  0.4964 -0.3865
  875MPD2    C512890   4.648   3.000  14.980  0.4176 -0.3543 -0.6675
  875MPD2     H12891   0.087   3.245  14.741 -2.0749  0.1959 -1.2171
  875MPD2    H112892   0.084   3.008  15.092 -2.8691  0.6375  1.1721
  875MPD2    H212893   4.485   3.026  14.849  0.6779 -1.2790 -1.8729
  875MPD2    H312894   4.598   2.945  15.059  2.2343  1.2563  1.5968
  875MPD2     N12895   0.193   3.205  14.987  0.1894  0.4165  0.5486
  875MPD2    H512896   0.225   3.169  15.077 -1.6124 -0.2457  0.9315
  875MPD2    N112897   4.604   3.150  14.638 -0.9252  0.0341  0.1337
  875MPD2    H712898   4.670   3.195  14.576  0.6176  0.2895  1.9366
  876MPD2     C12899   4.539   4.583  16.252  0.6599 -0.0995 -0.5996
  876MPD2    C112900   4.607   4.517  16.153 -0.3161  0.1638 -0.2076
  876MPD2    C212901   4.660   4.392  16.166  0.2954  0.0470 -0.0623
  876MPD2    C312902   4.639   4.327  16.280 -0.1196 -0.6735 -0.9324
  876MPD2    C412903   4.568   4.385  16.381 -0.5705  0.1939  0.6591
  876MPD2    C512904   4.519   4.515  16.373 -0.3348 -0.1323 -0.0417
  876MPD2     H12905   4.708   4.344  16.081 -2.4754 -0.5080 -1.3461
  876MPD2    H112906   4.525   4.324  16.460  1.3289 -3.9081 -1.4611
  876MPD2    H212907   4.512   4.688  16.247  0.0957 -0.3178 -1.9811
  876MPD2    H312908   4.467   4.564  16.454 -1.6765 -1.0629 -0.3349
  876MPD2     N12909   4.673   4.190  16.285  0.6277  0.1068  0.0887
  876MPD2    H512910   4.712   4.146  16.203 -1.5422 -0.0832 -0.8263
  876MPD2    N112911   4.621   4.597  16.038  0.0516  0.0876  0.1814
  876MPD2    H712912   4.568   4.683  16.034 -0.7806 -0.3846  1.1762
  877MPD2     C12913   4.202   0.146  15.463 -0.3796  0.0712 -0.2986
  877MPD2    C112914   4.308   0.231  15.490 -0.3875 -0.3318 -0.3155
  877MPD2    C212915   4.340   0.341  15.409 -0.6779  0.5274  0.0936
  877MPD2    C312916   4.250   0.380  15.316 -0.2193 -0.4083 -0.5539
  877MPD2    C412917   4.133   0.309  15.299 -1.0939  0.1009 -0.0085
  877MPD2    C512918   4.112   0.189  15.368  0.1833 -0.3181  0.1894
  877MPD2     H12919   4.440   0.384  15.411 -0.9536  1.1958 -0.5335
  877MPD2    H112920   4.052   0.328  15.229  0.7842  0.3561 -2.1093
  877MPD2    H212921   4.181   0.050  15.508  0.1974 -0.7846 -1.8376
  877MPD2    H312922   4.025   0.131  15.341  0.2036 -0.3473  0.1863
  877MPD2     N12923   4.263   0.492  15.229 -1.0630 -0.1042  0.2266
  877MPD2    H512924   4.186   0.512  15.165 -0.0039 -0.2006 -1.0801
  877MPD2    N112925   4.414   0.193  15.576 -0.8074  0.1270 -0.0042
  877MPD2    H712926   4.506   0.236  15.568 -0.7487 -0.1030 -0.5659
  878MPD2     C12927   4.016   4.076  13.434  0.2559 -0.0258  0.1837
  878MPD2    C112928   3.954   4.196  13.451 -0.7122 -0.0431  0.6590
  878MPD2    C212929   3.960   4.262  13.575  0.6580  0.3720 -0.9707
  878MPD2    C312930   4.027   4.205  13.682 -0.2035 -0.2944 -0.4682
  878MPD2    C412931   4.072   4.073  13.664  0.8668 -0.1788 -0.1216
  878MPD2    C512932   4.080   4.012  13.540 -0.2205  0.1146 -0.8015
  878MPD2     H12933   3.909   4.356  13.587  1.4142  0.6879 -0.2056
  878MPD2    H112934   4.125   4.022  13.745 -1.6691 -2.0298  0.3729
  878MPD2    H212935   4.030   4.031  13.337 -1.8206 -0.8120  0.2413
  878MPD2    H312936   4.129   3.916  13.530  2.9412  1.6363  0.0984
  878MPD2     N12937   4.053   4.292  13.790  0.3516  0.5371 -0.1456
  878MPD2    H512938   4.021   4.388  13.782  0.0704  0.3827 -0.9420
  878MPD2    N112939   3.904   4.250  13.332  0.1923 -0.0023 -0.6708
  878MPD2    H712940   3.902   4.195  13.247 -0.0229 -0.7921 -0.1634
  879MPD2     C12941   4.339   0.834  17.526  0.3686 -0.6722 -0.4007
  879MPD2    C112942   4.409   0.913  17.440 -0.3986  0.1351 -0.4554
  879MPD2    C212943   4.383   0.897  17.307 -1.0309  0.0957 -0.1810
  879MPD2    C312944   4.287   0.806  17.272  0.1150 -0.0475 -0.1546
  879MPD2    C412945   4.207   0.740  17.362  0.4106  0.3018  0.2992
  879MPD2    C512946   4.239   0.753  17.490  0.2998 -0.0333 -0.2520
  879MPD2     H12947   4.436   0.958  17.234 -0.6011  1.2582  1.1010
  879MPD2    H112948   4.125   0.676  17.332 -0.6405  1.2385  1.1939
  879MPD2    H212949   4.371   0.837  17.629  2.2764  2.4049 -1.0683
  879MPD2    H312950   4.183   0.700  17.566  1.7247 -2.0921 -0.6463
  879MPD2     N12951   4.262   0.773  17.138  0.7793  0.7318  0.6997
  879MPD2    H512952   4.200   0.694  17.122  1.2004  0.9538 -2.0353
  879MPD2    N112953   4.503   1.001  17.495  0.2746  0.0560 -0.6936
  879MPD2    H712954   4.509   1.021  17.594  0.0251 -2.9745 -0.0571
  880MPD2     C12955   1.067   2.701   0.234  0.2000  0.1243 -0.3510
  880MPD2    C112956   1.150   2.772   0.316 -0.3382 -0.0349 -0.5008
  880MPD2    C212957   1.230   2.693   0.402 -0.5188  0.8134  0.5715
  880MPD2    C312958   1.243   2.559   0.394 -0.8109 -0.0948  0.3990
  880MPD2    C412959   1.158   2.495   0.316  0.4777 -0.3743 -0.3230
  880MPD2    C512960   1.071   2.563   0.241 -0.1160  0.5685  0.4511
  880MPD2     H12961   1.291   2.744   0.476 -1.6374  3.0937 -0.0850
  880MPD2    H112962   1.161   2.387   0.316  1.3166 -0.3571 -1.0830
  880MPD2    H212963   0.994   2.756   0.177 -0.6428 -0.2894  0.3243
  880MPD2    H312964   1.010   2.506   0.172 -0.6556 -1.1492  2.3498
  880MPD2     N12965   1.327   2.494   0.485  0.2623 -0.3087  0.2484
  880MPD2    H512966   1.377   2.545   0.558 -2.1212 -0.4517  2.0046
  880MPD2    N112967   1.145   2.914   0.313 -0.4696  0.0647 -0.1306
  880MPD2    H712968   1.075   2.955   0.252  1.1927 -0.2307 -2.2313
  881MPD2     C12969   0.786   3.642  17.549 -0.0543 -0.2514  0.5045
  881MPD2    C112970   0.891   3.554  17.524 -0.0877  0.0093 -0.3116
  881MPD2    C212971   0.937   3.480  17.628 -0.3112  1.1558  0.1918
  881MPD2    C312972   0.879   3.493  17.754 -0.5102 -0.3117 -0.4417
  881MPD2    C412973   0.772   3.566   0.018  1.6659  0.0856 -0.2065
  881MPD2    C512974   0.715   3.634  17.665 -0.2569 -0.0951 -0.2572
  881MPD2     H12975   1.026   3.420  17.615 -1.5416  0.0375 -3.0595
  881MPD2    H112976   0.725   3.575   0.115  0.8427 -1.1887 -0.4932
  881MPD2    H212977   0.734   3.698  17.473  0.4007  0.3117  0.6068
  881MPD2    H312978   0.626   3.696  17.674  0.0679  0.2110  0.7894
  881MPD2     N12979   0.924   3.424   0.113 -0.0669  0.1607 -0.1580
  881MPD2    H512980   0.866   3.438   0.195  1.6447 -1.4241  1.3076
  881MPD2    N112981   0.951   3.568  17.396 -0.5148  0.5632 -0.2994
  881MPD2    H712982   0.911   3.623  17.321  0.8139 -0.6839 -1.9156
  882MPD2     C12983   4.547   0.223  14.651 -0.0574 -0.7794  0.4669
  882MPD2    C112984   4.430   0.284  14.673  0.6570 -0.5433  0.0091
  882MPD2    C212985   4.314   0.222  14.632 -0.0891 -0.4505  0.0791
  882MPD2    C312986   4.314   0.094  14.588  0.0182  0.0785  0.6502
  882MPD2    C412987   4.434   0.028  14.577  0.5328  0.4327 -0.1566
  882MPD2    C512988   4.548   0.097  14.597 -0.0125 -0.0686  0.2500
  882MPD2     H12989   4.221   0.277  14.644  0.9120  0.7553  2.1654
  882MPD2    H112990   4.436   4.669  14.533  4.4397 -0.8461  2.9741
  882MPD2    H212991   4.645   0.263  14.676  0.5053  0.1958 -3.3640
  882MPD2    H312992   4.642   0.043  14.593  0.4364  0.7455 -0.1594
  882MPD2     N12993   4.192   0.025  14.559 -0.2823 -0.0247 -0.3233
  882MPD2    H512994   4.199   4.664  14.544  1.7468  0.3401 -1.8582
  882MPD2    N112995   4.435   0.409  14.737  0.1752  0.3186  0.2259
  882MPD2    H712996   4.526   0.447  14.762  0.2075 -0.8090  1.8311
  883MPD2     C12997   1.440   4.588  16.100 -0.7758  0.1752  0.7104
  883MPD2    C112998   1.509   4.668  16.014 -0.1429 -0.2549 -0.3606
  883MPD2    C212999   1.645   4.682  16.034 -0.3492  0.4385 -0.2785
  883MPD2    C313000   1.702   4.643  16.151  0.6522  0.4008  0.4792
  883MPD2    C413001   1.627   4.571  16.244  0.1622  0.4432  0.0519
  883MPD2    C513002   1.506   4.530  16.205 -0.3203  0.1775 -0.3500
  883MPD2     H13003   1.704   4.735  15.960  0.1228  0.9460  0.4525
  883MPD2    H113004   1.670   4.535  16.337  2.8641 -0.6115 -1.6062
  883MPD2    H213005   1.334   4.569  16.096 -0.8115  0.8521 -1.3029
  883MPD2    H313006   1.435   4.479  16.268  1.4320 -1.9090 -0.0761
  883MPD2     N13007   1.835   4.687  16.171  0.3392 -0.6986  0.4547
  883MPD2    H513008   1.890   4.723  16.093  1.5777  0.8597  2.0256
  883MPD2    N113009   1.451   4.738  15.906 -0.2522 -0.5424  0.3248
  883MPD2    H713010   1.514   0.056  15.851 -0.1483 -0.9223  0.0468
  884MPD2     C13011   3.834   1.070  15.146 -0.5724 -0.1182  0.7305
  884MPD2    C113012   3.771   1.184  15.100 -0.6196 -0.8064  0.1291
  884MPD2    C213013   3.628   1.183  15.092 -0.1447 -0.6425 -0.8243
  884MPD2    C313014   3.559   1.077  15.151  0.0343  0.6109 -0.2653
  884MPD2    C413015   3.635   0.964  15.190 -0.6956  0.1212 -0.0507
  884MPD2    C513016   3.769   0.962  15.183  0.5580  0.0465 -0.1495
  884MPD2     H13017   3.569   1.265  15.055 -0.1736  0.5743  1.9321
  884MPD2    H113018   3.593   0.880  15.245  2.2609 -1.7231 -0.6048
  884MPD2    H213019   3.943   1.073  15.147 -0.5719  0.4947 -1.3645
  884MPD2    H313020   3.819   0.869  15.209 -0.7892 -1.0999 -1.6756
  884MPD2     N13021   3.417   1.090  15.165  0.3577  1.0569  0.1540
  884MPD2    H513022   3.389   1.188  15.165 -0.9837  0.6670 -0.2032
  884MPD2    N113023   3.853   1.300  15.073 -0.4706 -0.2616 -0.5986
  884MPD2    H713024   3.954   1.288  15.078 -0.2330  1.5916 -1.2650
  885MPD2     C13025   1.995   2.107   0.248  0.8817  0.2263 -0.1913
  885MPD2    C113026   1.983   1.971   0.228 -0.3528  1.1078  0.1442
  885MPD2    C213027   2.020   1.915   0.107  0.6551  0.2516  0.3367
  885MPD2    C313028   2.054   1.992  17.751 -0.2026  0.4539  0.6210
  885MPD2    C413029   2.070   2.123   0.020 -0.3275  0.0454  0.0346
  885MPD2    C513030   2.043   2.178   0.144 -0.0471  0.6157 -0.5655
  885MPD2     H13031   1.999   1.810   0.089 -0.3674  0.6362 -0.7232
  885MPD2    H113032   2.084   2.199  17.700 -2.0877  0.0730 -0.2607
  885MPD2    H213033   1.965   2.159   0.338 -1.4463 -0.9473 -0.3055
  885MPD2    H313034   2.043   2.285   0.158 -0.8055  0.6871 -1.1179
  885MPD2     N13035   2.068   1.936  17.620  0.3314 -0.6347  0.0003
  885MPD2    H513036   2.043   1.839  17.605 -1.8032  0.1076 -1.2826
  885MPD2    N113037   1.940   1.894   0.343  0.0299  0.1935  0.4072
  885MPD2    H713038   1.908   1.944   0.425  1.2020  0.8812  0.4500
  886MPD2     C13039   3.189   4.045  15.285  0.4825 -0.2893  0.1010
  886MPD2    C113040   3.315   4.099  15.294  0.7749 -0.3767 -0.4363
  886MPD2    C213041   3.336   4.231  15.260  0.7024 -0.2423 -0.0098
  886MPD2    C313042   3.232   4.303  15.205  0.7241 -0.2702 -0.0436
  886MPD2    C413043   3.112   4.247  15.192 -0.1334  0.5452 -0.4736
  886MPD2    C513044   3.083   4.119  15.234 -0.2252 -0.1389 -0.2227
  886MPD2     H13045   3.432   4.278  15.275  0.7762 -0.6277  0.7679
  886MPD2    H113046   3.029   4.300  15.146 -1.6311 -1.8851 -0.5960
  886MPD2    H213047   3.177   3.950  15.336  0.7862 -0.6582 -0.5027
  886MPD2    H313048   2.982   4.080  15.227  0.2542 -1.3491 -0.3207
  886MPD2     N13049   3.263   4.438  15.159  0.0818 -0.1751 -0.5615
  886MPD2    H513050   3.358   4.470  15.180 -0.5803  0.7964  0.9705
  886MPD2    N113051   3.427   4.031  15.348 -0.3303  0.2914 -0.2894
  886MPD2    H713052   3.508   4.087  15.373 -0.1554 -0.1576  0.1318
  887MPD2     C13053   3.977   3.981  15.849 -0.6859 -0.2486  0.5626
  887MPD2    C113054   3.924   4.062  15.751  0.2350  0.7819  0.0085
  887MPD2    C213055   3.946   4.196  15.763 -0.2158  0.7932 -0.5737
  887MPD2    C313056   4.020   4.254  15.859 -0.7612 -0.0989  0.3190
  887MPD2    C413057   4.083   4.175  15.952 -1.1066  0.1687 -0.1881
  887MPD2    C513058   4.053   4.045  15.941 -0.1454 -0.1293 -0.0827
  887MPD2     H13059   3.895   4.254  15.687 -0.2115  0.2603 -0.9832
  887MPD2    H113060   4.144   4.212  16.033  0.6312 -1.5151 -0.7406
  887MPD2    H213061   3.962   3.875  15.865  0.8027 -0.2694  1.7849
  887MPD2    H313062   4.101   3.980  16.013 -1.2651 -0.4751  0.3559
  887MPD2     N13063   4.019   4.398  15.857  0.3945  0.0083  0.0209
  887MPD2    H513064   3.971   4.442  15.778 -0.5168 -1.1859 -0.0955
  887MPD2    N113065   3.853   4.011  15.639  0.3623 -0.0349  0.2423
  887MPD2    H713066   3.824   4.078  15.569  1.2782 -0.4592 -0.5423
  888MPD2     C13067   0.658   4.474  15.105  0.4645  0.7418 -0.7280
  888MPD2    C113068   0.715   4.489  15.229 -0.6811  0.2954 -0.1823
  888MPD2    C213069   0.789   4.603  15.255 -0.5989  1.1566 -0.5193
  888MPD2    C313070   0.814   4.694  15.157  0.0326  0.4205  0.3101
  888MPD2    C413071   0.764   4.668  15.030 -0.3413  0.5198  0.5185
  888MPD2    C513072   0.697   4.552  15.003  0.2504  0.5571  0.7020
  888MPD2     H13073   0.834   4.620  15.351 -0.3834 -0.9102 -0.2477
  888MPD2    H113074   0.771   4.736  14.946 -4.4588  0.7577  0.3598
  888MPD2    H213075   0.603   4.385  15.077  0.2673  0.7163 -0.2528
  888MPD2    H313076   0.665   4.518  14.905 -0.7937  0.8001  0.9634
  888MPD2     N13077   0.889   0.074  15.190  0.1017  0.8374 -0.7649
  888MPD2    H513078   0.901   0.105  15.286  2.3217 -2.0042 -0.1330
  888MPD2    N113079   0.689   4.395  15.336  0.4943  0.0562 -0.1429
  888MPD2    H713080   0.737   4.408  15.424 -0.6242  3.3458 -0.0224
  889MPD2     C13081   4.261   3.908  13.091  0.1227 -0.1156 -0.1434
  889MPD2    C113082   4.368   3.926  13.163  0.1707  0.1144  0.9962
  889MPD2    C213083   4.363   4.030  13.251  0.2138  0.5486  0.1048
  889MPD2    C313084   4.290   4.146  13.239  0.0797  0.1673 -0.2262
  889MPD2    C413085   4.193   4.140  13.138 -0.3258  0.7411 -0.4926
  889MPD2    C513086   4.181   4.016  13.071  0.0278  0.3454  0.0975
  889MPD2     H13087   4.433   4.038  13.333  0.6883 -1.7970 -0.0757
  889MPD2    H113088   4.122   4.219  13.118 -2.7283 -1.0113  1.1668
  889MPD2    H213089   4.255   3.827  13.019 -0.9328 -1.9734  2.0330
  889MPD2    H313090   4.101   4.025  12.999  0.2360 -0.4230 -0.2246
  889MPD2     N13091   4.309   4.250  13.328  0.0452 -0.0357  0.1843
  889MPD2    H513092   4.351   4.232  13.418  1.6620 -3.2970 -1.2370
  889MPD2    N113093   4.442   3.806  13.188  0.4882 -0.3292 -0.7187
  889MPD2    H713094   4.421   3.722  13.135  0.6249 -0.9419  0.1927
  890MPD2     C13095   4.120   1.117  14.896 -0.2511 -0.1402  0.9452
  890MPD2    C113096   4.220   1.210  14.925  0.1099 -0.0860 -0.0988
  890MPD2    C213097   4.299   1.185  15.041 -0.1212 -0.2291 -0.1582
  890MPD2    C313098   4.290   1.068  15.111 -0.1550 -0.8601  0.3438
  890MPD2    C413099   4.187   0.980  15.082  0.4568 -0.5933 -0.1038
  890MPD2    C513100   4.103   1.003  14.975 -0.6315  0.0012 -0.2815
  890MPD2     H13101   4.383   1.252  15.056  0.3986 -1.1566  0.9899
  890MPD2    H113102   4.169   0.891  15.140  0.2347 -1.9924 -2.3080
  890MPD2    H213103   4.058   1.132  14.808 -1.2445  2.9990  2.1525
  890MPD2    H313104   4.022   0.933  14.958 -0.8835  0.5361 -1.2825
  890MPD2     N13105   4.392   1.051  15.213  0.3519  0.0852  0.5787
  890MPD2    H513106   4.467   1.119  15.215 -1.3471  1.9801  0.6748
  890MPD2    N113107   4.239   1.327  14.844 -0.6245 -0.2899  0.5232
  890MPD2    H713108   4.158   1.342  14.784 -0.7039 -0.2956  0.6299
  891MPD2     C13109   2.402   3.869  16.527 -0.8417 -0.4484 -0.0734
  891MPD2    C113110   2.427   4.000  16.486 -0.4585 -0.2947 -0.1224
  891MPD2    C213111   2.554   4.053  16.501 -0.0789 -0.0571 -0.5264
  891MPD2    C313112   2.652   3.971  16.557  1.0924 -0.6836  0.3127
  891MPD2    C413113   2.630   3.842  16.597 -0.5211  0.3684 -0.8206
  891MPD2    C513114   2.507   3.799  16.582 -0.1173  0.9774  0.0335
  891MPD2     H13115   2.574   4.153  16.464  1.1125 -0.4002 -0.8122
  891MPD2    H113116   2.700   3.771  16.639  0.9580  1.3848 -1.5673
  891MPD2    H213117   2.314   3.809  16.509 -1.5647  0.7810 -0.6011
  891MPD2    H313118   2.483   3.699  16.616 -1.6365  1.4249  0.2485
  891MPD2     N13119   2.781   4.024  16.561 -0.4371 -0.1168 -0.0244
  891MPD2    H513120   2.796   4.117  16.522 -1.5724  0.1474  0.1713
  891MPD2    N113121   2.318   4.072  16.440  0.1466  0.3850  0.4835
  891MPD2    H713122   2.223   4.035  16.444  0.5695 -0.4825  2.3870
  892MPD2     C13123   3.674   0.699  14.557 -0.1095  0.5373 -0.5493
  892MPD2    C113124   3.590   0.612  14.617  0.9815  0.4486  0.5866
  892MPD2    C213125   3.616   0.476  14.622 -0.4148  0.2350  0.7588
  892MPD2    C313126   3.724   0.429  14.555 -0.6818  0.0594  0.3197
  892MPD2    C413127   3.808   0.514  14.492 -0.0144 -0.2154 -0.0420
  892MPD2    C513128   3.788   0.651  14.499  0.0897  0.2219  0.2532
  892MPD2     H13129   3.545   0.412  14.673 -0.0064  0.7370  1.9492
  892MPD2    H113130   3.896   0.473  14.444 -0.1393 -1.7931  1.0821
  892MPD2    H213131   3.664   0.807  14.556  1.9511  0.7669  1.9264
  892MPD2    H313132   3.861   0.725  14.469  3.2090 -3.2274 -0.7122
  892MPD2     N13133   3.749   0.286  14.539  0.1487 -0.3746  0.2434
  892MPD2    H513134   3.836   0.259  14.494 -0.0366 -0.6408  0.0481
  892MPD2    N113135   3.465   0.654  14.673  0.3249  0.1562 -0.6840
  892MPD2    H713136   3.407   0.580  14.711  0.8170  1.2848  2.2282
  893MPD2     C13137   4.652   4.412   0.977  0.7240 -0.5804 -0.1276
  893MPD2    C113138   4.676   4.467   0.851  0.6639 -0.5775  0.3110
  893MPD2    C213139   4.573   4.504   0.768  0.4199  0.4425  0.9134
  893MPD2    C313140   4.445   4.496   0.800 -0.1436  0.2167 -0.2965
  893MPD2    C413141   4.415   4.435   0.924  0.1339  0.1650  0.1283
  893MPD2    C513142   4.513   4.395   1.004 -0.1564 -0.0646 -0.3804
  893MPD2     H13143   4.604   4.534   0.668 -1.5560 -0.4937  0.0116
  893MPD2    H113144   4.314   4.422   0.960 -0.8325 -0.5910 -2.8616
  893MPD2    H213145   4.725   4.387   1.052  0.5224 -0.7847  0.0001
  893MPD2    H313146   4.489   4.337   1.093  1.6740  1.1872  0.9415
  893MPD2     N13147   4.339   4.535   0.713 -0.1247 -0.5207 -0.2866
  893MPD2    H513148   4.246   4.503   0.739  0.3325 -0.2911  1.5857
  893MPD2    N113149   0.071   4.465   0.802 -0.5810 -0.6718  1.3751
  893MPD2    H713150   0.143   4.441   0.871 -1.1593  0.1157  2.2507
  894MPD2     C13151   3.513   1.729   0.871 -0.2970 -0.2320  0.3009
  894MPD2    C113152   3.494   1.776   1.000 -0.0605 -0.5619  0.2683
  894MPD2    C213153   3.539   1.899   1.031 -0.0882 -0.2772  0.1788
  894MPD2    C313154   3.595   1.983   0.931 -0.0504 -0.0985 -0.4269
  894MPD2    C413155   3.613   1.935   0.805  0.1684  0.1520  0.0803
  894MPD2    C513156   3.572   1.810   0.775 -0.2595 -0.2805  0.8457
  894MPD2     H13157   3.522   1.939   1.130 -0.1557  3.2087 -1.2254
  894MPD2    H113158   3.647   1.998   0.724  1.7427  1.0969  1.4720
  894MPD2    H213159   3.475   1.632   0.839 -0.1863 -0.3830  0.6249
  894MPD2    H313160   3.585   1.789   0.669 -0.8174 -0.6563  0.8487
  894MPD2     N13161   3.637   2.111   0.963 -0.2161 -0.4515  0.1933
  894MPD2    H513162   3.638   2.131   1.063  0.9341 -1.5677  0.4060
  894MPD2    N113163   3.423   1.701   1.099  0.2140 -0.0567 -0.9238
  894MPD2    H713164   3.398   1.746   1.186  2.1605 -1.0184  0.1463
  895MPD2     C13165   2.803   3.987  12.905  0.1226  0.5099 -0.1105
  895MPD2    C113166   2.775   3.967  13.037  1.0750  0.6093 -0.1993
  895MPD2    C213167   2.767   3.839  13.091  0.3404  0.1499  0.0321
  895MPD2    C313168   2.768   3.735  13.005 -0.3079 -0.0731  0.2827
  895MPD2    C413169   2.787   3.755  12.873  0.5019  0.3168 -0.6553
  895MPD2    C513170   2.823   3.883  12.824 -0.8658  0.6864  0.8707
  895MPD2     H13171   2.748   3.828  13.197 -2.8453 -0.6152 -0.6106
  895MPD2    H113172   2.796   3.669  12.806 -1.4915 -0.8345  0.5624
  895MPD2    H213173   2.809   4.086  12.861  1.1350 -0.0181 -1.1793
  895MPD2    H313174   2.841   3.904  12.719  0.6098 -0.4353  0.9018
  895MPD2     N13175   2.737   3.602  13.052 -0.4641  0.0616  0.0092
  895MPD2    H513176   2.716   3.530  12.984  1.5278 -0.1456 -0.3802
  895MPD2    N113177   2.751   4.080  13.124 -0.7573  0.9648 -0.1735
  895MPD2    H713178   2.729   4.070  13.222  0.0776 -2.1925 -0.3109
  896MPD2     C13179   0.468   2.901   1.676  0.2145 -0.3801 -0.1142
  896MPD2    C113180   0.455   2.830   1.558  1.1963 -1.1243  0.1948
  896MPD2    C213181   0.329   2.791   1.513  0.1122  0.6652  0.2959
  896MPD2    C313182   0.217   2.811   1.585  0.7400  0.1555 -0.6521
  896MPD2    C413183   0.231   2.884   1.703  0.0471  0.1185  0.2766
  896MPD2    C513184   0.354   2.927   1.750  0.5543  0.1641 -0.3136
  896MPD2     H13185   0.323   2.731   1.423  2.4536  0.8492  0.0063
  896MPD2    H113186   0.142   2.898   1.762 -0.8254  2.9866 -1.7245
  896MPD2    H213187   0.569   2.920   1.708 -0.4334  2.8367  0.0222
  896MPD2    H313188   0.362   2.977   1.846  0.9740  0.9152 -0.7336
  896MPD2     N13189   0.096   2.753   1.536  0.4694 -0.1124  0.4167
  896MPD2    H513190   0.081   2.684   1.463 -1.9887 -1.6992  2.4233
  896MPD2    N113191   0.578   2.802   1.484  0.2895 -0.0651 -0.4437
  896MPD2    H713192   0.658   2.851   1.522  0.3601  0.8320 -1.7335
  897MPD2     C13193   0.849   3.661  11.454 -0.3743 -0.4858  0.1026
  897MPD2    C113194   0.792   3.641  11.337 -0.0125 -0.3372  0.1289
  897MPD2    C213195   0.651   3.660  11.335 -0.3900  0.2610  0.1838
  897MPD2    C313196   0.573   3.696  11.445 -0.1425 -0.2759 -0.4963
  897MPD2    C413197   0.645   3.737  11.555  0.0720 -0.3917 -0.1889
  897MPD2    C513198   0.780   3.725  11.558  0.9914 -0.0146  0.0701
  897MPD2     H13199   0.591   3.644  11.247  2.3608  0.1735 -1.6772
  897MPD2    H113200   0.604   3.772  11.649  0.7296  3.6039 -1.3828
  897MPD2    H213201   0.953   3.640  11.473 -0.6493 -1.1629  0.8721
  897MPD2    H313202   0.820   3.749  11.656 -1.4841 -1.6152  1.4732
  897MPD2     N13203   0.436   3.694  11.435 -0.1659  0.7597 -0.5474
  897MPD2    H513204   0.397   3.684  11.342 -3.0341  0.1169  0.7484
  897MPD2    N113205   0.867   3.606  11.226 -0.1698 -1.2384 -0.2098
  897MPD2    H713206   0.968   3.615  11.229 -0.2006 -0.5872 -1.3533
  898MPD2     C13207   2.848   0.333   0.221 -0.2748 -0.3831  0.7758
  898MPD2    C113208   2.929   0.441   0.234  0.5962 -0.4468 -0.4437
  898MPD2    C213209   2.902   0.556   0.159 -0.6519  0.3858 -0.1452
  898MPD2    C313210   2.788   0.567   0.077 -0.1524  0.0141  0.2155
  898MPD2    C413211   2.705   0.457   0.072 -0.2508  0.1870 -0.3090
  898MPD2    C513212   2.737   0.339   0.137  0.6217 -0.5337 -0.1162
  898MPD2     H13213   2.963   0.644   0.174  1.6422 -1.2770  0.2788
  898MPD2    H113214   2.612   0.454   0.017  0.3113 -0.8069 -1.2034
  898MPD2    H213215   2.870   0.243   0.277  0.3358 -0.0916  1.0082
  898MPD2    H313216   2.663   0.260   0.129 -1.3920  1.1115  2.1434
  898MPD2     N13217   2.761   0.686   0.013 -0.1929  0.5573 -0.0878
  898MPD2    H513218   2.828   0.761   0.024  0.1825  0.2883 -0.5790
  898MPD2    N113219   3.034   0.449   0.329  0.2464  0.1306  0.5361
  898MPD2    H713220   3.089   0.534   0.317 -0.9642  0.5150 -2.2115
  899MPD2     C13221   3.754   0.701  17.575 -0.2451 -0.3005  0.2633
  899MPD2    C113222   3.820   0.813  17.620  0.0855 -0.4936 -0.0511
  899MPD2    C213223   3.827   0.828   0.001 -0.3868  0.3053 -0.2118
  899MPD2    C313224   3.782   0.734   0.087  0.0390  1.0241 -0.4941
  899MPD2    C413225   3.726   0.620   0.041  0.0889  0.6033  0.8801
  899MPD2    C513226   3.702   0.616  17.662  0.5502  0.0612  0.3111
  899MPD2     H13227   3.879   0.913   0.045  0.9878  0.2114 -1.6822
  899MPD2    H113228   3.706   0.542   0.113  1.9606 -1.8396 -1.2771
  899MPD2    H213229   3.743   0.682  17.468  0.5583  0.7185 -0.0053
  899MPD2    H313230   3.641   0.533  17.627 -0.4541  0.3183  1.4726
  899MPD2     N13231   3.790   0.752   0.229 -0.1761  0.4622  0.3904
  899MPD2    H513232   3.723   0.701   0.286 -1.2477 -1.7219 -2.8252
  899MPD2    N113233   3.880   0.890  17.527 -0.1188 -0.2154 -0.4444
  899MPD2    H713234   3.884   0.875  17.427 -0.6678  0.2784 -0.5389
  900MPD2     C13235   3.154   2.191  12.776 -0.5457 -0.5408 -0.4922
  900MPD2    C113236   3.084   2.077  12.771  1.1994  0.0367 -0.3856
  900MPD2    C213237   2.964   2.071  12.699  0.8143 -0.5221  0.4928
  900MPD2    C313238   2.931   2.169  12.610 -0.1763  0.3320  0.3166
  900MPD2    C413239   3.007   2.282  12.602  0.1081  0.0132 -0.3424
  900MPD2    C513240   3.119   2.286  12.682 -0.3585  0.7754  0.4771
  900MPD2     H13241   2.904   1.981  12.698 -0.6768  0.4572  1.1668
  900MPD2    H113242   2.994   2.363  12.531  0.4836  0.9873  0.6859
  900MPD2    H213243   3.244   2.203  12.835  1.1598 -3.1487 -2.6034
  900MPD2    H313244   3.181   2.374  12.683 -0.0773  0.6042 -1.6921
  900MPD2     N13245   2.806   2.157  12.542  0.4499  0.5592 -0.0072
  900MPD2    H513246   2.765   2.064  12.554 -0.8886  1.0182 -0.9926
  900MPD2    N113247   3.132   1.972  12.854  0.4151 -0.3789 -0.5424
  900MPD2    H713248   3.222   1.987  12.899 -1.1336 -0.4879  2.6061
  901MPD2     C13249   2.769   1.038  13.077 -0.5748 -0.6858  0.4899
  901MPD2    C113250   2.906   1.040  13.075 -0.5006 -0.2210 -0.0918
  901MPD2    C213251   2.965   1.162  13.075  0.1213  0.2445 -0.1385
  901MPD2    C313252   2.890   1.284  13.071  0.7838 -0.0803  0.1234
  901MPD2    C413253   2.751   1.274  13.076 -0.1894 -0.3796 -0.5343
  901MPD2    C513254   2.695   1.150  13.089 -0.3393  0.2971  0.1281
  901MPD2     H13255   3.072   1.165  13.065  0.0576  2.0468 -0.1442
  901MPD2    H113256   2.690   1.363  13.084 -0.0002 -0.2430 -0.5951
  901MPD2    H213257   2.720   0.943  13.065  1.2268 -1.4445 -0.9174
  901MPD2    H313258   2.589   1.139  13.111  0.0389  0.3468  1.9689
  901MPD2     N13259   2.957   1.411  13.057 -0.3453 -0.2602  0.2719
  901MPD2    H513260   2.908   1.488  13.013  1.0643  0.2119 -0.4688
  901MPD2    N113261   2.976   0.914  13.048  0.1939  0.1221 -0.0626
  901MPD2    H713262   2.916   0.833  13.049 -0.5803  0.6932 -0.4556
  902MPD2     C13263   2.947   4.654  12.808 -0.0845 -0.0292 -0.1474
  902MPD2    C113264   2.857   4.739  12.742 -0.0603 -0.8278  0.3183
  902MPD2    C213265   2.830   4.707  12.611 -0.0166 -0.0781 -0.1621
  902MPD2    C313266   2.892   4.610  12.542  0.9887 -0.5169 -0.1387
  902MPD2    C413267   2.964   4.526  12.615 -0.5141 -0.3031  0.7240
  902MPD2    C513268   2.995   4.541  12.747 -0.0187  0.4916  0.2864
  902MPD2     H13269   2.757   0.026  12.555  1.2774  2.0439  0.3562
  902MPD2    H113270   3.009   4.438  12.571 -0.2737  1.0738 -1.7854
  902MPD2    H213271   2.969   4.664  12.914 -0.9133  0.8806 -0.0530
  902MPD2    H313272   3.047   4.463  12.801 -1.4404  0.6939  1.9439
  902MPD2     N13273   2.855   4.580  12.407 -0.0943  0.5200  0.5036
  902MPD2    H513274   2.887   4.490  12.371  2.0622  1.6819 -0.5047
  902MPD2    N113275   2.804   0.111  12.817  0.0257 -0.1493 -0.3655
  902MPD2    H713276   2.846   0.137  12.905 -0.5564  0.2017 -0.1942
  903MPD2     C13277   2.406   0.273  11.871 -0.0355  0.1815 -0.1396
  903MPD2    C113278   2.366   0.209  11.990 -0.9455 -0.7601  0.0180
  903MPD2    C213279   2.270   0.264  12.079  0.1241 -0.3361 -0.3696
  903MPD2    C313280   2.203   0.377  12.041 -0.6233  0.0886  0.3736
  903MPD2    C413281   2.237   0.443  11.922  0.0233 -0.3853  0.0155
  903MPD2    C513282   2.338   0.394  11.842  0.3183 -0.3520 -0.2769
  903MPD2     H13283   2.240   0.205  12.166  1.4394 -0.3537  0.0749
  903MPD2    H113284   2.207   0.546  11.905  0.4865  0.2266  2.8375
  903MPD2    H213285   2.475   0.233  11.797  1.8694  1.2783  1.0426
  903MPD2    H313286   2.367   0.449  11.753  2.2076 -1.8277 -0.5975
  903MPD2     N13287   2.089   0.420  12.122  0.1373  0.0420 -0.2208
  903MPD2    H513288   2.067   0.372  12.209 -0.9236  2.2167  0.7185
  903MPD2    N113289   2.431   0.091  12.029 -0.6602  0.0680 -0.2498
  903MPD2    H713290   2.404   0.051  12.119 -2.0875 -0.0155 -0.7170
  904MPD2     C13291   2.547   3.570  14.221  0.1259  0.6859 -0.1531
  904MPD2    C113292   2.605   3.685  14.188 -0.1115  0.2561  0.7069
  904MPD2    C213293   2.719   3.730  14.243  0.3216  0.3617 -0.0963
  904MPD2    C313294   2.792   3.651  14.330  0.3705  0.7241  0.7567
  904MPD2    C413295   2.744   3.524  14.355  0.3330 -0.1096 -0.5304
  904MPD2    C513296   2.621   3.490  14.302 -0.1348  0.1206 -0.5376
  904MPD2     H13297   2.742   3.835  14.225  2.1362 -0.3204 -1.7205
  904MPD2    H113298   2.780   3.455  14.431  0.0959 -0.0693 -0.3822
  904MPD2    H213299   2.453   3.532  14.183  0.5982  1.6731 -2.2956
  904MPD2    H313300   2.572   3.398  14.332  0.5078 -0.0808 -0.1255
  904MPD2     N13301   2.900   3.717  14.397  0.1043  0.3705  0.1806
  904MPD2    H513302   2.931   3.812  14.379  1.1020 -0.4795 -2.6508
  904MPD2    N113303   2.541   3.787  14.115 -0.4430  0.1551 -0.3056
  904MPD2    H713304   2.588   3.876  14.100 -0.2016  0.1033  0.1493
  905MPD2     C13305   2.039   3.714  13.503 -0.0946  0.5408 -0.5572
  905MPD2    C113306   2.166   3.754  13.516 -0.4374 -0.1774  0.2997
  905MPD2    C213307   2.252   3.698  13.422  0.0033  0.2399 -0.0328
  905MPD2    C313308   2.216   3.595  13.334 -0.0081 -0.1022 -0.6057
  905MPD2    C413309   2.082   3.552  13.335 -0.2835 -0.2063 -0.8712
  905MPD2    C513310   1.998   3.615  13.423 -0.3706  0.9372 -0.4773
  905MPD2     H13311   2.354   3.733  13.430  0.4586 -0.7898 -1.3431
  905MPD2    H113312   2.043   3.464  13.284  0.9467 -3.7293  4.3071
  905MPD2    H213313   1.966   3.745  13.576 -1.0599  2.9903 -2.5577
  905MPD2    H313314   1.900   3.573  13.441 -0.7125  2.3700  1.0756
  905MPD2     N13315   2.323   3.522  13.266  1.4783 -0.2741 -0.0464
  905MPD2    H513316   2.417   3.555  13.285  1.2237 -0.0636  0.8806
  905MPD2    N113317   2.198   3.846  13.616 -0.3297  0.4347 -0.3878
  905MPD2    H713318   2.134   3.859  13.694  0.2381 -0.3599  0.2238
  906MPD2     C13319   4.224   4.007  11.346  0.7766 -0.2296  0.3527
  906MPD2    C113320   4.145   3.907  11.283 -0.2639 -0.3444  0.1945
  906MPD2    C213321   4.082   3.813  11.363 -0.0933  0.6949 -0.1209
  906MPD2    C313322   4.089   3.829  11.496  0.3542  0.0482  0.0434
  906MPD2    C413323   4.155   3.927  11.559  0.4211 -0.1810  0.1757
  906MPD2    C513324   4.225   4.014  11.478 -0.0365  0.5593  0.7405
  906MPD2     H13325   4.020   3.741  11.310 -0.5014  1.2911 -0.4453
  906MPD2    H113326   4.152   3.940  11.666  2.2686  0.6658  0.1295
  906MPD2    H213327   4.285   4.083  11.299  1.5080  0.5191  2.5112
  906MPD2    H313328   4.276   4.101  11.518  1.3473 -0.0356  0.2571
  906MPD2     N13329   4.033   3.737  11.593 -0.0565  0.3409 -0.7632
  906MPD2    H513330   4.006   3.776  11.682 -0.4859  1.1682 -1.2577
  906MPD2    N113331   4.132   3.891  11.142 -0.4831 -0.2688  0.0502
  906MPD2    H713332   4.070   3.816  11.112 -1.0244 -0.2712  1.1707
  907MPD2     C13333   3.403   3.157  16.149  0.5475  0.1059  0.1574
  907MPD2    C113334   3.458   3.041  16.093 -0.4055  0.1609 -0.5597
  907MPD2    C213335   3.563   2.984  16.158 -0.0514  0.5052  0.8344
  907MPD2    C313336   3.625   3.039  16.268  0.2256 -0.3337 -0.4310
  907MPD2    C413337   3.587   3.169  16.302 -0.3179 -0.4367  0.4578
  907MPD2    C513338   3.472   3.226  16.248  0.1309  0.4311  0.8215
  907MPD2     H13339   3.596   2.894  16.106  0.2869  3.3960 -3.9590
  907MPD2    H113340   3.645   3.227  16.374 -0.1156 -1.0831  0.8158
  907MPD2    H213341   3.317   3.211  16.112 -0.1580 -1.3062 -0.2721
  907MPD2    H313342   3.438   3.324  16.280 -1.3941 -0.3821  1.7005
  907MPD2     N13343   3.730   2.976  16.337 -0.9243  0.7841  0.5158
  907MPD2    H513344   3.752   2.887  16.293 -1.6140  0.9582 -0.1915
  907MPD2    N113345   3.396   2.976  15.981 -0.1606 -0.1310 -0.1326
  907MPD2    H713346   3.449   2.896  15.949 -1.4834 -0.0972 -2.4193
  908MPD2     C13347   0.900   3.029  10.411 -0.4316  0.2358  0.0892
  908MPD2    C113348   0.909   3.000  10.547  0.1286  0.3875  0.7068
  908MPD2    C213349   0.930   3.111  10.630 -0.1900  0.7580  0.0901
  908MPD2    C313350   0.948   3.239  10.581  0.2088  1.1927  0.3893
  908MPD2    C413351   0.945   3.258  10.444  0.7673 -0.1833  0.3259
  908MPD2    C513352   0.923   3.152  10.361  0.7845  0.8730  0.1005
  908MPD2     H13353   0.924   3.103  10.738 -1.2307 -2.6741 -0.2422
  908MPD2    H113354   0.944   3.358  10.403  0.5913  0.8212  2.8010
  908MPD2    H213355   0.853   2.958  10.344  2.3651 -2.0093  0.4977
  908MPD2    H313356   0.888   3.173  10.260  0.4594 -0.6457 -0.1039
  908MPD2     N13357   0.965   3.339  10.680  0.0294 -0.6359 -0.3435
  908MPD2    H513358   0.968   3.318  10.779  2.3477  0.6777 -0.1340
  908MPD2    N113359   0.867   2.874  10.587 -0.1850 -0.6463  0.0130
  908MPD2    H713360   0.842   2.807  10.515  1.2002 -1.1852  0.0315
  909MPD2     C13361   0.829   1.396  12.285  0.0448 -0.6390  0.2140
  909MPD2    C113362   0.795   1.486  12.185 -0.0974  0.4012 -0.3595
  909MPD2    C213363   0.692   1.578  12.210 -0.2689 -0.2329  0.3781
  909MPD2    C313364   0.634   1.581  12.330  0.3795 -0.4574  0.0431
  909MPD2    C413365   0.659   1.495  12.433  0.3852  0.2085  0.7135
  909MPD2    C513366   0.759   1.403  12.406  0.0439 -0.4901 -0.2657
  909MPD2     H13367   0.660   1.650  12.136 -3.3889  1.2659  3.2112
  909MPD2    H113368   0.600   1.493  12.524  1.5821 -0.0727  1.4888
  909MPD2    H213369   0.909   1.324  12.283  0.7167  0.0739  1.0576
  909MPD2    H313370   0.791   1.330  12.479 -0.9980 -1.3900 -0.7043
  909MPD2     N13371   0.534   1.686  12.339  0.3474  0.1575 -0.5565
  909MPD2    H513372   0.530   1.749  12.259  1.8845  0.8964 -0.0407
  909MPD2    N113373   0.878   1.498  12.064  0.7849 -0.0478  0.6231
  909MPD2    H713374   0.860   1.576  12.002 -1.9356  0.9772  2.7259
  910MPD2     C13375   3.071   3.773  16.342  0.5908  0.3094  0.2632
  910MPD2    C113376   3.058   3.656  16.265  0.0817  0.6061 -0.3215
  910MPD2    C213377   2.991   3.666  16.142  0.1931 -0.1718  0.2352
  910MPD2    C313378   2.926   3.778  16.102  0.7860 -0.2924 -0.2753
  910MPD2    C413379   2.943   3.895  16.172  0.0598 -0.2182 -0.3585
  910MPD2    C513380   3.009   3.882  16.295  0.1011  0.6407 -0.0498
  910MPD2     H13381   2.981   3.578  16.079  0.2316 -0.5768  0.7917
  910MPD2    H113382   2.893   3.988  16.146  1.1403  0.9330  1.7658
  910MPD2    H213383   3.133   3.773  16.432 -0.3520  0.6580  0.9120
  910MPD2    H313384   3.023   3.972  16.354 -3.2450  1.1570 -0.0710
  910MPD2     N13385   2.839   3.781  15.989  0.2101 -0.2419 -0.1611
  910MPD2    H513386   2.812   3.868  15.946 -0.9946 -0.2295  0.6201
  910MPD2    N113387   3.122   3.533  16.302 -0.2984 -0.3728 -0.0850
  910MPD2    H713388   3.117   3.455  16.236  0.8489 -0.8053  0.3448
  911MPD2     C13389   0.856   4.104  16.175 -0.1959  0.2924 -0.2774
  911MPD2    C113390   0.867   4.134  16.305  0.0234 -0.0209 -0.6523
  911MPD2    C213391   0.789   4.238  16.349  0.6126 -0.3153  0.3703
  911MPD2    C313392   0.696   4.302  16.265 -0.6394  0.2750 -0.3859
  911MPD2    C413393   0.698   4.274  16.133 -0.0480  0.6586 -0.5335
  911MPD2    C513394   0.773   4.169  16.084  0.0879 -0.0420 -0.3250
  911MPD2     H13395   0.802   4.276  16.449 -0.0888  1.9575 -0.3903
  911MPD2    H113396   0.637   4.333  16.066  0.1406  0.7201 -0.6509
  911MPD2    H213397   0.908   4.014  16.145  2.4175  1.5466  0.4428
  911MPD2    H313398   0.774   4.126  15.984  1.6589 -1.7687  0.4401
  911MPD2     N13399   0.598   4.402  16.301  0.1570  0.0716  0.3305
  911MPD2    H513400   0.531   4.444  16.238  0.7770 -0.1468 -0.4804
  911MPD2    N113401   0.964   4.066  16.377  0.4533 -0.0798  0.2326
  911MPD2    H713402   1.015   3.999  16.320 -0.8560 -0.8731 -0.0342
  912MPD2     C13403   0.301   4.236  15.911 -0.0868 -0.0908 -0.4868
  912MPD2    C113404   0.314   4.223  16.047 -0.7069 -0.6671  0.5194
  912MPD2    C213405   0.384   4.109  16.099  0.2692  0.2894  0.6580
  912MPD2    C313406   0.425   4.012  16.014 -1.1329  0.3270  0.4639
  912MPD2    C413407   0.401   4.026  15.876  0.2515  0.0360  0.2290
  912MPD2    C513408   0.346   4.140  15.822 -1.0389 -0.0100  0.1950
  912MPD2     H13409   0.397   4.084  16.204 -0.8648 -0.5532  0.6045
  912MPD2    H113410   0.425   3.949  15.804  0.0871  0.1826  0.0146
  912MPD2    H213411   0.252   4.321  15.865 -2.3804 -0.8315  0.5385
  912MPD2    H313412   0.312   4.138  15.718 -0.9543 -0.7835  0.1767
  912MPD2     N13413   0.488   3.903  16.069  0.1535  0.0596  0.8368
  912MPD2    H513414   0.496   3.911  16.170  0.7310  1.2447  0.6961
  912MPD2    N113415   0.255   4.319  16.125  0.3127 -0.3431 -0.0046
  912MPD2    H713416   0.213   4.402  16.084 -1.6143  0.3171  3.3485
  913MPD2     C13417   0.571   0.470  11.116  0.0826 -0.1927  0.9030
  913MPD2    C113418   0.632   0.409  11.007 -0.2233  0.1664 -0.7118
  913MPD2    C213419   0.715   0.481  10.923  0.2177 -0.3139 -0.2041
  913MPD2    C313420   0.739   0.613  10.948 -0.5154 -0.3853 -0.6441
  913MPD2    C413421   0.676   0.668  11.054 -0.4869 -0.2330 -0.3280
  913MPD2    C513422   0.595   0.604  11.141  0.9542 -1.0972  0.6104
  913MPD2     H13423   0.771   0.430  10.845 -0.4100  0.3608 -1.1024
  913MPD2    H113424   0.707   0.771  11.072  4.7609 -1.9230  0.1256
  913MPD2    H213425   0.506   0.413  11.181 -1.4485 -0.8549 -1.2158
  913MPD2    H313426   0.558   0.650  11.232 -1.2637 -1.0604 -0.3131
  913MPD2     N13427   0.825   0.693  10.859 -0.3428  0.2575  0.8701
  913MPD2    H513428   0.826   0.792  10.880 -0.1211  0.3264  0.5369
  913MPD2    N113429   0.614   0.272  11.005 -0.2077 -0.4792 -0.5652
  913MPD2    H713430   0.576   0.229  11.089  1.0996 -0.9024 -0.1977
  914MPD2     C13431   3.428   1.080  12.440 -0.1867 -0.3391  0.3648
  914MPD2    C113432   3.364   1.121  12.549  1.0301  0.1104  0.4084
  914MPD2    C213433   3.321   1.034  12.645 -0.1955  0.4510 -0.0452
  914MPD2    C313434   3.328   0.898  12.619 -0.1584  0.4645 -0.3692
  914MPD2    C413435   3.388   0.852  12.501  0.4844  0.1401 -0.2221
  914MPD2    C513436   3.445   0.941  12.415 -0.7535 -1.2749 -0.4054
  914MPD2     H13437   3.280   1.067  12.740 -1.1022 -0.1898 -0.2220
  914MPD2    H113438   3.407   0.746  12.484  0.4737 -0.0891  1.1765
  914MPD2    H213439   3.461   1.140  12.356 -2.3028  1.0458  0.5357
  914MPD2    H313440   3.490   0.898  12.326  0.3019 -1.7098  0.3334
  914MPD2     N13441   3.274   0.814  12.721 -0.0215 -0.0779  0.4615
  914MPD2    H513442   3.243   0.862  12.805 -1.0590  1.0378 -0.5517
  914MPD2    N113443   3.352   1.257  12.573  0.0658 -0.3602 -0.4334
  914MPD2    H713444   3.376   1.317  12.495 -1.1165 -0.1677 -0.6622
  915MPD2     C13445   1.990   1.158  15.522 -0.7620  0.6505 -0.9141
  915MPD2    C113446   1.868   1.093  15.519 -0.3860 -0.7486 -0.4565
  915MPD2    C213447   1.798   1.080  15.635 -0.3319  1.0164  0.5334
  915MPD2    C313448   1.843   1.141  15.748  0.0908 -0.5477  0.4391
  915MPD2    C413449   1.961   1.202  15.749  0.1085 -0.7011 -0.1864
  915MPD2    C513450   2.036   1.218  15.640 -1.1660  0.0262  0.2206
  915MPD2     H13451   1.708   1.019  15.633 -1.7399  3.1325 -0.8543
  915MPD2    H113452   2.000   1.225  15.847  2.1876 -2.5521 -0.5832
  915MPD2    H213453   2.046   1.170  15.430 -0.1033 -1.4705 -0.7885
  915MPD2    H313454   2.137   1.259  15.641 -0.7578 -1.0357  2.1272
  915MPD2     N13455   1.788   1.142  15.878  0.6550  0.5115  0.4242
  915MPD2    H513456   1.837   1.185  15.956 -2.8084  1.2730  2.1959
  915MPD2    N113457   1.830   1.034  15.390  0.1989  0.2883 -1.0408
  915MPD2    H713458   1.882   1.042  15.303 -0.7994  1.4485 -1.5304
  916MPD2     C13459   4.717   3.693  15.803 -0.3457  0.5286  0.1623
  916MPD2    C113460   0.043   3.655  15.919  0.4039 -0.2636 -0.0505
  916MPD2    C213461   0.143   3.560  15.910 -0.7172  0.5645 -1.0256
  916MPD2    C313462   0.167   3.507  15.784  0.2621  0.5797 -0.4972
  916MPD2    C413463   0.104   3.548  15.666 -0.2763  0.1428  0.0412
  916MPD2    C513464   0.007   3.652  15.673  0.6003  0.3920 -0.2737
  916MPD2     H13465   0.199   3.533  15.999 -1.5345  1.3129 -0.2897
  916MPD2    H113466   0.142   3.518  15.568 -1.7444 -1.3975 -0.0772
  916MPD2    H213467   4.634   3.763  15.795  0.1816  1.2262  0.9444
  916MPD2    H313468   4.696   3.693  15.587 -0.0017 -0.6627 -0.4151
  916MPD2     N13469   0.263   3.402  15.785 -0.0729  0.4411  0.7183
  916MPD2    H513470   0.305   3.378  15.874 -0.7030 -1.3228  0.5466
  916MPD2    N113471   0.002   3.721  16.037  0.5519  0.2748 -0.2381
  916MPD2    H713472   4.667   3.789  16.022  1.0298  0.3019 -2.4578
  917MPD2     C13473   4.202   1.274  11.284 -0.1887  0.2105  0.1587
  917MPD2    C113474   4.200   1.339  11.409 -0.7520 -1.3384 -0.6429
  917MPD2    C213475   4.182   1.473  11.417  0.4541  0.0457 -0.2617
  917MPD2    C313476   4.173   1.549  11.305 -0.0925  0.4722  0.2388
  917MPD2    C413477   4.179   1.487  11.181 -0.7829  0.2771 -0.3308
  917MPD2    C513478   4.191   1.356  11.175  0.2621  0.9549 -0.3503
  917MPD2     H13479   4.192   1.522  11.513 -0.0727 -2.2794  0.9790
  917MPD2    H113480   4.166   1.547  11.091 -0.7893  0.6471 -0.0827
  917MPD2    H213481   4.220   1.169  11.263  1.2278  0.3375  0.7106
  917MPD2    H313482   4.186   1.308  11.078  1.1644 -0.4597  0.3112
  917MPD2     N13483   4.143   1.690  11.308 -0.1839 -0.2223 -0.8256
  917MPD2    H513484   4.136   1.733  11.216  0.0892  3.6831  0.9609
  917MPD2    N113485   4.196   1.251  11.521  0.2028  0.4303 -0.2973
  917MPD2    H713486   4.209   1.152  11.504  0.2160 -0.1335  3.0870
  918MPD2     C13487   4.171   1.462  12.516  0.4353 -0.0571 -0.1384
  918MPD2    C113488   4.192   1.548  12.404  0.4145  0.6747  0.2983
  918MPD2    C213489   4.154   1.509  12.277 -0.5840 -0.3742 -0.0599
  918MPD2    C313490   4.104   1.384  12.258  0.4432 -0.8106  0.3341
  918MPD2    C413491   4.081   1.303  12.364 -0.1402 -0.1578 -0.0462
  918MPD2    C513492   4.122   1.338  12.492 -0.3297  0.0433  0.2001
  918MPD2     H13493   4.173   1.572  12.192 -0.2244  0.2567  0.4911
  918MPD2    H113494   4.045   1.202  12.352 -1.3583  0.1407  1.1360
  918MPD2    H213495   4.196   1.485  12.619 -0.3483  0.4823 -0.0675
  918MPD2    H313496   4.117   1.264  12.571  0.1975 -2.3308 -1.9730
  918MPD2     N13497   4.067   1.346  12.126  0.9910  0.3965  0.0926
  918MPD2    H513498   4.111   1.399  12.051  1.7038  0.7304  0.7463
  918MPD2    N113499   4.260   1.668  12.436  0.0778  0.4593  0.4120
  918MPD2    H713500   4.275   1.688  12.534 -0.2157 -0.0787  0.5665
  919MPD2     C13501   0.246   0.560  12.074  0.7370 -0.0562  0.3221
  919MPD2    C113502   0.280   0.434  12.026  0.1731  0.2612  0.0357
  919MPD2    C213503   0.293   0.411  11.888 -0.3894 -0.7920 -0.4526
  919MPD2    C313504   0.267   0.514  11.796  0.2549  0.5765  0.1775
  919MPD2    C413505   0.242   0.641  11.851 -0.6372  0.3942 -0.5245
  919MPD2    C513506   0.215   0.663  11.984  0.9723  0.2927  0.5782
  919MPD2     H13507   0.319   0.312  11.850  1.4137 -0.2360 -0.6545
  919MPD2    H113508   0.214   0.724  11.787 -0.6220  0.5133 -0.3744
  919MPD2    H213509   0.223   0.575  12.179 -1.3202  2.9359 -0.5515
  919MPD2    H313510   0.207   0.765  12.020  1.8689  0.7922 -0.6262
  919MPD2     N13511   0.264   0.504  11.654 -0.6392  0.6785  0.3267
  919MPD2    H513512   0.228   0.582  11.601 -0.5366 -0.5051 -1.4823
  919MPD2    N113513   0.289   0.319  12.113  0.8045  0.5172  0.2848
  919MPD2    H713514   0.307   0.233  12.062  0.2728 -0.2850  1.4545
  920MPD2     C13515   4.155   0.527  11.150  0.1702  0.5279  0.1071
  920MPD2    C113516   4.247   0.498  11.044  0.6333 -0.0119 -0.8699
  920MPD2    C213517   4.380   0.471  11.074 -0.3906 -0.3562  0.2809
  920MPD2    C313518   4.427   0.480  11.202  0.2123  0.0595  0.3918
  920MPD2    C413519   4.341   0.504  11.306 -0.2425 -0.7107  0.6599
  920MPD2    C513520   4.210   0.530  11.279 -0.0548 -0.1808 -0.3944
  920MPD2     H13521   4.437   0.446  10.986  1.3385  0.0660  1.2762
  920MPD2    H113522   4.382   0.504  11.406  0.6831  2.6614  0.2892
  920MPD2    H213523   4.063   0.580  11.132  0.5608  0.3932 -2.3124
  920MPD2    H313524   4.151   0.570  11.361  1.4718  0.7068  0.2643
  920MPD2     N13525   4.567   0.448  11.219  0.1818 -0.7723  0.0335
  920MPD2    H513526   4.622   0.444  11.134  0.3227 -0.3547  0.1052
  920MPD2    N113527   4.205   0.497  10.908  0.1847  0.0884 -0.6783
  920MPD2    H713528   4.276   0.475  10.839 -1.0084  1.3020 -2.3004
  921MPD2     C13529   1.637   4.541  16.662  0.1099  0.2318  0.3155
  921MPD2    C113530   1.681   4.417  16.605 -0.1773 -0.1128  0.5908
  921MPD2    C213531   1.596   4.310  16.607  0.2168 -0.0827  0.1171
  921MPD2    C313532   1.473   4.315  16.681 -0.3742 -0.7753  0.0585
  921MPD2    C413533   1.440   4.436  16.743 -0.1535 -0.4292  0.0937
  921MPD2    C513534   1.517   4.547  16.732  0.5933 -1.3367  1.2818
  921MPD2     H13535   1.624   4.215  16.563  1.2323 -0.2080  1.0248
  921MPD2    H113536   1.351   4.449  16.804 -0.7754 -1.6888 -0.5470
  921MPD2    H213537   1.696   4.631  16.646 -0.5520  0.7466  0.7910
  921MPD2    H313538   1.484   4.643  16.769  0.5702 -0.3007 -1.4552
  921MPD2     N13539   1.393   4.205  16.704  0.2196 -0.1558 -0.3097
  921MPD2    H513540   1.301   4.219  16.746 -0.2781 -0.3677 -1.3413
  921MPD2    N113541   1.817   4.406  16.566 -0.0533  0.0575 -0.3989
  921MPD2    H713542   1.860   4.497  16.554  0.8104 -0.0758  1.6315
  922MPD2     C13543   2.654   3.166  17.075 -0.2722 -0.0255  0.3071
  922MPD2    C113544   2.587   3.153  17.194 -0.0812 -0.4230  0.1501
  922MPD2    C213545   2.572   3.016  17.240 -0.2916 -0.3871 -0.1212
  922MPD2    C313546   2.621   2.907  17.181 -0.1259 -0.3534 -0.0618
  922MPD2    C413547   2.694   2.926  17.069 -0.2090 -0.9753  0.1055
  922MPD2    C513548   2.717   3.052  17.026  0.6038  0.8382 -0.1282
  922MPD2     H13549   2.525   3.000  17.336 -0.4798  2.1447  0.2031
  922MPD2    H113550   2.734   2.849  17.003  1.8774 -0.6054  0.9299
  922MPD2    H213551   2.673   3.265  17.035 -2.0621  0.3805  0.4786
  922MPD2    H313552   2.792   3.061  16.949  0.6090 -0.5202 -0.2948
  922MPD2     N13553   2.576   2.781  17.236 -0.4577  0.0352  0.1669
  922MPD2    H513554   2.499   2.789  17.302 -0.2720 -2.2774  0.6476
  922MPD2    N113555   2.536   3.258  17.273 -0.2058  0.0735 -0.6875
  922MPD2    H713556   2.485   3.226  17.355 -1.8812 -0.1363 -1.8044
  923MPD2     C13557   2.138   3.292   9.243 -0.1800 -0.0576 -0.1257
  923MPD2    C113558   2.239   3.353   9.171 -0.4861  0.6652  0.4747
  923MPD2    C213559   2.370   3.309   9.167  0.0541 -0.1559 -0.3418
  923MPD2    C313560   2.399   3.202   9.250  0.0424  0.5841 -0.0422
  923MPD2    C413561   2.311   3.139   9.328  0.0727 -0.2522  0.7160
  923MPD2    C513562   2.173   3.181   9.319  0.3366 -0.7537 -0.1655
  923MPD2     H13563   2.446   3.353   9.103 -0.2652  1.7853  0.6159
  923MPD2    H113564   2.326   3.053   9.393 -2.6014 -2.6239 -1.7977
  923MPD2    H213565   2.041   3.337   9.255 -0.2120  0.4520 -2.3317
  923MPD2    H313566   2.099   3.136   9.382  0.4994  0.3209  0.7990
  923MPD2     N13567   2.533   3.156   9.238  0.0935 -0.1917 -0.2517
  923MPD2    H513568   2.598   3.202   9.174  0.5741  1.9259  1.7473
  923MPD2    N113569   2.207   3.476   9.110 -0.3922  0.4529  0.6046
  923MPD2    H713570   2.108   3.500   9.102 -0.2194  0.4431 -1.4546
  924MPD2     C13571   4.176   2.165  16.454 -0.1363  0.5476  0.4794
  924MPD2    C113572   4.074   2.230  16.393 -0.1797 -0.2015 -0.5429
  924MPD2    C213573   4.065   2.366  16.399 -0.6497 -0.4733  0.2588
  924MPD2    C313574   4.161   2.444  16.468 -0.4302  0.1741  0.2902
  924MPD2    C413575   4.247   2.374  16.545  0.2020 -0.2313  0.4607
  924MPD2    C513576   4.257   2.240  16.531 -0.5593  0.0703  0.4360
  924MPD2     H13577   3.982   2.422  16.357  0.4556  1.0938  0.1811
  924MPD2    H113578   4.311   2.430  16.613  0.6414 -0.1615 -0.0087
  924MPD2    H213579   4.174   2.057  16.461 -1.6233  0.5602  0.2772
  924MPD2    H313580   4.331   2.189  16.591  0.2653 -0.2888 -0.8735
  924MPD2     N13581   4.162   2.583  16.474 -0.1671 -0.1653 -0.5577
  924MPD2    H513582   4.224   2.626  16.542 -0.5685 -0.4708  0.0058
  924MPD2    N113583   3.983   2.152  16.323  1.0357 -0.3517 -0.5551
  924MPD2    H713584   3.975   2.052  16.331  1.8249 -0.3758 -0.1017
  925MPD2     C13585   2.645   0.236  15.086  0.2092  0.1130  0.1266
  925MPD2    C113586   2.538   0.324  15.063 -0.1471  0.5980 -0.3874
  925MPD2    C213587   2.465   0.386  15.160  0.6865 -0.5733 -0.3573
  925MPD2    C313588   2.502   0.364  15.295  0.4079 -0.1553  0.8090
  925MPD2    C413589   2.600   0.270  15.317 -0.3841 -0.6559  0.8926
  925MPD2    C513590   2.667   0.207  15.218  0.3908 -0.0410  0.2430
  925MPD2     H13591   2.381   0.451  15.137  0.5923 -1.0156 -1.2389
  925MPD2    H113592   2.638   0.239  15.413 -0.2173  0.0466  1.0541
  925MPD2    H213593   2.688   0.173  15.009 -3.5377  0.8048 -2.4776
  925MPD2    H313594   2.758   0.152  15.241  0.6248 -1.2836 -3.7428
  925MPD2     N13595   2.433   0.418  15.399 -0.4427  0.0766  0.2913
  925MPD2    H513596   2.470   0.381  15.486  0.7634  0.6998  0.0474
  925MPD2    N113597   2.503   0.336  14.927 -0.5728 -0.3920  0.4748
  925MPD2    H713598   2.544   0.269  14.862 -0.9552  0.1930 -0.3668
  926MPD2     C13599   1.174   3.410  13.818  0.4210  0.1521  0.1345
  926MPD2    C113600   1.063   3.484  13.827  0.3904  0.4269 -0.1587
  926MPD2    C213601   1.037   3.572  13.725  0.1890 -0.6517 -0.5904
  926MPD2    C313602   1.123   3.596  13.621  0.4097  0.0241  0.2326
  926MPD2    C413603   1.242   3.534  13.625  0.5174  0.6698 -0.2207
  926MPD2    C513604   1.266   3.434  13.723  0.0704 -0.2771 -0.2071
  926MPD2     H13605   0.938   3.617  13.725  0.1428 -0.7455  0.4121
  926MPD2    H113606   1.312   3.540  13.543 -0.4096  2.2435 -0.8972
  926MPD2    H213607   1.181   3.328  13.888  1.4295  0.3345  0.2546
  926MPD2    H313608   1.360   3.380  13.716  1.0212  1.3303  0.0677
  926MPD2     N13609   1.103   3.698  13.523 -0.0628  0.0223 -0.4777
  926MPD2    H513610   1.187   3.722  13.472 -0.4308  0.1359 -1.0332
  926MPD2    N113611   0.976   3.496  13.940 -0.2579 -0.0406 -0.0796
  926MPD2    H713612   0.897   3.559  13.926  0.4868  0.7021 -0.9792
  927MPD2     C13613   0.719   0.892  17.515 -0.4791 -0.5023  0.6384
  927MPD2    C113614   0.673   1.024  17.521 -0.1334  0.1738  0.0404
  927MPD2    C213615   0.712   1.117  17.420 -0.1358 -0.4524  0.5119
  927MPD2    C313616   0.779   1.068  17.306 -0.8556 -0.0767  0.2481
  927MPD2    C413617   0.812   0.935  17.303  0.0284  0.4243 -0.1470
  927MPD2    C513618   0.787   0.856  17.410 -0.9962 -0.2430 -0.1556
  927MPD2     H13619   0.690   1.223  17.419  0.9587 -0.2174  1.3455
  927MPD2    H113620   0.865   0.889  17.220  1.5113 -3.0215  2.7038
  927MPD2    H213621   0.695   0.823  17.595 -0.4431  0.9714  1.9202
  927MPD2    H313622   0.811   0.750  17.406  0.5096  0.1653 -2.1801
  927MPD2     N13623   0.825   1.162  17.209 -0.1464 -0.2608 -0.8079
  927MPD2    H513624   0.816   1.261  17.231 -0.3666 -0.1227 -1.5133
  927MPD2    N113625   0.605   1.062  17.634  0.1541  0.0627  0.1481
  927MPD2    H713626   0.584   0.994  17.706  0.0123  2.0637  1.9892
  928MPD2     C13627   3.508   3.963   1.096 -0.1781 -0.7259  0.0877
  928MPD2    C113628   3.558   4.090   1.113 -0.8556  0.2465  0.1148
  928MPD2    C213629   3.562   4.176   1.004  1.1939  0.7579 -0.5265
  928MPD2    C313630   3.521   4.132   0.873 -0.0376  0.1644 -0.3470
  928MPD2    C413631   3.467   4.006   0.860  0.0864  0.1402 -0.0083
  928MPD2    C513632   3.460   3.918   0.968  0.1520 -0.2297  0.2636
  928MPD2     H13633   3.596   4.278   1.005  1.5205  0.5896  3.1020
  928MPD2    H113634   3.439   3.978   0.759  0.4560  2.4978 -0.7657
  928MPD2    H213635   3.497   3.897   1.181 -1.0552 -0.0743  0.4864
  928MPD2    H313636   3.426   3.815   0.966  0.8264 -0.4149 -1.8588
  928MPD2     N13637   3.523   4.211   0.760 -0.0029  0.3357 -0.1596
  928MPD2    H513638   3.476   4.180   0.676 -0.0082 -0.1448  0.0191
  928MPD2    N113639   3.584   4.125   1.251 -0.2859  0.0274 -0.0108
  928MPD2    H713640   3.598   4.044   1.311 -1.3247  0.7674  1.2371
  929MPD2     C13641   3.503   3.575  10.745 -0.1854 -1.0698 -0.0138
  929MPD2    C113642   3.377   3.541  10.756  0.0206  0.5585  0.3376
  929MPD2    C213643   3.302   3.546  10.639  1.2821  0.7120  0.4430
  929MPD2    C313644   3.341   3.611  10.527  0.1950  0.1826  0.2266
  929MPD2    C413645   3.471   3.655  10.526 -0.7043  0.6371  0.3535
  929MPD2    C513646   3.557   3.631  10.633 -0.7693 -0.2586  0.1302
  929MPD2     H13647   3.203   3.502  10.650  1.7644 -0.2482  1.0077
  929MPD2    H113648   3.506   3.700  10.434 -0.4181  2.4702  1.3624
  929MPD2    H213649   3.566   3.565  10.832 -0.7308  1.1071  0.6303
  929MPD2    H313650   3.665   3.646  10.626 -1.0766  1.0802 -1.6956
  929MPD2     N13651   3.251   3.629  10.411  0.1689  0.1133  0.1369
  929MPD2    H513652   3.283   3.679  10.329  0.1085  1.0882  0.7110
  929MPD2    N113653   3.333   3.493  10.881  0.2710  0.2422  0.3006
  929MPD2    H713654   3.395   3.484  10.961 -0.7673 -0.2034  1.0519
  930MPD2     C13655   0.394   1.257  13.990  0.9947 -0.9229 -0.1036
  930MPD2    C113656   0.529   1.276  13.956  0.3424  0.0735 -0.0543
  930MPD2    C213657   0.572   1.223  13.832 -0.4605  0.2699  1.1727
  930MPD2    C313658   0.486   1.152  13.747 -0.1137 -0.1171  0.7236
  930MPD2    C413659   0.349   1.151  13.787  0.6062 -0.6103 -0.6882
  930MPD2    C513660   0.304   1.204  13.903 -0.6306 -0.1074 -0.2573
  930MPD2     H13661   0.666   1.250  13.785 -1.4369  1.5074 -0.0748
  930MPD2    H113662   0.271   1.120  13.718  0.5086 -0.8329 -0.4770
  930MPD2    H213663   0.355   1.295  14.084  0.9460 -2.7531  0.6315
  930MPD2    H313664   0.198   1.196  13.922  0.0543  0.8884  3.8259
  930MPD2     N13665   0.515   1.129  13.616 -0.0343  0.3688  0.0815
  930MPD2    H513666   0.443   1.144  13.546  0.5568 -0.3267 -0.6727
  930MPD2    N113667   0.612   1.356  14.041  0.3987  0.3863 -1.1681
  930MPD2    H713668   0.578   1.435  14.096  0.9167 -0.8906  0.9697
  931MPD2     C13669   0.584   0.704   0.369  0.6044  0.3867 -0.4237
  931MPD2    C113670   0.619   0.827   0.423  0.0129  0.4432  0.5332
  931MPD2    C213671   0.667   0.836   0.554  0.1091  0.1779 -0.3487
  931MPD2    C313672   0.701   0.718   0.622  0.5540 -0.5920  0.1320
  931MPD2    C413673   0.682   0.596   0.556 -0.3627  0.0870 -0.5159
  931MPD2    C513674   0.620   0.592   0.436 -1.2396 -0.2890 -0.3938
  931MPD2     H13675   0.688   0.929   0.605  3.0414 -0.3869 -0.5636
  931MPD2    H113676   0.720   0.504   0.601 -1.0631 -0.9795 -2.1038
  931MPD2    H213677   0.534   0.695   0.274 -0.9786 -0.4461  0.4896
  931MPD2    H313678   0.598   0.496   0.390 -0.7721 -1.3521  1.6047
  931MPD2     N13679   0.760   0.719   0.750 -0.2343  0.1170  0.2061
  931MPD2    H513680   0.794   0.628   0.781 -1.9953 -0.4921  0.3676
  931MPD2    N113681   0.608   0.935   0.333 -0.2139 -0.8897 -0.6370
  931MPD2    H713682   0.578   0.916   0.238  0.5477 -0.7858 -0.8963
  932MPD2     C13683   1.873   0.149  11.476  0.3354  0.4643 -0.2426
  932MPD2    C113684   1.970   0.093  11.389  0.2739 -0.0877 -0.1387
  932MPD2    C213685   1.972   4.693  11.386  0.1799 -0.0796 -0.2990
  932MPD2    C313686   1.895   4.615  11.474 -0.1607 -0.5341 -0.3183
  932MPD2    C413687   1.810   4.674  11.567 -0.4195 -0.3372  0.2846
  932MPD2    C513688   1.799   0.072  11.559  0.9171  0.2272  0.1270
  932MPD2     H13689   2.039   4.657  11.309  1.3604 -0.2591  0.8008
  932MPD2    H113690   1.746   4.626  11.640 -0.3528  0.9436  1.1848
  932MPD2    H213691   1.865   0.254  11.501  0.3411  0.0196  1.6365
  932MPD2    H313692   1.733   0.121  11.630  0.4753 -0.0614 -0.0820
  932MPD2     N13693   1.900   4.473  11.482 -0.2085  0.2069  0.6354
  932MPD2    H513694   1.843   4.440  11.559  0.0610  0.5757  0.9974
  932MPD2    N113695   2.087   0.161  11.350 -0.2566  0.4688 -0.5695
  932MPD2    H713696   2.170   0.111  11.322  1.3862  0.6857  3.8447
  933MPD2     C13697   3.973   4.595   1.937  0.5108  0.1321  0.6899
  933MPD2    C113698   3.856   4.603   1.859  0.3096  0.2677 -0.0336
  933MPD2    C213699   3.787   4.724   1.864  0.4496  0.5308  0.3769
  933MPD2    C313700   3.827   0.094   1.945  0.0966  0.5351  0.4120
  933MPD2    C413701   3.939   0.084   2.020 -0.1576  0.2823  0.5266
  933MPD2    C513702   3.998   4.697   2.027 -0.4571 -0.2407 -0.2604
  933MPD2     H13703   3.689   4.718   1.817  1.0826  0.3849 -0.9209
  933MPD2    H113704   3.978   0.158   2.088  2.2461 -0.3012 -0.2147
  933MPD2    H213705   4.041   4.510   1.937 -0.4449 -0.6520  2.7710
  933MPD2    H313706   4.089   4.687   2.086 -0.1649 -0.5796 -0.7692
  933MPD2     N13707   3.752   0.217   1.930  0.6227  0.8971  0.6755
  933MPD2    H513708   3.669   0.206   1.873  0.1603 -1.9357  1.8915
  933MPD2    N113709   3.827   4.505   1.775 -0.5253 -0.3151  1.0581
  933MPD2    H713710   3.886   4.423   1.786  0.2845  0.0150 -0.8208
  934MPD2     C13711   0.052   2.532   1.818 -0.3334 -0.4259 -0.2957
  934MPD2    C113712   0.157   2.461   1.762  0.0682  0.5254 -0.1004
  934MPD2    C213713   0.140   2.356   1.677  0.2513 -0.0110 -0.2013
  934MPD2    C313714   0.014   2.310   1.647  0.4090 -0.2799  0.5701
  934MPD2    C413715   4.647   2.368   1.713  0.2525  0.7337 -0.9114
  934MPD2    C513716   4.673   2.478   1.791  0.3046 -0.2087  1.1388
  934MPD2     H13717   0.223   2.298   1.639  0.9608  1.1457 -0.4307
  934MPD2    H113718   4.548   2.331   1.688 -0.3086  2.0648 -0.6712
  934MPD2    H213719   0.072   2.614   1.887  0.0238  1.4367 -2.6101
  934MPD2    H313720   4.585   2.511   1.844  0.0506  1.9736 -0.6188
  934MPD2     N13721   4.727   2.205   1.561  0.4437  0.4576  0.3852
  934MPD2    H513722   4.633   2.168   1.566  0.3828  0.5959  0.2644
  934MPD2    N113723   0.296   2.494   1.782 -0.4157 -0.3820  0.1527
  934MPD2    H713724   0.357   2.479   1.703  0.8747  0.0299  1.0710
  935MPD2     C13725   0.220   1.259   1.391  0.5639  0.1124 -0.1400
  935MPD2    C113726   0.096   1.278   1.339 -0.5856 -0.7868 -0.1564
  935MPD2    C213727   0.035   1.399   1.353  0.7943 -0.4171 -0.0252
  935MPD2    C313728   0.100   1.502   1.423  0.1096 -0.1044 -0.3455
  935MPD2    C413729   0.220   1.477   1.482  0.0527 -0.3680  0.2511
  935MPD2    C513730   0.275   1.353   1.470  0.6280  0.2355 -0.5940
  935MPD2     H13731   4.673   1.409   1.316  1.3470  1.8580 -0.9172
  935MPD2    H113732   0.270   1.556   1.537  0.7430 -0.3952 -0.3385
  935MPD2    H213733   0.285   1.173   1.375 -0.1936 -0.4294 -0.3151
  935MPD2    H313734   0.366   1.330   1.524 -0.0319 -2.3911 -0.5991
  935MPD2     N13735   0.048   1.635   1.446 -0.5872 -0.1075  0.2879
  935MPD2    H513736   0.119   1.700   1.480 -1.6857  1.7639 -1.0183
  935MPD2    N113737   0.038   1.179   1.255 -0.1076  0.2668 -0.1423
  935MPD2    H713738   4.687   1.195   1.213  1.1719  0.4538 -2.8297
  936MPD2     C13739   2.605   3.170  12.302 -0.3610 -0.2991 -0.1983
  936MPD2    C113740   2.674   3.076  12.379 -0.3415  0.1796 -0.2340
  936MPD2    C213741   2.811   3.061  12.373  0.0532  0.2950 -0.1857
  936MPD2    C313742   2.883   3.142  12.290  0.0387  0.2007  0.2486
  936MPD2    C413743   2.813   3.236  12.212 -0.6289  0.4008  0.4948
  936MPD2    C513744   2.675   3.243  12.213  0.2786  0.0137 -0.3899
  936MPD2     H13745   2.861   2.992  12.439  0.7076 -0.1389 -1.1312
  936MPD2    H113746   2.874   3.306  12.157 -0.3663 -0.1621  0.0720
  936MPD2    H213747   2.498   3.186  12.300 -0.3091  0.1777  1.1046
  936MPD2    H313748   2.626   3.304  12.138  2.8708  0.7443 -1.5086
  936MPD2     N13749   3.028   3.139  12.287  0.5220 -0.0222 -0.2101
  936MPD2    H513750   3.080   3.199  12.224  0.3499  0.2398 -0.1015
  936MPD2    N113751   2.617   2.980  12.462 -0.0620  0.0704 -0.3571
  936MPD2    H713752   2.689   2.915  12.493  1.0796  1.7587  0.5036
  937MPD2     C13753   0.511   4.384  12.055  0.3914  0.0243 -0.3538
  937MPD2    C113754   0.530   4.517  12.037 -0.3404  0.3143 -0.3341
  937MPD2    C213755   0.625   4.563  11.948 -0.2708 -0.5285 -0.3317
  937MPD2    C313756   0.682   4.477  11.866 -0.2964  0.8870  0.1810
  937MPD2    C413757   0.658   4.350  11.877 -0.2075 -0.2653  0.6069
  937MPD2    C513758   0.578   4.295  11.972  0.6507 -0.4756 -0.5825
  937MPD2     H13759   0.634   4.669  11.926 -1.1613 -0.3920 -0.0721
  937MPD2    H113760   0.713   4.278  11.817  0.4901 -1.1256  2.2705
  937MPD2    H213761   0.445   4.343  12.131  0.3792 -0.7067 -0.7635
  937MPD2    H313762   0.583   4.192  12.006  0.9784 -0.3059 -0.1131
  937MPD2     N13763   0.765   4.530  11.766  0.7819  0.2797 -0.4463
  937MPD2    H513764   0.787   4.629  11.770  0.0832  0.3893  0.4065
  937MPD2    N113765   0.476   4.614  12.129 -0.0136  0.1469  0.4361
  937MPD2    H713766   0.490   4.713  12.114 -0.3492  0.0249 -0.6684
  938MPD2     C13767   3.794   1.866   0.417  0.5516  0.4049  0.8840
  938MPD2    C113768   3.856   1.917   0.525  0.6037 -0.7731 -0.4939
  938MPD2    C213769   3.886   1.834   0.637  0.0259  0.2377  1.0412
  938MPD2    C313770   3.845   1.700   0.633 -0.3518  0.5007 -0.1313
  938MPD2    C413771   3.785   1.653   0.522  0.7175 -0.6004  0.7737
  938MPD2    C513772   3.754   1.733   0.418 -0.0383 -0.0119  0.3242
  938MPD2     H13773   3.939   1.873   0.723  0.6947 -1.5155  1.4219
  938MPD2    H113774   3.759   1.548   0.514 -1.8179  0.1456 -0.7383
  938MPD2    H213775   3.772   1.921   0.327 -0.6163 -1.1350  0.2407
  938MPD2    H313776   3.700   1.689   0.335 -0.1189  1.3674 -0.3657
  938MPD2     N13777   3.855   1.609   0.738 -0.2118  0.5048 -0.8728
  938MPD2    H513778   3.807   1.521   0.718  1.5102 -0.8112  0.7917
  938MPD2    N113779   3.890   2.053   0.528 -0.8508  0.1673  0.3971
  938MPD2    H713780   3.943   2.083   0.609  0.6796  2.1716 -1.3430
  939MPD2     C13781   0.449   3.050   1.002  0.3017 -0.1584 -0.3752
  939MPD2    C113782   0.370   2.986   1.094  0.1180  0.1643 -0.0497
  939MPD2    C213783   0.332   2.854   1.059 -0.2109  0.1306  0.1820
  939MPD2    C313784   0.361   2.793   0.941 -0.3748 -0.0861  0.5777
  939MPD2    C413785   0.452   2.857   0.858  0.0982 -0.3243 -0.2565
  939MPD2    C513786   0.492   2.981   0.895 -0.1512  0.7102  0.2266
  939MPD2     H13787   0.266   2.803   1.128 -1.2310  2.0047  0.5757
  939MPD2    H113788   0.493   2.814   0.767 -0.9726 -0.8060 -0.5126
  939MPD2    H213789   0.476   3.154   1.014 -0.4854  0.1048 -0.9290
  939MPD2    H313790   0.563   3.031   0.830  0.6554 -1.7893 -0.7929
  939MPD2     N13791   0.301   2.669   0.910  0.3063  0.2587  0.2250
  939MPD2    H513792   0.245   2.634   0.987  1.2655 -1.4999  0.1201
  939MPD2    N113793   0.333   3.053   1.211 -0.2850  0.4119 -0.1593
  939MPD2    H713794   0.392   3.131   1.238 -0.6772  1.8769 -3.5841
  940MPD2     C13795   3.923   3.224  12.872 -0.0771  0.1951 -0.1958
  940MPD2    C113796   3.855   3.140  12.949  0.1486 -0.5067 -0.2652
  940MPD2    C213797   3.799   3.025  12.890  0.1476  0.2014 -0.0630
  940MPD2    C313798   3.816   2.995  12.751 -0.1325 -0.0516  0.4707
  940MPD2    C413799   3.890   3.086  12.672  0.5175  0.0861  0.8989
  940MPD2    C513800   3.941   3.197  12.736 -0.3336  0.5389  0.4207
  940MPD2     H13801   3.754   2.946  12.949  0.3000  0.3376  0.2342
  940MPD2    H113802   3.900   3.065  12.567  0.6491  1.5800  0.6099
  940MPD2    H213803   3.960   3.321  12.906 -0.2131  0.4243 -0.6986
  940MPD2    H313804   3.996   3.273  12.682 -1.4365  0.2843 -1.0584
  940MPD2     N13805   3.765   2.886  12.684 -0.0544 -0.6051 -0.2517
  940MPD2    H513806   3.778   2.878  12.584  2.7993 -2.3361  0.2488
  940MPD2    N113807   3.829   3.167  13.085 -1.0260 -0.6123 -0.3724
  940MPD2    H713808   3.770   3.097  13.129 -1.0935  0.3776  1.1077
  941MPD2     C13809   1.984   1.829  10.684  0.1697  0.1989 -0.2175
  941MPD2    C113810   2.085   1.798  10.599  0.4277 -0.5652  0.2111
  941MPD2    C213811   2.087   1.672  10.547 -0.0282 -0.1143  0.4646
  941MPD2    C313812   1.993   1.573  10.579 -0.6922 -0.7042 -0.2020
  941MPD2    C413813   1.897   1.605  10.675  0.5966 -0.1249 -0.1089
  941MPD2    C513814   1.899   1.728  10.730 -0.3973  0.1638  0.5492
  941MPD2     H13815   2.174   1.649  10.487  0.0964  1.6912 -0.0571
  941MPD2    H113816   1.823   1.527  10.692 -0.0587  0.2841 -1.0703
  941MPD2    H213817   1.978   1.926  10.733 -2.8363 -0.7665  1.3647
  941MPD2    H313818   1.827   1.756  10.806 -2.2468  0.0570 -1.2004
  941MPD2     N13819   1.988   1.452  10.514  0.0573 -0.3817  0.1366
  941MPD2    H513820   1.927   1.376  10.541 -1.0797 -0.1285 -1.6923
  941MPD2    N113821   2.184   1.891  10.557 -0.5226  0.6246 -0.4520
  941MPD2    H713822   2.249   1.856  10.486 -0.8012 -0.7125 -0.0417
  942MPD2     C13823   1.764   4.187   9.095  0.0301  0.0970  0.6025
  942MPD2    C113824   1.727   4.056   9.063 -0.4931 -0.1247 -0.2181
  942MPD2    C213825   1.770   3.950   9.137  0.1963  0.7328 -0.6109
  942MPD2    C313826   1.855   3.960   9.250  0.2518  0.1025  0.0615
  942MPD2    C413827   1.899   4.088   9.277  0.1652 -0.0738  0.2847
  942MPD2    C513828   1.855   4.201   9.202 -0.1431  0.0852 -0.9672
  942MPD2     H13829   1.736   3.852   9.104  0.7314  0.6552 -0.9326
  942MPD2    H113830   1.971   4.108   9.355 -0.3028  1.7074  0.2626
  942MPD2    H213831   1.729   4.279   9.050  0.1063  0.6882  1.7423
  942MPD2    H313832   1.889   4.302   9.220  0.4759 -0.7115  2.1740
  942MPD2     N13833   1.898   3.846   9.318  0.2819 -0.7730 -0.2644
  942MPD2    H513834   1.979   3.862   9.376  1.0933  1.9498 -2.1298
  942MPD2    N113835   1.641   4.031   8.952 -0.6864  0.0146  0.0655
  942MPD2    H713836   1.610   3.934   8.954 -0.5561 -0.0372 -0.3851
  943MPD2     C13837   1.430   2.327  10.415 -0.5678  0.3831  0.3652
  943MPD2    C113838   1.380   2.252  10.519 -0.0121 -0.0458 -0.3438
  943MPD2    C213839   1.316   2.313  10.625 -0.4328 -0.4019 -0.6144
  943MPD2    C313840   1.305   2.451  10.628  1.0723 -0.2190  0.0220
  943MPD2    C413841   1.367   2.526  10.525 -0.4567  0.0200  0.0385
  943MPD2    C513842   1.424   2.464  10.419  0.1624  0.1457  0.9399
  943MPD2     H13843   1.276   2.254  10.707  2.0484 -2.6487 -1.0360
  943MPD2    H113844   1.357   2.634  10.519 -0.4441  0.0028 -0.2615
  943MPD2    H213845   1.483   2.281  10.333 -1.4727 -0.6214  0.3528
  943MPD2    H313846   1.457   2.528  10.339 -0.8229 -0.8035 -0.2301
  943MPD2     N13847   1.255   2.531  10.739  0.6621 -0.2948  0.0005
  943MPD2    H513848   1.261   2.631  10.724  2.3513 -0.3184  0.5224
  943MPD2    N113849   1.394   2.111  10.496 -0.0072  0.5834 -0.4359
  943MPD2    H713850   1.430   2.074  10.409 -0.2856  0.8547 -0.6685
  944MPD2     C13851   0.600   0.764  11.871  0.4648  0.8917  0.1503
  944MPD2    C113852   0.650   0.815  11.752  0.0831  0.4437 -0.2597
  944MPD2    C213853   0.645   0.953  11.729  0.2603  0.0789 -0.2217
  944MPD2    C313854   0.587   1.036  11.829  0.0530  0.0238  0.0048
  944MPD2    C413855   0.535   0.978  11.942 -0.6695 -0.3338 -0.0124
  944MPD2    C513856   0.554   0.842  11.965  0.1050  0.3744  0.4000
  944MPD2     H13857   0.671   0.997  11.633  0.4536  1.6025  0.5392
  944MPD2    H113858   0.492   1.035  12.023  0.5666  0.4640  0.0853
  944MPD2    H213859   0.603   0.656  11.883  0.2774  0.6421 -1.9856
  944MPD2    H313860   0.513   0.795  12.054 -0.7792  0.4053  0.0072
  944MPD2     N13861   0.576   1.177  11.796  0.8139  0.6934 -0.5253
  944MPD2    H513862   0.612   1.211  11.707  1.1059  1.5383 -0.0890
  944MPD2    N113863   0.696   0.716  11.660  0.4188 -0.1957  0.3093
  944MPD2    H713864   0.693   0.621  11.695 -2.3129 -0.7877 -1.4602
    1TMC1    C113865   4.277   3.268  14.897  0.3410 -0.1990 -0.3727
    1TMC1    C213866   4.315   3.220  15.020 -0.1524 -0.0514  0.0876
    1TMC1    C313867   4.259   3.107  15.074 -0.1518 -0.1347  0.2223
    1TMC1    C413868   4.196   3.195  14.814 -0.4278  0.2514  0.3985
    1TMC1    C513869   4.155   3.074  14.864  0.3451 -0.3448  0.3109
    1TMC1    C613870   4.185   3.032  14.991 -0.6239  0.2964  0.6443
    1TMC1     C13871   4.371   3.366  14.837 -0.9938  0.3285 -0.1434
    1TMC1     O13872   4.465   3.398  14.908 -0.7292 -0.0299 -0.5347
    1TMC1     H13873   4.388   3.274  15.079  0.2311 -0.4185 -0.0486
    1TMC1    H113874   4.146   3.226  14.723  0.5942  0.0427 -0.2408
    1TMC1    H213875   4.141   2.939  15.025  1.9693 -0.4483  1.9403
    1TMC1    C713876   4.078   2.994  14.777 -1.0306  0.6812  0.7698
    1TMC1    C813877   4.318   3.045  15.196  0.6240 -0.3132  0.2857
    1TMC1    O113878   3.973   2.941  14.819  0.2068 -0.3449  0.2505
    1TMC1    O213879   4.421   3.092  15.241 -0.9008 -0.0922 -0.4207
    1TMC1    O313880   4.151   2.959  14.668  0.3439 -0.3319  0.2576
    1TMC1    H313881   4.244   2.990  14.664  0.5512 -1.1841 -1.6549
    1TMC1    O513882   4.227   2.977  15.263  0.2723  0.1137  0.0996
    1TMC1    H513883   4.136   2.968  15.227  0.3179 -0.4108  0.1183
    2MPD2     C13884   4.552   3.664  14.463  0.3346 -0.0305 -0.0365
    2MPD2    C113885   4.442   3.604  14.417  0.2354  0.3832  0.4007
    2MPD2    C213886   4.373   3.524  14.510  0.5565  0.6660 -0.9894
    2MPD2    C313887   4.424   3.494  14.635 -1.2140 -0.4931 -0.8513
    2MPD2    C413888   4.539   3.555  14.681 -0.3123  0.1902 -0.0098
    2MPD2    C513889   4.595   3.640  14.592  0.1006  0.6026 -0.0038
    2MPD2     H13890   4.279   3.476  14.482 -0.9035  1.9431  1.6947
    2MPD2    H113891   4.575   3.543  14.782  1.9390  0.3468 -0.8121
    2MPD2    H213892   4.600   3.727  14.388 -2.0926  1.4745 -0.3193
    2MPD2    H313893   4.683   3.689  14.632  0.0545 -1.3845  2.6010
    2MPD2     N13894   4.344   3.414  14.713 -0.5559 -0.0512 -0.4512
    2MPD2    H513895   4.268   3.368  14.665 -1.5163 -0.4707  1.4817
    2MPD2    N113896   4.394   3.631  14.286  0.0063  0.2163  0.1195
    2MPD2    H713897   4.441   3.695  14.223  0.0755  1.4697  1.4195
    3TMC2    C113898   4.288   3.592  14.080  0.0950  0.7091  0.0640
    3TMC2    C213899   4.393   3.630  14.001 -0.4411  0.8045 -0.3352
    3TMC2    C313900   4.364   3.651  13.873 -0.2667  0.9644  0.3310
    3TMC2    C413901   4.161   3.593  14.037  0.7732 -0.5867 -0.1851
    3TMC2    C513902   4.136   3.614  13.902 -0.0497  0.2547  0.1144
    3TMC2    C613903   4.238   3.641  13.815 -0.1577  0.1962 -0.3651
    3TMC2     C13904   4.307   3.554  14.217 -0.2612  0.2629 -0.0578
    3TMC2     O13905   4.235   3.464  14.257 -0.2660 -0.4153  0.1091
    3TMC2     H13906   4.494   3.619  14.039 -0.9218  2.1156  1.2743
    3TMC2    H113907   4.083   3.550  14.100 -2.6014  1.7294 -2.7786
    3TMC2    H213908   4.230   3.665  13.709 -0.2747 -1.4793 -0.7370
    3TMC2    C713909   3.997   3.615  13.852  0.2661  0.5445  0.2029
    3TMC2    C813910   4.470   3.665  13.779 -0.2640 -0.2287 -0.0387
    3TMC2    O113911   3.902   3.592  13.929  0.3190 -0.1328 -0.2234
    3TMC2    O213912   4.478   3.619  13.665  0.2275 -0.2441  0.7466
    3TMC2    O513913   4.527   3.779  13.809  0.1635  0.2308 -0.2878
    3TMC2    H513914   4.486   3.828  13.883  2.4643  0.7723  0.6433
    4TMC2    C113915   3.640   3.635  12.968 -0.2233 -0.1297  0.5052
    4TMC2    C213916   3.654   3.763  12.922 -0.3667  0.3492  0.0243
    4TMC2    C313917   3.768   3.831  12.939  0.2752 -0.4952  0.1963
    4TMC2    C413918   3.733   3.595  13.052  0.7281  0.3035 -0.2623
    4TMC2    C513919   3.852   3.667  13.063 -1.0108 -0.2939 -0.3407
    4TMC2    C613920   3.873   3.788  13.011  0.1300 -0.9328  0.3277
    4TMC2     C13921   3.508   3.613  13.021 -0.1655  0.1223 -0.2125
    4TMC2     O13922   3.500   3.568  13.136  0.3377 -0.0695 -0.2056
    4TMC2     H13923   3.580   3.807  12.856 -1.3023 -0.8342  0.2975
    4TMC2    H113924   3.720   3.492  13.086  2.8608  0.5574  1.3633
    4TMC2    H213925   3.970   3.835  13.017 -0.3958  0.1991  0.0161
    4TMC2    C713926   3.896   3.666  13.196  0.3714 -0.1933 -0.1343
    4TMC2    C813927   3.773   3.953  12.868 -0.1953 -0.0464  0.2435
    4TMC2    O113928   4.013   3.689  13.228 -0.5131 -0.3614  0.1904
    4TMC2    O213929   3.675   4.019  12.850 -0.1358 -0.2021 -0.0326
    4TMC2    O513930   3.888   3.960  12.808  0.3470  0.3143  0.1820
    4TMC2    H513931   3.956   3.890  12.799 -0.7007 -0.4211 -1.8808
    5MPD2     C13932   3.023   3.463  12.999 -0.8006  0.1205  0.4946
    5MPD2    C113933   3.075   3.467  12.868  0.1216  0.3177  0.4157
    5MPD2    C213934   3.202   3.509  12.856 -0.6767  0.0470 -0.1717
    5MPD2    C313935   3.278   3.555  12.960  0.1741 -0.0921  0.1251
    5MPD2    C413936   3.228   3.539  13.091 -0.0333  0.5623 -0.0515
    5MPD2    C513937   3.097   3.501  13.105 -0.4250 -0.2423 -0.5224
    5MPD2     H13938   3.238   3.514  12.753 -0.0809 -2.0112 -0.0616
    5MPD2    H113939   3.283   3.574  13.178 -1.9035 -0.7218  1.6519
    5MPD2    H213940   2.919   3.436  13.017 -0.6456 -0.9072 -0.1968
    5MPD2    H313941   3.055   3.510  13.204 -1.3993  4.3704 -1.3546
    5MPD2     N13942   3.407   3.606  12.925  0.2296  0.6276  0.6128
    5MPD2    H513943   3.426   3.627  12.828  3.7380 -1.4819  0.8741
    5MPD2    N113944   2.991   3.425  12.755  0.0470  0.1109  0.0904
    5MPD2    H713945   2.896   3.394  12.774 -1.0175  1.0863 -3.6675
    6MPD1     C13946   2.149   0.189  12.802 -0.3460 -0.3477  0.5055
    6MPD1    C113947   2.064   0.076  12.823 -0.1761 -0.7451  0.2345
    6MPD1    C213948   2.124   4.694  12.865  0.4693 -0.6815 -1.0467
    6MPD1    C313949   2.264   4.676  12.865 -0.0897  0.7546  0.3073
    6MPD1    C413950   2.339   0.045  12.832  0.0005 -0.6437  0.0500
    6MPD1    C513951   2.285   0.165  12.794  0.0715 -0.3621 -0.3774
    6MPD1     H13952   2.061   4.608  12.884 -0.5322  0.7333  1.9441
    6MPD1    H113953   2.446   0.037  12.840 -0.0089 -2.0356 -1.2450
    6MPD1    H213954   2.104   0.284  12.776  1.6315 -0.0834 -2.0170
    6MPD1    H313955   2.357   0.240  12.762  1.6255  0.4417  4.9113
    6MPD1     N13956   2.333   4.556  12.894  0.4519 -0.0449  0.3798
    6MPD1    H513957   2.434   4.555  12.890  0.5282  0.1892  2.4663
    6MPD1    N113958   1.925   0.093  12.822 -0.1050 -0.3866  0.1521
    6MPD1    H613959   1.908   0.168  12.756  2.3287 -0.5916 -0.7089
    6MPD1    H713960   1.867   0.017  12.787 -0.8050  1.0610 -1.8101
    7MPD2     C13961   2.244   3.692  12.966  0.5868 -0.3342 -0.9059
    7MPD2    C113962   2.366   3.728  12.928  0.0241  0.1213  0.6161
    7MPD2    C213963   2.444   3.653  12.844 -0.1736  0.4874 -0.5894
    7MPD2    C313964   2.390   3.530  12.803  0.2845  0.1970 -0.1777
    7MPD2    C413965   2.262   3.489  12.845 -0.4471  0.2911 -0.4155
    7MPD2    C513966   2.194   3.569  12.933 -0.7986 -0.3426 -0.1292
    7MPD2     H13967   2.532   3.695  12.796  1.0193  1.0236  2.0422
    7MPD2    H113968   2.228   3.392  12.811 -1.1870  1.1204 -2.0171
    7MPD2    H213969   2.179   3.742  13.037 -2.5104 -0.9215 -3.3688
    7MPD2    H313970   2.094   3.542  12.965 -0.3087 -1.7632  0.1863
    7MPD2     N13971   2.460   3.448  12.708 -0.1510  0.3655 -0.4586
    7MPD2    H513972   2.405   3.398  12.638 -1.6285  1.1415  0.1383
    7MPD2    N113973   2.412   3.863  12.946 -0.1517 -0.1492  0.2392
    7MPD2    H713974   2.497   3.894  12.901 -1.2862  0.7159 -1.3246
    8TMC3    C113975   2.657   3.378  12.591 -0.3732 -0.5558  0.4360
    8TMC3    C213976   2.789   3.344  12.611  0.3550 -0.5855 -0.1907
    8TMC3    C313977   2.895   3.399  12.540 -1.3574  0.2585  0.3840
    8TMC3    C413978   2.635   3.469  12.489  0.0283  0.4378  0.5003
    8TMC3    C513979   2.743   3.532  12.429 -0.2853 -0.8018 -0.8290
    8TMC3    C613980   2.873   3.498  12.448 -0.6571  0.5018 -0.0385
    8TMC3     C13981   2.594   3.436  12.715  0.4430 -0.8253 -0.0952
    8TMC3     O13982   2.678   3.454  12.800 -0.0615  0.3967 -0.4646
    8TMC3     H13983   2.813   3.270  12.687  0.0488 -0.2874  0.1978
    8TMC3    H113984   2.537   3.508  12.467 -0.7331 -2.7868 -1.7966
    8TMC3    H213985   2.957   3.544  12.398  0.2383  0.7980  1.7499
    8TMC3    C713986   2.713   3.663  12.370 -0.0812  0.4007  0.5804
    8TMC3    C813987   3.013   3.433  12.623  0.2802 -0.0423 -0.6770
    8TMC3    O113988   2.596   3.696  12.354 -0.1012 -0.2422  0.0279
    8TMC3    O213989   3.114   3.473  12.562 -0.8401 -0.1364 -0.3638
    9TMC3    C113990   2.374   4.328  12.926  0.0584  0.7097 -0.1537
    9TMC3    C213991   2.447   4.324  12.805  0.5046 -0.9123  0.1130
    9TMC3    C313992   2.514   4.209  12.778 -0.3197  0.1888  0.0016
    9TMC3    C413993   2.337   4.211  12.991 -0.5043 -0.1464  0.1535
    9TMC3    C513994   2.403   4.101  12.960 -0.8729 -0.0546  0.2556
    9TMC3    C613995   2.499   4.099  12.858 -0.1709  0.4950 -0.2957
    9TMC3     C13996   2.271   4.434  12.923 -0.0996  0.2171 -0.1620
    9TMC3     O13997   2.159   4.400  12.952 -0.1238  0.1956 -0.5390
    9TMC3     H13998   2.462   4.411  12.742  0.4198 -0.5226  0.6317
    9TMC3    H113999   2.263   4.214  13.070 -0.9610  0.6399 -0.3088
    9TMC3    H214000   2.554   4.012  12.825 -1.3893 -0.6870  0.8144
    9TMC3    C714001   2.347   3.973  13.002  0.0703 -0.5793 -0.3733
    9TMC3    C814002   2.619   4.212  12.680 -0.2720 -0.1883  1.0147
    9TMC3    O114003   2.247   3.977  13.067  0.1387  0.0134  0.0025
    9TMC3    O214004   2.710   4.291  12.701 -0.4544  0.1739  0.2476
   10MPD2     C14005   2.954   3.948  12.396  0.0313  0.1358  0.4423
   10MPD2    C114006   2.831   3.877  12.407 -0.3104  0.0322  0.4150
   10MPD2    C214007   2.722   3.939  12.470 -0.5667 -0.6235  0.3030
   10MPD2    C314008   2.728   4.068  12.521 -0.0117 -0.0918 -0.8402
   10MPD2    C414009   2.846   4.131  12.509 -0.2737 -0.1551 -0.3463
   10MPD2    C514010   2.955   4.077  12.453  0.2357 -0.1834  0.2090
   10MPD2     H14011   2.628   3.888  12.488  0.0462 -1.1724  1.9576
   10MPD2    H114012   2.866   4.233  12.541 -3.1319  0.5568 -0.7763
   10MPD2    H214013   3.043   3.903  12.352 -0.7714 -1.5904  0.5590
   10MPD2    H314014   3.044   4.139  12.453 -0.2841  0.5616 -2.6364
   10MPD2     N14015   2.617   4.098  12.609 -0.4719 -0.0209 -0.7492
   10MPD2    H514016   2.539   4.034  12.620 -0.1616  0.0374  1.7265
   10MPD2    N114017   2.828   3.741  12.376 -0.2551 -0.1184  0.1066
   10MPD2    H714018   2.921   3.702  12.370 -0.5174 -0.6145 -0.6921
   11MPD2     C14019   3.751   3.657  13.701 -0.0413 -1.0563 -0.2489
   11MPD2    C114020   3.874   3.631  13.638 -0.1529  0.3070  0.5762
   11MPD2    C214021   3.890   3.627  13.497 -0.3188 -0.1250 -0.3533
   11MPD2    C314022   3.779   3.643  13.412 -0.4230 -0.4060 -0.4878
   11MPD2    C414023   3.655   3.666  13.473 -0.3116 -0.4047 -0.0342
   11MPD2    C514024   3.649   3.678  13.612 -0.5092 -0.3155 -0.7790
   11MPD2     H14025   3.992   3.624  13.461 -0.2841  0.1237 -0.2754
   11MPD2    H114026   3.562   3.691  13.424  0.8831  1.4788 -1.3613
   11MPD2    H214027   3.733   3.655  13.808  2.1438 -1.2604  0.1103
   11MPD2    H314028   3.555   3.702  13.660 -0.2736  0.3965 -0.6687
   11MPD2     N14029   3.786   3.643  13.275 -0.1964  0.7856 -0.2471
   11MPD2    H514030   3.696   3.646  13.228 -0.1462 -1.3849 -0.4892
   11MPD2    N114031   3.994   3.621  13.715 -0.0263 -0.3242  0.5044
   11MPD2    H714032   4.077   3.635  13.659 -0.5091  0.3985 -0.0403
    1MPD1     C14033   0.006   3.029   0.809 -0.4538  0.4036  1.1801
    1MPD1    C114034   0.031   2.978   0.686 -0.0381 -0.0383  0.1833
    1MPD1    C214035   4.682   3.012   0.588  0.6708 -0.3113 -0.6189
    1MPD1    C314036   4.557   3.071   0.622 -0.2320 -0.1848 -0.2923
    1MPD1    C414037   4.535   3.115   0.753 -0.0852 -0.3094  0.1145
    1MPD1    C514038   4.632   3.092   0.842 -0.2071 -0.0301 -0.3793
    1MPD1     H14039   4.688   2.962   0.492 -0.3400 -1.8346  0.1030
    1MPD1    H114040   4.442   3.155   0.789 -0.7814 -0.8058 -1.1081
    1MPD1    H214041   0.083   3.017   0.884  0.2327 -1.4422  0.1690
    1MPD1    H314042   4.617   3.111   0.947  0.1469  0.5264 -0.4290
    1MPD1     N14043   4.451   3.090   0.535 -0.1935 -0.2078 -0.1162
    1MPD1    H514044   4.369   3.134   0.577 -0.0169  0.8779 -0.9229
    1MPD1    N114045   0.154   2.926   0.642 -0.1282  0.2900 -0.0523
    1MPD1    H614046   0.140   2.874   0.556  0.1419 -0.7158  0.5106
    1MPD1    H714047   0.206   2.866   0.706 -0.9164 -0.2930  0.0437
    2MPD1     C14048   4.147   3.865   0.603 -0.6021  0.6156 -0.2177
    2MPD1    C114049   4.265   3.803   0.624 -0.3729  0.4736 -0.2173
    2MPD1    C214050   4.285   3.682   0.565  0.4313  0.7136  0.1235
    2MPD1    C314051   4.190   3.631   0.483 -1.0893 -0.1386 -0.1692
    2MPD1    C414052   4.070   3.692   0.461  0.2843 -0.0927  0.0950
    2MPD1    C514053   4.046   3.814   0.522  0.3994 -0.4005  0.6591
    2MPD1     H14054   4.372   3.629   0.600  1.5828  1.6298 -1.3019
    2MPD1    H114055   3.990   3.664   0.394 -1.6358  1.1297  1.8936
    2MPD1    H214056   4.114   3.954   0.656 -0.2500 -0.4754  1.8287
    2MPD1    H314057   3.953   3.865   0.500  1.0406 -0.0944 -1.3350
    2MPD1     N14058   4.221   3.507   0.426  0.5991 -0.0537 -0.4209
    2MPD1    H514059   4.319   3.484   0.438  0.4077 -0.4038  0.4409
    2MPD1    N114060   4.358   3.839   0.729 -0.3933 -0.1177 -0.2694
    2MPD1    H614061   4.451   3.798   0.719  1.4364  3.9743  0.0871
    2MPD1    H714062   4.361   3.940   0.743  2.1032 -0.1824 -0.2541
    3TMC3    C114063   4.214   3.314   0.285 -0.3550  0.4425 -0.6672
    3TMC3    C214064   4.137   3.241   0.192 -0.3011 -0.1035  0.0979
    3TMC3    C314065   4.168   3.106   0.170 -0.3990 -0.1525  0.3730
    3TMC3    C414066   4.310   3.252   0.364 -0.1168 -0.0852  0.7063
    3TMC3    C514067   4.329   3.122   0.344 -0.5153  0.7587 -0.5508
    3TMC3    C614068   4.258   3.043   0.254 -0.7446  0.3776 -0.4679
    3TMC3     C14069   4.150   3.433   0.335 -0.3692 -0.3647  0.2436
    3TMC3     O14070   4.029   3.445   0.308  0.0095  0.2384 -0.2548
    3TMC3     H14071   4.068   3.290   0.124 -0.1844  2.2211  1.6304
    3TMC3    H114072   4.371   3.308   0.434 -1.3429  1.8775  0.2142
    3TMC3    H214073   4.283   2.938   0.238 -0.5234  0.9079 -3.7579
    3TMC3    C714074   4.436   3.049   0.405 -0.3725 -0.0585  0.1016
    3TMC3    C814075   4.079   3.023   0.094 -0.2674 -0.1206  0.6326
    3TMC3    O114076   4.506   2.968   0.348 -0.4591  0.1635 -0.4949
    3TMC3    O214077   3.966   3.057   0.069 -0.8522 -0.0303  0.5219
    4MPD1     C14078   3.964   2.568  17.621 -0.0911  0.2023  0.2813
    4MPD1    C114079   4.083   2.564  17.688 -0.1574  0.2080 -0.1236
    4MPD1    C214080   4.139   2.676  17.743 -0.4657 -0.5587  0.0821
    4MPD1    C314081   4.074   2.799  17.741 -0.4899 -0.4942 -0.1130
    4MPD1    C414082   3.951   2.808  17.677  0.0769 -0.1391  0.4748
    4MPD1    C514083   3.912   2.694  17.608  0.2191  0.1169 -0.4069
    4MPD1     H14084   4.237   2.671   0.034 -0.8620  0.4148  1.0214
    4MPD1    H114085   3.886   2.894  17.666  1.9260  1.3868  1.5050
    4MPD1    H214086   3.905   2.482  17.589 -0.0922 -0.0975  1.0851
    4MPD1    H314087   3.814   2.703  17.562 -0.7133 -0.1792  1.5001
    4MPD1     N14088   4.138   2.904   0.050  0.5980  0.6603 -0.3859
    4MPD1    H514089   4.237   2.893   0.070  0.3343  1.1083  1.2051
    4MPD1    N114090   4.150   2.443  17.717 -0.6064 -0.2790  0.3977
    4MPD1    H614091   4.118   2.364  17.660 -2.3359 -1.3437  2.8741
    4MPD1    H714092   4.249   2.454  17.694 -0.6573  3.0732  1.8707
    1TCq1    O114093   2.895   3.902  11.565  0.1416 -0.4144  0.4635
    1TCq1    C114094   2.934   4.028  11.558  0.2915 -0.2347  0.0604
    1TCq1    O214095   3.034   4.071  11.613 -0.3438 -0.2691  0.0237
    1TCq1    C214096   2.853   4.083  11.449  0.6067  0.6805 -0.5324
    1TCq1    C314097   2.729   4.045  11.429  0.3687  0.6994  0.1353
    1TCq1    C414098   2.668   4.087  11.315  0.3227  0.1662 -0.5329
    1TCq1    C514099   2.738   4.155  11.213 -0.0629 -0.5422 -0.5209
    1TCq1    C614100   2.865   4.196  11.243  0.8920  0.0716 -0.9089
    1TCq1    C714101   2.930   4.155  11.360  1.0255  0.0898 -0.1810
    1TCq1    C814102   2.932   4.285  11.144  0.0292 -0.2222  0.3427
    1TCq1    O414103   2.884   4.285  11.030 -0.1872  0.0209  0.0306
    1TCq1    C914104   2.542   4.018  11.277 -0.1979 -0.5214 -0.0138
    1TCq1    O514105   2.517   4.023  11.155 -0.1081 -0.3369  0.0844
    1TCq1    O614106   2.520   3.916  11.346 -0.3692  0.3708  0.4862
    1TCq1    H114107   2.849   3.873  11.483  4.8647 -1.0326 -1.9600
    1TCq1    H214108   2.676   3.979  11.497 -0.8179  1.7190  0.2039
    1TCq1    H314109   2.699   4.176  11.115 -0.7638 -3.1910 -0.8039
    1TCq1    H414110   3.030   4.188  11.385  0.8839 -0.8986  1.7018
    2MPD1     C14111   3.241   4.654  10.981 -0.0830  0.2921  0.4601
    2MPD1    C114112   3.256   4.646  11.118  0.5988 -0.4510 -0.1569
    2MPD1    C214113   3.190   4.548  11.191  0.3663 -0.0014 -0.4181
    2MPD1    C314114   3.101   4.460  11.118 -0.5171  0.1106  0.3084
    2MPD1    C414115   3.079   4.478  10.983 -0.0894  0.2004  0.6973
    2MPD1    C514116   3.149   4.576  10.914  0.2341 -0.5434 -0.1340
    2MPD1     H14117   3.207   4.534  11.297 -0.4059  1.0032 -0.1617
    2MPD1    H114118   3.017   4.418  10.917 -2.2631  3.2066  0.0091
    2MPD1    H214119   3.295   4.733  10.929 -2.5099  0.4164 -1.8623
    2MPD1    H314120   3.119   4.591  10.811  1.3285  0.9616 -0.2308
    2MPD1     N14121   3.024   4.370  11.197 -0.1810  0.4334 -0.2709
    2MPD1    H514122   3.037   4.367  11.298 -0.5303  0.3046 -0.2288
    2MPD1    N114123   3.355   4.711  11.190 -0.6109 -0.2141  0.4343
    2MPD1    H614124   3.358   0.071  11.170  2.5815 -0.1336  1.3479
    2MPD1    H714125   3.352   4.684  11.288 -2.5286 -0.0488  0.4298
    1TMC1    C114126   1.450   3.357   0.980  0.3511 -0.4248  0.1121
    1TMC1    C214127   1.376   3.238   0.983 -0.8954 -0.4966 -0.6201
    1TMC1    C314128   1.397   3.155   0.880 -0.2455 -0.5757  0.1602
    1TMC1    C414129   1.537   3.384   0.884 -0.0717  0.0139  0.2245
    1TMC1    C514130   1.562   3.288   0.789  0.3477 -0.3899  0.1907
    1TMC1    C614131   1.498   3.168   0.786  0.0447  0.1214  0.1200
    1TMC1     C14132   1.451   3.438   1.098 -0.1089 -0.5202 -0.1014
    1TMC1     O14133   1.557   3.488   1.134  0.9020 -0.2379  0.2068
    1TMC1     H14134   1.308   3.220   1.065 -2.5492  0.4940 -1.7563
    1TMC1    H114135   1.582   3.483   0.885  0.6547 -0.3194  0.0833
    1TMC1    H214136   1.505   3.096   0.706 -1.0479  0.1256  0.0283
    1TMC1    C714137   1.589   3.341   0.658 -0.0703  1.0433 -0.1178
    1TMC1    C814138   1.305   3.042   0.864  0.1638  0.0731  0.1573
    1TMC1    O114139   1.537   3.298   0.556 -0.4840 -0.4036  0.4907
    1TMC1    O214140   1.339   2.941   0.810 -0.0456 -0.1792 -0.0258
    1TMC1    O314141   1.692   3.423   0.667  0.3502 -0.6670 -0.6329
    1TMC1    H314142   1.730   3.423   0.758 -0.3216  1.4448 -0.3511
    1TMC1    O514143   1.178   3.082   0.902 -0.1767  0.1323 -0.4465
    1TMC1    H514144   1.178   3.173   0.938 -0.8508  0.5853 -1.6114
    2MPD1     C14145   1.201   3.685   1.474 -0.1808 -0.2545 -0.5217
    2MPD1    C114146   1.102   3.623   1.400 -0.2233 -0.0155 -0.0604
    2MPD1    C214147   1.146   3.544   1.285 -0.0065 -0.1220 -0.1076
    2MPD1    C314148   1.280   3.526   1.260 -0.3749 -0.1569  0.2218
    2MPD1    C414149   1.368   3.585   1.342 -0.1012  0.2704  0.1046
    2MPD1    C514150   1.333   3.657   1.450  0.2970 -0.0274  0.1465
    2MPD1     H14151   1.068   3.507   1.219  1.4597 -1.6076 -0.9902
    2MPD1    H114152   1.475   3.571   1.331 -0.2639 -0.9239  0.0566
    2MPD1    H214153   1.164   3.743   1.557 -0.2426 -0.8451 -0.1326
    2MPD1    H314154   1.412   3.691   1.515 -0.0539  1.5686 -0.2589
    2MPD1     N14155   1.322   3.455   1.147 -0.2491  0.8007 -0.2674
    2MPD1    H514156   1.251   3.415   1.087  0.4240 -1.3591  0.4119
    2MPD1    N114157   0.970   3.666   1.407  0.0816 -0.5995  0.0880
    2MPD1    H614158   0.905   3.598   1.368 -1.1830 -0.1671  1.4227
    2MPD1    H714159   0.946   3.693   1.502 -1.0536  0.5649 -0.5206
    1MPD1     C14160   3.956   4.219  12.599  0.4065  0.1664  0.2241
    1MPD1    C114161   3.912   4.325  12.521 -0.9816  0.6428  0.0786
    1MPD1    C214162   4.007   4.405  12.464 -0.0865  0.3520  0.3075
    1MPD1    C314163   4.139   4.373  12.456  0.0583  0.0736  0.3329
    1MPD1    C414164   4.180   4.262  12.527 -0.6571 -0.4663  1.0169
    1MPD1    C514165   4.088   4.188  12.597  0.3683  1.1198 -0.0676
    1MPD1     H14166   3.975   4.496  12.415  0.0425 -0.0611 -0.5536
    1MPD1    H114167   4.285   4.237  12.535 -1.0325 -1.8750  1.6184
    1MPD1    H214168   3.892   4.151  12.654 -1.6492  2.0722  0.1730
    1MPD1    H314169   4.122   4.097  12.646 -1.0390 -0.9327 -2.8174
    1MPD1     N14170   4.221   4.456  12.375 -0.0039  0.1336 -0.2934
    1MPD1    H514171   4.188   4.542  12.334  0.8622  0.7725  0.3562
    1MPD1    N114172   3.780   4.354  12.530 -0.0231 -0.6439 -0.6409
    1MPD1    H614173   3.741   4.424  12.467  0.2535  0.6325  0.5870
    1MPD1    H714174   3.715   4.276  12.538  1.4490 -1.6068  2.0447
    2MPD1     C14175   3.290   0.378  11.097 -0.0500 -0.4666  0.2343
    2MPD1    C114176   3.276   0.301  10.986  0.1906  0.4757  0.5833
    2MPD1    C214177   3.384   0.243  10.926 -0.5837 -0.6375  0.2625
    2MPD1    C314178   3.511   0.260  10.986  0.2885 -0.3346 -0.4025
    2MPD1    C414179   3.530   0.334  11.097 -0.4392 -0.2481 -0.2945
    2MPD1    C514180   3.417   0.401  11.145 -0.4361 -0.1341  0.6985
    2MPD1     H14181   3.373   0.191  10.831  3.2284  0.1962 -0.6393
    2MPD1    H114182   3.624   0.347  11.150  0.1030 -1.7918 -0.9110
    2MPD1    H214183   3.204   0.427  11.140  0.1655  1.4104 -1.4239
    2MPD1    H314184   3.435   0.479  11.218  0.3168  0.6900 -0.3546
    2MPD1     N14185   3.622   0.212  10.924 -0.1695  0.6137 -0.3318
    2MPD1    H514186   3.712   0.246  10.955 -0.5564  1.0927  0.2814
    2MPD1    N114187   3.146   0.292  10.936  0.7177 -0.4508  0.5521
    2MPD1    H614188   3.133   0.217  10.868  3.3801 -1.9129  1.6431
    2MPD1    H714189   3.084   0.293  11.017 -0.9901  0.6188 -0.7845
    3MPD1     C14190   3.919   0.247   9.993 -0.2242  0.5742 -0.4970
    3MPD1    C114191   3.846   0.132  10.019  0.0241  0.1664  0.0991
    3MPD1    C214192   3.821   0.098  10.155 -0.6960  0.3604 -0.0602
    3MPD1    C314193   3.876   0.168  10.255 -0.4157  0.2394 -0.3236
    3MPD1    C414194   3.959   0.277  10.225  0.0777  0.6013  0.1163
    3MPD1    C514195   3.966   0.328  10.093 -0.4342 -0.4602  0.2209
    3MPD1     H14196   3.762   0.010  10.175 -1.7179  0.3822 -2.9255
    3MPD1    H114197   4.022   0.327  10.299  0.9831  0.3767 -0.5008
    3MPD1    H214198   3.961   0.277   9.898  0.0970 -0.2027 -0.6030
    3MPD1    H314199   4.042   0.396  10.058  0.3805 -0.4924  1.9262
    3MPD1     N14200   3.872   0.107  10.384  0.6928 -0.4044  0.2108
    3MPD1    H514201   3.825   0.018  10.393  0.8596 -0.2550  2.7474
    3MPD1    N114202   3.776   0.075   9.915  0.0979  0.1167 -0.2480
    3MPD1    H614203   3.824   0.088   9.826  1.0042  0.1913  0.2540
    3MPD1    H714204   3.755   4.715   9.924 -1.4783  0.5596  0.9654
    4MPD2     C14205   4.365   0.264  11.955  0.8106  0.5403  0.0989
    4MPD2    C114206   4.471   0.175  11.973  1.1411 -0.6874 -0.5000
    4MPD2    C214207   4.558   0.158  11.862 -0.9117  0.6418  0.2466
    4MPD2    C314208   4.531   0.214  11.734 -0.0451 -0.3521 -0.0729
    4MPD2    C414209   4.417   0.283  11.718 -0.1634 -0.2136  1.0771
    4MPD2    C514210   4.337   0.317  11.829 -0.0924  0.6190  0.6151
    4MPD2     H14211   4.641   0.088  11.867 -1.3604  0.0772 -0.1182
    4MPD2    H114212   4.384   0.307  11.618 -0.3386 -0.7112  1.0167
    4MPD2    H214213   4.294   0.295  12.030  0.7925  0.0362  0.2919
    4MPD2    H314214   4.248   0.379  11.835 -0.4525  0.1681 -0.1016
    4MPD2     N14215   4.603   0.190  11.621  0.1085  0.2825 -0.0319
    4MPD2    H514216   4.585   0.244  11.537 -0.9993  2.2280  1.4620
    4MPD2    N114217   4.500   0.112  12.090 -0.3506  0.4625 -0.2947
    4MPD2    H714218   4.582   0.053  12.078 -0.6774 -0.2562  0.9545
    5TMC3    C114219   4.475   0.019  12.289 -0.1554  0.4216  0.0739
    5TMC3    C214220   4.391   4.659  12.312 -0.1288 -0.5687 -0.8580
    5TMC3    C314221   4.437   4.531  12.321  0.1944 -0.8678  0.9873
    5TMC3    C414222   4.612   4.729  12.280  0.6331  0.1511 -0.3934
    5TMC3    C514223   4.651   4.602  12.267 -0.1151  0.1624 -0.4050
    5TMC3    C614224   4.563   4.498  12.290 -0.6869 -0.0596  0.3545
    5TMC3     C14225   4.429   0.124  12.208  0.1164 -0.0685 -0.1833
    5TMC3     O14226   4.329   0.184  12.241  0.2276 -0.1714  0.2977
    5TMC3     H14227   4.285   4.681  12.318  0.2356  0.8047  0.7117
    5TMC3    H114228   4.679   0.074  12.271  2.1533 -0.8862  1.1749
    5TMC3    H214229   4.595   4.398  12.264 -1.7564 -0.0770 -0.9213
    5TMC3    C714230   4.727   4.588  12.144  0.1262 -0.4773  0.1629
    5TMC3    C814231   4.353   4.424  12.349 -0.0525 -0.4539 -0.2650
    5TMC3    O114232   4.735   4.688  12.070  0.6531 -0.5835 -0.1351
    5TMC3    O214233   4.398   4.312  12.353  0.7516  0.0921 -0.2168
    6TMC3    C114234   3.770   0.085  10.784  0.0219 -0.2476 -0.2731
    6TMC3    C214235   3.785   0.079  10.652 -0.5768 -0.0526  0.2922
    6TMC3    C314236   3.915   0.060  10.606  0.6810  0.5223 -0.9099
    6TMC3    C414237   3.871   0.077  10.881 -0.0569 -0.8805  0.0694
    6TMC3    C514238   3.989   0.053  10.829 -0.1035  0.2106  0.4872
    6TMC3    C614239   4.017   0.040  10.696 -0.7659  0.1932 -0.2532
    6TMC3     C14240   3.631   0.110  10.828  0.6818 -0.1681 -0.6344
    6TMC3     O14241   3.545   0.060  10.761 -0.3386 -0.1227  0.1813
    6TMC3     H14242   3.706   0.111  10.585 -2.7990 -0.0885  2.8925
    6TMC3    H114243   3.842   0.052  10.982 -0.4685  0.7410  0.3643
    6TMC3    H214244   4.122   0.034  10.668 -0.2418 -1.4497  2.0667
    6TMC3    C714245   4.090   4.728  10.910  0.4779  0.0611 -0.0000
    6TMC3    C814246   3.951   0.137  10.486 -0.3786  0.2391 -0.1127
    6TMC3    O114247   4.090   0.014  11.030  0.2403  0.2245 -0.7025
    6TMC3    O214248   4.056   0.196  10.488 -0.0962 -0.8104  0.5434
    7MPD2     C14249   0.206   4.313  11.783  0.5778 -0.2355 -0.2775
    7MPD2    C114250   0.146   4.441  11.773  0.5907 -0.1558  0.3115
    7MPD2    C214251   0.088   4.490  11.890  0.3070  0.0473 -0.1474
    7MPD2    C314252   0.107   4.425  12.012  0.1887 -0.2958  0.3499
    7MPD2    C414253   0.182   4.308  12.018  0.1866 -0.0223 -0.3961
    7MPD2    C514254   0.230   4.257  11.906 -0.3860 -0.1934 -0.3898
    7MPD2     H14255   0.008   4.563  11.884 -1.4423 -1.9147 -0.4133
    7MPD2    H114256   0.184   4.251  12.110 -0.3303 -0.0923 -0.4296
    7MPD2    H214257   0.240   4.261  11.694 -0.1107  0.2603 -0.8274
    7MPD2    H314258   0.273   4.158  11.907 -1.7223 -0.7868 -1.7879
    7MPD2     N14259   0.050   4.464  12.128  0.4233 -0.2241 -0.3785
    7MPD2    H514260   0.050   4.406  12.212  0.6568  0.1830 -0.0981
    7MPD2    N114261   0.109   4.513  11.658 -0.2279  0.7907  0.1253
    7MPD2    H714262   0.067   4.603  11.678 -0.2578  1.0289 -1.0166
    8TMC3    C114263   0.073   4.574  11.440  0.2884 -0.4157 -0.1262
    8TMC3    C214264   4.709   4.546  11.360 -0.0722  0.4479 -0.1908
    8TMC3    C314265   4.624   4.652  11.330  0.1123  0.6998 -0.7051
    8TMC3    C414266   0.095   4.700  11.489  0.8483  0.3587 -0.2098
    8TMC3    C514267   4.735   0.053  11.478 -0.8570  0.0554  0.6990
    8TMC3    C614268   4.630   0.037  11.392  0.4125  0.6275 -0.8045
    8TMC3     C14269   0.115   4.467  11.526 -0.7744 -0.7493  0.1164
    8TMC3     O14270   0.115   4.349  11.489  0.6276  0.0035 -0.3420
    8TMC3     H14271   4.698   4.444  11.326  0.6077  0.0789  0.6925
    8TMC3    H114272   0.190   4.716  11.537  0.4932  0.3648  0.4856
    8TMC3    H214273   4.549   0.110  11.385 -0.0350  0.0890 -1.2057
    8TMC3    C714274   4.710   0.105  11.614  0.6498  0.2328  0.3248
    8TMC3    C814275   4.543   4.653  11.205  0.1054  0.3904 -0.2611
    8TMC3    O114276   0.028   0.038  11.696 -0.1611  0.0093 -0.3668
    8TMC3    O214277   4.487   0.019  11.185  0.3551  0.7001  0.5977
    9MPD2     C14278   4.478   4.392  10.961  0.6593 -0.2802 -0.5586
    9MPD2    C114279   4.448   4.502  11.041  0.4073  0.4833 -0.7491
    9MPD2    C214280   4.335   4.578  11.004 -0.3619 -0.3595  0.1089
    9MPD2    C314281   4.261   4.553  10.893  0.4359 -0.0725 -0.0722
    9MPD2    C414282   4.283   4.436  10.828 -0.6647  0.2554  0.3635
    9MPD2    C514283   4.393   4.357  10.855 -0.5907  0.8956 -0.5177
    9MPD2     H14284   4.304   4.663  11.063  0.4292  0.7530 -1.0978
    9MPD2    H114285   4.214   4.421  10.745  0.4024  2.0339 -0.8398
    9MPD2    H214286   4.570   4.336  10.970 -0.7170 -2.1906  1.6679
    9MPD2    H314287   4.437   4.283  10.790 -2.0771 -0.3463 -0.1332
    9MPD2     N14288   4.154   4.625  10.845  0.3459 -0.0295  0.5606
    9MPD2    H514289   4.119   4.595  10.754  0.3364  0.3086  0.4551
    9MPD2    N114290   4.546   4.536  11.135  0.2890  0.3626 -0.2946
    9MPD2    H714291   4.616   4.467  11.157 -0.2094  0.0217  0.2528
    1MPD1     C14292   0.438   3.894  16.971 -0.3045  0.9080  0.6345
    1MPD1    C114293   0.402   3.892  16.835  0.2694  1.1237 -0.0812
    1MPD1    C214294   0.332   3.779  16.790 -0.6728  0.8457  0.2412
    1MPD1    C314295   0.312   3.669  16.873  0.2255 -0.0758 -0.9381
    1MPD1    C414296   0.354   3.672  17.006 -0.4247  0.3865  0.3518
    1MPD1    C514297   0.421   3.786  17.050  0.7187 -0.0107 -0.1877
    1MPD1     H14298   0.282   3.774  16.693  0.0087  2.9992 -0.2129
    1MPD1    H114299   0.344   3.581  17.064  0.4160 -0.0713 -0.2231
    1MPD1    H214300   0.488   3.975  17.022 -0.4872  0.6288  1.2457
    1MPD1    H314301   0.456   3.778  17.152 -0.2975  3.5673  0.4259
    1MPD1     N14302   0.240   3.552  16.831  0.3983 -0.7976 -0.0395
    1MPD1    H514303   0.224   3.479  16.900 -0.9851 -0.8874 -0.4524
    1MPD1    N114304   0.411   4.021  16.768 -0.1732 -0.0633  0.6741
    1MPD1    H614305   0.403   4.003  16.668 -0.3720 -1.0707  0.8767
    1MPD1    H714306   0.499   4.070  16.783  0.0649 -0.1087 -0.5437
    2TMC2    C114307   0.012   3.233  16.584  0.0556  1.6740 -0.8752
    2TMC2    C214308   4.711   3.177  16.705  0.3958  0.4337  0.2196
    2TMC2    C314309   4.710   3.247  16.817 -0.0572  0.3710  0.0490
    2TMC2    C414310   0.074   3.354  16.589  0.4328 -0.0414 -0.7189
    2TMC2    C514311   0.091   3.416  16.711 -0.3180  0.4642  0.5478
    2TMC2    C614312   0.043   3.364  16.826 -0.4218  0.0872 -0.0863
    2TMC2     C14313   0.018   3.157  16.453 -0.2625  0.2445 -0.4136
    2TMC2     O14314   4.723   3.043  16.469 -0.2375 -0.1199 -0.1045
    2TMC2     H14315   4.663   3.080  16.696  1.5267 -0.2669  1.8416
    2TMC2    H114316   0.130   3.391  16.504 -2.9072 -0.0542 -2.9463
    2TMC2    H214317   0.070   3.412  16.919  1.2326 -1.7766  0.4069
    2TMC2    C714318   0.180   3.528  16.710  0.5923 -0.0543  0.0715
    2TMC2    C814319   4.634   3.191  16.925 -0.3504 -0.1319 -0.2911
    2TMC2    O114320   0.219   3.577  16.606  0.7114 -0.2293  0.2427
    2TMC2    O214321   4.592   3.075  16.926  0.6442  0.1391 -0.1848
    2TMC2    O514322   4.570   3.284  16.999  0.1891  0.5108  0.1520
    2TMC2    H514323   4.612   3.371  16.983 -0.1544  1.1588  2.8262
    3MPD1     C14324   0.012   3.088  15.952  0.0633  0.4494 -0.1011
    3MPD1    C114325   4.723   3.220  15.977  0.4150  0.2439  0.3340
    3MPD1    C214326   4.728   3.264  16.109  0.2429 -0.1011 -0.0604
    3MPD1    C314327   0.025   3.182  16.214 -0.4778 -0.0516 -0.4726
    3MPD1    C414328   0.055   3.051  16.191  0.2760  0.3704  0.0032
    3MPD1    C514329   0.038   3.005  16.064 -0.2219  0.3854  0.2534
    3MPD1     H14330   4.710   3.370  16.122 -2.0239 -0.4381 -0.5527
    3MPD1    H114331   0.073   2.973  16.265  6.1847 -0.2435 -2.0634
    3MPD1    H214332   4.736   3.029  15.862 -0.8110  0.5912 -0.0408
    3MPD1    H314333   0.039   2.898  16.044  1.4894  0.1850  1.3714
    3MPD1     N14334   0.024   3.237  16.344  0.3212  0.3071 -0.0032
    3MPD1    H514335   0.006   3.336  16.359  0.4389  0.4949 -1.0840
    3MPD1    N114336   4.669   3.296  15.876  0.2667 -0.2279  0.0059
    3MPD1    H614337   4.695   3.394  15.883 -0.2895 -0.0397 -0.5204
    3MPD1    H714338   4.692   3.268  15.780  1.9214  1.6681 -0.1584
    1TMC1    C114339   2.319   2.121  13.278  0.0430  0.4624  0.8961
    1TMC1    C214340   2.383   2.004  13.300  0.0250 -0.1960  0.0938
    1TMC1    C314341   2.309   1.897  13.344 -0.2057  0.2569 -0.2702
    1TMC1    C414342   2.184   2.136  13.305 -0.7230  0.8039 -0.2690
    1TMC1    C514343   2.113   2.024  13.357  0.4169 -0.2244  0.1639
    1TMC1    C614344   2.174   1.906  13.380  0.1266  0.7227  0.1536
    1TMC1     C14345   2.407   2.237  13.243  0.2212 -0.3809 -0.6947
    1TMC1     O14346   2.352   2.343  13.210  0.1787  0.5327 -0.2238
    1TMC1     H14347   2.484   1.989  13.263  0.7555  0.4007  1.8858
    1TMC1    H114348   2.140   2.232  13.284 -0.5365  0.9116 -0.1726
    1TMC1    H214349   2.120   1.821  13.419  0.9902  0.3219  0.4781
    1TMC1    C714350   1.973   2.041  13.363 -0.8185  0.0788  0.6620
    1TMC1    C814351   2.365   1.763  13.313  1.2502 -0.0049  0.2411
    1TMC1    O114352   1.931   2.145  13.314  0.3723  0.3171  0.2220
    1TMC1    O214353   2.389   1.736  13.197 -0.1071  0.4729  0.3372
    1TMC1    O314354   1.923   1.921  13.354  0.2805  0.4455  0.0760
    1TMC1    H314355   1.975   1.853  13.402 -0.5536  0.5167  1.0828
    1TMC1    O514356   2.305   1.679  13.402  0.2071  0.6306 -0.4755
    1TMC1    H514357   2.301   1.733  13.484  1.0860  2.1543 -1.4387
    2MPD2     C14358   2.604   2.452  13.261  0.4608  0.5293 -0.0692
    2MPD2    C114359   2.615   2.332  13.319  0.0583  0.4415 -0.0692
    2MPD2    C214360   2.713   2.315  13.417 -0.4256  1.2862 -0.7147
    2MPD2    C314361   2.784   2.422  13.464 -0.3593  0.1812  0.2637
    2MPD2    C414362   2.764   2.548  13.408  0.5921 -0.2865  0.3023
    2MPD2    C514363   2.677   2.564  13.303  0.3782 -0.6142 -0.5436
    2MPD2     H14364   2.706   2.220  13.468 -0.3822  1.2368 -0.8022
    2MPD2    H114365   2.825   2.633  13.439  1.3588 -0.3429 -1.0405
    2MPD2    H214366   2.538   2.466  13.177  0.4826  1.0818  0.0064
    2MPD2    H314367   2.676   2.659  13.251  1.1555 -0.2200  0.1489
    2MPD2     N14368   2.880   2.400  13.566 -0.4743 -0.2116  0.0697
    2MPD2    H514369   2.907   2.311  13.606  2.0539  0.6653  0.3252
    2MPD2    N114370   2.527   2.229  13.305  0.2924  0.0067 -0.5623
    2MPD2    H714371   2.540   2.146  13.362 -1.0511  0.3894  0.2935
    3TCq1    O114372   3.027   2.525  14.130 -0.1664  0.2031 -0.0045
    3TCq1    C114373   3.040   2.394  14.097  0.8349  0.6247  0.0218
    3TCq1    O214374   3.096   2.311  14.166  0.4606  0.3664 -0.2781
    3TCq1    C214375   3.065   2.384  13.956  0.0238 -0.4622 -0.0416
    3TCq1    C314376   3.177   2.314  13.916 -0.1925 -0.1937  0.5074
    3TCq1    C414377   3.204   2.311  13.783  0.2305 -0.4916  0.1134
    3TCq1    C514378   3.121   2.377  13.690  0.8271 -0.2132 -0.6672
    3TCq1    C614379   3.009   2.438  13.740 -0.2562 -0.1721 -0.2349
    3TCq1    C714380   2.983   2.445  13.872  0.4259 -0.1052  0.3056
    3TCq1    C814381   2.919   2.500  13.648  0.8460  0.0317 -0.4139
    3TCq1    O414382   2.875   2.613  13.678 -0.4959 -0.4773  0.1847
    3TCq1    C914383   3.319   2.235  13.724 -0.7174 -0.1725  0.0776
    3TCq1    O514384   3.392   2.168  13.805 -0.3211  1.0722  0.0147
    3TCq1    O614385   3.321   2.229  13.603  0.0479 -0.4196 -0.3487
    3TCq1    H114386   2.998   2.578  14.053 -1.1893  0.9579  0.8973
    3TCq1    H214387   3.241   2.274  13.994  1.4428 -0.0020 -0.7275
    3TCq1    H314388   3.151   2.382  13.586 -0.7998 -0.3410 -1.1443
    3TCq1    H414389   2.892   2.496  13.901 -1.3934 -1.8218 -2.4306
    1MPD2     C14390   2.503   3.616  15.022  0.1722 -0.4373 -1.0769
    1MPD2    C114391   2.403   3.517  15.008  0.3745 -0.2855  0.3369
    1MPD2    C214392   2.443   3.390  15.041 -0.6126  0.6484  0.6074
    1MPD2    C314393   2.562   3.359  15.101 -0.6325 -0.3115 -0.0205
    1MPD2    C414394   2.649   3.456  15.139 -0.5734 -0.2164 -0.1910
    1MPD2    C514395   2.618   3.585  15.095  0.0631 -0.7071 -0.6867
    1MPD2     H14396   2.385   3.300  15.020  1.3209 -0.1551 -1.3164
    1MPD2    H114397   2.740   3.438  15.194 -0.3546 -0.0799 -0.5133
    1MPD2    H214398   2.473   3.716  14.993 -3.2937 -1.2662 -0.3537
    1MPD2    H314399   2.687   3.662  15.130 -0.6289 -1.5981  2.6269
    1MPD2     N14400   2.576   3.221  15.133  0.3991 -0.3200 -0.4888
    1MPD2    H514401   2.507   3.154  15.097 -1.4858  1.0530  0.5641
    1MPD2    N114402   2.290   3.550  14.931  0.1831  0.2177 -0.1018
    1MPD2    H714403   2.292   3.642  14.889 -0.6272  0.3981  0.2577
    2TMC3    C114404   2.076   3.534  14.845  0.5567 -0.0604  0.1942
    2TMC3    C214405   1.957   3.480  14.885 -0.4953 -0.0350  0.6353
    2TMC3    C314406   1.860   3.435  14.802  0.5806  0.8176  0.2431
    2TMC3    C414407   2.099   3.553  14.710 -0.2364  0.6091  0.7532
    2TMC3    C514408   1.997   3.525  14.621 -0.3911  0.1223  0.6057
    2TMC3    C614409   1.879   3.471  14.668 -0.2525  0.3227 -0.3243
    2TMC3     C14410   2.179   3.477  14.923  0.0473 -0.0455  0.1335
    2TMC3     O14411   2.155   3.380  14.996  0.9020 -0.1258 -0.3165
    2TMC3     H14412   1.937   3.450  14.988 -2.2298 -2.3749 -0.3819
    2TMC3    H114413   2.200   3.571  14.674 -0.1579  0.3038  0.8225
    2TMC3    H214414   1.800   3.444  14.599 -0.2492 -0.1150 -0.1512
    2TMC3    C714415   1.986   3.595  14.495 -0.5618 -0.3545 -0.0057
    2TMC3    C814416   1.831   3.295  14.815 -0.1470 -0.7433 -0.0857
    2TMC3    O114417   1.892   3.567  14.423 -0.4551  0.4862 -0.2324
    2TMC3    O214418   1.740   3.252  14.742  0.1112  0.1890  0.2237
    3TCq1    O114419   2.269   4.689  14.180  0.3903  0.0684 -0.1828
    3TCq1    C114420   2.389   4.658  14.228 -0.3749  0.2425 -0.0500
    3TCq1    O214421   2.481   0.000  14.233  0.2931 -0.1864 -0.1257
    3TCq1    C214422   2.395   4.523  14.277  0.3605  0.6928  0.0789
    3TCq1    C314423   2.443   4.512  14.405 -0.0891  0.1488 -0.5353
    3TCq1    C414424   2.424   4.389  14.467  0.0992  0.3154  0.3762
    3TCq1    C514425   2.355   4.292  14.401  0.0054  0.1790  0.0766
    3TCq1    C614426   2.324   4.309  14.273  0.4853  0.4734  0.5062
    3TCq1    C714427   2.333   4.425  14.205 -0.7384 -0.2799  0.7156
    3TCq1    C814428   2.247   4.202  14.206  0.3599 -1.3158  0.2301
    3TCq1    O414429   2.204   4.218  14.095 -0.0456  0.6506 -0.0663
    3TCq1    C914430   2.453   4.381  14.614 -0.2441  0.6009 -0.1656
    3TCq1    O514431   2.407   4.289  14.684 -0.4610 -0.2739 -0.2756
    3TCq1    O614432   2.514   4.479  14.664  0.1057 -0.5603 -0.5190
    3TCq1    H114433   2.190   4.631  14.190  0.7659 -0.3580  0.3145
    3TCq1    H214434   2.487   4.599  14.451  3.3259 -1.8565 -0.0139
    3TCq1    H314435   2.327   4.206  14.462  0.1565  0.2725  0.2780
    3TCq1    H414436   2.317   4.430  14.098 -0.3144 -2.4944  0.5575
    4MPD2     C14437   2.096   3.947  14.155  0.5671 -0.5241  0.1112
    4MPD2    C114438   2.174   3.969  14.266 -0.1311 -0.4821  0.2708
    4MPD2    C214439   2.171   3.888  14.377  0.3301  0.5365  0.3109
    4MPD2    C314440   2.078   3.780  14.377 -0.2011 -0.0877 -0.3239
    4MPD2    C414441   2.015   3.750  14.256 -0.1551 -0.1623 -0.2359
    4MPD2    C514442   2.026   3.834  14.147  0.5928 -0.1309 -0.1638
    4MPD2     H14443   2.224   3.905  14.470  0.5649  0.6947  0.1461
    4MPD2    H114444   1.951   3.665  14.235 -1.0025  0.8868 -1.9475
    4MPD2    H214445   2.101   4.011  14.067  1.0372  1.0389  1.2856
    4MPD2    H314446   1.977   3.807  14.054  0.6248  0.2846 -0.3021
    4MPD2     N14447   2.073   3.695  14.491 -0.5144  0.6628 -0.0640
    4MPD2    H514448   2.142   3.712  14.563 -0.4950  0.7262 -0.0974
    4MPD2    N114449   2.251   4.089  14.283 -0.2121  0.1075 -0.4731
    4MPD2    H714450   2.324   4.091  14.354  0.5039  1.6086 -1.2500
    5TMC2    C114451   2.448   2.919  15.125 -0.5594 -0.6512  0.1919
    5TMC2    C214452   2.402   2.871  15.247  0.2899  0.0665 -0.2188
    5TMC2    C314453   2.475   2.911  15.358  0.4454  0.5124  0.2493
    5TMC2    C414454   2.570   2.987  15.118  1.0246  0.9874 -0.0555
    5TMC2    C514455   2.641   3.032  15.229 -0.6434 -0.1916  0.2559
    5TMC2    C614456   2.583   2.999  15.349  0.0049 -0.2294 -0.5670
    5TMC2     C14457   2.353   2.968  15.032  0.7963  0.8602 -0.1460
    5TMC2     O14458   2.371   3.076  14.980 -0.3385  0.0737  0.9412
    5TMC2     H14459   2.324   2.796  15.258 -0.6224  0.7172 -2.2839
    5TMC2    H114460   2.608   3.003  15.018 -0.9834 -0.8073 -1.0952
    5TMC2    H214461   2.627   3.039  15.439  2.1475 -0.2373 -1.6079
    5TMC2    C714462   2.668   3.169  15.213  0.1345 -0.7108  0.0058
    5TMC2    C814463   2.439   2.845  15.482 -0.2471  0.0403  0.0278
    5TMC2    O114464   2.740   3.225  15.295 -0.2326  0.2788 -0.3627
    5TMC2    O214465   2.524   2.843  15.565 -0.0535 -0.1187  0.2411
    5TMC2    O514466   2.312   2.856  15.503  1.1025 -0.6365  0.0814
    5TMC2    H514467   2.260   2.892  15.428 -0.6684  2.0967  2.6221
    6MPD2     C14468   1.880   3.006  14.836 -0.5936 -0.0768 -0.9175
    6MPD2    C114469   1.961   3.099  14.897  0.0364  0.3059 -0.7057
    6MPD2    C214470   2.076   3.066  14.957 -0.3349 -0.2469  0.1542
    6MPD2    C314471   2.116   2.933  14.966 -0.2871 -0.4732 -0.1000
    6MPD2    C414472   2.024   2.839  14.921 -0.2143 -0.0002  0.4698
    6MPD2    C514473   1.911   2.880  14.862 -1.0019  0.3139  0.4903
    6MPD2     H14474   2.148   3.142  14.984  1.2061 -1.5408 -0.2800
    6MPD2    H114475   2.038   2.732  14.935 -3.4496 -0.6463 -1.4595
    6MPD2    H214476   1.790   3.029  14.779 -0.6284 -0.5681 -1.0650
    6MPD2    H314477   1.856   2.797  14.821 -1.9400  0.6545  1.0680
    6MPD2     N14478   2.238   2.893  15.024  0.4044  0.2400 -0.2606
    6MPD2    H514479   2.234   2.795  15.051 -1.2831 -0.0684 -1.6125
    6MPD2    N114480   1.934   3.233  14.885 -0.3826 -1.2085 -0.0457
    6MPD2    H714481   1.999   3.303  14.919 -2.2314  1.4091 -1.9054
  945NH4     N114482   2.316   0.188  14.012 -0.5438 -0.2065 -0.8074
  945NH4     H214483   2.401   0.142  14.052 -0.2249  0.2759 -0.9269
  945NH4     H314484   2.333   0.286  13.981 -2.8533  0.0602 -1.2005
  945NH4     H414485   2.239   0.185  14.081 -0.8113  1.6718 -1.0324
  945NH4     H514486   2.281   0.126  13.936 -0.7638 -0.2549 -0.6652
  946SOD     NA14487   4.140   2.397   2.580 -0.0180 -0.0643 -0.0917
  947SOD     NA14488   0.487   3.283  14.229 -0.6368 -0.2970  0.0368
  948SOD     NA14489   1.538   4.294  13.188  0.0851  0.0577  0.2139
  949SOD     NA14490   2.243   2.741  15.706 -0.1963 -0.0257 -0.1701
  950SOD     NA14491   4.365   3.392   7.624  0.1435  0.3090  0.0514
  951SOD     NA14492   4.051   3.719   6.336  0.4435  0.2272  0.3431
  952SOD     NA14493   0.178   1.421  12.365 -0.7980  0.2798  0.5413
  953SOL     OW14494   2.512   0.189   1.798 -0.5573 -0.5135  0.1163
  953SOL    HW114495   2.495   0.126   1.869 -1.1715  0.4895  0.8671
  953SOL    HW214496   2.433   0.243   1.794 -0.5807 -0.6154 -0.7704
  954SOL     OW14497   2.539   1.571  12.883  0.1512 -0.5636  0.8595
  954SOL    HW114498   2.455   1.601  12.848 -0.1229 -0.3159  1.7270
  954SOL    HW214499   2.534   1.603  12.974  0.4445  1.0928  0.2852
  955SOL     OW14500   0.580   1.444   2.094 -0.0641  0.3244  0.0009
  955SOL    HW114501   0.607   1.360   2.132  0.5858 -0.3294 -1.9002
  955SOL    HW214502   0.520   1.422   2.022 -0.2102 -1.0492  0.5316
  956SOL     OW14503   0.142   0.122   1.589 -0.5851  0.3935  0.3967
  956SOL    HW114504   0.086   0.072   1.648  0.9278 -1.0923  0.5700
  956SOL    HW214505   0.152   0.059   1.517 -0.4072  1.1244 -0.2276
  957SOL     OW14506   0.351   2.427   5.069  0.3488  0.3319 -0.2392
  957SOL    HW114507   0.403   2.426   5.149 -0.9778 -3.3886  0.5722
  957SOL    HW214508   0.411   2.467   5.006  0.5246  0.0524 -0.2474
  958SOL     OW14509   2.852   0.853   1.210  0.8118 -0.1611  0.1780
  958SOL    HW114510   2.813   0.808   1.135 -0.0938 -0.9563  1.1055
  958SOL    HW214511   2.843   0.942   1.176 -0.7391 -0.9197 -1.3745
  959SOL     OW14512   4.322   0.999   3.758 -0.0125 -0.0056 -1.0379
  959SOL    HW114513   4.324   1.023   3.665 -0.4028 -1.5277 -1.4415
  959SOL    HW214514   4.392   0.934   3.768 -1.3156 -1.2604 -0.0656
  960SOL     OW14515   0.720   1.342  11.215 -0.1838 -0.1325 -0.1480
  960SOL    HW114516   0.700   1.354  11.122  0.7423 -3.7413 -0.7901
  960SOL    HW214517   0.633   1.331  11.254  0.4613  0.8491  1.5842
  961SOL     OW14518   0.734   1.328   3.405 -0.5508 -0.0089  0.1489
  961SOL    HW114519   0.694   1.326   3.318  1.9855 -1.1422 -1.0026
  961SOL    HW214520   0.827   1.315   3.386 -0.9598  0.1157 -1.9462
  962SOL     OW14521   1.510   2.771   7.138  0.4211 -0.0475 -0.3673
  962SOL    HW114522   1.550   2.838   7.082  1.2355 -0.2428 -0.0150
  962SOL    HW214523   1.418   2.776   7.113  0.3689  2.5675  0.3131
  963SOL     OW14524   2.138   3.031   7.889  0.0812  0.1614  0.1698
  963SOL    HW114525   2.171   3.109   7.845  0.4695 -1.0771 -1.7335
  963SOL    HW214526   2.045   3.037   7.868 -0.1722 -0.2784  1.1317
  964SOL     OW14527   0.173   4.344   2.857 -0.2647  0.3227 -0.8068
  964SOL    HW114528   0.083   4.358   2.886  0.2612 -0.1877  1.0879
  964SOL    HW214529   0.167   4.254   2.825  1.1156  0.4932 -1.5405
  965SOL     OW14530   4.007   1.242   4.520 -0.4380 -0.2318  0.0321
  965SOL    HW114531   3.993   1.220   4.427 -1.1542  2.3468 -0.4616
  965SOL    HW214532   3.996   1.336   4.507 -1.1499 -0.1302  1.3653
  966SOL     OW14533   3.482   0.105   4.058  0.1465  0.4674 -0.0343
  966SOL    HW114534   3.445   0.021   4.032  0.3571  0.6868 -1.0459
  966SOL    HW214535   3.433   0.164   4.001  1.2043  1.6999  0.3275
  967SOL     OW14536   0.829   1.569   2.361 -0.0089  0.0017 -0.0203
  967SOL    HW114537   0.738   1.554   2.335  0.5857 -2.1218 -0.9112
  967SOL    HW214538   0.859   1.491   2.407 -0.6968  0.6004  1.4222
  968SOL     OW14539   1.223   3.735   4.845  0.4348 -0.0274 -0.0570
  968SOL    HW114540   1.233   3.767   4.755 -1.3517 -0.5286 -0.4231
  968SOL    HW214541   1.176   3.656   4.820  1.6087 -0.1893 -1.7961
  969SOL     OW14542   4.504   4.052   3.198 -0.4626 -0.4857 -0.1783
  969SOL    HW114543   4.512   3.966   3.157 -1.6938 -0.2775 -0.8772
  969SOL    HW214544   4.492   4.108   3.121  0.8105  1.3340  0.9472
  970SOL     OW14545   1.895   2.074  10.336 -0.2626 -0.2928  0.0016
  970SOL    HW114546   1.859   1.987  10.322  1.5378 -1.6087  3.4074
  970SOL    HW214547   1.825   2.110  10.391  1.3063  3.0718 -0.1996
  971SOL     OW14548   2.459   3.465   3.613 -0.1273  0.3418 -0.2487
  971SOL    HW114549   2.519   3.539   3.622  1.8173 -1.0810 -1.2692
  971SOL    HW214550   2.398   3.504   3.551  1.2707 -0.1737 -1.9450
  972SOL     OW14551   2.691   2.373   1.940  0.4237  0.5251 -0.4499
  972SOL    HW114552   2.775   2.338   1.970 -0.6972  0.1074  2.1739
  972SOL    HW214553   2.708   2.467   1.947  0.9936  0.3847  0.1167
  973SOL     OW14554   0.386   0.450   6.268 -0.1794 -0.0019 -0.3006
  973SOL    HW114555   0.470   0.495   6.267 -0.3040  0.1792 -3.2759
  973SOL    HW214556   0.337   0.483   6.344  1.7653 -1.9263  1.8035
  974SOL     OW14557   4.589   0.072   8.443 -0.0189 -0.0596 -0.1211
  974SOL    HW114558   4.648   0.076   8.519 -3.4019 -0.5007  2.5441
  974SOL    HW214559   4.630   0.145   8.396  0.6152  0.0999  0.6733
  975SOL     OW14560   0.123   1.360   5.429 -0.3728 -0.4670 -0.1155
  975SOL    HW114561   0.179   1.414   5.373  1.6094 -2.0687  0.3212
  975SOL    HW214562   0.149   1.278   5.386 -1.2625 -0.3627 -0.8584
  976SOL     OW14563   0.344   3.611   0.178 -0.4015  0.1214 -0.0753
  976SOL    HW114564   0.251   3.627   0.160  0.0934  2.0073 -1.0091
  976SOL    HW214565   0.348   3.525   0.138  0.6758 -1.2326  2.9773
  977SOL     OW14566   1.518   4.092   4.728 -0.2043  0.2976 -0.4079
  977SOL    HW114567   1.482   4.148   4.798  1.3998  1.3279 -0.4014
  977SOL    HW214568   1.610   4.088   4.754 -0.4214  0.6784  0.4224
  978SOL     OW14569   1.976   0.312   4.608 -0.2696  0.0948  0.0349
  978SOL    HW114570   1.957   0.399   4.574  1.5569 -0.2818 -1.9115
  978SOL    HW214571   1.890   0.269   4.601  0.0183 -0.3516 -0.7652
  979SOL     OW14572   1.476   0.671  12.300  0.4120 -0.1640 -0.0571
  979SOL    HW114573   1.422   0.747  12.279  1.5507  0.6402 -0.0801
  979SOL    HW214574   1.552   0.716  12.264 -0.8550  1.5276 -0.6524
  980SOL     OW14575   3.397   0.475   3.968 -0.0120 -0.1263 -0.6776
  980SOL    HW114576   3.338   0.542   3.932 -2.0725 -2.2641 -1.2390
  980SOL    HW214577   3.368   0.401   3.915  0.0500  0.3936 -1.4389
  981SOL     OW14578   0.756   3.587  15.321 -0.4750 -0.4052 -0.1220
  981SOL    HW114579   0.838   3.541  15.303 -0.2481  0.2582 -0.7654
  981SOL    HW214580   0.700   3.514  15.349  0.5035 -1.1290 -0.0354
  982SOL     OW14581   1.445   1.218   4.557  0.1374  0.6567 -0.3527
  982SOL    HW114582   1.462   1.244   4.466 -2.9736  3.2276 -0.2030
  982SOL    HW214583   1.482   1.129   4.556  0.3860  0.7530  0.5810
  983SOL     OW14584   1.273   0.363   3.193  0.0845  0.0627 -0.2879
  983SOL    HW114585   1.349   0.420   3.183 -0.6890  0.6015 -3.1155
  983SOL    HW214586   1.255   0.330   3.105 -0.7283 -1.0127  0.2814
  984SOL     OW14587   3.656   0.255   3.225 -0.6623  0.1615  0.0830
  984SOL    HW114588   3.636   0.167   3.256  2.6889 -0.8623 -0.6417
  984SOL    HW214589   3.714   0.287   3.294 -1.1248  0.1757  0.4682
  985SOL     OW14590   2.820   3.835   2.665  0.3530  0.4385 -0.3384
  985SOL    HW114591   2.857   3.768   2.608  0.6354  0.3505 -0.0550
  985SOL    HW214592   2.747   3.789   2.707  0.6415  0.2951  0.0089
  986SOL     OW14593   0.558   4.171   6.803 -0.3325 -0.3760 -0.2250
  986SOL    HW114594   0.547   4.116   6.725 -0.2499 -1.4289  0.5043
  986SOL    HW214595   0.471   4.170   6.841 -0.6489  0.0327 -0.9420
  987SOL     OW14596   2.624   3.378  10.960 -0.2726 -0.2132  0.1630
  987SOL    HW114597   2.708   3.334  10.970 -0.5511 -0.8115 -0.1367
  987SOL    HW214598   2.628   3.409  10.870 -2.4051  2.2428  0.9110
  988SOL     OW14599   2.600   2.487   5.161  0.1707 -0.4122 -0.1925
  988SOL    HW114600   2.684   2.482   5.115 -0.5633  0.0459 -1.6098
  988SOL    HW214601   2.534   2.482   5.092  0.4437 -1.8551 -0.3303
  989SOL     OW14602   3.841   3.231  14.740  0.4034  0.0415 -0.1604
  989SOL    HW114603   3.810   3.196  14.823  0.3604  2.1731  0.7165
  989SOL    HW214604   3.858   3.319  14.772  2.8787  0.4033 -2.4575
  990SOL     OW14605   4.203   3.109   4.494 -0.1742  0.0002  0.2784
  990SOL    HW114606   4.197   3.077   4.584 -2.5191  1.6280  0.6984
  990SOL    HW214607   4.132   3.060   4.453  0.5182 -0.5710 -0.2228
  991SOL     OW14608   2.140   1.114   6.561  0.3414 -0.1972 -0.7280
  991SOL    HW114609   2.220   1.066   6.580 -1.5956 -2.5001  1.6009
  991SOL    HW214610   2.130   1.170   6.638  0.2817 -0.4702 -0.5390
  992SOL     OW14611   0.353   1.217   5.591  0.3333  0.4073  0.6413
  992SOL    HW114612   0.367   1.135   5.639  2.5849  0.4871  0.1384
  992SOL    HW214613   0.327   1.275   5.663 -0.1440  2.3360 -1.1009
  993SOL     OW14614   0.295   3.758   9.603  0.5642  0.1007  0.2582
  993SOL    HW114615   0.299   3.796   9.691 -0.7246  1.1137 -0.1271
  993SOL    HW214616   0.218   3.808   9.575  1.8076  3.0033  1.9478
  994SOL     OW14617   3.431   3.647   6.139  0.0366 -0.0664 -0.0788
  994SOL    HW114618   3.398   3.568   6.182 -0.2713  1.2325  2.0674
  994SOL    HW214619   3.524   3.655   6.160  1.0511 -3.2851 -3.1796
  995SOL     OW14620   3.797   1.791  17.320  0.2212 -0.5118 -0.6540
  995SOL    HW114621   3.712   1.829  17.295  1.2032  1.1148 -1.4970
  995SOL    HW214622   3.824   1.735  17.247 -0.7343 -1.3163 -0.3843
  996SOL     OW14623   3.195   2.771   4.305 -0.1339 -0.3451  0.4676
  996SOL    HW114624   3.154   2.857   4.311 -1.3397 -0.8902  0.1284
  996SOL    HW214625   3.231   2.753   4.392  1.8441 -0.8954 -0.4563
  997SOL     OW14626   2.264   0.723   4.283 -0.0169 -0.2162  0.9099
  997SOL    HW114627   2.341   0.779   4.295 -1.6692  2.4872 -1.2683
  997SOL    HW214628   2.259   0.700   4.376 -1.2719  0.5581  1.0287
  998SOL     OW14629   4.643   3.688   6.842  0.1239 -0.2022  0.8081
  998SOL    HW114630   4.616   3.598   6.822  1.6803 -0.4391 -0.3072
  998SOL    HW214631   4.562   3.728   6.873  0.0151  1.2410 -1.3681
  999SOL     OW14632   4.029   1.912   4.316  0.4164 -0.0506 -0.0267
  999SOL    HW114633   4.049   1.952   4.231  0.5554  0.4481  0.2417
  999SOL    HW214634   3.977   1.834   4.295  0.5327 -0.4288  1.1140
 1000SOL     OW14635   0.749   4.290   1.707 -0.6813  0.1721  0.1794
 1000SOL    HW114636   0.748   4.195   1.707 -0.2354  0.1475  3.6225
 1000SOL    HW214637   0.844   4.300   1.708 -0.7870  1.0455  2.4542
 1001SOL     OW14638   3.287   1.978  11.703 -1.0118  1.0503  0.4761
 1001SOL    HW114639   3.365   1.955  11.653 -0.6025  1.2704  1.0154
 1001SOL    HW214640   3.267   2.070  11.682  0.7324  0.7838 -2.3493
 1002SOL     OW14641   1.804   0.647   9.519  0.0917  0.3241 -0.1152
 1002SOL    HW114642   1.848   0.636   9.435 -2.3470 -2.1802 -1.0957
 1002SOL    HW214643   1.823   0.560   9.556  1.1304  0.1259 -1.1202
 1003SOL     OW14644   2.430   1.871   3.850  0.1806  0.0104 -0.0459
 1003SOL    HW114645   2.435   1.894   3.942 -2.5620  0.2570  0.0502
 1003SOL    HW214646   2.477   1.946   3.815  1.2466 -0.9909 -0.7795
 1004SOL     OW14647   4.342   2.869   6.931 -0.1997 -0.0730 -0.5376
 1004SOL    HW114648   4.356   2.782   6.893 -1.0211  1.0455 -3.3494
 1004SOL    HW214649   4.389   2.927   6.871 -1.8528  1.2741 -0.5244
 1005SOL     OW14650   3.360   3.906  10.131 -0.1756 -0.7128 -0.2205
 1005SOL    HW114651   3.430   3.932  10.191 -0.8054 -0.8651  0.5924
 1005SOL    HW214652   3.377   3.811  10.129 -0.3760 -0.7439 -0.4208
 1006SOL     OW14653   3.168   4.679   0.497  0.4160 -0.2595  0.1500
 1006SOL    HW114654   3.081   4.665   0.534  0.4549  1.0244  0.7289
 1006SOL    HW214655   3.148   4.697   0.406 -0.9027  1.8182  0.8410
 1007SOL     OW14656   2.850   1.807   2.225 -0.5591 -0.3475 -0.1596
 1007SOL    HW114657   2.866   1.720   2.189 -0.3740  0.8985 -3.0264
 1007SOL    HW214658   2.924   1.814   2.285 -0.6034 -0.9448 -0.0380
 1008SOL     OW14659   1.353   0.597   4.184 -0.1276 -0.1190  0.0645
 1008SOL    HW114660   1.348   0.605   4.088 -0.4960  0.8501  0.1641
 1008SOL    HW214661   1.394   0.512   4.196 -1.5694 -1.3450 -3.6164
 1009SOL     OW14662   1.102   2.519   3.871  0.4198  0.4068  0.0017
 1009SOL    HW114663   1.028   2.458   3.868  0.8280 -0.0990  0.2938
 1009SOL    HW214664   1.141   2.478   3.948  0.3414  0.4043  0.0403
 1010SOL     OW14665   0.155   3.547   6.319 -0.5849  0.1758 -0.0682
 1010SOL    HW114666   0.147   3.525   6.412  0.2511 -0.6040 -0.1773
 1010SOL    HW214667   0.250   3.551   6.307 -0.4584  0.9420  1.2307
 1011SOL     OW14668   2.778   1.969   1.790  0.0856 -0.1520 -0.4109
 1011SOL    HW114669   2.840   1.908   1.750 -1.3277 -2.4821  0.9473
 1011SOL    HW214670   2.757   2.017   1.710 -1.1297 -0.2167 -0.1304
 1012SOL     OW14671   3.936   2.311   4.254  0.2081 -0.6570 -0.2556
 1012SOL    HW114672   4.022   2.275   4.235 -0.1179 -1.6512  0.1341
 1012SOL    HW214673   3.945   2.399   4.216  0.6834  0.1713  1.7377
 1013SOL     OW14674   1.201   0.158   6.544  0.2253 -0.2830 -0.8911
 1013SOL    HW114675   1.221   0.097   6.473  0.0525  0.1516 -1.3151
 1013SOL    HW214676   1.116   0.138   6.583  0.7625 -1.1979 -0.1979
 1014SOL     OW14677   0.088   1.419   2.855 -0.2483  0.0751  0.3336
 1014SOL    HW114678   0.071   1.496   2.910  0.7780  1.2443 -0.9922
 1014SOL    HW214679   0.094   1.467   2.773 -2.2352  2.0403  1.3353
 1015SOL     OW14680   1.246   3.590   7.177 -0.0755  0.2941 -0.7821
 1015SOL    HW114681   1.326   3.554   7.215 -0.6060  0.4067  0.4424
 1015SOL    HW214682   1.240   3.684   7.192  4.2806  0.7829 -2.0316
 1016SOL     OW14683   0.112   0.515   7.791  0.4810 -0.3678 -0.8373
 1016SOL    HW114684   0.112   0.554   7.878 -1.3913 -2.4304  0.0715
 1016SOL    HW214685   0.201   0.528   7.758  1.2834 -1.1895  1.0224
 1017SOL     OW14686   0.836   0.881   2.505 -0.0136 -0.2607 -0.0182
 1017SOL    HW114687   0.907   0.818   2.511  1.0168  0.9919  0.9211
 1017SOL    HW214688   0.856   0.945   2.574 -1.3558 -1.3225  1.3664
 1018SOL     OW14689   2.284   3.183   3.679  0.4470  0.0007 -0.1163
 1018SOL    HW114690   2.229   3.199   3.602 -1.2804  0.5740  1.2480
 1018SOL    HW214691   2.267   3.093   3.705  1.9015 -0.4224 -0.6316
 1019SOL     OW14692   3.148   3.401   6.051 -0.2835  0.0908  0.6166
 1019SOL    HW114693   3.165   3.405   5.957  1.7317  1.0226  1.0118
 1019SOL    HW214694   3.181   3.311   6.055 -0.8203 -0.1274 -0.0240
 1020SOL     OW14695   3.693   1.324   9.891  0.1186 -0.1085  0.0033
 1020SOL    HW114696   3.665   1.243   9.933 -0.6363 -0.3067 -0.8731
 1020SOL    HW214697   3.637   1.324   9.813  0.9738  1.2620 -0.6144
 1021SOL     OW14698   0.777   1.519   5.389  0.5233  0.2176  0.2656
 1021SOL    HW114699   0.842   1.585   5.366  1.1074 -0.2558  0.5653
 1021SOL    HW214700   0.705   1.579   5.409  1.0911  0.9026  0.2552
 1022SOL     OW14701   2.017   0.716  15.819 -0.2754 -0.4431 -0.0038
 1022SOL    HW114702   2.014   0.629  15.858 -2.2562 -0.6354 -0.6030
 1022SOL    HW214703   1.936   0.752  15.856  0.0378 -0.1344  0.3799
 1023SOL     OW14704   3.299   0.060   2.664 -0.2991 -0.6860 -0.3906
 1023SOL    HW114705   3.376   0.027   2.618  1.8196  2.3345  0.9649
 1023SOL    HW214706   3.331   0.127   2.725 -1.6233  0.1268 -0.5782
 1024SOL     OW14707   0.459   1.146   7.250 -0.0075  0.1111  0.3738
 1024SOL    HW114708   0.398   1.103   7.310  0.2293 -1.6630 -0.6805
 1024SOL    HW214709   0.542   1.105   7.275  0.2084  0.1743 -0.2402
 1025SOL     OW14710   3.074   3.151  17.719  0.0780 -0.2203  0.3017
 1025SOL    HW114711   3.083   3.227  17.662 -1.8854  0.1981  0.5648
 1025SOL    HW214712   3.048   3.082  17.658  0.5450 -1.7611  1.8418
 1026SOL     OW14713   0.285   1.548  16.835  0.5296 -0.2106 -0.0291
 1026SOL    HW114714   0.262   1.489  16.906  0.0597 -0.4155 -0.3485
 1026SOL    HW214715   0.210   1.531  16.778 -1.0046  1.4533  1.4755
 1027SOL     OW14716   4.006   4.390  10.085 -0.0569  0.6165  0.5346
 1027SOL    HW114717   4.080   4.423  10.136  1.9009 -1.9629 -0.6260
 1027SOL    HW214718   3.967   4.331  10.150 -0.7386 -2.3021 -2.5635
 1028SOL     OW14719   3.531   0.635   0.317 -0.0293 -0.0171  0.1215
 1028SOL    HW114720   3.484   0.577   0.257 -1.4976  0.9086  0.3792
 1028SOL    HW214721   3.477   0.652   0.394 -0.8720  1.2476 -0.7599
 1029SOL     OW14722   3.826   2.673   3.596  0.4134 -0.2405 -0.7543
 1029SOL    HW114723   3.732   2.661   3.586  0.3411  1.5034 -2.2612
 1029SOL    HW214724   3.831   2.768   3.589  0.0139 -0.1317  0.5157
 1030SOL     OW14725   1.820   1.213  14.216  0.2947  0.1480  0.0188
 1030SOL    HW114726   1.802   1.142  14.278  0.1604  0.7314  0.6453
 1030SOL    HW214727   1.782   1.291  14.257  0.9290 -0.2394  1.3302
 1031SOL     OW14728   0.630   3.685   7.172 -0.3482 -0.2576 -0.0300
 1031SOL    HW114729   0.663   3.603   7.207 -0.7895 -0.4768 -0.1237
 1031SOL    HW214730   0.710   3.733   7.153 -0.2052 -0.9544 -1.1825
 1032SOL     OW14731   2.495   0.654   9.901 -0.1038  0.0208  0.0290
 1032SOL    HW114732   2.482   0.632   9.993 -1.0553  0.5159  0.0156
 1032SOL    HW214733   2.458   0.573   9.865  0.3904  0.4692 -1.5121
 1033SOL     OW14734   1.611   1.831   0.166 -0.3702 -0.4872  0.4230
 1033SOL    HW114735   1.629   1.879   0.085 -0.5707  0.0235  0.6832
 1033SOL    HW214736   1.635   1.888   0.238  1.9231 -1.8804  0.7498
 1034SOL     OW14737   4.279   0.117   8.170  0.8135  0.9357 -0.0225
 1034SOL    HW114738   4.356   0.143   8.220  0.3646  0.8487  0.7049
 1034SOL    HW214739   4.321   0.082   8.091 -0.6136  0.8811 -0.7712
 1035SOL     OW14740   3.748   4.407   3.629 -0.2533  0.0912 -0.2774
 1035SOL    HW114741   3.788   4.368   3.551  0.9568 -1.8495  1.2950
 1035SOL    HW214742   3.829   4.399   3.680 -1.0128  1.2510  1.1099
 1036SOL     OW14743   0.347   0.820  15.575  0.1563 -0.1629  0.0442
 1036SOL    HW114744   0.302   0.905  15.582  0.2572 -0.0898 -0.1794
 1036SOL    HW214745   0.416   0.837  15.638 -0.8652  2.5221  0.4462
 1037SOL     OW14746   3.815   4.407   4.682  0.1681 -0.2238  0.0494
 1037SOL    HW114747   3.757   4.454   4.623  2.7249  0.7758 -1.6583
 1037SOL    HW214748   3.783   4.426   4.770 -0.6511  1.8875 -0.7000
 1038SOL     OW14749   1.738   2.022  14.320  0.1538 -0.2372  0.4563
 1038SOL    HW114750   1.669   1.997  14.258  0.3014  0.2821  0.0797
 1038SOL    HW214751   1.778   2.100  14.281  1.3324 -1.3149 -0.5044
 1039SOL     OW14752   3.854   0.527   6.184  0.9239 -0.2833  0.2511
 1039SOL    HW114753   3.851   0.432   6.193 -0.3006 -0.2932 -0.2995
 1039SOL    HW214754   3.831   0.547   6.093 -3.6074  1.0352  1.7091
 1040SOL     OW14755   3.646   0.799  12.931 -0.0984 -0.0814  0.9852
 1040SOL    HW114756   3.579   0.868  12.922  1.9439  1.7102 -0.3947
 1040SOL    HW214757   3.608   0.762  13.011 -0.5532 -1.0483  0.3214
 1041SOL     OW14758   4.459   2.295   7.480 -0.3171  0.0828  0.9888
 1041SOL    HW114759   4.403   2.372   7.491 -2.7092 -1.5933  0.6427
 1041SOL    HW214760   4.466   2.275   7.573 -3.2869  0.4349  1.2968
 1042SOL     OW14761   1.946   0.484   1.204 -0.4011 -0.0664  0.0731
 1042SOL    HW114762   1.921   0.439   1.284 -2.1291  0.2579 -0.2660
 1042SOL    HW214763   1.908   0.570   1.224 -0.9084  0.2417 -2.1859
 1043SOL     OW14764   2.193   1.795  14.126  0.0606  0.3014  0.4985
 1043SOL    HW114765   2.167   1.822  14.214 -2.2656 -1.0288  0.2229
 1043SOL    HW214766   2.195   1.700  14.141  2.1741  0.2261 -0.3778
 1044SOL     OW14767   3.068   0.844   0.805  0.2867 -0.4344 -0.7135
 1044SOL    HW114768   3.073   0.757   0.843  0.2358  0.0736  0.4598
 1044SOL    HW214769   3.045   0.899   0.880  2.0893 -0.0478 -0.4183
 1045SOL     OW14770   3.720   3.979  13.227  0.0549  0.2218  0.1826
 1045SOL    HW114771   3.753   3.995  13.315  0.5169  0.4963 -0.0390
 1045SOL    HW214772   3.625   3.976  13.230 -0.0205  0.0021 -2.3083
 1046SOL     OW14773   0.808   1.872  12.703 -0.2212 -0.2268  0.3273
 1046SOL    HW114774   0.868   1.891  12.776 -0.8991  1.5689  0.4182
 1046SOL    HW214775   0.843   1.797  12.654 -0.1986 -0.0261  0.0369
 1047SOL     OW14776   0.873   1.209   2.217 -0.1897  0.2834  0.2996
 1047SOL    HW114777   0.931   1.268   2.170 -0.8357  1.1145  0.5399
 1047SOL    HW214778   0.890   1.224   2.311 -0.4228  0.9334  0.2385
 1048SOL     OW14779   1.082   4.101   6.785 -0.1903  0.5978 -0.0124
 1048SOL    HW114780   1.079   4.051   6.703  0.2213 -0.0115  0.3426
 1048SOL    HW214781   0.997   4.145   6.785 -0.2119  0.5363 -2.1345
 1049SOL     OW14782   1.789   3.313   7.339 -0.1669 -0.1859  0.7270
 1049SOL    HW114783   1.731   3.382   7.306  1.7720  1.0687 -0.0698
 1049SOL    HW214784   1.796   3.353   7.426  2.3338  1.9685 -0.4786
 1050SOL     OW14785   3.126   0.386   6.520 -0.2068  0.1308  0.2717
 1050SOL    HW114786   3.168   0.451   6.576  2.1829 -1.5883  0.4746
 1050SOL    HW214787   3.169   0.407   6.437  0.1318  0.7661  0.6097
 1051SOL     OW14788   1.366   3.154   9.261 -0.3953  0.6147  0.0687
 1051SOL    HW114789   1.290   3.203   9.293 -0.7318  1.3965 -1.9698
 1051SOL    HW214790   1.366   3.167   9.166 -0.0064 -0.9017 -0.1528
 1052SOL     OW14791   3.435   0.486   8.275 -0.2983 -0.0903 -0.1820
 1052SOL    HW114792   3.432   0.400   8.315 -0.2807 -0.4843 -1.0323
 1052SOL    HW214793   3.341   0.502   8.278 -0.2994  0.1470 -1.6172
 1053SOL     OW14794   1.041   4.210   8.057 -0.4870  0.0089 -0.1897
 1053SOL    HW114795   1.114   4.150   8.070 -0.1151  0.6519  0.6574
 1053SOL    HW214796   1.085   4.295   8.056 -0.3117 -0.0939 -1.8219
 1054SOL     OW14797   4.171   2.630   5.174  0.5105  0.0055 -0.0729
 1054SOL    HW114798   4.165   2.575   5.097  1.9215 -0.3593  0.0831
 1054SOL    HW214799   4.123   2.708   5.146 -0.5206 -1.1915 -1.6057
 1055SOL     OW14800   0.271   0.358   2.502  0.3403  0.4871 -0.3811
 1055SOL    HW114801   0.353   0.311   2.517  0.1168  1.1934  2.9863
 1055SOL    HW214802   0.209   0.320   2.564  0.6001  0.7998  0.0697
 1056SOL     OW14803   2.727   1.186  17.016 -0.0325 -0.4649 -0.2437
 1056SOL    HW114804   2.704   1.264  16.966  2.7963  1.3845  1.2834
 1056SOL    HW214805   2.670   1.206  17.090 -1.6246 -0.8448 -1.3904
 1057SOL     OW14806   0.811   2.519   8.486  0.1373 -0.1008 -0.2601
 1057SOL    HW114807   0.794   2.464   8.562  0.1335 -2.2626 -1.8284
 1057SOL    HW214808   0.801   2.600   8.536 -0.3493 -0.2538 -0.1155
 1058SOL     OW14809   1.156   4.013  10.053  0.3319  0.0664 -0.0516
 1058SOL    HW114810   1.104   3.937  10.027  0.3017  0.4452 -1.0992
 1058SOL    HW214811   1.202   3.989  10.134 -1.3798 -0.9093  0.6306
 1059SOL     OW14812   3.721   0.288   9.558  0.2270 -0.0522  0.1268
 1059SOL    HW114813   3.735   0.216   9.619  2.4420 -1.3366 -1.9232
 1059SOL    HW214814   3.805   0.302   9.515 -0.0343  0.3791 -0.2455
 1060SOL     OW14815   0.487   1.896   7.542 -0.0006  0.0182 -0.4962
 1060SOL    HW114816   0.413   1.914   7.600 -0.4302 -0.4995 -0.8735
 1060SOL    HW214817   0.537   1.977   7.552 -0.6323  0.5689 -1.6701
 1061SOL     OW14818   4.557   4.252   5.702 -0.2295 -0.4970  0.1083
 1061SOL    HW114819   4.597   4.305   5.633 -1.3627 -0.5660 -0.6019
 1061SOL    HW214820   4.471   4.289   5.685  0.5999  1.9006  1.2521
 1062SOL     OW14821   2.004   3.006   6.655  0.8287 -0.4278  0.2060
 1062SOL    HW114822   2.097   3.025   6.649  0.8261 -0.4212  0.1868
 1062SOL    HW214823   1.993   3.000   6.560  0.4750  0.4893  0.1863
 1063SOL     OW14824   3.173   2.110   2.210 -0.3126  0.4194  0.0629
 1063SOL    HW114825   3.153   2.057   2.133 -0.2052 -0.7899  0.8658
 1063SOL    HW214826   3.190   2.193   2.165  1.2013 -0.2095 -0.5203
 1064SOL     OW14827   0.681   1.705   7.656  0.2908  0.1488 -0.0121
 1064SOL    HW114828   0.709   1.753   7.734 -2.1042  1.4216  0.0569
 1064SOL    HW214829   0.625   1.771   7.616  1.3143 -0.8036 -3.0347
 1065SOL     OW14830   1.137   0.755   8.310 -0.0351  0.2865 -0.2245
 1065SOL    HW114831   1.112   0.731   8.221 -0.5373  0.7275 -0.2061
 1065SOL    HW214832   1.232   0.756   8.301 -0.0947  1.2014 -0.6839
 1066SOL     OW14833   2.690   0.168  14.128 -0.2254 -0.0944  0.2587
 1066SOL    HW114834   2.721   0.184  14.039  0.8090  0.1684  0.6652
 1066SOL    HW214835   2.623   0.100  14.119  1.2736 -1.7872  2.0241
 1067SOL     OW14836   2.333   2.856   3.965  0.1386 -0.3874 -0.6589
 1067SOL    HW114837   2.248   2.812   3.968  0.2171 -0.5077 -0.2672
 1067SOL    HW214838   2.321   2.944   4.000  0.4585 -0.5029 -0.2678
 1068SOL     OW14839   3.899   1.130   6.019 -0.2445  0.3490  0.5997
 1068SOL    HW114840   3.862   1.044   6.039 -0.1915 -0.0848 -1.1995
 1068SOL    HW214841   3.915   1.119   5.925  1.3153 -1.6560  1.1034
 1069SOL     OW14842   1.203   1.426   3.856 -0.2277  0.3036 -0.3411
 1069SOL    HW114843   1.275   1.380   3.899  0.9377  0.3500 -2.2777
 1069SOL    HW214844   1.130   1.371   3.884 -1.0409 -0.2536 -3.6183
 1070SOL     OW14845   2.383   1.611   3.761  0.4484 -0.0279 -0.3137
 1070SOL    HW114846   2.409   1.699   3.788  3.0520 -0.9875  0.3360
 1070SOL    HW214847   2.467   1.566   3.746  0.8829  0.9769 -0.9278
 1071SOL     OW14848   3.221   1.861   2.639 -0.1808 -0.0916  0.3144
 1071SOL    HW114849   3.282   1.794   2.670 -0.8552 -1.4868 -1.3924
 1071SOL    HW214850   3.165   1.870   2.716 -0.2810 -0.7629  0.3200
 1072SOL     OW14851   1.552   0.486  14.872  0.1393  0.2000 -0.5213
 1072SOL    HW114852   1.574   0.397  14.898 -0.6545  0.0504 -0.3675
 1072SOL    HW214853   1.465   0.493  14.911 -0.3945 -0.7349 -1.5302
 1073SOL     OW14854   0.400   0.989   5.749  0.2642 -0.0055  0.1174
 1073SOL    HW114855   0.463   1.012   5.818 -0.2756 -1.3430  1.0682
 1073SOL    HW214856   0.445   0.929   5.690  0.7968 -0.0344  0.5519
 1074SOL     OW14857   1.659   2.521   4.068  0.0883 -0.7394  0.1835
 1074SOL    HW114858   1.610   2.593   4.109 -0.0327  0.5711 -2.2597
 1074SOL    HW214859   1.583   2.472   4.036 -0.6142 -1.1004  2.4430
 1075SOL     OW14860   3.114   2.695   6.001 -0.4940 -0.1749 -0.3125
 1075SOL    HW114861   3.047   2.747   6.047 -0.8765 -0.2103 -0.8280
 1075SOL    HW214862   3.158   2.758   5.944  0.8199 -1.7774 -1.0404
 1076SOL     OW14863   0.987   1.908   2.763  0.3357  0.0727  0.0860
 1076SOL    HW114864   0.919   1.899   2.697  0.5261  2.4217 -0.4573
 1076SOL    HW214865   1.011   2.000   2.746  0.1377 -0.0071 -0.6571
 1077SOL     OW14866   4.176   3.608   8.371  0.1867  0.2837 -0.4284
 1077SOL    HW114867   4.125   3.681   8.407 -0.5707  0.1767 -1.2886
 1077SOL    HW214868   4.238   3.659   8.318  2.2410 -1.6415  0.1201
 1078SOL     OW14869   3.633   0.109   3.769 -0.2799  0.2908 -0.0508
 1078SOL    HW114870   3.538   0.123   3.776  0.0260  1.9974  0.5842
 1078SOL    HW214871   3.639   0.091   3.675 -2.1861  0.6348 -0.2487
 1079SOL     OW14872   0.365   0.160   1.326  0.3486  0.6315 -0.3348
 1079SOL    HW114873   0.276   0.132   1.348  0.3094  2.5882  2.0099
 1079SOL    HW214874   0.379   0.127   1.237  0.5087 -1.2894  0.4213
 1080SOL     OW14875   3.820   3.475   9.746  0.3624 -0.6439  0.1343
 1080SOL    HW114876   3.848   3.428   9.668  0.7775  1.7366 -1.1768
 1080SOL    HW214877   3.904   3.511   9.775 -0.3042  0.4649  0.6971
 1081SOL     OW14878   3.377   4.425   5.195  0.1465 -0.2329  0.2708
 1081SOL    HW114879   3.431   4.444   5.272  0.5803  2.6394 -0.7396
 1081SOL    HW214880   3.383   4.508   5.149 -1.1035  0.5827  1.5849
 1082SOL     OW14881   0.302   0.224   4.114  0.6532 -0.3050 -0.6864
 1082SOL    HW114882   0.383   0.273   4.128  0.6664 -0.7138  0.6497
 1082SOL    HW214883   0.259   0.221   4.199  2.0858  0.7225  0.0671
 1083SOL     OW14884   0.482   2.415   9.099 -0.1474 -0.2147  0.0088
 1083SOL    HW114885   0.567   2.402   9.143 -0.6160 -0.4457  0.8440
 1083SOL    HW214886   0.420   2.381   9.164 -0.7467 -1.4196 -1.1997
 1084SOL     OW14887   4.734   3.610   2.523 -0.5101  0.5850 -0.4935
 1084SOL    HW114888   4.719   3.530   2.573 -1.3506  0.3918 -1.0480
 1084SOL    HW214889   0.077   3.646   2.555 -0.6822 -0.3818  1.0361
 1085SOL     OW14890   1.159   2.804  15.983  0.7056 -0.3230  0.6289
 1085SOL    HW114891   1.200   2.801  16.069 -0.0912  0.6817  1.0393
 1085SOL    HW214892   1.069   2.827  16.005  0.4823  0.9324 -1.5398
 1086SOL     OW14893   0.477   0.223  10.358  0.1443  0.5184 -0.2432
 1086SOL    HW114894   0.512   0.142  10.323  0.5976  1.3000 -1.5941
 1086SOL    HW214895   0.543   0.291  10.345 -0.5784  1.2329 -0.2582
 1087SOL     OW14896   4.068   2.667   7.666  0.7415 -0.0831  0.1934
 1087SOL    HW114897   3.974   2.683   7.670  0.8573  0.7065 -0.1922
 1087SOL    HW214898   4.094   2.753   7.699 -1.0167  0.3260  0.4984
 1088SOL     OW14899   3.085   0.762   4.996 -0.7603  0.3942 -0.0695
 1088SOL    HW114900   3.171   0.801   5.006 -0.6677  0.0978  0.2979
 1088SOL    HW214901   3.096   0.674   5.032 -1.1273 -0.6817 -2.5267
 1089SOL     OW14902   3.769   2.793   4.294  0.4772  0.4051 -0.4564
 1089SOL    HW114903   3.768   2.768   4.201  1.2282  1.1322 -0.6604
 1089SOL    HW214904   3.685   2.838   4.294 -0.2734 -1.0036 -3.9405
 1090SOL     OW14905   3.770   4.219   8.306  0.1325 -0.0917 -0.3006
 1090SOL    HW114906   3.768   4.260   8.392  1.2343 -1.9654  0.6236
 1090SOL    HW214907   3.781   4.128   8.336 -0.0162 -0.0302 -0.0682
 1091SOL     OW14908   4.357   1.095   1.833  0.6500 -0.4402 -0.2643
 1091SOL    HW114909   4.395   1.170   1.787 -0.7620 -0.1695 -0.9564
 1091SOL    HW214910   4.420   1.084   1.905  2.8504 -0.6027 -2.2107
 1092SOL     OW14911   3.672   1.551   6.891 -0.1717  0.1311  0.1908
 1092SOL    HW114912   3.693   1.458   6.881 -0.0328  0.1117  0.6869
 1092SOL    HW214913   3.684   1.580   6.800 -2.2263  1.9047  0.4915
 1093SOL     OW14914   1.416   4.482  13.102  0.4666 -0.9768  0.5190
 1093SOL    HW114915   1.434   4.516  13.015  0.3858  0.8086  1.2060
 1093SOL    HW214916   1.367   4.554  13.142 -1.2026 -1.6198 -0.4045
 1094SOL     OW14917   4.639   0.879  16.764 -0.3826 -0.7106  0.3212
 1094SOL    HW114918   4.611   0.945  16.828  0.6229  0.0771 -0.0625
 1094SOL    HW214919   4.729   0.906  16.746 -0.7555  0.7126  0.5949
 1095SOL     OW14920   1.618   1.075  12.365 -0.5818  0.3787  0.5645
 1095SOL    HW114921   1.599   1.004  12.304 -0.0599  2.0357 -1.5246
 1095SOL    HW214922   1.637   1.022  12.442  2.4550 -0.4392 -0.7582
 1096SOL     OW14923   3.060   2.647   1.336 -0.6965 -0.0398 -0.6037
 1096SOL    HW114924   3.004   2.651   1.258 -0.5000  0.0133 -0.7416
 1096SOL    HW214925   2.990   2.616   1.394  0.1200  0.3748  0.6051
 1097SOL     OW14926   1.044   4.305   1.709 -0.3931 -0.2848 -0.4822
 1097SOL    HW114927   1.034   4.358   1.789  0.1109  0.2174 -0.7449
 1097SOL    HW214928   1.109   4.240   1.734 -2.1365 -0.7653  2.7068
 1098SOL     OW14929   2.919   1.470  15.812 -0.0720  0.1748  0.2136
 1098SOL    HW114930   3.004   1.426  15.821  0.0463  0.5760  1.0852
 1098SOL    HW214931   2.936   1.564  15.818 -2.7413  0.6274  0.5275
 1099SOL     OW14932   4.172   0.051   2.621 -0.9481  0.2585  0.6176
 1099SOL    HW114933   4.111   0.027   2.552 -0.7993  0.8236  0.2939
 1099SOL    HW214934   4.259   0.055   2.581 -1.1563  0.4759  0.1944
 1100SOL     OW14935   4.245   4.192   4.706  0.3258  0.3470 -0.2556
 1100SOL    HW114936   4.213   4.223   4.791 -0.7803 -2.6850  0.4202
 1100SOL    HW214937   4.233   4.099   4.721  3.8539 -0.1592 -0.5686
 1101SOL     OW14938   3.583   0.054   7.201  0.0968 -0.1036  0.4084
 1101SOL    HW114939   3.555   0.071   7.111 -4.9455 -1.8974  1.6820
 1101SOL    HW214940   3.558   0.133   7.249 -0.8073 -0.4920  0.5661
 1102SOL     OW14941   4.718   3.814  17.001 -0.4821 -0.1463 -0.4896
 1102SOL    HW114942   4.730   3.905  17.026 -0.5956  0.4104 -2.4934
 1102SOL    HW214943   4.704   3.833  16.908  2.1129  0.2097 -0.8118
 1103SOL     OW14944   3.214   3.420   8.736  0.2545 -0.3949 -0.4101
 1103SOL    HW114945   3.275   3.354   8.768 -0.2536 -1.2412 -1.1843
 1103SOL    HW214946   3.137   3.406   8.791  0.3652  1.1876  0.1686
 1104SOL     OW14947   0.903   1.313   1.890  0.0939  0.1563  0.0410
 1104SOL    HW114948   0.997   1.309   1.905  0.5326 -1.4795 -3.1433
 1104SOL    HW214949   0.881   1.220   1.898 -0.6603  0.3825  0.5943
 1105SOL     OW14950   1.056   2.053  15.987  0.2778 -0.2971 -0.1968
 1105SOL    HW114951   0.976   2.084  16.028  1.2044 -1.3517  2.3931
 1105SOL    HW214952   1.111   2.122  16.024  1.8948 -0.0043 -3.1191
 1106SOL     OW14953   3.822   2.988  17.375  0.8697  0.6003 -0.5370
 1106SOL    HW114954   3.734   2.958  17.351  0.9610  0.5056 -0.7485
 1106SOL    HW214955   3.870   2.908  17.353  1.9330 -0.1839  4.4628
 1107SOL     OW14956   4.208   4.629   8.337 -0.5000  0.1769 -0.3882
 1107SOL    HW114957   4.153   4.582   8.274 -2.4602 -0.8672  2.1126
 1107SOL    HW214958   4.229   4.705   8.283  0.2627  0.1050 -0.1982
 1108SOL     OW14959   2.167   0.860   7.130  0.2052  0.2342  0.0297
 1108SOL    HW114960   2.184   0.834   7.039  2.2498  4.1786 -0.7206
 1108SOL    HW214961   2.198   0.777   7.166 -1.2693  0.4676  1.8141
 1109SOL     OW14962   0.661   4.687   6.550  0.4736  0.0292  0.2312
 1109SOL    HW114963   0.565   4.680   6.545  0.3119  1.1358  1.9135
 1109SOL    HW214964   0.685   0.017   6.489  2.6158 -2.3403 -1.6094
 1110SOL     OW14965   1.200   2.453   4.112  0.2648 -0.3162  0.5636
 1110SOL    HW114966   1.189   2.530   4.168  0.0257 -1.2685  1.8232
 1110SOL    HW214967   1.182   2.383   4.175  0.5690  0.6679  1.7637
 1111SOL     OW14968   0.027   1.913  10.216 -0.3297  0.1621 -0.3088
 1111SOL    HW114969   0.036   1.823  10.184  0.4676 -0.0416  0.4955
 1111SOL    HW214970   0.027   1.956  10.130 -0.4997  2.2079  0.7326
 1112SOL     OW14971   1.074   0.385   3.400 -0.1737  0.4577 -0.0255
 1112SOL    HW114972   1.135   0.381   3.326  2.3489  1.9425  1.9799
 1112SOL    HW214973   1.145   0.381   3.464 -1.1560  0.0410  1.0295
 1113SOL     OW14974   3.100   0.043   2.508 -0.0459 -0.1226  0.4969
 1113SOL    HW114975   3.171   0.062   2.570 -0.7550 -1.7965  1.8087
 1113SOL    HW214976   3.040   0.118   2.507 -0.4070 -0.4138  0.7429
 1114SOL     OW14977   2.937   4.561   3.991 -0.7515 -0.4739 -0.3207
 1114SOL    HW114978   2.986   4.503   3.932 -0.1587  0.0772 -0.3831
 1114SOL    HW214979   2.942   4.528   4.080  1.5292  1.6225  0.3247
 1115SOL     OW14980   1.827   2.494   7.751  1.0679 -0.2197 -0.7421
 1115SOL    HW114981   1.834   2.442   7.670 -0.8169 -0.8064 -0.5224
 1115SOL    HW214982   1.736   2.515   7.768  1.4249  0.1936  0.6359
 1116SOL     OW14983   4.371   3.941  13.963 -0.6340 -0.3171  0.5173
 1116SOL    HW114984   4.383   4.034  13.946  0.3387 -0.4739  0.3372
 1116SOL    HW214985   4.277   3.937  13.979 -1.2331  1.5361 -2.4816
 1117SOL     OW14986   1.146   1.229   4.493 -1.1034 -0.4182  0.6273
 1117SOL    HW114987   1.154   1.239   4.398  3.7605  1.2623  1.1960
 1117SOL    HW214988   1.140   1.134   4.501  2.8703 -0.8917 -2.1666
 1118SOL     OW14989   1.545   1.511   0.814  0.5064  0.1501  0.1844
 1118SOL    HW114990   1.511   1.581   0.757 -0.9410  0.6027  1.5834
 1118SOL    HW214991   1.588   1.458   0.747 -0.8381  0.7611 -1.1837
 1119SOL     OW14992   2.720   2.079   3.916 -0.4113  0.0131  0.4444
 1119SOL    HW114993   2.787   2.037   3.861 -1.7588 -2.2300  0.5097
 1119SOL    HW214994   2.659   2.099   3.845  0.6407  0.3248 -0.3841
 1120SOL     OW14995   1.545   4.720   4.064  0.4873  0.5536 -0.1132
 1120SOL    HW114996   1.558   0.068   4.027  0.0181  0.7112  0.0987
 1120SOL    HW214997   1.557   4.670   3.983  2.6898  0.6615  0.1485
 1121SOL     OW14998   3.146   2.105   3.041  0.0851 -0.4131 -0.2233
 1121SOL    HW114999   3.228   2.062   3.066 -0.2638 -0.8046  0.2590
 1121SOL    HW215000   3.150   2.179   3.100 -0.2353  0.6421 -1.5283
 1122SOL     OW15001   3.425   1.831   1.354  0.0246  0.2609  0.2429
 1122SOL    HW115002   3.360   1.840   1.424  0.7014 -0.3527  0.9544
 1122SOL    HW215003   3.507   1.838   1.403 -1.0137 -1.8948  2.3156
 1123SOL     OW15004   3.354   3.348   0.830  0.4362 -0.1870 -0.3838
 1123SOL    HW115005   3.369   3.328   0.922  0.5018 -2.1168 -0.8117
 1123SOL    HW215006   3.432   3.307   0.793  1.0269  0.2510  0.3823
 1124SOL     OW15007   3.238   3.343   3.618  0.4993 -0.0055  0.1284
 1124SOL    HW115008   3.152   3.300   3.616 -0.1077  1.1460  1.3316
 1124SOL    HW215009   3.251   3.390   3.536 -0.3987  0.3892  0.2077
 1125SOL     OW15010   3.988   1.487   9.348  0.6196 -0.2936 -0.0289
 1125SOL    HW115011   4.059   1.440   9.391  1.1508  1.8440  1.4307
 1125SOL    HW215012   3.933   1.499   9.425  2.6387  0.2669  1.3060
 1126SOL     OW15013   2.053   2.894   5.510  0.2907 -0.0499 -0.2037
 1126SOL    HW115014   2.035   2.911   5.418  0.3011 -2.2899 -0.6222
 1126SOL    HW215015   1.979   2.937   5.552  0.0344  1.1052 -1.8507
 1127SOL     OW15016   1.044   3.933   4.565 -0.3402  0.7994  1.1642
 1127SOL    HW115017   1.025   3.920   4.658 -1.4516 -1.1713  0.6350
 1127SOL    HW215018   1.137   3.909   4.569 -0.2673  1.3005  2.7020
 1128SOL     OW15019   4.184   0.008  11.769  0.6797  0.3050  0.2250
 1128SOL    HW115020   4.154   4.737  11.679 -1.6516 -1.9199  1.2571
 1128SOL    HW215021   4.266   0.056  11.759 -1.3683  3.1509 -3.1814
 1129SOL     OW15022   0.542   1.385   5.158  0.0777  0.0848 -0.0497
 1129SOL    HW115023   0.575   1.297   5.141  2.8049  0.7052  2.2169
 1129SOL    HW215024   0.522   1.409   5.067  1.3955 -0.0046 -0.3515
 1130SOL     OW15025   2.982   4.504  16.500 -0.1338  0.2473 -0.7450
 1130SOL    HW115026   3.034   4.541  16.571 -0.8597 -1.8683  0.8930
 1130SOL    HW215027   3.046   4.459  16.445  1.5651  0.3470  1.1240
 1131SOL     OW15028   3.799   3.329   0.475 -1.0871  0.3185  0.2289
 1131SOL    HW115029   3.841   3.317   0.390 -1.0018 -0.7461  0.4245
 1131SOL    HW215030   3.717   3.288   0.448 -1.2234  0.6676  0.1080
 1132SOL     OW15031   0.805   2.555   0.819  0.2622 -0.0201  0.0299
 1132SOL    HW115032   0.865   2.551   0.745 -0.7822 -1.5310 -0.7257
 1132SOL    HW215033   0.792   2.648   0.841  1.9983  0.3879 -0.7207
 1133SOL     OW15034   2.531   1.575  13.732 -0.0104 -0.2491 -0.2658
 1133SOL    HW115035   2.578   1.537  13.807  0.4070 -1.7417 -1.2751
 1133SOL    HW215036   2.438   1.556  13.746  0.6668 -2.1634  1.6398
 1134SOL     OW15037   2.358   3.570  13.730 -0.1881  0.1616  0.2183
 1134SOL    HW115038   2.376   3.513  13.805  1.3141  2.3275  1.4930
 1134SOL    HW215039   2.267   3.545  13.715 -0.4278  0.1817  1.6470
 1135SOL     OW15040   2.490   3.718   4.733 -0.2301 -0.0437 -0.4239
 1135SOL    HW115041   2.475   3.627   4.707 -1.9972  0.7310 -2.1109
 1135SOL    HW215042   2.563   3.746   4.679 -0.2982  1.2039  0.1396
 1136SOL     OW15043   4.029   0.852  13.875 -0.3197  0.2353  0.6694
 1136SOL    HW115044   3.950   0.854  13.928 -0.7289  2.7517 -0.0526
 1136SOL    HW215045   4.032   0.941  13.839  0.4933 -0.7854 -1.7779
 1137SOL     OW15046   2.994   0.609  10.699 -1.0401  0.5198 -0.7939
 1137SOL    HW115047   2.922   0.610  10.763 -0.8262 -0.0733 -0.5440
 1137SOL    HW215048   2.995   0.521  10.662  1.2690  0.5947 -0.9129
 1138SOL     OW15049   0.865   1.818  11.650  0.3582 -0.4083 -0.3862
 1138SOL    HW115050   0.879   1.902  11.606  0.1923  0.3291  0.9669
 1138SOL    HW215051   0.864   1.760  11.574  2.5744 -0.4112 -0.4070
 1139SOL     OW15052   4.709   3.471   6.082  0.1969 -0.1533  0.7411
 1139SOL    HW115053   0.027   3.506   6.149  1.3698 -0.3725 -0.1586
 1139SOL    HW215054   4.633   3.452   6.137 -0.3901 -1.2958 -0.4467
 1140SOL     OW15055   2.499   1.921   0.814 -0.7024 -0.1623  0.8158
 1140SOL    HW115056   2.580   1.949   0.857  1.2723  1.2071 -3.8707
 1140SOL    HW215057   2.533   1.868   0.741  0.6721 -0.1608  1.4449
 1141SOL     OW15058   4.006   4.551   7.240 -0.0076  0.8898 -0.4023
 1141SOL    HW115059   3.944   4.623   7.226  0.1701  0.8950 -1.1648
 1141SOL    HW215060   4.087   4.588   7.204  1.2172 -0.2320  1.2512
 1142SOL     OW15061   0.949   2.779   5.809 -0.1652 -0.2880  0.4221
 1142SOL    HW115062   0.922   2.691   5.836  2.3451 -1.5867 -1.2088
 1142SOL    HW215063   0.915   2.832   5.880  0.8201 -0.4328  1.0020
 1143SOL     OW15064   1.228   3.268   7.510 -0.2906 -0.0471 -1.1061
 1143SOL    HW115065   1.310   3.310   7.486 -0.4093  0.6405 -0.3112
 1143SOL    HW215066   1.235   3.197   7.446  1.5606 -0.9508  0.0800
 1144SOL     OW15067   2.485   0.024   8.833 -0.2203  0.4638  0.1800
 1144SOL    HW115068   2.431   0.063   8.765  0.2844 -1.8445 -1.5609
 1144SOL    HW215069   2.570   0.069   8.825  1.0157 -1.9387 -0.3328
 1145SOL     OW15070   0.836   1.689  12.967 -0.0159  0.3769  0.0655
 1145SOL    HW115071   0.772   1.686  12.897  0.3530 -1.8558 -0.1632
 1145SOL    HW215072   0.779   1.715  13.040 -0.5142 -0.0512 -0.1693
 1146SOL     OW15073   2.408   1.741   8.244  0.4513  0.0932  0.0514
 1146SOL    HW115074   2.424   1.799   8.170 -0.4874 -0.3792 -0.5316
 1146SOL    HW215075   2.501   1.729   8.265  0.3982 -1.0475 -0.3850
 1147SOL     OW15076   2.722   1.416   7.054  0.4300  0.1921 -0.7020
 1147SOL    HW115077   2.655   1.372   7.000 -1.0791  2.8965 -1.0421
 1147SOL    HW215078   2.724   1.509   7.034 -1.0923  0.3390 -0.1986
 1148SOL     OW15079   4.485   1.862   6.730 -0.3612 -0.5357 -0.0523
 1148SOL    HW115080   4.440   1.793   6.779  1.7015  1.0139  4.0010
 1148SOL    HW215081   4.417   1.929   6.741  0.4816 -0.0587  2.2380
 1149SOL     OW15082   1.963   1.068   4.849  0.2919 -0.0992  0.3717
 1149SOL    HW115083   2.028   1.117   4.798 -0.0521  0.9779  0.9824
 1149SOL    HW215084   2.017   1.004   4.894 -1.9741 -1.5327  1.0325
 1150SOL     OW15085   0.763   3.134   3.467  0.1918  0.9437 -0.4215
 1150SOL    HW115086   0.751   3.049   3.509  0.0976  0.0392 -2.2851
 1150SOL    HW215087   0.738   3.112   3.377 -1.1804  0.2334  0.1381
 1151SOL     OW15088   3.688   2.862  10.788  0.4127 -0.0038 -0.1589
 1151SOL    HW115089   3.677   2.767  10.791 -0.4509  0.1177  0.5783
 1151SOL    HW215090   3.716   2.873  10.879  1.6520 -0.1249 -0.5212
 1152SOL     OW15091   3.400   4.541   4.864 -0.0216 -0.0773 -0.1875
 1152SOL    HW115092   3.412   4.597   4.787  0.9844 -0.0682 -0.0164
 1152SOL    HW215093   3.370   4.456   4.831 -0.7389  0.7149 -1.5994
 1153SOL     OW15094   2.197   3.947   2.290 -0.0977  0.2966  0.2507
 1153SOL    HW115095   2.233   3.863   2.264  0.3045  0.1377  1.3202
 1153SOL    HW215096   2.103   3.942   2.275 -0.1642  1.1448  0.3872
 1154SOL     OW15097   2.799   2.474   7.097 -0.0597  0.6250 -0.1565
 1154SOL    HW115098   2.743   2.402   7.128  0.8206  0.4592  1.0548
 1154SOL    HW215099   2.767   2.528   7.169 -0.2900  1.4626 -0.8945
 1155SOL     OW15100   1.333   4.209   3.090 -0.0836 -0.2166  0.5671
 1155SOL    HW115101   1.279   4.240   3.017  0.4852  0.2648  0.3481
 1155SOL    HW215102   1.420   4.195   3.052 -0.4270 -1.7653  0.3554
 1156SOL     OW15103   4.342   1.988  17.725  0.1914  0.0704  0.7512
 1156SOL    HW115104   4.366   1.917  17.665  2.9633  0.4666  1.4166
 1156SOL    HW215105   4.326   2.057  17.660 -0.7780 -1.3396 -0.5047
 1157SOL     OW15106   3.712   0.387   7.491  0.5680  0.9553  0.3366
 1157SOL    HW115107   3.779   0.399   7.559  0.9326 -0.0642  0.1590
 1157SOL    HW215108   3.765   0.351   7.420 -0.4053  1.3485 -0.5931
 1158SOL     OW15109   1.467   3.857   6.138 -0.4778 -0.2234  0.3492
 1158SOL    HW115110   1.494   3.931   6.193  2.6549  0.1216 -1.5997
 1158SOL    HW215111   1.510   3.869   6.053 -0.1193  1.4979  0.7699
 1159SOL     OW15112   2.432   2.855   4.313  0.3000  0.2015  0.0476
 1159SOL    HW115113   2.470   2.903   4.240 -0.1473 -0.7437 -0.8178
 1159SOL    HW215114   2.454   2.765   4.290  1.3430  0.5811 -0.4197
 1160SOL     OW15115   2.914   0.420   8.454 -0.0266 -0.0268  0.3880
 1160SOL    HW115116   2.835   0.377   8.486  0.3805 -2.0295 -1.2587
 1160SOL    HW215117   2.884   0.511   8.453 -3.4400 -1.1823  0.6343
 1161SOL     OW15118   1.302   0.707   5.743 -0.3931 -0.2900 -0.3286
 1161SOL    HW115119   1.286   0.740   5.831  1.4670 -1.8859  0.6059
 1161SOL    HW215120   1.397   0.707   5.737 -0.4692 -2.8250 -1.6183
 1162SOL     OW15121   4.329   3.690   3.181 -0.0270  0.0000  0.2270
 1162SOL    HW115122   4.383   3.741   3.121 -1.5386  1.7639  0.3670
 1162SOL    HW215123   4.276   3.641   3.117  0.5515  1.1516 -1.1283
 1163SOL     OW15124   0.697   1.280   7.581  0.1390  0.0086 -0.1523
 1163SOL    HW115125   0.613   1.301   7.540  1.0384 -0.2454 -2.0877
 1163SOL    HW215126   0.742   1.226   7.516 -1.2939 -1.0654 -0.2763
 1164SOL     OW15127   1.906   2.244   9.659 -0.7018 -0.3340  0.3260
 1164SOL    HW115128   1.887   2.233   9.752  1.2540  1.1085  0.9070
 1164SOL    HW215129   1.835   2.298   9.623  0.0243  0.0081 -0.6153
 1165SOL     OW15130   2.358   3.148   2.110  0.1723  0.2843  0.1849
 1165SOL    HW115131   2.314   3.195   2.182 -0.2181  2.9452 -1.7895
 1165SOL    HW215132   2.284   3.090   2.092  1.8959 -0.8167 -3.2803
 1166SOL     OW15133   4.004   0.956   8.489 -0.4305  0.2801  0.2072
 1166SOL    HW115134   3.939   0.907   8.540  0.8376 -1.0241  0.5767
 1166SOL    HW215135   3.955   1.037   8.474 -0.1403  0.8875  2.4431
 1167SOL     OW15136   1.056   0.443   5.207 -0.2681  0.1919 -0.1043
 1167SOL    HW115137   1.072   0.534   5.183  1.4898  0.2921  1.4362
 1167SOL    HW215138   0.970   0.454   5.247  0.1835  2.3735  0.2833
 1168SOL     OW15139   1.745   0.835   1.946  0.2570  0.4661 -0.1979
 1168SOL    HW115140   1.703   0.814   1.863  2.0583 -1.3808 -0.6488
 1168SOL    HW215141   1.668   0.866   1.993  0.5396 -1.0069  1.2383
 1169SOL     OW15142   3.761   0.900   7.182  0.2694  0.3101  0.0896
 1169SOL    HW115143   3.674   0.866   7.205 -0.2898  1.1371 -0.7871
 1169SOL    HW215144   3.817   0.824   7.194 -1.0041 -0.7571 -0.7380
 1170SOL     OW15145   3.599   4.158   4.311  0.8755 -0.1520  0.0184
 1170SOL    HW115146   3.554   4.194   4.388  0.1834 -1.7742  0.3491
 1170SOL    HW215147   3.555   4.222   4.256  1.2982  1.0713  1.0868
 1171SOL     OW15148   2.533   4.253   5.695 -0.1346 -0.1626 -0.2568
 1171SOL    HW115149   2.504   4.185   5.756 -1.9469  2.0587  1.3145
 1171SOL    HW215150   2.628   4.256   5.709 -0.2972  1.8420  0.4350
 1172SOL     OW15151   1.665   4.684  15.383  0.1629 -0.3503  0.5442
 1172SOL    HW115152   1.574   4.665  15.363  0.0472 -1.6706  2.3107
 1172SOL    HW215153   1.656   0.039  15.393  0.2070 -0.2833 -0.0429
 1173SOL     OW15154   2.639   0.034   0.934 -0.2940 -0.7285  0.3405
 1173SOL    HW115155   2.629   0.114   0.985  2.2580 -0.3485  0.2362
 1173SOL    HW215156   2.620   0.065   0.846  2.2143  0.0618  0.0923
 1174SOL     OW15157   1.992   0.329   2.071  0.0653  0.0659  0.5622
 1174SOL    HW115158   1.928   0.369   2.012 -1.6155 -3.6572 -0.1122
 1174SOL    HW215159   1.935   0.348   2.146  0.7274 -0.6642  1.2403
 1175SOL     OW15160   1.825   1.039  16.932  0.4900 -0.1243 -0.8658
 1175SOL    HW115161   1.875   1.058  17.012  0.8993 -0.0953 -1.1266
 1175SOL    HW215162   1.782   0.960  16.963 -1.9079  1.1276 -1.0293
 1176SOL     OW15163   3.406   3.278   4.343 -0.1143  0.0127 -0.1555
 1176SOL    HW115164   3.469   3.306   4.409 -2.0970  1.2998  1.1829
 1176SOL    HW215165   3.354   3.209   4.385  0.5087  0.1048  0.7663
 1177SOL     OW15166   4.496   0.204   0.474 -0.4430  0.4623  0.0116
 1177SOL    HW115167   4.506   0.144   0.401 -0.5098  1.7949 -1.0972
 1177SOL    HW215168   4.454   0.157   0.546  1.5922 -0.2357  0.7341
 1178SOL     OW15169   4.703   0.649   6.454  0.0290 -0.0379 -0.4579
 1178SOL    HW115170   4.613   0.617   6.463  0.0444  0.2387  0.7175
 1178SOL    HW215171   4.689   0.726   6.508 -1.5425 -1.0198  0.5454
 1179SOL     OW15172   3.384   3.693   8.182  0.3000  0.4551  0.0072
 1179SOL    HW115173   3.462   3.639   8.191  1.0032  1.4709 -0.0567
 1179SOL    HW215174   3.418   3.769   8.136 -1.2787  1.3142  0.2554
 1180SOL     OW15175   1.378   0.692  11.885  0.0253 -0.3310 -0.2509
 1180SOL    HW115176   1.386   0.734  11.799  0.5886 -0.2636 -0.1666
 1180SOL    HW215177   1.430   0.747  11.943 -1.8738  1.1589  0.0084
 1181SOL     OW15178   1.417   1.667   7.298  0.0318 -0.0149 -0.2422
 1181SOL    HW115179   1.499   1.676   7.346 -0.5244 -1.8938  1.0433
 1181SOL    HW215180   1.435   1.723   7.222  0.8877  1.5037  1.0818
 1182SOL     OW15181   1.474   2.348   6.144  0.7261 -0.0344  0.0870
 1182SOL    HW115182   1.470   2.440   6.171 -3.0137 -0.2608  0.3023
 1182SOL    HW215183   1.495   2.347   6.051 -1.9998 -2.6205 -0.4787
 1183SOL     OW15184   1.302   1.180   4.796 -0.6130 -0.1038  0.0113
 1183SOL    HW115185   1.391   1.214   4.801 -0.3534 -0.8410  0.4786
 1183SOL    HW215186   1.290   1.154   4.705 -1.3710 -2.4935  0.7765
 1184SOL     OW15187   2.926   1.310   2.850  0.4040 -0.1767 -0.3590
 1184SOL    HW115188   2.933   1.374   2.920  2.4817  1.2383 -1.8432
 1184SOL    HW215189   3.006   1.320   2.797  0.6644 -1.4390 -0.1977
 1185SOL     OW15190   4.209   4.693   7.124 -0.0204 -0.5382 -0.2024
 1185SOL    HW115191   4.240   0.009   7.196 -0.2232 -0.2365 -0.3443
 1185SOL    HW215192   4.165   0.021   7.071  1.1514 -0.3764 -0.9586
 1186SOL     OW15193   4.600   1.534   5.076 -0.0405 -0.5982  0.2964
 1186SOL    HW115194   4.627   1.505   5.163 -1.4012 -2.5644  0.0797
 1186SOL    HW215195   4.539   1.466   5.045 -1.1973  0.0825  1.0858
 1187SOL     OW15196   4.478   1.815  12.945 -0.3939 -0.6026  0.0280
 1187SOL    HW115197   4.466   1.727  12.910 -0.9936 -0.1166 -0.9794
 1187SOL    HW215198   4.572   1.830  12.935 -0.5154 -0.6472 -1.1585
 1188SOL     OW15199   0.132   1.149   9.543  0.4575 -0.8358 -0.6138
 1188SOL    HW115200   0.052   1.190   9.576 -0.5185 -2.7680 -0.6303
 1188SOL    HW215201   0.154   1.090   9.615  0.2997  1.2779  1.1628
 1189SOL     OW15202   3.454   2.234   4.452 -0.0374  0.4691 -0.1730
 1189SOL    HW115203   3.477   2.326   4.455  0.2441  0.4779 -2.0682
 1189SOL    HW215204   3.519   2.191   4.508 -2.1290 -3.9419 -1.1174
 1190SOL     OW15205   4.099   3.577   6.147 -0.0744 -0.3744 -0.1890
 1190SOL    HW115206   4.034   3.533   6.093 -0.7839  1.2761 -0.6875
 1190SOL    HW215207   4.153   3.618   6.079 -1.9406 -1.1819 -2.1432
 1191SOL     OW15208   3.405   3.323   7.890 -0.1393  0.1134  0.1596
 1191SOL    HW115209   3.422   3.245   7.837 -0.2079  0.3681 -0.2352
 1191SOL    HW215210   3.428   3.304   7.981 -1.3142 -1.3881  0.1627
 1192SOL     OW15211   3.734   0.953  12.213 -0.1522 -0.0262 -0.3255
 1192SOL    HW115212   3.814   1.003  12.195  1.3687 -3.5278 -3.1520
 1192SOL    HW215213   3.757   0.911  12.296  1.4057 -1.1301 -1.3014
 1193SOL     OW15214   1.930   4.339   5.161  0.4109  0.1346  0.4353
 1193SOL    HW115215   2.007   4.309   5.112 -0.9314  0.2328 -1.7289
 1193SOL    HW215216   1.970   4.411   5.210 -1.0684  1.3789 -0.2033
 1194SOL     OW15217   3.758   4.575  12.723  0.5271 -0.1310  0.1047
 1194SOL    HW115218   3.792   4.503  12.670  0.0463 -0.8663  0.7958
 1194SOL    HW215219   3.832   4.596  12.779  1.0871 -0.9392 -0.3258
 1195SOL     OW15220   0.989   3.299   3.486 -0.0125 -0.0559 -0.1522
 1195SOL    HW115221   1.043   3.230   3.525 -0.2358 -0.0386  0.1822
 1195SOL    HW215222   0.904   3.256   3.497  0.2357 -0.6099 -0.3723
 1196SOL     OW15223   2.712   2.350   4.733  0.2259  0.0519 -0.6456
 1196SOL    HW115224   2.765   2.423   4.764 -0.4860 -0.0216  0.7248
 1196SOL    HW215225   2.657   2.343   4.811 -2.0968 -0.9022 -2.3339
 1197SOL     OW15226   4.684   1.520   7.364 -0.0015  0.0216 -0.0836
 1197SOL    HW115227   4.614   1.574   7.401 -0.6171 -1.6752  1.2426
 1197SOL    HW215228   0.003   1.577   7.315 -0.6599  0.0900 -0.7779
 1198SOL     OW15229   1.552   4.071   6.290 -0.3282 -0.4257  0.0171
 1198SOL    HW115230   1.646   4.053   6.288 -0.1989  0.2665 -0.0738
 1198SOL    HW215231   1.542   4.162   6.263  0.3252 -0.2917  0.2417
 1199SOL     OW15232   1.779   4.410  11.715 -0.1193  0.3771  0.1202
 1199SOL    HW115233   1.749   4.453  11.795 -2.4209  0.2571 -0.6911
 1199SOL    HW215234   1.741   4.325  11.735 -0.1271 -0.1795 -2.1742
 1200SOL     OW15235   0.249   1.276   4.161  0.3907 -0.3699  0.0940
 1200SOL    HW115236   0.232   1.370   4.163 -0.4495 -0.5097 -0.3812
 1200SOL    HW215237   0.169   1.250   4.115  1.0361 -3.9575  0.9962
 1201SOL     OW15238   3.384   0.217   3.184 -0.0864 -0.4575  0.4178
 1201SOL    HW115239   3.460   0.274   3.177  0.3518 -1.3248 -1.9409
 1201SOL    HW215240   3.420   0.132   3.156  3.0471  0.2323  2.2837
 1202SOL     OW15241   4.363   2.623   8.450  0.3888  0.5081 -0.2622
 1202SOL    HW115242   4.450   2.590   8.429  0.0272 -0.9404  0.4954
 1202SOL    HW215243   4.377   2.635   8.544 -0.7868  0.0247 -0.0229
 1203SOL     OW15244   3.508   2.264   6.242  0.4519  0.0467 -0.1854
 1203SOL    HW115245   3.420   2.228   6.236  0.5211 -0.3158  1.0721
 1203SOL    HW215246   3.516   2.306   6.327  0.7333  0.4379 -0.4024
 1204SOL     OW15247   1.194   3.800   3.783  0.2106 -0.2882  0.3143
 1204SOL    HW115248   1.110   3.769   3.749 -0.4832 -1.1070  2.7337
 1204SOL    HW215249   1.165   3.852   3.858 -0.2153 -0.8512  0.5324
 1205SOL     OW15250   4.453   1.454   3.328 -0.1334  0.1488  0.1161
 1205SOL    HW115251   4.458   1.534   3.380  0.0570  0.0559  0.2414
 1205SOL    HW215252   4.520   1.394   3.360  0.3968  0.8135  0.2428
 1206SOL     OW15253   1.773   0.053   6.473 -0.0050  0.0622 -0.1260
 1206SOL    HW115254   1.680   0.049   6.497  0.2932 -1.4537  0.8110
 1206SOL    HW215255   1.810   4.716   6.518  0.8620  0.8985  0.5799
 1207SOL     OW15256   3.725   4.713  16.769  0.3882 -0.4347  0.4365
 1207SOL    HW115257   3.757   4.625  16.750 -2.5436 -1.4080  0.0284
 1207SOL    HW215258   3.678   4.734  16.688 -0.6119  0.5262  1.2657
 1208SOL     OW15259   3.057   4.058   7.219  0.3910 -0.1965 -0.1242
 1208SOL    HW115260   3.009   4.030   7.297 -0.2334 -0.9226 -0.7670
 1208SOL    HW215261   2.988   4.050   7.153 -0.2505  1.1155  0.3981
 1209SOL     OW15262   1.348   1.794  12.738  0.2558  0.6080  0.0679
 1209SOL    HW115263   1.307   1.707  12.733 -0.9375  1.1304  0.8490
 1209SOL    HW215264   1.268   1.846  12.742 -0.0589  0.0411  1.0787
 1210SOL     OW15265   3.317   2.567   5.166 -0.0812 -0.2265  0.0883
 1210SOL    HW115266   3.311   2.617   5.085 -0.6788 -0.3272  0.0671
 1210SOL    HW215267   3.373   2.620   5.222 -1.5588  0.8584  0.5159
 1211SOL     OW15268   2.157   2.072   9.089 -0.4986  0.3245 -0.1306
 1211SOL    HW115269   2.172   2.007   9.157  1.4618  1.6661  0.7357
 1211SOL    HW215270   2.235   2.127   9.099 -0.9881  1.1081 -0.6018
 1212SOL     OW15271   2.782   3.634   5.934 -0.4811 -0.0077 -0.7140
 1212SOL    HW115272   2.820   3.581   5.864  0.2703  0.4725 -0.6688
 1212SOL    HW215273   2.693   3.599   5.923 -0.6002  1.0491 -3.1212
 1213SOL     OW15274   4.342   1.718   6.925 -0.2815  0.1927 -0.2346
 1213SOL    HW115275   4.370   1.645   6.980 -1.3075 -0.7123 -0.9053
 1213SOL    HW215276   4.311   1.780   6.991  0.2041 -0.9074  1.0287
 1214SOL     OW15277   3.449   2.542   9.026  0.6511  0.0621 -0.3057
 1214SOL    HW115278   3.427   2.613   9.085 -0.8449  0.0338 -0.8308
 1214SOL    HW215279   3.487   2.480   9.089  0.7115 -1.9156 -2.2562
 1215SOL     OW15280   3.675   2.751   8.537  0.4046 -0.0705 -0.6043
 1215SOL    HW115281   3.687   2.667   8.581 -1.1620 -0.0579 -0.1657
 1215SOL    HW215282   3.761   2.754   8.495 -0.1403  1.7582 -1.5930
 1216SOL     OW15283   2.913   3.780  17.313 -0.0879  0.3814  0.5754
 1216SOL    HW115284   2.831   3.820  17.342  0.1174  0.8780  0.4681
 1216SOL    HW215285   2.934   3.846  17.246  1.2837 -0.7824 -0.1302
 1217SOL     OW15286   0.764   3.283   2.087  0.4918 -0.1486  0.2670
 1217SOL    HW115287   0.759   3.215   2.020  1.9911 -0.3324  0.3332
 1217SOL    HW215288   0.835   3.334   2.046  2.2285 -1.7256  1.3252
 1218SOL     OW15289   0.297   2.525   3.276  0.1665  0.0957 -0.1379
 1218SOL    HW115290   0.282   2.551   3.367  2.5863  1.5029 -0.1326
 1218SOL    HW215291   0.340   2.601   3.237 -1.4036  1.3456  0.5772
 1219SOL     OW15292   0.611   2.872  13.788 -0.1118 -0.8924 -0.0093
 1219SOL    HW115293   0.595   2.807  13.720 -0.5389  3.0147 -3.6302
 1219SOL    HW215294   0.707   2.872  13.793 -0.1562 -0.4647  0.8196
 1220SOL     OW15295   1.757   0.350   1.892  0.0677 -0.4490 -0.2415
 1220SOL    HW115296   1.738   0.260   1.864  1.3863 -0.5590 -0.7947
 1220SOL    HW215297   1.696   0.362   1.964 -0.8000 -2.6321 -0.6019
 1221SOL     OW15298   2.252   0.348  14.236  0.7737 -0.3902 -0.1831
 1221SOL    HW115299   2.333   0.395  14.213  0.7041 -0.3628 -0.3693
 1221SOL    HW215300   2.183   0.403  14.199  0.8488 -0.3367 -0.2473
 1222SOL     OW15301   4.632   1.786   8.877  0.7850  0.2257  0.2740
 1222SOL    HW115302   4.676   1.763   8.796  0.8350  1.2675  0.0023
 1222SOL    HW215303   4.543   1.804   8.846 -0.4688 -2.1756  2.4556
 1223SOL     OW15304   0.772   3.600   9.847 -0.0103 -0.7687 -0.0442
 1223SOL    HW115305   0.715   3.600   9.770 -0.4071 -1.7041  0.2597
 1223SOL    HW215306   0.855   3.620   9.803  0.1687 -0.5884  0.3765
 1224SOL     OW15307   1.164   2.624   4.314  0.1647 -0.0209 -0.5527
 1224SOL    HW115308   1.171   2.612   4.409 -0.8655 -0.3743 -0.5143
 1224SOL    HW215309   1.174   2.719   4.301  2.1928 -0.3895 -1.6471
 1225SOL     OW15310   1.543   0.084   7.898  0.3309 -0.4767  0.6446
 1225SOL    HW115311   1.455   0.071   7.863  0.7746 -1.5683 -0.0739
 1225SOL    HW215312   1.562   0.176   7.882  0.6699 -0.5739  0.4707
 1226SOL     OW15313   4.148   1.939   6.131 -0.1733  0.3096 -0.0530
 1226SOL    HW115314   4.107   1.944   6.218 -1.1142  0.7687 -0.5308
 1226SOL    HW215315   4.064   1.909   6.098 -1.2849  2.7017  0.6498
 1227SOL     OW15316   0.590   4.284  13.187  0.1727 -0.3101 -0.3954
 1227SOL    HW115317   0.674   4.250  13.218 -0.3485  0.0344  1.4082
 1227SOL    HW215318   0.524   4.249  13.248  1.7026 -3.8242 -0.7758
 1228SOL     OW15319   1.956   4.739   2.685  0.7092 -0.0935  0.4526
 1228SOL    HW115320   1.977   4.648   2.706 -0.8451 -0.2491  1.2921
 1228SOL    HW215321   1.961   0.041   2.772  1.3018  0.3207  0.2182
 1229SOL     OW15322   4.064   0.532  14.072 -0.6414 -0.0576  0.5736
 1229SOL    HW115323   3.981   0.490  14.049 -0.9056 -0.0925  1.5954
 1229SOL    HW215324   4.109   0.511  13.990  2.2425  0.7563  1.9456
 1230SOL     OW15325   1.469   1.245  10.674 -0.2692  0.3846 -0.0228
 1230SOL    HW115326   1.412   1.316  10.644  0.1202  0.1371 -1.3397
 1230SOL    HW215327   1.431   1.170  10.628 -0.9965  1.5923 -1.3884
 1231SOL     OW15328   3.796   1.793  10.221 -0.0993  0.2437  0.3851
 1231SOL    HW115329   3.880   1.762  10.256 -0.7008 -1.9762 -0.1352
 1231SOL    HW215330   3.726   1.757  10.276 -1.5358  0.2276 -1.4566
 1232SOL     OW15331   0.335   1.481   9.043 -0.3808 -0.1551 -0.1420
 1232SOL    HW115332   0.277   1.485   9.119 -0.9124  1.2625 -0.6236
 1232SOL    HW215333   0.386   1.562   9.052 -3.5329  1.5273  2.8707
 1233SOL     OW15334   3.859   4.129   5.457 -0.5704 -0.1080  0.0867
 1233SOL    HW115335   3.884   4.129   5.364  0.3375 -0.9271  0.3306
 1233SOL    HW215336   3.797   4.056   5.464 -0.3275 -0.2000  1.1970
 1234SOL     OW15337   3.318   4.286  10.536  0.0915 -1.2270  0.4954
 1234SOL    HW115338   3.245   4.263  10.594  0.2367 -1.2091  0.6860
 1234SOL    HW215339   3.358   4.351  10.594 -1.5580 -0.2188  0.4988
 1235SOL     OW15340   2.548   2.634  12.413 -0.3824  0.0973  0.6384
 1235SOL    HW115341   2.492   2.561  12.437 -1.4454  0.3067 -1.2237
 1235SOL    HW215342   2.519   2.653  12.324  1.5286 -2.2546 -0.4831
 1236SOL     OW15343   2.075   0.165   8.943 -1.0228  0.1741  0.0799
 1236SOL    HW115344   2.084   0.126   9.029 -0.8339  2.6188  1.1573
 1236SOL    HW215345   2.023   0.103   8.891 -1.5143  0.0336  0.7489
 1237SOL     OW15346   2.210   0.171   4.672  0.0162  0.1636 -0.1166
 1237SOL    HW115347   2.176   0.090   4.711  0.4693  0.8500  1.6862
 1237SOL    HW215348   2.128   0.210   4.642 -1.3273 -1.9918  0.7690
 1238SOL     OW15349   1.242   1.531  12.718  0.6601 -0.2607 -0.2282
 1238SOL    HW115350   1.298   1.454  12.717  1.9750  0.7339 -2.9798
 1238SOL    HW215351   1.198   1.528  12.633 -0.5806 -1.6295  0.4598
 1239SOL     OW15352   1.012   4.303  15.142  0.5230 -0.3030  0.0547
 1239SOL    HW115353   1.000   4.316  15.236 -0.2644 -0.6114  0.0027
 1239SOL    HW215354   1.000   4.386  15.097 -0.7790 -1.6940 -2.1923
 1240SOL     OW15355   0.088   2.908   6.678 -0.0772 -0.6263 -0.2888
 1240SOL    HW115356   0.034   2.833   6.653  2.3632 -2.6893  0.6441
 1240SOL    HW215357   0.136   2.923   6.597  0.1191 -2.7766 -0.5751
 1241SOL     OW15358   1.982   4.256   2.071  0.0067  0.4247  0.1701
 1241SOL    HW115359   2.005   4.349   2.076  0.5074  0.3055  0.0589
 1241SOL    HW215360   1.921   4.265   2.144 -1.0083 -1.0242 -0.5012
 1242SOL     OW15361   3.495   3.108   5.419  0.3213  0.3553  0.3657
 1242SOL    HW115362   3.580   3.126   5.459  1.2833  3.7150 -3.1175
 1242SOL    HW215363   3.440   3.183   5.444 -0.8439  0.1491 -1.5745
 1243SOL     OW15364   3.110   1.980   1.980  0.7052 -0.0083 -0.3953
 1243SOL    HW115365   3.150   1.897   1.953 -0.2588 -0.8349  0.7098
 1243SOL    HW215366   3.096   2.026   1.897 -0.7406  1.0138  0.4267
 1244SOL     OW15367   4.171   2.293   3.144  0.2711  0.0847 -0.5320
 1244SOL    HW115368   4.084   2.315   3.109  0.6273 -0.4379 -1.7562
 1244SOL    HW215369   4.154   2.261   3.232  1.0523  0.0202 -0.4117
 1245SOL     OW15370   3.713   1.324  17.293  0.5296  0.4397 -0.2981
 1245SOL    HW115371   3.723   1.351  17.202  0.2486 -2.5822 -1.2068
 1245SOL    HW215372   3.730   1.414  17.320  1.2045  0.4526 -0.7473
 1246SOL     OW15373   0.501   0.891   6.921  0.1052  0.0370  0.0617
 1246SOL    HW115374   0.438   0.865   6.854  1.3992  0.2697 -1.2588
 1246SOL    HW215375   0.590   0.896   6.887 -1.0952  1.8748 -2.8534
 1247SOL     OW15376   1.777   2.143  16.099  0.4713  0.3598 -0.2793
 1247SOL    HW115377   1.819   2.127  16.015 -0.3516 -0.6685 -0.4982
 1247SOL    HW215378   1.689   2.112  16.076  0.9287 -1.0612 -0.1066
 1248SOL     OW15379   2.620   0.874   3.646  0.2111 -0.1549 -0.1225
 1248SOL    HW115380   2.711   0.897   3.665 -0.3649  1.3231  0.8557
 1248SOL    HW215381   2.594   0.839   3.732 -4.0645  0.3707 -1.1768
 1249SOL     OW15382   0.894   3.753   4.906  0.0310  0.0773 -0.0247
 1249SOL    HW115383   0.941   3.685   4.858 -0.3973 -0.0023 -0.3348
 1249SOL    HW215384   0.956   3.777   4.974  1.0097 -1.3795 -0.4028
 1250SOL     OW15385   4.472   1.572   6.452  0.2294 -0.5415  0.0594
 1250SOL    HW115386   4.390   1.621   6.461  0.8255 -0.3403  4.4964
 1250SOL    HW215387   4.542   1.637   6.460 -1.1501  1.0757 -1.1513
 1251SOL     OW15388   4.689   4.255   9.471 -0.1740  0.1861 -0.2767
 1251SOL    HW115389   0.030   4.307   9.468 -0.8320  1.1565 -1.3546
 1251SOL    HW215390   4.625   4.324   9.451  2.6411  2.3514 -1.7183
 1252SOL     OW15391   3.445   1.463   8.022  0.5966  0.4049  0.0959
 1252SOL    HW115392   3.454   1.468   7.927 -1.2849  0.3568 -0.0971
 1252SOL    HW215393   3.416   1.552   8.043 -0.9007  0.4014 -1.8927
 1253SOL     OW15394   1.594   4.648   1.588 -0.4254  0.6818  0.1588
 1253SOL    HW115395   1.610   4.645   1.683 -0.0590  1.5592  0.1313
 1253SOL    HW215396   1.686   4.639   1.566 -0.1691  1.9615  0.6511
 1254SOL     OW15397   0.140   0.144   5.944 -0.5752 -0.0878  0.1960
 1254SOL    HW115398   0.195   0.204   5.993  0.2901  0.7919 -1.8408
 1254SOL    HW215399   0.061   0.197   5.936 -1.2554 -0.9088  1.5178
 1255SOL     OW15400   0.868   0.385  12.466 -0.0885 -0.2202  0.3345
 1255SOL    HW115401   0.920   0.314  12.429  0.4607  1.1352 -1.4887
 1255SOL    HW215402   0.922   0.461  12.442 -1.1785  0.2195 -0.6861
 1256SOL     OW15403   1.097   2.494   7.625 -0.1789  0.0999  0.0309
 1256SOL    HW115404   1.070   2.566   7.681  0.9374 -0.8288  1.7861
 1256SOL    HW215405   1.013   2.448   7.626 -0.5357  0.7152 -2.2305
 1257SOL     OW15406   1.326   4.453   0.237 -0.2189  1.5632 -0.0890
 1257SOL    HW115407   1.268   4.487   0.169 -2.3385 -1.9130 -0.0373
 1257SOL    HW215408   1.278   4.375   0.263 -1.8965  2.2105 -1.2748
 1258SOL     OW15409   2.338   3.421   7.564  0.6886 -0.2486 -0.2577
 1258SOL    HW115410   2.282   3.494   7.536 -0.6153  0.2479  3.6115
 1258SOL    HW215411   2.400   3.427   7.492 -1.0861  1.8117 -1.6305
 1259SOL     OW15412   2.420   2.859   0.595 -0.5995 -0.8249  0.0869
 1259SOL    HW115413   2.469   2.839   0.675 -0.7778  1.0744  0.6623
 1259SOL    HW215414   2.393   2.949   0.615  1.6077 -0.0260 -0.5737
 1260SOL     OW15415   1.212   0.832   1.082  0.1918  0.0806  0.0460
 1260SOL    HW115416   1.233   0.922   1.057  0.3169  0.0665  0.1031
 1260SOL    HW215417   1.197   0.791   0.997  1.1458  0.0336 -0.1026
 1261SOL     OW15418   1.236   0.860   2.380  0.1361 -0.4278 -0.5756
 1261SOL    HW115419   1.287   0.929   2.422 -0.2232  0.2498 -1.2409
 1261SOL    HW215420   1.276   0.786   2.427 -0.8648  0.0552  1.0187
 1262SOL     OW15421   4.375   1.876   5.348 -0.2577 -0.0728 -0.1170
 1262SOL    HW115422   4.413   1.853   5.263  1.4175  0.4057  0.4844
 1262SOL    HW215423   4.438   1.833   5.405  0.6140  0.3961 -0.7176
 1263SOL     OW15424   3.666   3.171   9.031 -0.1117 -0.1231  0.1732
 1263SOL    HW115425   3.649   3.118   8.952 -0.9377 -0.1634  0.3797
 1263SOL    HW215426   3.657   3.104   9.099  0.3109  0.6141  0.9496
 1264SOL     OW15427   1.907   2.102  15.832 -0.0102  0.3263 -0.3219
 1264SOL    HW115428   1.855   2.163  15.779 -0.5078  0.5262  0.3812
 1264SOL    HW215429   1.846   2.028  15.835 -0.3197  0.5162 -1.9581
 1265SOL     OW15430   1.675   0.825  12.178 -1.0243 -0.1766  0.2846
 1265SOL    HW115431   1.768   0.829  12.200 -1.1319  1.2968  0.4761
 1265SOL    HW215432   1.681   0.879  12.099  1.2509 -1.1867 -0.2281
 1266SOL     OW15433   3.635   4.587  17.146  0.5585 -0.1565  0.3462
 1266SOL    HW115434   3.650   4.538  17.065 -1.2062 -0.1814  0.0123
 1266SOL    HW215435   3.539   4.577  17.149  0.6229 -0.3419  1.7830
 1267SOL     OW15436   4.573   1.201   3.119 -0.1790 -0.0706 -0.3530
 1267SOL    HW115437   4.527   1.191   3.202  2.6907 -2.2013  1.0119
 1267SOL    HW215438   4.607   1.112   3.103 -1.4225 -0.4226 -0.9997
 1268SOL     OW15439   2.328   0.016  11.354  0.3003  0.1828  0.5654
 1268SOL    HW115440   2.355   0.004  11.445 -0.7954 -0.6333  0.7868
 1268SOL    HW215441   2.379   4.681  11.322  1.6714  1.5635 -0.4370
 1269SOL     OW15442   0.442   1.666   3.366  0.3414  0.5041 -0.1457
 1269SOL    HW115443   0.485   1.685   3.449 -0.2090  1.8561 -0.1677
 1269SOL    HW215444   0.465   1.743   3.314 -1.0807  1.8184  1.1869
 1270SOL     OW15445   1.990   0.586   0.197  0.0374  0.0643 -0.3400
 1270SOL    HW115446   2.083   0.566   0.209 -0.5066 -1.5504  1.2062
 1270SOL    HW215447   1.987   0.657   0.133 -2.0336  0.5087  0.2255
 1271SOL     OW15448   1.639   1.859   8.943  0.0089  0.1761  0.1705
 1271SOL    HW115449   1.711   1.921   8.959 -0.1136  0.3111  0.2006
 1271SOL    HW215450   1.594   1.875   9.026 -0.4992  1.8031 -0.4233
 1272SOL     OW15451   1.011   2.970  16.299 -0.1910 -0.2672  0.8133
 1272SOL    HW115452   0.930   2.930  16.332 -1.5677  1.0613 -0.8969
 1272SOL    HW215453   0.977   3.058  16.281  0.0743 -0.9829 -3.1598
 1273SOL     OW15454   2.119   3.216   2.838  0.3772  0.1019  0.1952
 1273SOL    HW115455   2.072   3.272   2.900  2.0910  1.3730  0.3605
 1273SOL    HW215456   2.108   3.266   2.758 -0.8201 -0.9032 -0.2585
 1274SOL     OW15457   0.578   3.956   7.304 -0.2291  0.5723 -0.0374
 1274SOL    HW115458   0.491   3.984   7.330 -0.8535  0.3139 -1.8613
 1274SOL    HW215459   0.570   3.915   7.218 -1.9096  0.7421  0.0454
 1275SOL     OW15460   2.539   0.376   6.410  0.0484  0.4454 -0.4169
 1275SOL    HW115461   2.609   0.333   6.460 -0.9769 -0.9764 -0.2050
 1275SOL    HW215462   2.569   0.371   6.319  0.5867  1.6358 -0.2975
 1276SOL     OW15463   4.425   4.490   1.471  0.0291  0.1676  0.4298
 1276SOL    HW115464   4.373   4.549   1.417  1.8167  1.0689 -0.3100
 1276SOL    HW215465   4.400   4.404   1.436 -0.1780 -0.0435  1.0850
 1277SOL     OW15466   2.934   3.951   3.804  0.4059 -0.1806  0.1755
 1277SOL    HW115467   2.991   4.026   3.787  1.3615 -0.7666  0.8177
 1277SOL    HW215468   2.969   3.870   3.767  0.8168 -0.3482  0.9342
 1278SOL     OW15469   1.777   3.420   8.763  0.1674 -0.0226 -0.2649
 1278SOL    HW115470   1.813   3.433   8.675 -0.7113  1.5748 -0.3915
 1278SOL    HW215471   1.827   3.492   8.801  0.3139 -1.0459  1.4665
 1279SOL     OW15472   1.382   3.767   8.303  0.1499  0.9541 -0.0152
 1279SOL    HW115473   1.343   3.729   8.225 -0.5967 -2.1343  1.8814
 1279SOL    HW215474   1.386   3.695   8.366 -2.0877  0.2430 -0.7210
 1280SOL     OW15475   2.231   3.845   8.058  0.0112 -0.2368 -0.4528
 1280SOL    HW115476   2.286   3.890   8.121  1.2178 -0.9555 -0.9987
 1280SOL    HW215477   2.157   3.825   8.115 -0.6793  2.2132 -0.5044
 1281SOL     OW15478   4.119   3.979  17.559  0.5478  0.3871 -0.1428
 1281SOL    HW115479   4.039   3.932  17.536  0.6466 -0.6261  1.5781
 1281SOL    HW215480   4.082   4.063  17.585  0.3464  0.7817 -1.7328
 1282SOL     OW15481   1.263   4.097  11.803 -0.1737 -0.2997  0.1811
 1282SOL    HW115482   1.311   4.023  11.764 -0.4201 -0.6214  0.4827
 1282SOL    HW215483   1.336   4.135  11.852 -0.1873 -1.7222  1.3179
 1283SOL     OW15484   2.617   3.143  12.837 -0.1573 -0.0871 -0.2424
 1283SOL    HW115485   2.577   3.226  12.862 -0.2294 -0.3868  0.6363
 1283SOL    HW215486   2.558   3.083  12.883 -1.4348  0.5700 -1.0168
 1284SOL     OW15487   1.082   2.556   0.719  0.5637  0.2650  0.3698
 1284SOL    HW115488   1.121   2.501   0.651  0.0153  1.4253 -0.8795
 1284SOL    HW215489   1.112   2.638   0.680  2.1669 -0.2036  0.5866
 1285SOL     OW15490   0.363   4.110   4.802 -0.3869  0.0448 -0.1065
 1285SOL    HW115491   0.341   4.111   4.709 -1.1317  0.3182  0.0736
 1285SOL    HW215492   0.345   4.192   4.847 -0.0823 -1.2760  2.4792
 1286SOL     OW15493   4.712   3.434   5.236  0.0245 -0.0641  0.4235
 1286SOL    HW115494   0.009   3.464   5.153 -1.6856 -0.2006 -0.3724
 1286SOL    HW215495   0.011   3.347   5.230 -1.4903 -0.5915 -2.0295
 1287SOL     OW15496   1.675   1.680   4.610 -0.2327  0.6354 -0.3639
 1287SOL    HW115497   1.603   1.617   4.601  0.9481 -0.7516 -0.1551
 1287SOL    HW215498   1.617   1.755   4.626 -2.2260 -1.0295  0.2235
 1288SOL     OW15499   2.461   4.674  17.005 -0.5507 -0.9465 -0.1405
 1288SOL    HW115500   2.515   4.656  16.928 -0.3329 -0.8747 -0.0034
 1288SOL    HW215501   2.526   4.708  17.067 -2.0165  0.6205  0.5359
 1289SOL     OW15502   2.696   0.047   5.105 -0.5220 -0.0844 -0.2610
 1289SOL    HW115503   2.672   0.139   5.121 -1.0004  0.1585 -2.2748
 1289SOL    HW215504   2.696   0.026   5.198  1.3885 -0.2297 -0.2927
 1290SOL     OW15505   3.202   0.644   2.512 -0.2700 -0.1510  0.2211
 1290SOL    HW115506   3.134   0.708   2.534  0.6655  1.8179 -2.5686
 1290SOL    HW215507   3.253   0.685   2.442  0.5996 -0.1090  0.8757
 1291SOL     OW15508   4.609   4.117  10.173  0.4642  0.5684 -0.2898
 1291SOL    HW115509   4.659   4.115  10.091 -0.1277  0.2521 -0.6409
 1291SOL    HW215510   4.538   4.171  10.138  0.2810  0.8085  0.4453
 1292SOL     OW15511   0.463   1.396   0.688 -0.4604  0.1148  0.0720
 1292SOL    HW115512   0.378   1.374   0.726 -0.6738  0.5386 -0.1615
 1292SOL    HW215513   0.521   1.320   0.700  0.1152  0.4900 -0.3085
 1293SOL     OW15514   4.299   2.177   6.864  0.2403  0.7503 -0.8055
 1293SOL    HW115515   4.294   2.172   6.769 -2.4864 -1.0187 -0.5588
 1293SOL    HW215516   4.379   2.228   6.877  1.0259 -0.1445 -2.1527
 1294SOL     OW15517   4.420   3.071   4.343  0.2447 -0.4971 -0.0279
 1294SOL    HW115518   4.452   3.000   4.398  1.0538 -0.0223  0.1169
 1294SOL    HW215519   4.331   3.083   4.377  0.6824 -2.7719  1.8793
 1295SOL     OW15520   0.556   1.219   5.429 -0.1177  0.0554 -0.4379
 1295SOL    HW115521   0.481   1.232   5.488 -0.3668  0.7439 -0.9065
 1295SOL    HW215522   0.554   1.301   5.380 -0.9913  1.1416  1.3941
 1296SOL     OW15523   0.369   2.227   3.319 -0.1765  0.3010  0.1629
 1296SOL    HW115524   0.296   2.207   3.260  0.3940 -1.1888 -0.0325
 1296SOL    HW215525   0.382   2.321   3.306  2.9061 -0.1956 -0.2351
 1297SOL     OW15526   0.778   0.531   6.548  0.4177  0.2052 -0.1902
 1297SOL    HW115527   0.732   0.545   6.631 -1.3312 -2.6189 -0.6581
 1297SOL    HW215528   0.860   0.495   6.580  0.4778  2.3460  2.1044
 1298SOL     OW15529   2.959   2.162   5.687 -0.5312 -0.5590 -0.3545
 1298SOL    HW115530   2.898   2.220   5.642 -0.4335  0.0165  0.2666
 1298SOL    HW215531   2.908   2.085   5.661 -1.7455 -0.0203  0.4604
 1299SOL     OW15532   1.728   0.994   3.063 -0.3681 -0.5366 -0.1655
 1299SOL    HW115533   1.798   1.030   3.116 -1.0078 -0.0179  0.3253
 1299SOL    HW215534   1.656   1.036   3.111  1.8609  3.8305 -0.6922
 1300SOL     OW15535   4.155   1.961   6.414  0.5973  0.1272 -0.3041
 1300SOL    HW115536   4.153   1.940   6.508  0.5116  2.0572  0.1134
 1300SOL    HW215537   4.230   2.018   6.403 -1.4085  2.7561 -0.3059
 1301SOL     OW15538   3.016   2.321   8.342 -0.2024  0.0095  0.2468
 1301SOL    HW115539   3.010   2.289   8.252  0.3085 -0.1091  0.2545
 1301SOL    HW215540   2.943   2.383   8.347 -2.4696 -2.6781  0.5778
 1302SOL     OW15541   2.136   2.960   5.954 -0.1375  0.1090  0.6220
 1302SOL    HW115542   2.206   2.949   6.019  1.1597 -0.9044 -0.9450
 1302SOL    HW215543   2.121   2.870   5.923 -0.3081 -0.2187  1.6483
 1303SOL     OW15544   1.190   3.311   7.131  0.2814 -0.0536 -0.0669
 1303SOL    HW115545   1.225   3.248   7.194  0.1225 -0.6666 -0.5840
 1303SOL    HW215546   1.212   3.395   7.171 -0.7922 -1.0445  2.5582
 1304SOL     OW15547   0.634   0.568   9.805  0.0990 -0.1656  0.0724
 1304SOL    HW115548   0.677   0.485   9.825 -1.3079 -0.9788 -0.2926
 1304SOL    HW215549   0.652   0.562   9.712  0.8075  0.0530  0.2018
 1305SOL     OW15550   3.683   4.197  16.660 -0.0245  0.2611 -0.1767
 1305SOL    HW115551   3.679   4.268  16.596  0.3657 -1.5874 -2.2737
 1305SOL    HW215552   3.778   4.189  16.670  0.3718  1.8616 -2.8064
 1306SOL     OW15553   0.521   0.275  10.005  0.3486  0.0722 -0.5357
 1306SOL    HW115554   0.601   0.269   9.953  0.1664 -0.3465 -0.7714
 1306SOL    HW215555   0.556   0.314  10.085  1.3609 -2.9156  0.4644
 1307SOL     OW15556   2.026   2.980  14.076 -0.6388  0.3690  0.1448
 1307SOL    HW115557   2.114   2.972  14.039 -0.6387  0.0021  0.2277
 1307SOL    HW215558   2.039   3.057  14.131 -0.4176  0.3016  0.1848
 1308SOL     OW15559   4.371   3.894   4.513 -0.0585 -0.4493  0.4645
 1308SOL    HW115560   4.390   3.802   4.533  0.9567  0.1226  2.0846
 1308SOL    HW215561   4.325   3.882   4.429  2.7212  0.7570 -1.2092
 1309SOL     OW15562   2.759   3.478   6.939  0.0282 -0.3629 -0.2798
 1309SOL    HW115563   2.774   3.569   6.963 -0.4748 -0.1867 -0.6312
 1309SOL    HW215564   2.713   3.447   7.017 -2.4162  0.1105 -1.5373
 1310SOL     OW15565   0.011   1.075   4.166 -0.7320  0.2783  0.0060
 1310SOL    HW115566   4.661   1.092   4.195 -0.9215  0.1416 -0.4927
 1310SOL    HW215567   0.053   1.099   4.249  0.1696 -0.2937 -0.2903
 1311SOL     OW15568   4.728   4.097   7.084 -0.1413 -0.1145  0.8361
 1311SOL    HW115569   0.022   4.057   7.164 -0.3120 -0.1667  0.8812
 1311SOL    HW215570   0.026   4.185   7.092 -1.2946  0.5543 -0.9499
 1312SOL     OW15571   1.227   1.936   9.364  0.1608  0.0288 -0.3124
 1312SOL    HW115572   1.165   1.977   9.424  1.6862  1.0622  0.5609
 1312SOL    HW215573   1.253   1.857   9.413 -0.0122  0.4566  0.4749
 1313SOL     OW15574   4.492   1.512  10.950  0.4633 -0.3077  0.3080
 1313SOL    HW115575   4.507   1.495  11.043  1.6193  1.7892  0.5000
 1313SOL    HW215576   4.584   1.531  10.936  0.3449 -0.2296 -0.3694
 1314SOL     OW15577   0.001   0.851  13.818  0.4349 -0.0762  0.5419
 1314SOL    HW115578   0.011   0.864  13.724 -2.1519  1.1130  0.4291
 1314SOL    HW215579   0.050   0.775  13.849  0.9267  0.0202 -0.0060
 1315SOL     OW15580   0.048   0.438  13.744  0.3332  0.0433 -0.4272
 1315SOL    HW115581   4.705   0.425  13.790  0.3215 -0.8329 -0.7043
 1315SOL    HW215582   0.028   0.434  13.651 -4.9392  0.1539  0.7047
 1316SOL     OW15583   2.606   3.661  11.617  0.0046 -0.0795 -0.1564
 1316SOL    HW115584   2.650   3.728  11.565 -1.5741  1.2357  0.1898
 1316SOL    HW215585   2.676   3.598  11.633  1.0429  1.5504  1.8095
 1317SOL     OW15586   2.512   3.628   1.299 -0.2136 -0.6109  0.3688
 1317SOL    HW115587   2.475   3.706   1.340  1.5587  0.6996 -0.4977
 1317SOL    HW215588   2.541   3.667   1.216  1.6704  0.1229  1.3600
 1318SOL     OW15589   2.898   2.935   3.867 -0.1077  0.0042 -1.1021
 1318SOL    HW115590   2.875   2.854   3.913 -1.0792  1.2712  0.6368
 1318SOL    HW215591   2.812   2.958   3.832 -0.1091 -0.7671 -1.6061
 1319SOL     OW15592   2.094   2.808   4.816 -0.4377  0.0980 -0.2925
 1319SOL    HW115593   2.160   2.739   4.808 -1.2938 -0.6021 -1.3930
 1319SOL    HW215594   2.041   2.784   4.892 -1.0237 -0.3011 -0.8209
 1320SOL     OW15595   2.219   2.505   6.820 -0.0497 -0.5263 -0.3859
 1320SOL    HW115596   2.279   2.436   6.851  0.1433 -1.0677 -1.9389
 1320SOL    HW215597   2.163   2.455   6.761 -2.1364  2.6054 -1.0014
 1321SOL     OW15598   4.681   4.279   4.156 -0.6219  0.3254  0.7541
 1321SOL    HW115599   4.719   4.306   4.239  0.2385 -2.0949  1.1705
 1321SOL    HW215600   4.707   4.346   4.093 -1.2381 -0.2898 -0.1509
 1322SOL     OW15601   2.838   3.277   4.853 -0.3282 -0.5174  0.5118
 1322SOL    HW115602   2.817   3.237   4.938  1.9789  0.4594  1.5572
 1322SOL    HW215603   2.793   3.362   4.849  2.5842  0.9033 -2.1109
 1323SOL     OW15604   2.649   4.581  15.149  0.2756  0.0125 -0.0765
 1323SOL    HW115605   2.559   4.605  15.168 -0.0149  0.3010 -1.8373
 1323SOL    HW215606   2.643   4.542  15.062  0.0771 -0.7117  0.2647
 1324SOL     OW15607   3.223   2.157   5.490 -0.2277  0.0956 -0.5692
 1324SOL    HW115608   3.134   2.153   5.525 -0.2876 -0.5175 -0.7917
 1324SOL    HW215609   3.213   2.231   5.430  1.2171  2.0115  1.5626
 1325SOL     OW15610   2.556   1.824   2.776  0.2664 -0.5240  0.8301
 1325SOL    HW115611   2.486   1.885   2.753 -0.7854 -1.7860  0.7203
 1325SOL    HW215612   2.634   1.879   2.778 -0.3463  0.2941  1.9576
 1326SOL     OW15613   2.311   3.584   2.435 -0.8167 -0.2483  0.4170
 1326SOL    HW115614   2.388   3.616   2.388 -0.8255  0.8862  1.1642
 1326SOL    HW215615   2.292   3.648   2.503 -0.1761  0.0441  0.3208
 1327SOL     OW15616   1.209   3.486   5.905  0.6370 -0.2415 -0.2112
 1327SOL    HW115617   1.129   3.526   5.870  0.6033  0.4854  0.6655
 1327SOL    HW215618   1.217   3.521   5.994 -0.7823  2.5249 -1.1768
 1328SOL     OW15619   4.594   2.106  16.449  0.0176 -0.3558  0.0794
 1328SOL    HW115620   4.614   2.150  16.532  0.2523  1.3176 -0.8713
 1328SOL    HW215621   4.636   2.167  16.388  0.1602  0.1519  0.6914
 1329SOL     OW15622   1.583   4.087  13.283 -0.0717  0.3802  0.2534
 1329SOL    HW115623   1.632   4.049  13.355  1.1897 -0.9758 -1.3196
 1329SOL    HW215624   1.507   4.030  13.273  0.7543 -0.6835  0.1107
 1330SOL     OW15625   2.666   2.983   0.768  0.1158 -0.4116  0.2143
 1330SOL    HW115626   2.759   2.997   0.747  0.3829 -1.7345  0.5819
 1330SOL    HW215627   2.638   3.064   0.810  0.0221 -1.1426  1.5348
 1331SOL     OW15628   3.042   4.605   8.676 -0.1677 -0.1659 -0.7532
 1331SOL    HW115629   2.957   4.566   8.653 -0.7819 -0.5144  2.1690
 1331SOL    HW215630   3.099   4.549   8.624 -0.4321  0.1912 -1.4406
 1332SOL     OW15631   1.840   4.684   2.456 -0.4372  0.0871  0.2402
 1332SOL    HW115632   1.915   4.700   2.399 -0.7690  1.9943  0.3293
 1332SOL    HW215633   1.872   4.713   2.541  0.2317  0.9894 -0.3102
 1333SOL     OW15634   1.296   0.890   3.438  0.3684  0.2238 -0.0563
 1333SOL    HW115635   1.337   0.896   3.352 -0.7711  5.4565 -0.1964
 1333SOL    HW215636   1.306   0.796   3.456  0.6611  0.6044  1.8207
 1334SOL     OW15637   3.471   3.341   1.724  0.3682  0.3183 -0.6397
 1334SOL    HW115638   3.430   3.272   1.671  0.0576 -0.4345  0.5850
 1334SOL    HW215639   3.417   3.336   1.803 -0.3739  4.0358 -0.8944
 1335SOL     OW15640   1.099   2.821   0.657 -0.8134  0.4218 -0.0777
 1335SOL    HW115641   1.176   2.865   0.620  0.5114 -1.4680  0.4515
 1335SOL    HW215642   1.078   2.878   0.731 -0.1560 -0.4966  0.8093
 1336SOL     OW15643   3.272   0.329   3.600  0.3579  0.2823  0.0345
 1336SOL    HW115644   3.246   0.258   3.542 -0.6446 -0.6845  1.6739
 1336SOL    HW215645   3.352   0.355   3.555  0.0724  1.5427  0.2564
 1337SOL     OW15646   3.065   4.159   8.411  0.4906 -0.1969  0.2407
 1337SOL    HW115647   3.110   4.096   8.466  0.7801 -0.0428  0.1797
 1337SOL    HW215648   3.000   4.102   8.370 -0.8421  0.8746  0.8281
 1338SOL     OW15649   2.963   4.009  17.190 -0.2832 -0.4205 -0.4877
 1338SOL    HW115650   2.991   4.101  17.187 -0.6767 -0.2618  0.4419
 1338SOL    HW215651   2.906   4.003  17.114 -0.8577 -0.2518 -0.0722
 1339SOL     OW15652   4.495   3.093  12.283  0.0300  0.3770 -0.0998
 1339SOL    HW115653   4.419   3.112  12.229  0.4437  2.0454 -0.0891
 1339SOL    HW215654   4.536   3.179  12.288 -0.2039  0.3837  1.7212
 1340SOL     OW15655   3.662   0.404   4.296  0.0216 -0.8651  0.1527
 1340SOL    HW115656   3.652   0.451   4.214 -0.0667  1.4456  1.4666
 1340SOL    HW215657   3.757   0.392   4.300  0.1700  0.1997 -0.1613
 1341SOL     OW15658   2.365   3.175   5.834  0.8092  0.1608  0.5984
 1341SOL    HW115659   2.318   3.098   5.803  2.7499 -0.0553 -1.8496
 1341SOL    HW215660   2.437   3.131   5.880 -0.8511 -1.9563  1.1604
 1342SOL     OW15661   4.421   1.425  10.076 -0.4353  0.0891  0.4626
 1342SOL    HW115662   4.386   1.472  10.152  0.0049  0.6074  0.3421
 1342SOL    HW215663   4.484   1.374  10.127 -0.0189  0.1021 -0.0402
 1343SOL     OW15664   2.392   1.489   9.193  0.1668  0.0712 -0.7563
 1343SOL    HW115665   2.406   1.582   9.173 -0.0278  0.2930  0.1331
 1343SOL    HW215666   2.372   1.498   9.286 -0.8791 -0.0520 -0.9715
 1344SOL     OW15667   1.276   2.146  14.563  0.6973  0.5883  0.0132
 1344SOL    HW115668   1.187   2.120  14.539  0.3736  1.5619  0.1598
 1344SOL    HW215669   1.303   2.058  14.590  0.6529  0.0286 -1.7678
 1345SOL     OW15670   4.199   2.872   4.229 -0.2320  0.3851  0.3008
 1345SOL    HW115671   4.185   2.799   4.168 -1.5615 -0.0622  1.1513
 1345SOL    HW215672   4.231   2.822   4.304  1.6284  1.7572  0.4314
 1346SOL     OW15673   0.982   4.399   4.050  0.0476 -0.4713  0.0469
 1346SOL    HW115674   0.895   4.373   4.017 -0.4141  0.8917  0.2169
 1346SOL    HW215675   0.998   4.336   4.120 -1.0668 -0.5965  0.1913
 1347SOL     OW15676   0.352   4.579   7.066  0.8344 -0.1455  0.4321
 1347SOL    HW115677   0.437   4.537   7.049 -0.0365 -1.5629 -0.4164
 1347SOL    HW215678   0.335   4.555   7.157  1.7228 -0.0790  0.6181
 1348SOL     OW15679   0.810   1.711  11.889 -0.1133 -0.1242 -0.7194
 1348SOL    HW115680   0.753   1.775  11.931  1.8315  0.7695  0.5167
 1348SOL    HW215681   0.827   1.765  11.812  0.5217 -0.8362 -1.0826
 1349SOL     OW15682   2.318   2.393  13.616 -0.5200  0.7466  0.2956
 1349SOL    HW115683   2.277   2.345  13.688 -1.1059  0.6152 -0.1243
 1349SOL    HW215684   2.408   2.390  13.649 -0.9464  3.2763  1.6874
 1350SOL     OW15685   2.794   4.722  16.566 -0.3541 -0.3326  0.4633
 1350SOL    HW115686   2.868   4.665  16.544 -0.1312  0.4882 -0.9551
 1350SOL    HW215687   2.748   4.721  16.482  0.4617 -2.0619  0.0409
 1351SOL     OW15688   1.604   0.305   9.120 -0.1536  0.5019  0.0172
 1351SOL    HW115689   1.677   0.244   9.122  1.2068  2.0880 -0.6830
 1351SOL    HW215690   1.586   0.318   9.213  0.2548  1.5724 -0.0482
 1352SOL     OW15691   2.014   2.271   5.456  0.0846 -0.1028 -0.4903
 1352SOL    HW115692   2.100   2.253   5.495 -0.7357 -2.5034  0.1921
 1352SOL    HW215693   2.041   2.332   5.387  0.2298  1.7495  1.2064
 1353SOL     OW15694   0.474   4.482   9.604  0.6847 -0.3979 -0.1488
 1353SOL    HW115695   0.481   4.412   9.669  0.7075 -0.6712 -0.4457
 1353SOL    HW215696   0.562   4.520   9.595  0.6440 -0.6915 -1.8289
 1354SOL     OW15697   3.205   4.582   7.617 -0.1268  0.3705  0.3639
 1354SOL    HW115698   3.187   4.675   7.628 -4.1682 -0.3656 -0.0475
 1354SOL    HW215699   3.282   4.574   7.674  0.5680  0.4337 -0.5676
 1355SOL     OW15700   3.309   0.919  10.337  0.1662 -0.5839 -0.0083
 1355SOL    HW115701   3.289   0.962  10.420  0.3905 -1.3507  0.4414
 1355SOL    HW215702   3.297   0.826  10.357 -1.4016 -1.2854 -4.1451
 1356SOL     OW15703   1.616   0.546   7.451  0.5107 -0.2311  0.2963
 1356SOL    HW115704   1.615   0.619   7.512 -1.7642  1.4419 -1.7503
 1356SOL    HW215705   1.548   0.565   7.386  0.4808  0.8480  0.6563
 1357SOL     OW15706   1.411   0.158   4.744  0.9697 -0.1664 -0.1180
 1357SOL    HW115707   1.497   0.199   4.737 -0.0250  2.2050  1.2962
 1357SOL    HW215708   1.399   0.196   4.831 -0.3649  2.1184 -1.2876
 1358SOL     OW15709   2.270   3.312  12.091 -0.5950  0.3895 -0.0759
 1358SOL    HW115710   2.199   3.287  12.031 -1.2153 -1.8029  1.5986
 1358SOL    HW215711   2.310   3.227  12.105 -0.9249 -0.0272 -1.6190
 1359SOL     OW15712   0.359   1.761   8.719  0.6305 -0.5085 -0.2046
 1359SOL    HW115713   0.403   1.836   8.680 -1.8339  0.9936 -0.0987
 1359SOL    HW215714   0.328   1.804   8.799  3.2627  0.6249  0.1822
 1360SOL     OW15715   0.328   4.346  17.017  0.3982 -0.5579 -0.0063
 1360SOL    HW115716   0.281   4.284  16.962  0.1359 -0.5598  0.2241
 1360SOL    HW215717   0.416   4.309  17.011  0.4652 -0.0699 -2.1206
 1361SOL     OW15718   4.413   1.199   6.064 -0.3828  0.2725 -0.4822
 1361SOL    HW115719   4.484   1.233   6.119 -0.7745 -0.7654  0.6554
 1361SOL    HW215720   4.375   1.276   6.021  2.0429  2.6516  1.6833
 1362SOL     OW15721   2.812   4.214   5.749  0.4754 -0.1004 -0.2716
 1362SOL    HW115722   2.855   4.217   5.663 -0.7009 -0.1085 -0.8579
 1362SOL    HW215723   2.884   4.229   5.810  0.9712 -1.1499 -0.6116
 1363SOL     OW15724   2.335   2.822   3.662 -0.6610 -0.7898 -0.0272
 1363SOL    HW115725   2.243   2.842   3.645 -1.0088 -2.5019 -0.1491
 1363SOL    HW215726   2.332   2.800   3.755 -0.7021 -0.2803  0.0909
 1364SOL     OW15727   0.347   3.752   4.527 -0.0897 -0.1519 -0.2540
 1364SOL    HW115728   0.286   3.806   4.576  1.1668 -0.4354  1.6302
 1364SOL    HW215729   0.285   3.714   4.464  0.0895 -0.2239 -0.3874
 1365SOL     OW15730   1.483   1.494  12.454  0.4803 -0.7282 -0.1339
 1365SOL    HW115731   1.520   1.542  12.528 -3.0618 -0.1043  1.2437
 1365SOL    HW215732   1.546   1.424  12.441  2.5019  0.8164  1.4998
 1366SOL     OW15733   2.314   1.902   4.563 -0.1314  0.6727 -0.1033
 1366SOL    HW115734   2.372   1.977   4.544 -1.0601  1.6241  0.8118
 1366SOL    HW215735   2.267   1.937   4.639 -0.5564  0.2562 -0.1808
 1367SOL     OW15736   0.216   3.095   4.629  0.1035  0.2632 -0.0443
 1367SOL    HW115737   0.260   3.135   4.704 -1.4969 -0.7872  1.4273
 1367SOL    HW215738   0.142   3.053   4.671 -0.6392  0.9910 -0.6107
 1368SOL     OW15739   0.131   0.554   8.952  0.3327  0.2923 -0.0843
 1368SOL    HW115740   0.164   0.639   8.978  0.1290  0.1772  0.5417
 1368SOL    HW215741   0.058   0.540   9.013  0.8609  0.4558  0.5777
 1369SOL     OW15742   4.232   3.409   3.481 -1.0524 -0.4764  0.0684
 1369SOL    HW115743   4.167   3.450   3.424 -1.3853 -2.3585 -0.9158
 1369SOL    HW215744   4.211   3.452   3.564 -0.0438  1.5020 -0.6822
 1370SOL     OW15745   4.294   0.353  10.166  0.1946  0.1490  0.7508
 1370SOL    HW115746   4.266   0.261  10.156  0.2154  0.3447 -1.2557
 1370SOL    HW215747   4.294   0.350  10.261 -1.9903  1.0651  0.7761
 1371SOL     OW15748   1.641   0.905   2.654 -0.3235 -0.1468  0.3546
 1371SOL    HW115749   1.659   0.986   2.702 -3.0623 -0.0219  1.1729
 1371SOL    HW215750   1.730   0.886   2.624 -1.2190 -1.3489 -1.5085
 1372SOL     OW15751   3.810   0.886   8.261  0.4495 -0.4377 -0.5104
 1372SOL    HW115752   3.902   0.879   8.237  0.3123  1.8909 -1.7213
 1372SOL    HW215753   3.814   0.841   8.346  2.1553  0.0442 -0.3307
 1373SOL     OW15754   4.118   2.863   8.501 -0.7322  0.4584 -0.1645
 1373SOL    HW115755   4.070   2.840   8.580 -0.9056  2.8424  0.4283
 1373SOL    HW215756   4.072   2.818   8.430 -0.2586 -1.5668  0.8296
 1374SOL     OW15757   3.968   2.656   4.738  0.1980  0.5311  0.3930
 1374SOL    HW115758   3.978   2.748   4.717  1.9765  0.5537  1.2348
 1374SOL    HW215759   3.942   2.624   4.652  0.4629  1.2143  0.0609
 1375SOL     OW15760   2.331   2.592  13.291 -0.2064 -0.3027 -0.6063
 1375SOL    HW115761   2.348   2.515  13.237  2.6866  1.3755 -2.1011
 1375SOL    HW215762   2.380   2.570  13.371  0.3635 -1.4507 -1.2760
 1376SOL     OW15763   2.357   0.817  16.777 -0.4446  0.2855 -0.2582
 1376SOL    HW115764   2.435   0.871  16.789  1.5609 -2.8763  0.7347
 1376SOL    HW215765   2.323   0.808  16.866  1.4781 -2.5259  0.1776
 1377SOL     OW15766   1.428   2.251  10.082  0.0349 -0.8991 -0.0383
 1377SOL    HW115767   1.361   2.241  10.014 -1.3485 -0.0468  1.1847
 1377SOL    HW215768   1.422   2.166  10.126  1.9540  0.3489  2.6184
 1378SOL     OW15769   1.652   4.610   5.898 -0.2246  0.4060 -0.2209
 1378SOL    HW115770   1.711   4.626   5.824  0.5453 -0.9718  0.0851
 1378SOL    HW215771   1.637   4.698   5.930 -2.0069 -0.2093  0.5941
 1379SOL     OW15772   2.431   2.457   8.633 -0.7239 -0.1123  0.7192
 1379SOL    HW115773   2.444   2.390   8.566  0.3287  0.6549  0.1609
 1379SOL    HW215774   2.486   2.411   8.697  0.8184 -1.2817 -1.4573
 1380SOL     OW15775   0.772   1.421  17.716 -0.6552  0.1366 -0.2901
 1380SOL    HW115776   0.798   1.419   0.052 -0.2007  0.3186 -0.4141
 1380SOL    HW215777   0.677   1.432  17.725 -0.5548 -0.4007  1.4902
 1381SOL     OW15778   4.550   4.583   5.913 -0.0090  0.2259  0.0736
 1381SOL    HW115779   4.646   4.592   5.915 -0.0324  0.7179 -1.1897
 1381SOL    HW215780   4.543   4.539   5.828 -2.4298  1.7153 -0.4965
 1382SOL     OW15781   1.093   4.354   8.728  0.0367 -0.2152  0.3694
 1382SOL    HW115782   1.026   4.407   8.770  0.0527  1.4653 -1.7511
 1382SOL    HW215783   1.158   4.424   8.735 -0.6198  0.2086  2.1449
 1383SOL     OW15784   2.141   2.276   3.181 -0.3212 -0.1570  0.0639
 1383SOL    HW115785   2.124   2.204   3.242 -3.1245 -0.3661 -0.9766
 1383SOL    HW215786   2.093   2.247   3.104 -0.6037 -0.8252  0.4910
 1384SOL     OW15787   2.157   3.653  11.106 -0.2152  0.2316 -0.0423
 1384SOL    HW115788   2.147   3.742  11.141  1.6278 -0.3747  2.0095
 1384SOL    HW215789   2.151   3.666  11.012 -1.5498 -2.4412 -0.3137
 1385SOL     OW15790   4.694   0.802  11.920  0.2651 -0.2879 -0.0944
 1385SOL    HW115791   4.602   0.785  11.897  0.4243 -1.8389  0.3989
 1385SOL    HW215792   4.695   0.728  11.981  0.3917 -1.1463 -1.1320
 1386SOL     OW15793   2.687   0.725   1.825  0.7443  0.3934 -0.4603
 1386SOL    HW115794   2.630   0.660   1.783 -1.6575  2.3777 -0.3030
 1386SOL    HW215795   2.766   0.671   1.832  0.4917 -0.0913 -1.2629
 1387SOL     OW15796   1.777   3.536   5.482  0.2759 -0.3648 -0.3806
 1387SOL    HW115797   1.719   3.464   5.507 -0.0476  0.1546  0.3505
 1387SOL    HW215798   1.712   3.602   5.457 -1.9284 -2.2607  0.3959
 1388SOL     OW15799   1.011   2.041   9.559 -0.4039  0.1463  0.3012
 1388SOL    HW115800   0.919   2.055   9.581 -0.5741  1.2624 -1.1524
 1388SOL    HW215801   1.048   2.122   9.593 -1.9627  0.9010  0.2099
 1389SOL     OW15802   3.927   0.601   4.742 -0.0648 -0.7109 -0.4092
 1389SOL    HW115803   4.022   0.613   4.738 -0.0271 -0.2356  1.4984
 1389SOL    HW215804   3.908   0.511   4.717 -0.2726 -0.7290 -0.1862
 1390SOL     OW15805   3.121   0.015  17.164 -0.7152  0.3533 -0.2227
 1390SOL    HW115806   3.057   0.002  17.094  0.3500 -1.3601 -0.8813
 1390SOL    HW215807   3.087   0.095  17.204 -1.1413 -0.4838  1.1214
 1391SOL     OW15808   2.137   1.178   7.908  0.1370  0.3533  0.4752
 1391SOL    HW115809   2.082   1.251   7.881 -0.7452 -0.5906 -0.3035
 1391SOL    HW215810   2.197   1.164   7.835 -2.1101 -1.2698 -1.0994
 1392SOL     OW15811   3.360   0.245   4.912 -0.3282  0.2277  0.1403
 1392SOL    HW115812   3.265   0.243   4.906 -0.1013 -0.4040 -3.6949
 1392SOL    HW215813   3.392   0.315   4.854 -0.1259  0.1949  0.2119
 1393SOL     OW15814   3.165   3.906  12.084  0.0159 -0.1903  0.6426
 1393SOL    HW115815   3.175   3.904  11.989 -1.2920  1.9352  0.4706
 1393SOL    HW215816   3.082   3.952  12.098 -1.5936 -2.6213 -0.9200
 1394SOL     OW15817   0.760   2.214   9.016 -0.0593  0.5907 -0.3454
 1394SOL    HW115818   0.682   2.185   8.969 -0.8039  1.4741  0.3543
 1394SOL    HW215819   0.726   2.214   9.105 -1.8144  0.0812 -1.0198
 1395SOL     OW15820   1.444   1.244   7.139 -0.4911 -0.2000  0.2768
 1395SOL    HW115821   1.525   1.234   7.088  1.1544  1.1365  2.6219
 1395SOL    HW215822   1.403   1.315   7.089 -0.5332 -0.5659 -0.2129
 1396SOL     OW15823   4.235   1.012   4.244  0.0867  0.2275  0.4569
 1396SOL    HW115824   4.161   1.048   4.294 -0.2986 -0.2937  0.2569
 1396SOL    HW215825   4.207   1.028   4.154  1.1096 -0.4930  0.0156
 1397SOL     OW15826   2.031   2.017   4.247  0.7688 -0.0875 -0.3473
 1397SOL    HW115827   2.111   1.965   4.239  1.8765  1.3968  0.8740
 1397SOL    HW215828   1.995   1.979   4.328  0.3657  2.6326  0.7644
 1398SOL     OW15829   0.336   1.393  12.524 -0.2316  0.0876  0.3939
 1398SOL    HW115830   0.337   1.369  12.617 -2.2942 -1.8814 -0.0860
 1398SOL    HW215831   0.389   1.472  12.527 -0.5265  0.1786  3.5470
 1399SOL     OW15832   3.105   0.915  14.300 -0.1293  0.2409  0.3693
 1399SOL    HW115833   3.084   0.823  14.284 -1.8150  0.6062  0.4614
 1399SOL    HW215834   3.029   0.967  14.273 -1.8912 -1.7807  1.4357
 1400SOL     OW15835   1.944   3.466   0.262  0.1788 -0.0756 -0.2628
 1400SOL    HW115836   1.880   3.395   0.269  0.0009  0.1402  0.3054
 1400SOL    HW215837   1.877   3.534   0.259 -0.4791 -0.6629  1.5263
 1401SOL     OW15838   3.525   4.732   2.872  0.2132  0.0290 -0.4528
 1401SOL    HW115839   3.454   4.717   2.934  0.1195  0.8811 -0.3536
 1401SOL    HW215840   3.494   0.073   2.831  1.8437  1.0012  0.1731
 1402SOL     OW15841   2.826   0.206  14.823  0.2964  0.0683  0.0802
 1402SOL    HW115842   2.921   0.202  14.829  0.3387 -0.0384 -0.6424
 1402SOL    HW215843   2.828   0.144  14.750  1.1859  0.9169 -0.6146
 1403SOL     OW15844   1.638   0.150   2.396 -0.4881  0.1933 -0.6444
 1403SOL    HW115845   1.703   0.082   2.412  1.7708  2.2306 -1.1703
 1403SOL    HW215846   1.633   0.182   2.487  1.1863  0.1857 -0.5533
 1404SOL     OW15847   1.973   0.754   0.958 -0.2235  0.2260  0.2255
 1404SOL    HW115848   1.913   0.712   0.896  0.5125 -0.9736  0.3154
 1404SOL    HW215849   1.926   0.743   1.040  0.8328  1.5756  1.0201
 1405SOL     OW15850   2.854   3.062   6.151  0.4531  0.1388 -0.2487
 1405SOL    HW115851   2.769   3.017   6.154  0.7664 -0.5319 -1.3152
 1405SOL    HW215852   2.857   3.117   6.072  2.3577 -0.5449 -0.6461
 1406SOL     OW15853   0.308   4.184   8.790  0.0921 -0.3293  0.4620
 1406SOL    HW115854   0.310   4.139   8.706  0.4008 -0.6046  0.6174
 1406SOL    HW215855   0.240   4.247   8.768  0.4033 -0.1819 -0.0706
 1407SOL     OW15856   0.420   1.202   9.923 -0.0415  0.1163 -0.2173
 1407SOL    HW115857   0.395   1.264   9.853 -0.2187  0.2707 -0.0175
 1407SOL    HW215858   0.502   1.247   9.945 -0.2622  1.4750 -2.1721
 1408SOL     OW15859   3.859   4.292   6.940 -1.0656 -0.0697 -0.4376
 1408SOL    HW115860   3.922   4.267   7.008  0.1317  2.9138 -0.4336
 1408SOL    HW215861   3.874   4.215   6.885 -0.2099  0.4047 -0.8652
 1409SOL     OW15862   4.442   3.204   4.096 -0.3641  0.0428 -0.2599
 1409SOL    HW115863   4.459   3.297   4.111 -0.8520  0.1781 -0.5298
 1409SOL    HW215864   4.463   3.165   4.181  1.3837 -0.9457 -1.1602
 1410SOL     OW15865   3.595   2.380   6.817 -0.5506 -0.0849 -0.1228
 1410SOL    HW115866   3.621   2.471   6.809  1.2650 -0.6992 -1.2658
 1410SOL    HW215867   3.679   2.336   6.824 -0.0729  0.9610  0.6522
 1411SOL     OW15868   0.671   4.011   3.563 -0.2031 -0.5515 -0.1635
 1411SOL    HW115869   0.601   4.068   3.533  1.3063  0.7216 -1.3062
 1411SOL    HW215870   0.621   3.937   3.598 -0.7006 -0.5296 -0.8402
 1412SOL     OW15871   4.281   0.091   8.895  0.2749  0.0576  0.5782
 1412SOL    HW115872   4.329   0.127   8.821  0.5489 -1.3419  0.0798
 1412SOL    HW215873   4.272   4.738   8.872  0.1412  0.5377 -1.3095
 1413SOL     OW15874   3.447   4.215   1.876 -0.3771 -0.6621 -0.1355
 1413SOL    HW115875   3.445   4.132   1.924  0.7589 -0.2609  0.6151
 1413SOL    HW215876   3.397   4.177   1.804 -0.9307  0.1578 -0.1735
 1414SOL     OW15877   4.022   3.445   1.182 -0.4610 -1.0003 -0.7226
 1414SOL    HW115878   3.976   3.415   1.103 -0.3833 -2.0695 -0.3599
 1414SOL    HW215879   4.110   3.452   1.144 -0.4714  0.6684 -0.4504
 1415SOL     OW15880   0.991   0.036   4.218 -0.1235  0.3595 -0.6622
 1415SOL    HW115881   0.904   0.033   4.180 -0.1559 -0.8524 -0.5171
 1415SOL    HW215882   1.037   4.722   4.153  1.5748  1.5133 -0.4105
 1416SOL     OW15883   3.640   1.820   2.172 -0.3298  0.2322 -0.1291
 1416SOL    HW115884   3.639   1.887   2.240 -0.0940  0.4054 -0.2995
 1416SOL    HW215885   3.635   1.878   2.096 -0.6321  2.3816  1.5280
 1417SOL     OW15886   0.884   0.353  10.446  0.2482 -0.7088  0.1009
 1417SOL    HW115887   0.940   0.280  10.420  2.8410  1.2946  0.0532
 1417SOL    HW215888   0.882   0.351  10.541  0.5852  3.6297  0.2099
 1418SOL     OW15889   1.332   4.510   4.565 -0.4088 -0.3447  0.6666
 1418SOL    HW115890   1.426   4.524   4.554 -0.4305 -0.8154 -0.1064
 1418SOL    HW215891   1.299   4.596   4.539 -1.9599 -1.1053  0.0601
 1419SOL     OW15892   2.701   4.549   0.645 -0.3489  0.2640 -0.2606
 1419SOL    HW115893   2.644   4.472   0.638 -0.7207  0.5817 -0.6864
 1419SOL    HW215894   2.634   4.617   0.645 -0.1340  0.4764 -1.3104
 1420SOL     OW15895   3.902   3.464   6.016  0.1244 -0.1940 -0.0999
 1420SOL    HW115896   3.863   3.391   6.063  0.8507 -0.7923 -0.4350
 1420SOL    HW215897   3.913   3.427   5.929  1.9479 -1.3471  0.6197
 1421SOL     OW15898   0.135   2.885   3.173  0.7314  0.7057 -0.3697
 1421SOL    HW115899   0.225   2.863   3.199 -0.0824  2.0083  3.5063
 1421SOL    HW215900   0.104   2.799   3.146  0.5844  0.8180 -0.5582
 1422SOL     OW15901   3.299   2.082  16.084 -0.4706 -0.2486  0.4657
 1422SOL    HW115902   3.344   2.152  16.132 -1.1228  1.2263 -1.0721
 1422SOL    HW215903   3.324   2.107  15.995 -0.9392 -0.7809  0.1929
 1423SOL     OW15904   3.162   3.678   6.120  0.0498  0.4678  0.4988
 1423SOL    HW115905   3.149   3.593   6.079  2.2006  0.7778 -0.7991
 1423SOL    HW215906   3.255   3.669   6.140 -0.3040  2.3001  3.1367
 1424SOL     OW15907   1.842   0.080   3.337  0.2537 -0.3182 -0.5612
 1424SOL    HW115908   1.798   0.052   3.257  0.5626 -1.7303 -0.2363
 1424SOL    HW215909   1.918   0.124   3.299  0.5786 -0.5809 -0.2175
 1425SOL     OW15910   3.107   3.434   2.080  0.4774  0.3704 -0.1805
 1425SOL    HW115911   3.046   3.394   2.141  0.5718 -0.0074 -0.3332
 1425SOL    HW215912   3.109   3.527   2.101  0.1153 -0.5470  3.9105
 1426SOL     OW15913   2.455   1.324   3.974  0.1361 -0.1426 -0.1924
 1426SOL    HW115914   2.550   1.337   3.972  0.0428  0.9852  1.8868
 1426SOL    HW215915   2.437   1.374   4.055 -0.8458 -0.4724 -0.2054
 1427SOL     OW15916   0.703   0.745  13.792 -0.0501 -0.7563  0.2199
 1427SOL    HW115917   0.612   0.738  13.820 -0.3510  0.2333 -0.5248
 1427SOL    HW215918   0.726   0.813  13.856 -1.3101  0.0386 -0.1821
 1428SOL     OW15919   1.113   1.940   4.188 -0.0299  0.2668  0.0633
 1428SOL    HW115920   1.116   1.912   4.096 -0.8470  0.0066  0.1149
 1428SOL    HW215921   1.206   1.927   4.207 -0.2590 -1.2969  0.1401
 1429SOL     OW15922   1.955   0.850   5.820  0.7388 -0.1577 -0.1240
 1429SOL    HW115923   2.021   0.793   5.859  1.5537 -0.2232 -1.6372
 1429SOL    HW215924   1.901   0.787   5.772  0.1888 -1.2707  1.9120
 1430SOL     OW15925   3.593   1.332   2.912  0.0780 -0.1237 -0.5248
 1430SOL    HW115926   3.526   1.335   2.843 -1.2117  2.0201  0.8227
 1430SOL    HW215927   3.556   1.297   2.994 -1.3631 -0.0398 -1.1331
 1431SOL     OW15928   3.047   1.355   1.746 -0.2256  0.1232  0.2402
 1431SOL    HW115929   3.101   1.320   1.675 -0.3084  2.4847 -0.9867
 1431SOL    HW215930   3.103   1.328   1.818  2.8699  2.5550 -1.2465
 1432SOL     OW15931   0.564   0.448   8.404  0.1058  0.2350  0.2581
 1432SOL    HW115932   0.562   0.353   8.394 -1.1394  0.2227  0.7573
 1432SOL    HW215933   0.529   0.486   8.323  1.1602  0.5106 -0.0815
 1433SOL     OW15934   4.018   2.385   9.523 -0.0317  0.1715  0.6219
 1433SOL    HW115935   3.974   2.307   9.556 -1.8287  1.0804  0.3914
 1433SOL    HW215936   3.936   2.434   9.530  0.0584  0.3160  0.6830
 1434SOL     OW15937   1.830   1.767   9.249 -0.5533  0.5363 -0.1351
 1434SOL    HW115938   1.741   1.738   9.228 -0.4184  2.0311 -2.8170
 1434SOL    HW215939   1.815   1.847   9.298  0.2970  1.2456 -1.0285
 1435SOL     OW15940   3.725   2.254   2.429 -0.6578 -0.2140  0.0463
 1435SOL    HW115941   3.681   2.315   2.370  1.5546 -0.1741 -1.5354
 1435SOL    HW215942   3.756   2.312   2.499 -1.0562 -0.6096  0.5533
 1436SOL     OW15943   0.119   4.065   7.325 -0.6332 -0.1695  0.4421
 1436SOL    HW115944   0.060   4.071   7.400 -1.4435 -0.6384 -0.1672
 1436SOL    HW215945   0.164   3.983   7.345 -2.0846 -0.9942  0.2965
 1437SOL     OW15946   4.491   0.063   4.238  0.1935  1.0608  0.3731
 1437SOL    HW115947   4.568   0.006   4.236 -2.0818 -2.0634  2.4542
 1437SOL    HW215948   4.444   0.027   4.163  0.1283  0.3550  0.7531
 1438SOL     OW15949   0.386   3.895   7.008  0.4509  0.2779  0.3414
 1438SOL    HW115950   0.302   3.881   6.965  0.8081 -1.6499  0.3105
 1438SOL    HW215951   0.430   3.814   6.983  0.5520  0.3016  0.4407
 1439SOL     OW15952   1.516   2.108   5.719  0.3431 -0.1834 -0.0577
 1439SOL    HW115953   1.503   2.119   5.625 -0.1207 -2.0532 -0.2193
 1439SOL    HW215954   1.611   2.121   5.720 -0.0249  2.3233  0.5742
 1440SOL     OW15955   2.975   2.725   2.699  0.5668  0.1913 -0.7111
 1440SOL    HW115956   2.987   2.741   2.792  0.0938 -0.3071 -0.5613
 1440SOL    HW215957   2.895   2.673   2.701  1.3317 -0.9258  0.1333
 1441SOL     OW15958   2.282   0.587  10.435 -0.4576  0.0162  0.4166
 1441SOL    HW115959   2.324   0.594  10.350  0.3458  0.1497  0.8212
 1441SOL    HW215960   2.326   0.652  10.489  0.1921 -0.0394 -0.0494
 1442SOL     OW15961   1.301   3.855   4.585 -0.2231  0.3439  0.0134
 1442SOL    HW115962   1.352   3.774   4.592 -0.8428  0.0809  1.3285
 1442SOL    HW215963   1.368   3.912   4.547  1.8465 -1.0408  1.5371
 1443SOL     OW15964   1.666   2.711   8.027  0.0080  0.6303 -0.1793
 1443SOL    HW115965   1.700   2.622   8.029  1.3198  1.1812  2.5898
 1443SOL    HW215966   1.633   2.718   8.116  0.2291 -1.2981  0.0594
 1444SOL     OW15967   4.059   2.584  15.295  0.0788  0.1124 -0.0949
 1444SOL    HW115968   4.006   2.560  15.219 -2.5083  2.0867  1.0633
 1444SOL    HW215969   3.991   2.620  15.352 -0.3080  1.8006 -1.5822
 1445SOL     OW15970   2.305   0.484   5.510  0.2661  0.0836  0.0617
 1445SOL    HW115971   2.392   0.509   5.542  0.1239  1.9837 -0.9958
 1445SOL    HW215972   2.340   0.464   5.423  0.7801 -0.1157  0.3170
 1446SOL     OW15973   2.764   3.915   5.785  0.0339 -0.3643  0.1681
 1446SOL    HW115974   2.773   4.010   5.782 -1.3195 -0.2413 -0.3252
 1446SOL    HW215975   2.699   3.909   5.855  3.0765 -1.5816  2.9169
 1447SOL     OW15976   1.850   0.356   4.165  0.2566 -0.5759  0.1358
 1447SOL    HW115977   1.795   0.368   4.088 -0.0623 -1.5660  0.2124
 1447SOL    HW215978   1.936   0.366   4.125 -0.2734 -0.1541 -0.9172
 1448SOL     OW15979   2.503   1.735   4.326 -0.3641  0.4021  0.0466
 1448SOL    HW115980   2.557   1.728   4.405  0.0878  0.4569 -0.2606
 1448SOL    HW215981   2.566   1.752   4.257 -0.0348  1.5270  0.6258
 1449SOL     OW15982   2.051   3.410   5.091  0.3389 -0.1203  0.5735
 1449SOL    HW115983   2.008   3.460   5.022  0.0585 -3.9121 -2.0071
 1449SOL    HW215984   2.027   3.462   5.168 -0.4149  0.9514 -0.3884
 1450SOL     OW15985   3.335   4.027   0.422  0.3593  0.0124  0.5441
 1450SOL    HW115986   3.359   4.101   0.367 -0.5500 -1.4468 -1.7846
 1450SOL    HW215987   3.317   3.953   0.364 -0.1545  0.5696 -0.0030
 1451SOL     OW15988   2.207   3.517  10.638 -0.2135 -0.2867  0.5092
 1451SOL    HW115989   2.293   3.500  10.677  1.1196  1.1237 -1.8386
 1451SOL    HW215990   2.152   3.537  10.714 -2.3502 -4.0918 -0.0399
 1452SOL     OW15991   2.416   4.027   2.445 -0.3188  0.1331  0.2873
 1452SOL    HW115992   2.346   4.019   2.380  0.8119 -3.5735 -0.4966
 1452SOL    HW215993   2.478   4.093   2.415  0.9058 -2.1737 -2.3357
 1453SOL     OW15994   2.747   0.575  13.519  0.5233  0.5020 -0.3835
 1453SOL    HW115995   2.826   0.610  13.477 -0.2732  2.1778 -0.5171
 1453SOL    HW215996   2.737   0.626  13.600 -1.7270 -0.6318  0.0526
 1454SOL     OW15997   4.251   2.956   9.264 -0.1916  0.5179  0.4549
 1454SOL    HW115998   4.278   2.918   9.181 -1.4929 -1.5586  0.9721
 1454SOL    HW215999   4.176   3.011   9.242  1.0948  1.6423 -1.1012
 1455SOL     OW16000   0.430   4.367   3.121  0.2292  0.2787  0.4747
 1455SOL    HW116001   0.475   4.421   3.186 -0.9863 -0.0436  1.5680
 1455SOL    HW216002   0.405   4.421   3.046  0.6702  1.2498  1.0080
 1456SOL     OW16003   4.033   0.412   1.744  0.4627 -0.1293  0.1805
 1456SOL    HW116004   4.070   0.342   1.798 -0.0412  0.0738  0.7828
 1456SOL    HW216005   3.956   0.367   1.707 -0.0639  0.7201  0.2578
 1457SOL     OW16006   3.051   2.203  14.998 -0.5101 -0.3292 -0.3530
 1457SOL    HW116007   3.035   2.175  14.908 -1.9532  1.5660 -0.6970
 1457SOL    HW216008   2.963   2.236  15.014 -0.3878 -0.5984  0.8695
 1458SOL     OW16009   1.787   1.282  12.443  0.4960  0.0075 -0.3339
 1458SOL    HW116010   1.844   1.232  12.502  1.0400 -0.7445 -1.4982
 1458SOL    HW216011   1.731   1.208  12.421  1.2808 -0.3121 -1.2583
 1459SOL     OW16012   2.620   4.224   2.221  0.0052  0.8028  0.2602
 1459SOL    HW116013   2.561   4.294   2.194  0.3707  0.5854 -1.1533
 1459SOL    HW216014   2.670   4.251   2.298  3.6476 -3.0651 -0.7334
 1460SOL     OW16015   4.707   0.800   7.564  0.0211 -0.2118 -0.4260
 1460SOL    HW116016   4.683   0.712   7.591  1.2524 -0.2098  0.6997
 1460SOL    HW216017   0.057   0.789   7.532 -0.0370  0.4136 -0.8033
 1461SOL     OW16018   2.873   4.005   8.302 -0.2599 -0.8181 -0.0047
 1461SOL    HW116019   2.816   3.958   8.363 -0.3904 -0.6819 -0.0205
 1461SOL    HW216020   2.812   4.049   8.242 -0.1501 -1.5174 -0.6318
 1462SOL     OW16021   4.549   1.105  16.910  0.2867 -0.5424  0.5774
 1462SOL    HW116022   4.496   1.042  16.959 -0.1682  0.4877  1.4143
 1462SOL    HW216023   4.482   1.146  16.856 -0.1771  0.4800  1.9655
 1463SOL     OW16024   0.281   0.175   6.539 -0.0908  0.2438  0.3529
 1463SOL    HW116025   0.193   0.172   6.499  0.5283  1.6142 -1.1431
 1463SOL    HW216026   0.303   0.262   6.507 -1.1937  0.1330 -0.7067
 1464SOL     OW16027   0.662   1.807   6.099  0.2045 -0.0049 -0.0632
 1464SOL    HW116028   0.588   1.757   6.134  2.0087 -1.1864  2.1051
 1464SOL    HW216029   0.731   1.741   6.108 -1.4765 -1.5237  1.6470
 1465SOL     OW16030   3.500   2.200   3.821  0.2507 -0.0158 -0.4068
 1465SOL    HW116031   3.475   2.197   3.729  0.3352 -1.0612 -0.4016
 1465SOL    HW216032   3.594   2.189   3.807  0.2679  2.3664 -2.1638
 1466SOL     OW16033   2.482   3.282   3.810  0.1476  0.1217  0.0503
 1466SOL    HW116034   2.413   3.221   3.783 -0.9072  1.7406 -0.8973
 1466SOL    HW216035   2.485   3.341   3.735  0.0949  0.0380 -0.0167
 1467SOL     OW16036   2.971   0.787  12.172 -0.2325 -0.5013  0.3452
 1467SOL    HW116037   3.060   0.798  12.139 -0.4494  0.3121  0.0487
 1467SOL    HW216038   2.931   0.760  12.090 -1.1150  1.9445 -0.0221
 1468SOL     OW16039   0.864   3.150  14.121  0.1473  0.5903 -0.3255
 1468SOL    HW116040   0.866   3.129  14.214  2.8726  0.1233 -0.4989
 1468SOL    HW216041   0.778   3.190  14.110  0.6025  1.9346  1.1324
 1469SOL     OW16042   4.648   3.903   3.804 -0.5111 -0.1295 -0.4613
 1469SOL    HW116043   4.633   3.820   3.849 -0.0897 -1.2742 -2.4604
 1469SOL    HW216044   4.707   3.870   3.736  2.3564 -0.2845  2.0799
 1470SOL     OW16045   0.418   2.781   5.163  0.2019 -0.1152 -0.7162
 1470SOL    HW116046   0.393   2.692   5.138  0.1683  0.1788 -1.7452
 1470SOL    HW216047   0.505   2.783   5.122  1.8257 -1.7847  2.6829
 1471SOL     OW16048   0.933   2.877   6.056 -0.0528  0.0390 -0.3961
 1471SOL    HW116049   1.006   2.920   6.100  1.2831 -0.4054 -2.1767
 1471SOL    HW216050   0.898   2.823   6.126  1.0856 -0.4219 -0.1757
 1472SOL     OW16051   2.803   3.572   4.858 -0.2621 -0.0261 -0.2247
 1472SOL    HW116052   2.741   3.573   4.785 -1.8862 -1.1062  1.1460
 1472SOL    HW216053   2.765   3.643   4.909 -0.1882  0.3864 -0.7411
 1473SOL     OW16054   4.677   1.274  10.191  0.0386  0.5708 -0.1634
 1473SOL    HW116055   4.689   1.192  10.143  0.1797  0.4288  0.1126
 1473SOL    HW216056   0.001   1.334  10.153  0.3227 -1.6684 -3.2083
 1474SOL     OW16057   2.298   0.312  10.500  0.2737 -0.5192  0.0780
 1474SOL    HW116058   2.257   0.313  10.586  0.3405 -1.3760  0.1213
 1474SOL    HW216059   2.285   0.404  10.477 -0.5999 -0.7657 -0.3868
 1475SOL     OW16060   0.653   1.902  12.022 -0.4575 -0.4227 -0.6021
 1475SOL    HW116061   0.727   1.962  12.026 -1.0217  0.3380 -1.4546
 1475SOL    HW216062   0.586   1.958  12.062  1.6256  0.7578  1.2743
 1476SOL     OW16063   1.031   0.702  17.646  0.4344  0.4581  0.1009
 1476SOL    HW116064   1.112   0.663  17.676 -0.2971 -0.8244  0.4283
 1476SOL    HW216065   1.065   0.711  17.557 -0.5627  2.3471 -0.1021
 1477SOL     OW16066   1.990   1.899   2.668  0.3602  0.0053 -0.0390
 1477SOL    HW116067   2.021   1.988   2.653  0.9140 -0.2026 -0.1383
 1477SOL    HW216068   2.041   1.852   2.601  0.9906 -1.8206  1.7193
 1478SOL     OW16069   3.609   1.954  13.398 -0.8571 -0.1197  0.1736
 1478SOL    HW116070   3.598   1.960  13.303  1.5647  1.2151 -0.0088
 1478SOL    HW216071   3.607   1.858  13.395 -1.5811 -0.1004  0.0516
 1479SOL     OW16072   2.459   3.929   9.424  0.2648  0.0785  0.0308
 1479SOL    HW116073   2.413   3.953   9.343  1.4687  4.1010  0.5539
 1479SOL    HW216074   2.437   3.836   9.418 -0.0177  0.0817  1.1569
 1480SOL     OW16075   3.571   0.758  11.895  0.1219  0.4851 -0.4526
 1480SOL    HW116076   3.555   0.728  11.805 -4.1251  0.5472  0.2679
 1480SOL    HW216077   3.656   0.795  11.870  1.0140 -1.1882  0.0960
 1481SOL     OW16078   0.074   3.499   0.455  0.0729  0.9688 -0.5143
 1481SOL    HW116079   0.040   3.473   0.540  0.7224  0.7105 -0.3350
 1481SOL    HW216080   0.157   3.545   0.466  0.9183 -0.5163 -0.6729
 1482SOL     OW16081   2.014   1.165   2.578  0.0789  0.2823  0.0217
 1482SOL    HW116082   1.979   1.207   2.499  0.3724  1.1329  0.3436
 1482SOL    HW216083   1.944   1.182   2.641 -0.2666 -1.1090 -0.0027
 1483SOL     OW16084   2.054   3.993   0.554  0.2193 -0.0523 -0.4927
 1483SOL    HW116085   2.112   4.000   0.630  1.5495  0.1547 -1.5322
 1483SOL    HW216086   2.083   3.906   0.527  2.1839  0.5165 -0.2207
 1484SOL     OW16087   1.511   2.091  12.218  0.3370  0.5504 -0.3621
 1484SOL    HW116088   1.594   2.051  12.193 -1.9183 -3.0873 -1.9577
 1484SOL    HW216089   1.491   2.036  12.293  1.2223  0.7880  0.0507
 1485SOL     OW16090   2.792   0.906  16.875  0.4044 -0.3977  0.0059
 1485SOL    HW116091   2.804   0.968  16.803 -0.3271 -1.1650 -0.7795
 1485SOL    HW216092   2.865   0.935  16.929  0.9747  0.2509 -1.1116
 1486SOL     OW16093   3.907   4.354   5.276  0.2066 -1.0533 -0.2158
 1486SOL    HW116094   3.918   4.436   5.228  0.2191 -0.9082  0.0365
 1486SOL    HW216095   3.934   4.383   5.363  0.5105  2.3559 -1.4442
 1487SOL     OW16096   2.929   2.717  13.964 -0.6813 -0.1618  0.0987
 1487SOL    HW116097   2.947   2.807  13.990  1.3818 -0.3241 -0.7829
 1487SOL    HW216098   2.871   2.732  13.890 -0.5260 -1.9519 -0.3915
 1488SOL     OW16099   1.687   1.118   4.405 -0.1476 -0.1087  0.0401
 1488SOL    HW116100   1.743   1.190   4.436  0.8784 -0.2201 -1.5941
 1488SOL    HW216101   1.631   1.169   4.346 -1.2200 -1.6268 -0.2332
 1489SOL     OW16102   0.211   2.884  13.224 -0.1522 -0.3496 -0.1397
 1489SOL    HW116103   0.276   2.910  13.159 -0.5379  0.8129 -0.0618
 1489SOL    HW216104   0.164   2.967  13.230 -0.5895 -0.5831 -0.3297
 1490SOL     OW16105   1.270   0.036   1.974 -0.7975  0.3042 -0.2030
 1490SOL    HW116106   1.180   0.050   1.944 -1.6547 -2.4149  1.0965
 1490SOL    HW216107   1.250   4.721   2.050 -1.4065 -1.2930 -1.5166
 1491SOL     OW16108   3.041   4.283  17.557  0.2965 -0.6569 -0.4847
 1491SOL    HW116109   3.030   4.249  17.469 -1.2222 -0.6752 -0.2842
 1491SOL    HW216110   3.136   4.277  17.561  0.2335 -1.3647 -0.0365
 1492SOL     OW16111   3.161   1.422   9.880  0.0004 -0.2014 -0.1470
 1492SOL    HW116112   3.167   1.455   9.969 -0.3782 -1.1906  0.2454
 1492SOL    HW216113   3.162   1.327   9.893  0.9020 -0.0675  0.7575
 1493SOL     OW16114   4.059   1.676   9.161  0.0980 -0.7820  0.5809
 1493SOL    HW116115   4.030   1.605   9.219 -2.2171  0.3796  0.8775
 1493SOL    HW216116   3.971   1.695   9.128  2.0810 -0.5010 -4.5009
 1494SOL     OW16117   3.651   1.923   2.634  0.1942 -0.0484 -0.1018
 1494SOL    HW116118   3.623   1.940   2.544 -0.9058  1.9588  0.6366
 1494SOL    HW216119   3.744   1.942   2.624  0.6274 -1.5694  1.1369
 1495SOL     OW16120   1.828   1.822  13.997 -0.4146 -0.5351  0.6715
 1495SOL    HW116121   1.894   1.853  13.935 -0.6236  0.3685  0.9032
 1495SOL    HW216122   1.873   1.756  14.050 -0.2172  0.1076  1.2964
 1496SOL     OW16123   3.237   1.871   8.808 -0.0238  0.1501  0.7190
 1496SOL    HW116124   3.272   1.869   8.897 -2.1940 -1.0841  1.5368
 1496SOL    HW216125   3.142   1.870   8.819  0.0672  1.5548  1.6364
 1497SOL     OW16126   3.927   3.099   3.336 -0.2265 -1.0143 -0.1128
 1497SOL    HW116127   4.014   3.105   3.297  0.5448 -0.2702  1.7596
 1497SOL    HW216128   3.953   3.103   3.428  1.7431 -1.0928 -0.6571
 1498SOL     OW16129   2.976   1.739   9.684  0.6788  0.4203 -0.1131
 1498SOL    HW116130   2.889   1.700   9.680  0.5088  0.7275  0.6216
 1498SOL    HW216131   3.030   1.674   9.639  2.6251  1.5669  0.5879
 1499SOL     OW16132   2.527   1.923  13.026  0.3275  0.3060  0.6004
 1499SOL    HW116133   2.621   1.912  13.013 -0.5556 -2.8102 -2.9698
 1499SOL    HW216134   2.496   1.835  13.047  1.7281 -0.5993 -1.2056
 1500SOL     OW16135   0.468   0.064   6.939 -0.0212 -0.1975  0.2390
 1500SOL    HW116136   0.468   0.124   7.014 -0.3783  0.7544 -0.5113
 1500SOL    HW216137   0.433   4.723   6.978  0.7943 -0.0961  1.1822
 1501SOL     OW16138   3.400   2.462   4.191  0.4418 -0.4740  0.2877
 1501SOL    HW116139   3.424   2.471   4.283  2.2443  0.5425 -0.2890
 1501SOL    HW216140   3.488   2.442   4.158  0.0290  0.3347 -1.3194
 1502SOL     OW16141   3.070   0.389   2.450 -0.2671  0.0954  0.0155
 1502SOL    HW116142   3.029   0.313   2.409 -0.2610  0.5919 -0.9131
 1502SOL    HW216143   2.996   0.450   2.451  1.1837  1.8142  2.1471
 1503SOL     OW16144   3.652   1.303   9.626  0.7787 -0.5275  0.4054
 1503SOL    HW116145   3.666   1.227   9.569 -2.1871  0.5298 -1.7079
 1503SOL    HW216146   3.744   1.326   9.641  0.5663  0.2730  0.4518
 1504SOL     OW16147   3.645   4.605   7.951 -0.2350  0.6451 -0.2567
 1504SOL    HW116148   3.675   4.552   8.025  1.1052  0.6537 -0.7818
 1504SOL    HW216149   3.718   4.667   7.950  0.4837 -0.1564  0.8861
 1505SOL     OW16150   2.087   1.875  13.865 -0.0529  0.2226 -0.8567
 1505SOL    HW116151   2.101   1.964  13.896 -3.0764  0.5793 -0.4850
 1505SOL    HW216152   2.127   1.828  13.938 -1.7735 -0.3129 -0.2500
 1506SOL     OW16153   1.172   1.557   4.146  0.5812  0.2870 -0.1060
 1506SOL    HW116154   1.261   1.532   4.121  1.0621  3.7641 -1.7162
 1506SOL    HW216155   1.129   1.494   4.088  1.2111 -0.5385  0.3107
 1507SOL     OW16156   3.893   1.545  16.666 -0.2703  0.2439 -0.3354
 1507SOL    HW116157   3.964   1.507  16.719 -1.9387  0.5431  2.1081
 1507SOL    HW216158   3.877   1.489  16.590 -0.7949  0.3165 -0.2720
 1508SOL     OW16159   0.771   2.183  11.842  0.0506  0.5631  0.2019
 1508SOL    HW116160   0.822   2.146  11.914 -0.0694 -1.1761 -0.6168
 1508SOL    HW216161   0.774   2.278  11.854  1.0177  0.7016 -1.0314
 1509SOL     OW16162   1.450   1.864   6.636 -0.1863 -0.1870  0.8882
 1509SOL    HW116163   1.432   1.770   6.630 -1.0365 -0.0368  1.0973
 1509SOL    HW216164   1.361   1.896   6.633  0.3223  1.2884  1.7227
 1510SOL     OW16165   1.624   4.630   7.318 -0.4911  0.2458 -0.1371
 1510SOL    HW116166   1.629   4.713   7.270 -1.1567 -0.6515 -1.7460
 1510SOL    HW216167   1.549   4.648   7.374  0.1495 -1.1534  1.1871
 1511SOL     OW16168   1.625   1.107   0.971 -0.5785 -0.5064  0.1749
 1511SOL    HW116169   1.619   1.182   1.031  1.3452  1.2581 -1.8440
 1511SOL    HW216170   1.675   1.153   0.905  0.8790 -1.3236  0.7131
 1512SOL     OW16171   2.785   4.587   7.815  0.2335  0.0228  0.0660
 1512SOL    HW116172   2.876   4.600   7.842  0.8756 -1.5808 -1.3711
 1512SOL    HW216173   2.756   4.677   7.802 -0.7389 -0.3114 -0.0243
 1513SOL     OW16174   2.293   3.483   5.349 -0.4984 -0.1282  0.3173
 1513SOL    HW116175   2.321   3.395   5.375  0.3900 -0.3610 -1.4317
 1513SOL    HW216176   2.198   3.476   5.360 -0.7664  0.4184 -1.5445
 1514SOL     OW16177   3.527   3.308   5.108 -0.1224  0.2154 -0.4535
 1514SOL    HW116178   3.574   3.226   5.123  1.1655  0.6005 -2.3847
 1514SOL    HW216179   3.533   3.349   5.195  1.5462 -2.2196  0.5786
 1515SOL     OW16180   0.583   3.964   8.866 -0.0683 -0.1511 -0.4289
 1515SOL    HW116181   0.526   3.918   8.805 -0.7161  0.0895 -0.0100
 1515SOL    HW216182   0.607   4.041   8.813  1.1404 -0.3379 -0.1594
 1516SOL     OW16183   3.616   3.241   9.443 -0.2704 -0.2084 -0.4907
 1516SOL    HW116184   3.620   3.304   9.371 -1.7585  0.7806  0.2855
 1516SOL    HW216185   3.552   3.281   9.502 -3.9247 -0.2363 -4.4237
 1517SOL     OW16186   0.471   3.469   5.159  0.2257  0.2204  0.1196
 1517SOL    HW116187   0.537   3.497   5.222  1.0563  3.1835 -2.0395
 1517SOL    HW216188   0.422   3.551   5.165 -0.6639 -0.3862  1.1234
 1518SOL     OW16189   1.135   2.014  15.051  0.6259  0.7875  0.1442
 1518SOL    HW116190   1.103   1.925  15.069 -0.4216  1.1048 -0.1484
 1518SOL    HW216191   1.131   2.000  14.957 -0.1448 -1.8756  0.5705
 1519SOL     OW16192   2.715   3.895  13.778 -0.2081  0.2715 -0.6008
 1519SOL    HW116193   2.771   3.821  13.753  0.7280  0.7811  0.0152
 1519SOL    HW216194   2.646   3.888  13.712  3.1317 -1.4213 -3.9253
 1520SOL     OW16195   1.358   3.943   1.854 -1.0809  0.3072 -0.2967
 1520SOL    HW116196   1.425   3.918   1.791 -0.4938  1.8738 -0.2995
 1520SOL    HW216197   1.414   3.979   1.923 -1.2211  1.0176 -0.5528
 1521SOL     OW16198   1.411   4.214   4.047 -0.2588  0.4182  0.2568
 1521SOL    HW116199   1.388   4.305   4.067 -0.3502  0.2780  0.7867
 1521SOL    HW216200   1.506   4.228   4.040 -0.3640  1.6985  1.2090
 1522SOL     OW16201   3.470   4.431  16.550  0.2158 -0.5041 -0.8736
 1522SOL    HW116202   3.431   4.488  16.483 -0.4514 -0.0767 -0.1130
 1522SOL    HW216203   3.506   4.359  16.498 -1.3047 -1.3535 -0.7355
 1523SOL     OW16204   1.952   3.350   1.682 -0.2606 -0.2409  0.5864
 1523SOL    HW116205   1.982   3.420   1.623 -3.7427  0.0420 -0.8722
 1523SOL    HW216206   1.858   3.344   1.668  0.0553 -2.1853 -0.6091
 1524SOL     OW16207   0.878   4.296   6.407 -0.0150 -0.8006  0.5144
 1524SOL    HW116208   0.924   4.350   6.343  1.2566 -1.6623  0.6914
 1524SOL    HW216209   0.867   4.361   6.475  0.6498  1.2536 -1.3345
 1525SOL     OW16210   3.511   4.425   7.328 -0.1454 -0.2904  0.8676
 1525SOL    HW116211   3.561   4.463   7.399 -0.6842  1.0209  0.5440
 1525SOL    HW216212   3.580   4.374   7.286  1.2648  0.1389  2.6563
 1526SOL     OW16213   2.673   2.320   5.850 -0.0586  0.5177 -0.4722
 1526SOL    HW116214   2.753   2.356   5.812  0.8449 -1.8254 -0.8340
 1526SOL    HW216215   2.696   2.320   5.943 -1.8639 -0.1165 -0.0310
 1527SOL     OW16216   3.691   0.698   2.579  0.0118 -0.2885 -0.6587
 1527SOL    HW116217   3.643   0.730   2.656 -0.6749 -1.1458 -0.7359
 1527SOL    HW216218   3.644   0.628   2.533 -1.5647 -0.2115  0.8285
 1528SOL     OW16219   3.340   2.170   9.834 -0.1923 -0.6005 -0.2261
 1528SOL    HW116220   3.264   2.115   9.849 -0.6362 -0.3795 -1.6772
 1528SOL    HW216221   3.410   2.108   9.854 -0.9514 -1.2213  0.5039
 1529SOL     OW16222   4.439   0.809   2.632 -0.1369 -1.0157  0.1242
 1529SOL    HW116223   4.500   0.872   2.671  2.6838 -1.6899 -3.2133
 1529SOL    HW216224   4.350   0.829   2.662 -1.2579  1.6964 -4.8663
 1530SOL     OW16225   1.922   1.622  14.186 -0.6306  0.5593  0.2181
 1530SOL    HW116226   1.838   1.581  14.204  0.7901 -2.5414 -0.2236
 1530SOL    HW216227   1.968   1.611  14.269 -1.6378 -0.2269  0.6661
 1531SOL     OW16228   0.811   1.697   6.772 -0.3099  0.0860 -0.2085
 1531SOL    HW116229   0.825   1.625   6.833  1.4884  1.2481  0.7319
 1531SOL    HW216230   0.726   1.667   6.737 -0.7681  1.3323 -0.1747
 1532SOL     OW16231   2.058   0.041   1.090  0.1105  0.3218 -0.6528
 1532SOL    HW116232   2.141   0.038   1.043  0.0625 -0.8136 -0.6632
 1532SOL    HW216233   2.065   0.126   1.133  1.5608  0.2970 -0.8552
 1533SOL     OW16234   3.230   1.592   4.465  0.3227  0.4240  0.2091
 1533SOL    HW116235   3.208   1.680   4.434 -1.4728 -0.9645 -2.4588
 1533SOL    HW216236   3.315   1.586   4.422 -1.3105 -0.6338 -2.9533
 1534SOL     OW16237   1.871   1.281   5.971  0.2518  0.1182 -0.0627
 1534SOL    HW116238   1.777   1.276   5.953  0.2043  2.3118 -0.4707
 1534SOL    HW216239   1.900   1.191   5.988  1.7028  0.4167 -0.9218
 1535SOL     OW16240   3.682   3.248   8.209 -0.0170  1.1553 -0.9918
 1535SOL    HW116241   3.693   3.246   8.304 -2.4075  1.2895 -0.7192
 1535SOL    HW216242   3.771   3.238   8.176 -1.0551 -1.9052 -2.9151
 1536SOL     OW16243   1.225   1.659   3.712 -0.1260  0.2269 -0.0287
 1536SOL    HW116244   1.207   1.581   3.765  1.2070 -1.0358 -1.4249
 1536SOL    HW216245   1.291   1.616   3.657 -0.2616  0.2015 -0.1742
 1537SOL     OW16246   1.988   3.563   5.310 -0.0982 -0.0671  0.2331
 1537SOL    HW116247   1.929   3.537   5.380 -1.6997  2.2040 -0.3014
 1537SOL    HW216248   1.924   3.606   5.255 -1.7891  0.3975  2.5775
 1538SOL     OW16249   4.512   1.002   2.815  0.1578  0.3230 -0.1880
 1538SOL    HW116250   4.468   1.087   2.803 -2.4735 -0.9681  0.3275
 1538SOL    HW216251   4.601   1.034   2.832 -0.5273  1.3043  1.5016
 1539SOL     OW16252   4.478   1.891   3.304 -0.4497  0.1927 -0.0491
 1539SOL    HW116253   4.425   1.845   3.238  0.1188  0.2435 -0.5473
 1539SOL    HW216254   4.563   1.890   3.259  0.3258  1.3012  1.4167
 1540SOL     OW16255   1.906   2.512  17.267  0.0099 -0.3981  0.8244
 1540SOL    HW116256   1.865   2.426  17.276 -1.7862  0.0624 -2.5276
 1540SOL    HW216257   2.000   2.499  17.275 -0.0275 -0.0945  1.6741
 1541SOL     OW16258   1.933   3.736  12.425  0.1136 -0.3592  0.3365
 1541SOL    HW116259   2.011   3.752  12.479 -0.0765  3.1749 -0.4335
 1541SOL    HW216260   1.951   3.643  12.413 -2.5572 -0.9015  0.5059
 1542SOL     OW16261   4.262   1.256   5.321 -0.8840  0.3256 -0.5084
 1542SOL    HW116262   4.342   1.237   5.272  0.2215  0.4051  1.2742
 1542SOL    HW216263   4.288   1.255   5.413  0.1009  2.1629 -0.7773
 1543SOL     OW16264   2.277   4.235   3.987  0.1017  0.3671 -0.1097
 1543SOL    HW116265   2.285   4.234   3.892  2.8010 -2.3345  0.1217
 1543SOL    HW216266   2.189   4.198   3.998  1.2644 -1.8050  2.0583
 1544SOL     OW16267   0.230   3.508   9.558  0.4929  0.7529 -0.7797
 1544SOL    HW116268   0.258   3.599   9.565  4.0967 -0.8032  4.8129
 1544SOL    HW216269   0.317   3.471   9.541  0.2304  0.2134 -0.9499
 1545SOL     OW16270   2.241   1.251  14.061  1.1061 -0.2832 -0.0888
 1545SOL    HW116271   2.186   1.177  14.087 -0.5743  0.8941 -0.2959
 1545SOL    HW216272   2.323   1.231  14.105  1.4917  0.1091 -0.6210
 1546SOL     OW16273   0.105   3.848   0.362 -0.3173 -0.1386 -0.3095
 1546SOL    HW116274   0.112   3.890   0.276  2.9422 -0.6473 -0.2871
 1546SOL    HW216275   0.012   3.853   0.383  0.2472 -0.5027  2.3470
 1547SOL     OW16276   0.109   3.598   4.150  0.1744 -0.2464 -0.6186
 1547SOL    HW116277   0.103   3.585   4.244  0.0560  3.1057 -0.1485
 1547SOL    HW216278   0.134   3.515   4.110  2.5656  0.7548 -1.1680
 1548SOL     OW16279   0.075   4.057   2.842 -0.1272 -0.9184 -0.6479
 1548SOL    HW116280   0.027   3.975   2.855  1.6985 -2.0989 -1.4064
 1548SOL    HW216281   0.089   4.101   2.926  0.2723  0.5812 -1.4990
 1549SOL     OW16282   1.109   3.260   3.889  0.3586 -0.4510  0.0957
 1549SOL    HW116283   1.053   3.330   3.857  0.3333 -0.9931 -1.0226
 1549SOL    HW216284   1.035   3.219   3.933  1.1600 -1.4824  0.4896
 1550SOL     OW16285   4.500   1.140  14.424  0.0201 -0.4323 -0.4776
 1550SOL    HW116286   4.472   1.069  14.366 -0.1809 -0.4347 -0.3783
 1550SOL    HW216287   4.420   1.170  14.467 -0.1343  0.9427 -1.7504
 1551SOL     OW16288   0.805   2.538  13.132 -0.1187  0.0193  0.0091
 1551SOL    HW116289   0.787   2.507  13.220  0.7330 -2.4906 -0.6818
 1551SOL    HW216290   0.742   2.609  13.127 -0.3433 -0.0406  2.0847
 1552SOL     OW16291   0.583   0.012   2.742 -0.6223 -0.1790  0.3334
 1552SOL    HW116292   0.615   0.007   2.832  0.5195 -1.0768 -0.1271
 1552SOL    HW216293   0.555   4.661   2.750 -0.6564 -0.2497 -0.5783
 1553SOL     OW16294   1.024   2.138   4.036  0.3771 -0.2218 -0.4286
 1553SOL    HW116295   1.083   2.092   4.096 -2.0811 -2.8448 -0.0520
 1553SOL    HW216296   0.952   2.075   4.027  0.9216 -0.4384 -3.1519
 1554SOL     OW16297   0.574   0.560   1.784  0.5821  0.0332  0.0580
 1554SOL    HW116298   0.571   0.593   1.695 -2.4935  1.3186  0.6387
 1554SOL    HW216299   0.479   0.549   1.788  0.6913 -0.7505  0.5566
 1555SOL     OW16300   3.030   2.847  17.031 -0.1399 -0.3076 -0.2410
 1555SOL    HW116301   3.045   2.768  16.979 -1.4967 -0.0686 -1.0025
 1555SOL    HW216302   3.049   2.813  17.119 -0.9550  1.8567  0.7765
 1556SOL     OW16303   1.070   0.559   8.722 -0.2650  0.2314 -0.8073
 1556SOL    HW116304   0.987   0.543   8.768 -0.5843  5.1611  0.3126
 1556SOL    HW216305   1.116   0.605   8.791  1.1335  0.0717 -1.6398
 1557SOL     OW16306   1.086   0.317   9.908 -0.3841 -0.0855  0.1840
 1557SOL    HW116307   1.149   0.376   9.949 -0.7144 -0.1764  0.8180
 1557SOL    HW216308   1.058   0.355   9.824 -0.8326  1.8288  1.1875
 1558SOL     OW16309   1.867   4.636   8.452  0.0343 -0.0856 -0.2246
 1558SOL    HW116310   1.854   4.704   8.386  0.6630  0.0344 -0.2282
 1558SOL    HW216311   1.816   4.566   8.412  0.0977  0.1666 -0.7484
 1559SOL     OW16312   1.463   1.250  16.606  0.4742  0.5024  0.0651
 1559SOL    HW116313   1.377   1.288  16.587  0.4196  0.5916  0.4845
 1559SOL    HW216314   1.451   1.185  16.676 -2.5457 -0.1240 -1.0597
 1560SOL     OW16315   3.671   1.943   6.188 -0.0965  0.4907  0.0323
 1560SOL    HW116316   3.632   2.031   6.193 -0.9408 -0.0409  2.4997
 1560SOL    HW216317   3.664   1.916   6.279  2.2123 -1.1020 -0.2761
 1561SOL     OW16318   2.859   3.510  17.317  0.2707 -0.6340 -0.2654
 1561SOL    HW116319   2.871   3.604  17.333 -4.3673 -0.4745  2.1100
 1561SOL    HW216320   2.835   3.505  17.225 -2.2219 -1.3977  0.4488
 1562SOL     OW16321   1.212   4.136   7.563  0.1133  0.3330  0.0355
 1562SOL    HW116322   1.120   4.126   7.587 -0.5608  0.0721 -2.6928
 1562SOL    HW216323   1.204   4.157   7.470 -2.0706  1.4915  0.4873
 1563SOL     OW16324   2.263   1.728   3.531  0.0599  0.6607 -0.2955
 1563SOL    HW116325   2.282   1.672   3.607  1.1157  0.3497 -0.7948
 1563SOL    HW216326   2.340   1.782   3.516  0.9013  0.1781  2.2280
 1564SOL     OW16327   3.016   3.287   4.219  0.4289  0.5467  0.0693
 1564SOL    HW116328   3.057   3.368   4.187  1.4532  0.2108  0.5400
 1564SOL    HW216329   3.034   3.236   4.140  0.7721  2.2715 -0.9779
 1565SOL     OW16330   3.214   4.119   2.135 -0.2834 -0.2813 -0.1966
 1565SOL    HW116331   3.213   4.028   2.166  0.8694  0.1162  0.9612
 1565SOL    HW216332   3.119   4.133   2.135 -0.6435 -2.7531  1.6870
 1566SOL     OW16333   0.984   1.762   2.490  0.0043 -0.2950  0.4259
 1566SOL    HW116334   0.958   1.691   2.432 -0.3779  0.3387 -0.1703
 1566SOL    HW216335   0.961   1.839   2.438 -1.1812 -0.2310  1.0487
 1567SOL     OW16336   2.584   2.049   3.665 -0.1389 -0.1203 -0.2368
 1567SOL    HW116337   2.507   2.107   3.661 -1.0165 -1.3199 -0.7741
 1567SOL    HW216338   2.638   2.086   3.596 -0.8946 -0.3618 -0.9663
 1568SOL     OW16339   1.221   3.124   8.868  0.5017 -0.1707  0.1815
 1568SOL    HW116340   1.149   3.136   8.806  0.4679  1.2928  0.5029
 1568SOL    HW216341   1.296   3.125   8.809  0.3942  1.1817  0.0666
 1569SOL     OW16342   2.265   0.071  10.868  0.0293  0.0429 -0.5856
 1569SOL    HW116343   2.329   0.118  10.922  1.4362 -3.0086  0.3959
 1569SOL    HW216344   2.198   0.134  10.840  1.3871  2.6779  2.0533
 1570SOL     OW16345   3.466   3.202   6.863 -0.3341 -0.0103  0.4185
 1570SOL    HW116346   3.396   3.207   6.928 -0.7345 -0.9182  0.0438
 1570SOL    HW216347   3.482   3.108   6.861  1.5334  0.2651  1.5163
 1571SOL     OW16348   2.060   1.956   3.731 -0.1466  0.2942 -0.1806
 1571SOL    HW116349   2.048   1.909   3.813 -0.7260  1.0382  0.1598
 1571SOL    HW216350   1.967   1.961   3.708 -0.3908  2.1190  1.2431
 1572SOL     OW16351   0.117   2.578   5.784 -0.1900 -0.6605  0.4204
 1572SOL    HW116352   0.086   2.500   5.830 -2.0804 -1.2592 -1.8441
 1572SOL    HW216353   0.123   2.564   5.689 -1.4826  0.8358  0.1175
 1573SOL     OW16354   0.287   4.243  17.533  0.3394  0.3840 -0.0465
 1573SOL    HW116355   0.217   4.190  17.570  0.7089 -0.6882 -0.8699
 1573SOL    HW216356   0.263   4.240  17.440  0.4583  2.3136 -0.1396
 1574SOL     OW16357   1.755   0.678   8.805 -0.2731 -0.3185 -0.0264
 1574SOL    HW116358   1.752   0.637   8.891  0.1158 -1.6395 -0.6474
 1574SOL    HW216359   1.841   0.643   8.784 -1.0165 -2.2340  0.1093
 1575SOL     OW16360   3.821   3.422   7.327  0.2896  0.0538  0.4763
 1575SOL    HW116361   3.803   3.375   7.246 -0.6401  0.5723  0.3874
 1575SOL    HW216362   3.734   3.449   7.359 -0.3791  0.1134 -1.4324
 1576SOL     OW16363   0.751   3.066  16.716 -0.0300 -0.2011  0.2490
 1576SOL    HW116364   0.814   3.105  16.776  0.3898 -1.3628  0.5624
 1576SOL    HW216365   0.686   3.135  16.713  0.6055  0.3943  0.2498
 1577SOL     OW16366   0.034   0.514   0.637 -0.5584 -0.0879  0.0941
 1577SOL    HW116367   0.056   0.421   0.640  0.4480  0.2530  3.0601
 1577SOL    HW216368   4.739   0.538   0.723 -1.4328  0.0958 -0.3016
 1578SOL     OW16369   4.597   0.780   3.490 -0.1394 -0.2626 -0.4329
 1578SOL    HW116370   4.636   0.801   3.405  0.2504 -1.0916 -0.4547
 1578SOL    HW216371   4.534   0.851   3.503  2.0805  1.0589  3.2477
 1579SOL     OW16372   3.026   2.560  16.974  0.7237 -0.1413  0.7343
 1579SOL    HW116373   2.986   2.571  16.888 -1.2708 -3.0164  1.3004
 1579SOL    HW216374   2.977   2.481  16.995 -1.5239  0.8131 -0.9839
 1580SOL     OW16375   2.969   3.506   0.457 -0.5088  0.2881  0.0955
 1580SOL    HW116376   3.017   3.559   0.393 -0.5024  1.7186  1.2848
 1580SOL    HW216377   3.031   3.470   0.520 -1.7880 -0.6764  0.8081
 1581SOL     OW16378   4.125   1.171   3.665 -1.1428 -0.1077  0.1457
 1581SOL    HW116379   4.098   1.141   3.752  1.1765 -0.6509  0.6630
 1581SOL    HW216380   4.122   1.090   3.614 -0.7704  0.0443 -0.1146
 1582SOL     OW16381   1.244   4.688  13.176  0.6782  0.0025 -0.3062
 1582SOL    HW116382   1.245   0.044  13.175 -0.3484  0.0221  0.8233
 1582SOL    HW216383   1.175   4.669  13.112  1.7867 -1.3158 -1.1061
 1583SOL     OW16384   3.338   4.124   8.704  0.7528  0.1124 -0.3057
 1583SOL    HW116385   3.333   4.054   8.769 -1.3228 -0.0131 -0.6061
 1583SOL    HW216386   3.265   4.178   8.733  0.5235 -0.4332  0.1263
 1584SOL     OW16387   0.699   0.319   2.840  0.4613 -0.2910 -0.5639
 1584SOL    HW116388   0.623   0.275   2.877 -0.5939  2.2536  0.2955
 1584SOL    HW216389   0.772   0.273   2.882  1.2885  0.7625 -0.8642
 1585SOL     OW16390   1.457   0.557   1.858  0.4762  0.3677 -0.2201
 1585SOL    HW116391   1.546   0.569   1.823  1.7880 -1.4266  2.5691
 1585SOL    HW216392   1.444   0.650   1.876 -0.3677  0.0781  0.6263
 1586SOL     OW16393   0.846   3.937  11.189  0.2188 -0.7555  0.5341
 1586SOL    HW116394   0.886   3.888  11.261 -0.1667 -2.1928 -0.2363
 1586SOL    HW216395   0.819   4.012  11.241  0.5520  1.8721 -3.1409
 1587SOL     OW16396   2.780   2.848   1.986  0.2699 -0.5931 -0.5280
 1587SOL    HW116397   2.776   2.884   2.074 -0.0730  0.3753 -0.9382
 1587SOL    HW216398   2.712   2.780   1.988 -0.9063  0.5192 -2.4985
 1588SOL     OW16399   0.561   0.942   4.632 -0.1965 -0.4471 -0.1402
 1588SOL    HW116400   0.533   0.890   4.707 -0.7299  0.5314  0.3434
 1588SOL    HW216401   0.488   0.941   4.570 -1.1689  1.6138  0.9711
 1589SOL     OW16402   3.664   4.116  16.932 -1.0215  0.0377 -0.7911
 1589SOL    HW116403   3.570   4.111  16.950 -1.5139 -1.0455 -3.6722
 1589SOL    HW216404   3.667   4.148  16.842 -0.2891  2.7981  0.2216
 1590SOL     OW16405   1.755   3.986   7.657 -0.2350  0.1959 -0.0612
 1590SOL    HW116406   1.702   4.038   7.596  0.8937  0.4208 -0.8414
 1590SOL    HW216407   1.785   4.057   7.714 -0.5637 -2.2607  3.1457
 1591SOL     OW16408   3.768   3.274   2.075  0.3311  0.7465 -0.1827
 1591SOL    HW116409   3.851   3.322   2.067  1.5850 -1.3299  0.4583
 1591SOL    HW216410   3.767   3.236   1.987  0.1168 -0.4532  0.3366
 1592SOL     OW16411   3.114   3.331  12.114  0.4328 -0.4093 -0.5942
 1592SOL    HW116412   3.207   3.314  12.100  0.3289  0.1128 -1.9201
 1592SOL    HW216413   3.083   3.355  12.027  1.5844  2.2916 -0.2445
 1593SOL     OW16414   3.019   3.118   3.012 -0.1407 -0.8116  0.2322
 1593SOL    HW116415   3.100   3.068   2.999  0.5803  0.1835  0.8764
 1593SOL    HW216416   3.046   3.192   3.067 -0.8927 -1.3000  1.2445
 1594SOL     OW16417   1.702   1.663   8.200 -0.6342 -0.8252  0.8786
 1594SOL    HW116418   1.679   1.621   8.283 -0.4870 -1.3198  0.6680
 1594SOL    HW216419   1.635   1.732   8.196 -0.8728 -1.1445 -0.5051
 1595SOL     OW16420   0.619   0.564   4.274 -0.0180 -0.1958 -0.0125
 1595SOL    HW116421   0.703   0.569   4.229 -0.8533  0.2336 -1.5291
 1595SOL    HW216422   0.635   0.641   4.329 -1.3909  0.5991 -0.7319
 1596SOL     OW16423   0.671   2.305   9.487  0.5744  0.0369  0.0028
 1596SOL    HW116424   0.598   2.263   9.531 -0.0008 -1.2896 -2.2395
 1596SOL    HW216425   0.737   2.309   9.557  2.8105 -0.0876 -2.0779
 1597SOL     OW16426   2.659   0.170   8.330  0.4952 -0.3544  0.0531
 1597SOL    HW116427   2.639   0.217   8.249 -2.0132  0.7011  1.2955
 1597SOL    HW216428   2.704   0.089   8.305 -0.4978 -1.1252  0.7840
 1598SOL     OW16429   3.323   2.048   4.312  0.4495 -0.0835 -0.4976
 1598SOL    HW116430   3.379   2.088   4.379  1.9468 -0.1015 -1.7062
 1598SOL    HW216431   3.364   2.094   4.238 -1.4869  0.6121 -1.1184
 1599SOL     OW16432   2.019   0.563   5.419 -0.0986  0.1073  0.1797
 1599SOL    HW116433   2.027   0.632   5.353  1.1755 -1.6596 -1.5159
 1599SOL    HW216434   2.104   0.570   5.462 -0.0885  0.6199  0.0711
 1600SOL     OW16435   3.068   3.314  17.489  0.8368 -0.7063 -0.2022
 1600SOL    HW116436   2.974   3.316  17.475  0.6076  2.6254  1.8201
 1600SOL    HW216437   3.079   3.364  17.570  0.0609 -0.8143 -0.0286
 1601SOL     OW16438   1.351   1.351   0.934  0.2637 -0.2170 -0.1339
 1601SOL    HW116439   1.330   1.419   0.998  1.6596  2.1447 -2.1805
 1601SOL    HW216440   1.422   1.400   0.893 -0.1401  0.7784  0.3734
 1602SOL     OW16441   2.011   4.579  14.731  0.2339 -0.3524 -0.1024
 1602SOL    HW116442   1.928   4.603  14.773  0.1627  0.6104 -0.7927
 1602SOL    HW216443   2.037   4.666  14.700 -0.9490  0.2942  0.7030
 1603SOL     OW16444   2.062   2.300   7.478  0.1686  0.2754  0.0487
 1603SOL    HW116445   2.022   2.285   7.392 -1.1055  1.4546  0.4355
 1603SOL    HW216446   1.982   2.317   7.528  0.3806  0.7937  0.2148
 1604SOL     OW16447   3.962   3.225   8.166  0.3520  0.0723  0.5361
 1604SOL    HW116448   3.943   3.132   8.179  0.4035 -0.0288 -0.0764
 1604SOL    HW216449   4.057   3.221   8.159  0.2980  0.0872 -0.2089
 1605SOL     OW16450   3.378   3.792   7.723 -0.2595  0.5397  0.0890
 1605SOL    HW116451   3.308   3.829   7.671  0.4269  0.2835 -1.0087
 1605SOL    HW216452   3.348   3.839   7.801  0.3257  1.9581 -0.5476
 1606SOL     OW16453   1.683   0.655   7.078 -0.0096  0.1442 -0.0238
 1606SOL    HW116454   1.657   0.708   7.153  2.8076  0.6295  0.6031
 1606SOL    HW216455   1.709   0.715   7.007 -0.6056  0.4301  0.0003
 1607SOL     OW16456   3.428   3.817  14.046 -0.3157  0.0163 -0.4279
 1607SOL    HW116457   3.434   3.874  13.969  1.2452  0.8838  0.3354
 1607SOL    HW216458   3.446   3.736  13.997 -0.6986  1.5043 -3.0682
 1608SOL     OW16459   1.588   0.423   2.222  0.3372 -0.2913 -0.0665
 1608SOL    HW116460   1.655   0.357   2.241  0.0157 -0.8071 -0.7093
 1608SOL    HW216461   1.636   0.502   2.246  2.6751 -1.6782 -0.0377
 1609SOL     OW16462   4.322   3.611   4.023 -0.4321  0.8841  0.3467
 1609SOL    HW116463   4.303   3.669   4.097 -2.8850  1.1331 -0.4794
 1609SOL    HW216464   4.403   3.564   4.044 -1.3000 -0.7112  0.1135
 1610SOL     OW16465   1.339   2.704   4.903  0.0270  0.0996  0.2969
 1610SOL    HW116466   1.244   2.693   4.906  0.1686 -1.0005  0.6425
 1610SOL    HW216467   1.346   2.799   4.910 -1.3404  0.5222 -3.9461
 1611SOL     OW16468   1.855   2.723   2.175 -0.7611 -0.2883  0.0126
 1611SOL    HW116469   1.934   2.679   2.205 -0.0221  0.5513 -0.6775
 1611SOL    HW216470   1.878   2.711   2.083 -0.1617 -2.0540  0.4012
 1612SOL     OW16471   1.921   4.220   7.173  0.6905 -0.0261  0.2684
 1612SOL    HW116472   1.997   4.208   7.117 -0.7618  0.6330 -1.8660
 1612SOL    HW216473   1.974   4.212   7.252  2.2002  1.4812 -0.5749
 1613SOL     OW16474   2.300   4.466  11.982 -0.0728 -0.1699  0.4838
 1613SOL    HW116475   2.227   4.449  11.923  0.1795 -0.4331  0.2446
 1613SOL    HW216476   2.253   4.472  12.064 -0.7564 -0.0448  0.0798
 1614SOL     OW16477   3.950   4.486  15.157  0.9735 -0.3751 -0.3554
 1614SOL    HW116478   3.919   4.489  15.066 -0.2215 -0.1613  0.0556
 1614SOL    HW216479   4.020   4.421  15.154  1.0984 -0.2821  0.6939
 1615SOL     OW16480   3.308   0.795   8.355  0.5458  0.2912  0.3498
 1615SOL    HW116481   3.233   0.828   8.405  0.3466  1.1791 -0.5250
 1615SOL    HW216482   3.274   0.771   8.269  0.8329  0.1383  0.2788
 1616SOL     OW16483   0.450   1.102   1.101  0.3125  0.0613 -0.0953
 1616SOL    HW116484   0.534   1.129   1.137 -0.2672 -1.1951  2.1811
 1616SOL    HW216485   0.392   1.175   1.122 -0.5391 -0.2522 -1.3208
 1617SOL     OW16486   0.814   4.507   7.019  0.0124 -0.7225 -0.2026
 1617SOL    HW116487   0.788   4.567   6.949 -0.4114 -1.5337 -0.7519
 1617SOL    HW216488   0.730   4.462   7.031 -0.8781  0.8539 -0.5351
 1618SOL     OW16489   0.650   0.298  16.453  0.5557  0.1460  0.3917
 1618SOL    HW116490   0.621   0.259  16.536 -2.3867  0.5597 -0.4665
 1618SOL    HW216491   0.697   0.376  16.481 -0.5910  1.4470 -1.3122
 1619SOL     OW16492   2.334   0.297  16.623  0.2002 -0.1142 -0.4240
 1619SOL    HW116493   2.270   0.362  16.594  0.3171 -0.2083 -0.8847
 1619SOL    HW216494   2.313   0.283  16.716 -0.3990  1.1621 -0.3553
 1620SOL     OW16495   2.702   1.664   9.679 -0.0081  0.2143  0.1809
 1620SOL    HW116496   2.644   1.740   9.692  2.1253  1.5281  2.0223
 1620SOL    HW216497   2.646   1.599   9.723  0.8969 -1.4835 -1.1863
 1621SOL     OW16498   1.312   4.242  12.479  0.1829 -0.2580 -0.2614
 1621SOL    HW116499   1.304   4.247  12.575  0.5036  1.8368 -0.3524
 1621SOL    HW216500   1.250   4.173  12.456 -0.2947 -0.1321  0.6498
 1622SOL     OW16501   2.014   1.556  12.610  0.6491 -0.7974 -0.0169
 1622SOL    HW116502   2.025   1.650  12.624  2.3167 -1.1225  0.8765
 1622SOL    HW216503   1.930   1.548  12.565 -0.1434  2.9034  0.7461
 1623SOL     OW16504   2.975   0.869  10.616 -0.3975 -0.1539  0.9600
 1623SOL    HW116505   2.881   0.886  10.617 -0.1434  1.3164 -1.5736
 1623SOL    HW216506   2.979   0.786  10.665 -1.1323 -1.3581 -1.0193
 1624SOL     OW16507   2.912   1.544   9.932 -0.2214  0.6706  0.0404
 1624SOL    HW116508   2.988   1.601   9.931  1.3318 -1.4115  0.6972
 1624SOL    HW216509   2.961   1.463   9.919  0.3450  1.0497 -0.1621
 1625SOL     OW16510   2.478   2.531   9.159  0.2975 -0.4582 -0.6646
 1625SOL    HW116511   2.409   2.563   9.100  0.5911 -0.7411 -1.1638
 1625SOL    HW216512   2.464   2.590   9.232  0.2769  0.3530 -1.3228
 1626SOL     OW16513   3.844   0.454   7.920  0.0399 -0.0943  0.2153
 1626SOL    HW116514   3.779   0.488   7.981  1.0060  1.5974  0.3169
 1626SOL    HW216515   3.824   0.360   7.922  2.0966 -0.5441  0.3266
 1627SOL     OW16516   0.129   1.552   6.576 -0.2917  0.2198 -0.8001
 1627SOL    HW116517   0.177   1.612   6.634 -1.1606  0.8695 -0.7524
 1627SOL    HW216518   0.060   1.611   6.546  0.4536  1.5434  0.0527
 1628SOL     OW16519   3.607   2.021   2.365 -0.0537 -0.0069 -0.2219
 1628SOL    HW116520   3.669   2.086   2.396 -0.5727 -0.8486  2.6034
 1628SOL    HW216521   3.521   2.062   2.368  0.0053  0.0811  0.2241
 1629SOL     OW16522   0.024   3.897  13.721  0.0749 -0.0645  0.1988
 1629SOL    HW116523   4.698   3.828  13.734 -1.0230  1.1855  1.2706
 1629SOL    HW216524   4.721   3.952  13.655 -0.0811  0.4873  0.7724
 1630SOL     OW16525   0.870   3.231   5.700  0.2048 -0.4046  0.1827
 1630SOL    HW116526   0.800   3.186   5.654  0.4097  1.6808 -2.1949
 1630SOL    HW216527   0.943   3.169   5.690 -0.0178 -0.3472 -1.7423
 1631SOL     OW16528   4.323   2.440   4.077 -0.4028 -0.2661 -0.5718
 1631SOL    HW116529   4.253   2.503   4.092  1.1179  1.0433  1.0771
 1631SOL    HW216530   4.399   2.490   4.107  0.8309 -1.4139 -1.7479
 1632SOL     OW16531   3.290   2.599   6.858  0.2645 -0.4667 -0.0324
 1632SOL    HW116532   3.348   2.671   6.831  0.3953 -0.8786 -0.8560
 1632SOL    HW216533   3.286   2.616   6.952  1.9984 -0.6803  0.0851
 1633SOL     OW16534   4.261   0.936   7.384 -0.1212 -0.3895  0.6380
 1633SOL    HW116535   4.322   0.862   7.385 -0.7777 -0.9485 -0.7290
 1633SOL    HW216536   4.294   1.005   7.325 -1.7619 -1.4739 -1.5544
 1634SOL     OW16537   2.977   1.483   4.945  0.1164  0.0607  0.2785
 1634SOL    HW116538   2.944   1.572   4.948  1.7936  0.7307 -1.0688
 1634SOL    HW216539   3.001   1.469   4.853  1.3047  0.4596  0.5302
 1635SOL     OW16540   3.580   4.526  17.544  0.1903 -0.4951 -0.1799
 1635SOL    HW116541   3.570   4.459  17.476  2.1643 -2.5432  1.5789
 1635SOL    HW216542   3.496   4.572  17.535  0.0537 -0.5679  0.7874
 1636SOL     OW16543   0.568   0.740   6.458 -0.0350 -0.5961  0.2067
 1636SOL    HW116544   0.632   0.679   6.494 -0.5090 -1.0751  0.2364
 1636SOL    HW216545   0.566   0.712   6.367  0.1884  0.0388  0.0084
 1637SOL     OW16546   3.707   2.824  11.084  0.8059 -0.1586  0.5068
 1637SOL    HW116547   3.700   2.919  11.085 -1.9486 -0.3482  0.2267
 1637SOL    HW216548   3.638   2.789  11.140 -0.0681 -1.6924 -1.4942
 1638SOL     OW16549   1.960   2.263   3.831  0.5058 -0.0458 -0.5027
 1638SOL    HW116550   1.901   2.202   3.875  0.4381  0.6056  0.3112
 1638SOL    HW216551   2.002   2.299   3.910 -0.9149 -1.4315  0.8865
 1639SOL     OW16552   2.698   2.618   9.330  0.6988  0.2962  0.3865
 1639SOL    HW116553   2.704   2.523   9.341 -2.1451  0.1024  0.2003
 1639SOL    HW216554   2.610   2.633   9.294  0.5287 -1.0042  0.2581
 1640SOL     OW16555   2.948   2.353  16.261  0.5067  0.2649  0.3258
 1640SOL    HW116556   2.917   2.443  16.262 -1.2085 -0.3332  1.8502
 1640SOL    HW216557   2.937   2.330  16.169  1.3459  1.0047  0.0504
 1641SOL     OW16558   3.660   3.551   3.844  0.2818  0.2083 -0.2471
 1641SOL    HW116559   3.614   3.607   3.907 -1.4182 -0.6351 -0.7458
 1641SOL    HW216560   3.723   3.612   3.805  0.9198  0.0783  0.5709
 1642SOL     OW16561   0.250   2.605  17.327 -0.1046  0.0494  0.0661
 1642SOL    HW116562   0.327   2.653  17.359 -0.6031 -1.0612  2.9500
 1642SOL    HW216563   0.262   2.518  17.365  2.5665 -0.2031 -1.3374
 1643SOL     OW16564   2.476   1.865   3.482  0.0778  0.8065  0.1165
 1643SOL    HW116565   2.498   1.933   3.419  2.0477 -1.1737 -1.3415
 1643SOL    HW216566   2.528   1.881   3.561  1.0903  0.2950 -0.4389
 1644SOL     OW16567   1.084   1.578  12.965  0.3091 -0.7995 -0.6321
 1644SOL    HW116568   0.999   1.622  12.962  1.6042  1.6861 -1.0304
 1644SOL    HW216569   1.122   1.602  12.880  0.5685 -1.1577 -0.6157
 1645SOL     OW16570   0.893   2.135   6.437  0.0273  0.0259  0.4280
 1645SOL    HW116571   0.927   2.064   6.491  1.9320  0.2276 -0.5193
 1645SOL    HW216572   0.973   2.149   6.387  0.5190  2.4723  1.8822
 1646SOL     OW16573   1.390   4.182   6.779  0.4365 -0.2086 -0.4829
 1646SOL    HW116574   1.306   4.140   6.763 -0.1207  0.4792  0.6258
 1646SOL    HW216575   1.371   4.252   6.842  2.2393  1.5643 -1.9090
 1647SOL     OW16576   4.382   4.058  16.210 -0.3002 -0.1426 -0.4080
 1647SOL    HW116577   4.346   4.033  16.295  1.0275  0.6375  0.3886
 1647SOL    HW216578   4.371   4.153  16.206 -0.5744 -0.1603 -0.0870
 1648SOL     OW16579   3.633   3.750   4.703 -0.0996 -0.1106  0.4991
 1648SOL    HW116580   3.545   3.785   4.689  0.7862  1.6191 -0.7091
 1648SOL    HW216581   3.619   3.656   4.714 -0.3690  0.1649  2.6071
 1649SOL     OW16582   4.402   2.673   8.717  0.3036  0.0257  0.2838
 1649SOL    HW116583   4.404   2.643   8.807 -1.6977 -0.6891  0.0878
 1649SOL    HW216584   4.399   2.768   8.729  0.1607 -0.0552  0.8582
 1650SOL     OW16585   2.638   1.929   6.004 -0.2488  0.5442 -0.2254
 1650SOL    HW116586   2.660   1.867   5.935  0.8766  1.2607 -0.5088
 1650SOL    HW216587   2.622   2.001   5.942  0.4103  2.2444  1.5695
 1651SOL     OW16588   2.688   4.150  15.654 -0.5853 -0.2215 -0.1191
 1651SOL    HW116589   2.695   4.196  15.570 -2.2276 -1.9166 -1.1818
 1651SOL    HW216590   2.593   4.141  15.663 -0.5924  0.2890  0.3368
 1652SOL     OW16591   3.692   1.412   6.024  0.0967 -0.6387 -0.2428
 1652SOL    HW116592   3.743   1.365   6.090 -0.4592 -1.2082 -0.2276
 1652SOL    HW216593   3.610   1.431   6.069  0.7546 -1.1802  1.1724
 1653SOL     OW16594   0.597   3.943  16.399  0.5504  0.4634  0.1434
 1653SOL    HW116595   0.631   4.030  16.378 -0.3434  0.1776 -2.3916
 1653SOL    HW216596   0.511   3.961  16.437 -0.3444 -0.8002 -1.3026
 1654SOL     OW16597   2.873   2.830  12.116 -0.1159 -0.7815 -0.0515
 1654SOL    HW116598   2.800   2.879  12.156  1.7229  1.8252  0.1529
 1654SOL    HW216599   2.837   2.788  12.039 -0.5900 -1.4313  0.5322
 1655SOL     OW16600   4.116   1.490   7.871  0.7569  0.3277  0.0907
 1655SOL    HW116601   4.106   1.420   7.935  0.6838  0.2317 -0.0259
 1655SOL    HW216602   4.185   1.465   7.811  0.0944 -0.2831 -0.4116
 1656SOL     OW16603   2.060   3.990  16.514  0.1756 -0.9086 -0.4177
 1656SOL    HW116604   1.974   4.031  16.512 -0.1546 -1.2919  3.8955
 1656SOL    HW216605   2.024   3.901  16.515  1.6609 -1.4761  3.9915
 1657SOL     OW16606   0.001   1.302   9.820  0.2190 -0.0913 -0.3876
 1657SOL    HW116607   4.672   1.238   9.803  0.5208 -0.2932 -0.8644
 1657SOL    HW216608   4.699   1.387   9.832  2.9339  1.1830  0.0754
 1658SOL     OW16609   2.702   3.200   4.167  0.0927  0.2276  0.0953
 1658SOL    HW116610   2.758   3.243   4.231  0.1685  0.1607  0.0749
 1658SOL    HW216611   2.717   3.107   4.185 -1.7967  0.3309  2.1770
 1659SOL     OW16612   4.505   2.665   2.541 -0.1103 -0.2839  0.6480
 1659SOL    HW116613   4.516   2.712   2.458  1.4148 -1.5699  0.1363
 1659SOL    HW216614   4.582   2.609   2.539 -0.3322 -0.5384 -0.7801
 1660SOL     OW16615   0.016   4.105   4.578  0.1278 -0.3010 -0.2873
 1660SOL    HW116616   0.111   4.119   4.577  0.0368  0.3367  0.1970
 1660SOL    HW216617   4.734   4.144   4.663 -0.3015  0.1624 -0.6142
 1661SOL     OW16618   2.875   1.029   2.763 -0.3167 -0.4778  0.0077
 1661SOL    HW116619   2.817   1.096   2.727  0.5210  0.7379  0.8930
 1661SOL    HW216620   2.860   1.052   2.855  1.1273  2.3966 -0.4706
 1662SOL     OW16621   1.627   4.338   2.651  0.4922  0.0084 -0.0774
 1662SOL    HW116622   1.696   4.303   2.594 -1.5210 -1.6832 -1.4752
 1662SOL    HW216623   1.593   4.404   2.591  2.5941  3.0342  2.0629
 1663SOL     OW16624   0.648   0.928   3.310 -0.6162 -0.1212 -0.1994
 1663SOL    HW116625   0.682   0.894   3.228  0.1070  3.4955 -1.3812
 1663SOL    HW216626   0.620   1.014   3.279 -0.1551  0.6042  1.3926
 1664SOL     OW16627   2.043   2.129   4.986 -0.2646  0.4839 -0.3484
 1664SOL    HW116628   2.003   2.053   5.029 -0.7305  1.3993  0.8686
 1664SOL    HW216629   1.984   2.197   5.020 -0.9966  0.4814 -1.6285
 1665SOL     OW16630   0.933   3.525   1.016 -0.1539 -0.1375 -0.6646
 1665SOL    HW116631   0.860   3.488   1.065 -1.5217  2.0226 -1.0701
 1665SOL    HW216632   0.909   3.618   1.016 -0.6479 -0.2662 -1.5437
 1666SOL     OW16633   0.583   1.595   3.032  0.2108  0.2491  0.6107
 1666SOL    HW116634   0.548   1.570   2.946 -0.3891  1.1992  0.5762
 1666SOL    HW216635   0.537   1.678   3.043  1.7958  1.0618  1.0703
 1667SOL     OW16636   2.307   2.214  15.205  0.2335 -0.8045 -0.4256
 1667SOL    HW116637   2.317   2.148  15.273  1.5089 -1.2471 -1.0537
 1667SOL    HW216638   2.264   2.153  15.145  1.4684 -0.2166 -1.8840
 1668SOL     OW16639   4.112   0.343   7.444  0.4214 -0.3829  0.2560
 1668SOL    HW116640   4.041   0.279   7.433 -1.6283  1.9984 -0.4729
 1668SOL    HW216641   4.066   0.425   7.460  0.3235 -0.9440  2.8145
 1669SOL     OW16642   0.059   0.982   9.077  0.4678 -0.3497 -0.1084
 1669SOL    HW116643   4.715   0.935   9.073  0.1441  0.1951  0.1881
 1669SOL    HW216644   0.015   1.065   9.056  1.0404  0.5668  2.2663
 1670SOL     OW16645   3.776   0.417   8.898 -0.1445 -0.6118  0.4241
 1670SOL    HW116646   3.865   0.452   8.889  0.2275 -1.6414  0.1457
 1670SOL    HW216647   3.744   0.459   8.978  2.2875 -0.8865  1.5372
 1671SOL     OW16648   2.107   0.412   4.029  0.2352 -0.4880 -0.0617
 1671SOL    HW116649   2.097   0.351   3.956 -0.5058 -0.3364 -0.0850
 1671SOL    HW216650   2.202   0.405   4.040  0.7300  1.3614 -3.1321
 1672SOL     OW16651   4.666   2.302   0.599  0.0555 -0.3806 -0.1956
 1672SOL    HW116652   4.627   2.287   0.513  0.1217  1.0896 -0.4852
 1672SOL    HW216653   4.657   2.215   0.637 -0.6027  0.6343  1.9566
 1673SOL     OW16654   1.900   0.054   2.951 -0.1886  0.0241 -0.0219
 1673SOL    HW116655   1.928   0.134   2.995 -1.2935 -0.8110  2.2026
 1673SOL    HW216656   1.806   0.067   2.936 -0.2926 -0.5077  0.1559
 1674SOL     OW16657   2.977   2.551  14.580 -0.1134  0.1656  0.3243
 1674SOL    HW116658   3.039   2.593  14.640  1.3584  1.8629 -2.3870
 1674SOL    HW216659   3.025   2.473  14.552  0.3821  1.0115 -1.1659
 1675SOL     OW16660   3.521   1.365   5.407 -0.0995 -0.0848  0.1526
 1675SOL    HW116661   3.606   1.407   5.422 -0.5352  0.6727  0.5183
 1675SOL    HW216662   3.484   1.408   5.330 -2.5396 -1.6775  0.4287
 1676SOL     OW16663   4.387   2.195   7.721  0.4428  0.5829 -0.1581
 1676SOL    HW116664   4.361   2.222   7.809 -1.7536  2.3940 -1.3437
 1676SOL    HW216665   4.454   2.128   7.734  0.9628  0.9855 -0.7666
 1677SOL     OW16666   1.390   1.101   2.467 -0.5215  0.4586  0.6530
 1677SOL    HW116667   1.300   1.120   2.438 -0.5422  2.1562  1.8004
 1677SOL    HW216668   1.424   1.186   2.495  0.5902  0.0171  0.6198
 1678SOL     OW16669   3.154   3.733  17.000  0.6277  0.2242  0.3071
 1678SOL    HW116670   3.084   3.669  17.009  0.1556  0.4431 -1.8364
 1678SOL    HW216671   3.165   3.728  16.905 -2.5457  0.1474 -0.0574
 1679SOL     OW16672   3.655   2.588   2.968  0.0209  0.2825  0.3746
 1679SOL    HW116673   3.672   2.670   2.922 -1.0686  0.7386  0.7605
 1679SOL    HW216674   3.716   2.597   3.041  0.9540 -0.5562 -0.3199
 1680SOL     OW16675   1.807   3.320   6.259 -0.5810  0.8475  0.4001
 1680SOL    HW116676   1.798   3.340   6.352 -2.3223  0.8990  0.2223
 1680SOL    HW216677   1.887   3.363   6.230 -1.2432  0.9552 -1.2915
 1681SOL     OW16678   4.179   3.271   9.395 -0.0142  0.2919 -0.5357
 1681SOL    HW116679   4.247   3.309   9.339  1.9401  0.0149  1.6406
 1681SOL    HW216680   4.193   3.311   9.481 -0.3906 -0.1340 -0.2772
 1682SOL     OW16681   0.984   1.428   9.547  0.6074 -0.2728  0.0388
 1682SOL    HW116682   0.988   1.333   9.562  0.0769 -0.2941  0.0338
 1682SOL    HW216683   1.071   1.440   9.587  0.7878  2.3591 -1.1737
 1683SOL     OW16684   0.252   4.332   7.577 -0.0640 -0.3558 -0.0369
 1683SOL    HW116685   0.271   4.418   7.539  0.3614 -1.1917 -1.7264
 1683SOL    HW216686   0.305   4.268   7.531  1.7301 -1.8831  4.1549
 1684SOL     OW16687   0.675   2.091  12.847 -0.0495  0.2187 -0.1711
 1684SOL    HW116688   0.711   2.060  12.764 -0.0703  0.8750 -0.4290
 1684SOL    HW216689   0.580   2.094  12.835 -0.2786 -2.1637  1.1253
 1685SOL     OW16690   1.392   4.118  10.842  0.2527 -0.5502  0.0970
 1685SOL    HW116691   1.355   4.204  10.863  1.2639 -0.2392  0.6099
 1685SOL    HW216692   1.410   4.125  10.748 -0.8763 -1.9533 -0.2105
 1686SOL     OW16693   0.752   1.607   7.045 -0.2540 -0.2810  0.0599
 1686SOL    HW116694   0.661   1.577   7.039 -0.2816 -0.3985  1.0679
 1686SOL    HW216695   0.748   1.682   7.104 -1.1692  0.6746 -1.2199
 1687SOL     OW16696   2.813   3.425   5.733  0.2041 -0.3152 -0.1266
 1687SOL    HW116697   2.904   3.402   5.718  0.1602 -0.5999  0.0445
 1687SOL    HW216698   2.791   3.480   5.657 -1.1501 -1.6801 -0.7186
 1688SOL     OW16699   1.701   1.949   1.676 -0.0789 -0.5668  0.2489
 1688SOL    HW116700   1.682   1.980   1.587 -1.4584  0.7042  0.9767
 1688SOL    HW216701   1.620   1.978   1.718  1.3486  1.3107  1.7078
 1689SOL     OW16702   1.520   0.572   8.015  0.6358 -0.7217 -0.1878
 1689SOL    HW116703   1.591   0.636   8.014 -0.3656  0.3563 -2.1824
 1689SOL    HW216704   1.453   0.639   8.000 -0.6044 -2.1798 -1.1859
 1690SOL     OW16705   1.968   3.750  16.662 -0.2202  0.4590 -0.3232
 1690SOL    HW116706   1.903   3.728  16.729  0.6720 -0.7445  0.1560
 1690SOL    HW216707   2.048   3.700  16.678 -0.0176  0.4991 -1.1989
 1691SOL     OW16708   3.210   0.700   0.219  0.0542 -0.3449  0.6854
 1691SOL    HW116709   3.292   0.652   0.230  0.8074  1.0079  0.8996
 1691SOL    HW216710   3.232   0.748   0.140  0.9906 -3.0677 -0.6990
 1692SOL     OW16711   3.652   0.781   3.554  0.4321  0.4045  0.3883
 1692SOL    HW116712   3.568   0.821   3.574  0.1549 -0.6720  1.4343
 1692SOL    HW216713   3.723   0.838   3.581  0.7093 -0.0168  0.5477
 1693SOL     OW16714   2.470   4.461   0.524 -0.1153 -0.2949  0.2817
 1693SOL    HW116715   2.521   4.468   0.443 -3.9047  0.3488 -2.0967
 1693SOL    HW216716   2.449   4.367   0.523 -0.9072 -0.1210  0.2493
 1694SOL     OW16717   4.613   2.210  12.583 -0.2774 -0.1141  0.6755
 1694SOL    HW116718   4.532   2.221  12.534 -0.3879  0.0056  0.8801
 1694SOL    HW216719   4.578   2.245  12.665  1.4329  0.3257  1.2156
 1695SOL     OW16720   1.095   0.459   4.131  0.4362 -0.2250  0.7927
 1695SOL    HW116721   1.125   0.387   4.187 -0.4708  0.6089  2.3400
 1695SOL    HW216722   1.174   0.477   4.081  0.2363  0.3157  0.6778
 1696SOL     OW16723   4.084   1.644   2.108 -0.2326  0.0326  0.0371
 1696SOL    HW116724   3.989   1.633   2.115 -0.5952  1.0158 -3.2399
 1696SOL    HW216725   4.088   1.640   2.012 -1.9864  4.7937 -0.2338
 1697SOL     OW16726   2.820   0.901  15.682 -0.1741  0.2711  0.3374
 1697SOL    HW116727   2.786   0.848  15.755 -1.7962 -0.0987 -0.6892
 1697SOL    HW216728   2.902   0.852  15.672  0.0063  0.6883 -0.2048
 1698SOL     OW16729   0.151   1.128   7.165  0.1909  0.0538 -0.1347
 1698SOL    HW116730   0.200   1.095   7.240 -2.5244 -0.9216  1.2428
 1698SOL    HW216731   0.228   1.164   7.122  0.4640 -0.2331  0.1180
 1699SOL     OW16732   4.006   1.583  15.398 -0.2531 -0.1522  0.3871
 1699SOL    HW116733   4.020   1.642  15.473 -2.6161  0.6150  0.2082
 1699SOL    HW216734   3.926   1.619  15.362  1.5552  3.2862 -0.1692
 1700SOL     OW16735   3.074   0.121  10.711  0.5232  0.4072 -0.1852
 1700SOL    HW116736   3.050   0.093  10.622 -2.2203 -2.2237  1.3822
 1700SOL    HW216737   2.991   0.110  10.756  0.2780  2.7182 -0.1180
 1701SOL     OW16738   2.129   2.828   3.350 -0.2365  0.0276  0.2144
 1701SOL    HW116739   2.067   2.885   3.304  0.9319  1.4019  0.3484
 1701SOL    HW216740   2.200   2.889   3.372  0.2987 -0.0206 -1.3600
 1702SOL     OW16741   0.229   0.579  15.704  0.7445  0.5338 -0.0144
 1702SOL    HW116742   0.294   0.624  15.651  0.5070  1.0902  0.1634
 1702SOL    HW216743   0.162   0.647  15.710  0.7590  0.6494 -1.2059
 1703SOL     OW16744   2.037   3.328   3.897  0.1430 -0.2629  0.5277
 1703SOL    HW116745   2.051   3.389   3.969  1.1387  1.3336 -1.0120
 1703SOL    HW216746   2.065   3.388   3.828 -0.6827  0.6676  1.0014
 1704SOL     OW16747   4.641   2.648  14.931 -0.2385 -0.0118  0.0030
 1704SOL    HW116748   4.603   2.654  15.019  0.7335  0.7602  0.3708
 1704SOL    HW216749   4.568   2.661  14.870  0.0726  1.7549  0.0054
 1705SOL     OW16750   2.387   3.297   6.396 -0.4457 -0.1557  0.0433
 1705SOL    HW116751   2.382   3.254   6.481  0.4164  1.0426  0.7154
 1705SOL    HW216752   2.449   3.247   6.343 -0.0621 -1.3380  1.6281
 1706SOL     OW16753   4.202   4.254   5.199 -0.0929  0.0604 -0.6936
 1706SOL    HW116754   4.179   4.340   5.234  0.4228 -0.2140  0.3072
 1706SOL    HW216755   4.133   4.194   5.229  0.7129 -0.6242 -0.1988
 1707SOL     OW16756   0.690   3.750   8.621 -0.1077  0.4062 -0.1115
 1707SOL    HW116757   0.713   3.687   8.553  0.8551 -0.3548  0.9045
 1707SOL    HW216758   0.743   3.822   8.587  1.3766  0.2213  1.8505
 1708SOL     OW16759   3.141   2.739  14.352  0.2957 -0.4395  0.5008
 1708SOL    HW116760   3.052   2.774  14.345  0.1429 -0.4734  2.2291
 1708SOL    HW216761   3.117   2.647  14.345 -0.7595 -0.1768  0.6375
 1709SOL     OW16762   2.363   1.406   2.902  0.0373  0.4308 -0.0402
 1709SOL    HW116763   2.273   1.414   2.932 -0.3993 -2.6255 -0.6237
 1709SOL    HW216764   2.342   1.391   2.810 -0.4130  1.7193 -0.1537
 1710SOL     OW16765   0.691   0.004   2.996 -0.5024 -0.2606  0.3626
 1710SOL    HW116766   0.618   0.024   3.054 -2.1269  0.6603 -1.9887
 1710SOL    HW216767   0.719   4.658   3.028  0.8464  0.5184  1.2694
 1711SOL     OW16768   0.376   4.535   2.753  0.2422  0.5354 -0.4515
 1711SOL    HW116769   0.339   4.621   2.733 -2.7993 -0.4069  1.1280
 1711SOL    HW216770   0.315   4.483   2.806 -0.8462  0.2396 -1.9827
 1712SOL     OW16771   1.745   0.920   1.176 -0.3298 -0.0659 -0.3764
 1712SOL    HW116772   1.653   0.904   1.198 -0.0331  0.2895  1.0854
 1712SOL    HW216773   1.730   0.972   1.097 -1.8585 -1.5308 -1.0688
 1713SOL     OW16774   2.617   1.423   5.481 -0.3578  0.5289  0.0158
 1713SOL    HW116775   2.655   1.336   5.469  1.0101  0.8265  2.2522
 1713SOL    HW216776   2.540   1.394   5.530 -0.9920  3.0456  0.5357
 1714SOL     OW16777   0.055   1.798   3.597  0.3872  0.4762  0.0559
 1714SOL    HW116778   0.109   1.793   3.519  0.5189 -0.0610  0.1819
 1714SOL    HW216779   0.048   1.891   3.620 -0.0357  0.1621  1.2321
 1715SOL     OW16780   4.023   4.623   0.109 -0.5252  0.4467 -0.5937
 1715SOL    HW116781   4.040   4.713   0.080 -0.0728  0.4904 -0.1912
 1715SOL    HW216782   3.946   4.641   0.162  0.4643 -0.8497  1.2685
 1716SOL     OW16783   2.791   2.296   5.525 -0.4666 -0.4928 -0.0492
 1716SOL    HW116784   2.741   2.377   5.509 -0.8712 -0.7016  0.1550
 1716SOL    HW216785   2.873   2.328   5.488 -1.1916 -0.1992 -1.3943
 1717SOL     OW16786   2.731   0.201   3.965  0.2852 -0.3173  0.5695
 1717SOL    HW116787   2.783   0.130   3.926 -1.0101 -1.1325  0.3419
 1717SOL    HW216788   2.714   0.162   4.051 -1.1283  0.3564  0.5880
 1718SOL     OW16789   1.204   1.068   8.280  0.2412  0.0026  1.0080
 1718SOL    HW116790   1.186   0.975   8.297  2.5640 -0.7982 -0.8568
 1718SOL    HW216791   1.206   1.108   8.367 -0.3245 -1.7120  1.8047
 1719SOL     OW16792   0.902   3.555   3.500 -0.3533  0.5324  0.0062
 1719SOL    HW116793   0.936   3.471   3.531 -0.6680 -0.3416 -2.0539
 1719SOL    HW216794   0.898   3.547   3.405 -1.8195 -0.1383  0.1302
 1720SOL     OW16795   4.448   2.538   5.255 -0.5771  0.1535  0.6410
 1720SOL    HW116796   4.352   2.542   5.249 -0.5178 -0.5460 -0.7148
 1720SOL    HW216797   4.471   2.450   5.226 -0.0717  0.5239 -0.0796
 1721SOL     OW16798   2.747   0.242   6.531 -0.0993 -0.4915 -0.4349
 1721SOL    HW116799   2.720   0.181   6.600 -4.0001  0.5175 -1.0416
 1721SOL    HW216800   2.794   0.303   6.587  1.2928  0.1856 -2.3597
 1722SOL     OW16801   0.140   2.445  17.681 -0.1115  0.4772  0.4994
 1722SOL    HW116802   0.137   2.358  17.641  1.3965  1.5273 -1.8688
 1722SOL    HW216803   0.048   2.468  17.672 -0.3394 -1.3210 -1.8079
 1723SOL     OW16804   2.200   0.093   0.734  0.9587 -0.2277 -0.0254
 1723SOL    HW116805   2.275   0.147   0.759 -1.1307  2.3581  0.6991
 1723SOL    HW216806   2.132   0.151   0.769 -1.1981 -2.0937 -1.1580
 1724SOL     OW16807   4.017   3.147  11.568  0.2765  0.1617 -0.5766
 1724SOL    HW116808   4.023   3.179  11.478  0.9897 -3.2276 -1.7152
 1724SOL    HW216809   4.109   3.140  11.594 -0.3614  0.2343  1.7404
 1725SOL     OW16810   0.705   4.626   1.530  0.4781 -0.1629  0.8172
 1725SOL    HW116811   0.759   4.702   1.553  2.3824 -2.7236  4.7862
 1725SOL    HW216812   0.619   4.668   1.533  1.0783  1.1217 -0.3463
 1726SOL     OW16813   4.713   1.585   8.048  0.4254 -0.0646 -0.4519
 1726SOL    HW116814   4.694   1.516   8.112 -1.0582  0.5010 -0.2833
 1726SOL    HW216815   4.633   1.580   7.995 -0.5096 -0.7514  1.0132
 1727SOL     OW16816   1.985   4.584   3.100  0.5086 -0.0322  0.2462
 1727SOL    HW116817   1.944   4.513   3.051  1.0999 -0.5648  0.5210
 1727SOL    HW216818   1.944   4.661   3.059 -0.4215 -0.6771 -0.0171
 1728SOL     OW16819   0.169   2.523   7.820 -0.5952  0.0155  0.1199
 1728SOL    HW116820   0.209   2.577   7.888  2.0665 -1.6089 -0.1416
 1728SOL    HW216821   0.137   2.447   7.869  1.1496  0.7867  2.4891
 1729SOL     OW16822   2.077   4.618  10.898 -0.9361 -0.0860  0.4622
 1729SOL    HW116823   2.158   4.654  10.862 -0.6062  0.3802  1.6667
 1729SOL    HW216824   2.109   4.542  10.946 -2.7533 -0.5635  0.9137
 1730SOL     OW16825   1.736   2.689  11.917  0.1442  0.0940 -0.0864
 1730SOL    HW116826   1.764   2.696  12.008 -1.2525 -1.7878  0.4783
 1730SOL    HW216827   1.772   2.601  11.903 -1.5762 -0.8828  1.7260
 1731SOL     OW16828   1.474   1.434  15.245 -0.2700 -0.1364  0.2687
 1731SOL    HW116829   1.450   1.358  15.299  3.2011 -0.6813  1.0159
 1731SOL    HW216830   1.409   1.496  15.279  1.0369  1.2176  0.2656
 1732SOL     OW16831   1.206   2.982   6.515  0.0449 -0.6094 -0.5007
 1732SOL    HW116832   1.279   2.951   6.461  0.9873  1.0395 -0.1556
 1732SOL    HW216833   1.164   2.901   6.545 -1.4782  0.2154 -0.3817
 1733SOL     OW16834   4.477   2.376   8.229  0.2531  0.1920 -0.1475
 1733SOL    HW116835   4.497   2.458   8.184  0.1670 -0.2335 -0.9569
 1733SOL    HW216836   4.507   2.400   8.317 -0.2218 -1.1907  0.3896
 1734SOL     OW16837   3.234   0.794  12.039  0.1719  0.0357  0.5897
 1734SOL    HW116838   3.305   0.845  12.078  1.5049 -2.1969  1.1167
 1734SOL    HW216839   3.261   0.796  11.947  0.4932 -2.3155  0.6361
 1735SOL     OW16840   3.688   0.210   7.876  0.3360 -0.5607  0.4104
 1735SOL    HW116841   3.621   0.214   7.807  0.5721 -1.1523  0.1455
 1735SOL    HW216842   3.643   0.264   7.941  0.4181  1.5630 -1.2642
 1736SOL     OW16843   0.633   2.214   9.247 -0.1779  1.0037  0.5477
 1736SOL    HW116844   0.622   2.127   9.286  0.2124  0.7500  0.0895
 1736SOL    HW216845   0.635   2.267   9.327  2.1378 -0.4943  1.4755
 1737SOL     OW16846   3.820   3.876   1.023 -0.5784 -0.2229 -0.0099
 1737SOL    HW116847   3.812   3.870   1.118 -1.5679  4.1770  0.2078
 1737SOL    HW216848   3.827   3.971   1.011  0.2370 -0.0199  2.0536
 1738SOL     OW16849   0.731   1.415   4.088  0.3950  0.2665 -0.0107
 1738SOL    HW116850   0.648   1.421   4.040  0.3845  0.9916  0.0974
 1738SOL    HW216851   0.719   1.355   4.162  0.5305 -1.7241 -1.6033
 1739SOL     OW16852   1.574   0.141  10.248  0.1130  0.2219  0.3351
 1739SOL    HW116853   1.633   0.070  10.271  2.0102  1.5785 -0.3150
 1739SOL    HW216854   1.490   0.105  10.276 -1.0331  3.2378  0.8384
 1740SOL     OW16855   0.565   3.565   1.003  0.1260  0.0614 -0.2966
 1740SOL    HW116856   0.631   3.530   1.063  0.8700  0.0470 -1.1165
 1740SOL    HW216857   0.576   3.510   0.925  1.2272  0.3239 -0.3366
 1741SOL     OW16858   1.597   4.581   4.567 -0.1572 -0.1444 -0.4655
 1741SOL    HW116859   1.675   4.527   4.560 -0.3574 -0.3276 -1.3123
 1741SOL    HW216860   1.596   4.627   4.483 -0.3708 -1.0663 -0.9653
 1742SOL     OW16861   0.048   4.197  10.825 -0.1125 -0.1056  0.1033
 1742SOL    HW116862   0.144   4.201  10.832 -0.2060  0.1652  1.2735
 1742SOL    HW216863   0.017   4.208  10.915  1.0100  1.4854  0.2946
 1743SOL     OW16864   0.515   1.470  12.888  0.4295 -0.6679 -0.1997
 1743SOL    HW116865   0.574   1.485  12.963  0.3755  2.9662 -0.8442
 1743SOL    HW216866   0.542   1.548  12.838 -1.1563 -0.3581 -0.5601
 1744SOL     OW16867   1.902   2.168  12.263 -0.1322  0.1235  0.2598
 1744SOL    HW116868   1.966   2.102  12.238 -0.8550 -1.1054  1.6785
 1744SOL    HW216869   1.827   2.109  12.263  0.8551 -1.1316 -1.6037
 1745SOL     OW16870   3.137   1.400   7.789 -0.1009  0.2510  0.0548
 1745SOL    HW116871   3.085   1.336   7.742 -0.4590  2.8575 -3.1208
 1745SOL    HW216872   3.153   1.344   7.865  1.1346 -1.2835 -1.3253
 1746SOL     OW16873   3.845   1.061   6.958  0.2846  0.3063 -0.2931
 1746SOL    HW116874   3.767   1.106   6.989  0.9737  0.3343  1.4241
 1746SOL    HW216875   3.835   0.996   7.028 -1.3128 -0.9319 -1.6795
 1747SOL     OW16876   0.883   1.552   2.744 -0.1614  0.0029  0.0938
 1747SOL    HW116877   0.951   1.594   2.691 -0.0424  0.2104  0.4112
 1747SOL    HW216878   0.885   1.612   2.818 -0.8460 -1.4855  1.3209
 1748SOL     OW16879   3.748   1.171   8.813 -0.4440 -0.2045 -0.0019
 1748SOL    HW116880   3.696   1.147   8.737 -0.2090 -3.1867  0.7487
 1748SOL    HW216881   3.816   1.230   8.781 -1.3170  0.4269 -0.6865
 1749SOL     OW16882   2.896   2.623  16.268  0.5093 -0.5857  0.0559
 1749SOL    HW116883   2.980   2.666  16.254  0.0625 -0.2880 -1.7098
 1749SOL    HW216884   2.834   2.678  16.219 -0.3162 -0.7859  0.8890
 1750SOL     OW16885   0.851   1.443   0.222 -0.4149 -0.1592 -0.0401
 1750SOL    HW116886   0.934   1.394   0.217 -0.2825  0.0870 -0.2838
 1750SOL    HW216887   0.863   1.486   0.306 -0.1145  0.8958 -0.6314
 1751SOL     OW16888   1.098   3.034   1.728  0.0764  0.4303 -0.2006
 1751SOL    HW116889   1.165   3.053   1.662 -0.2057  0.1938 -0.5552
 1751SOL    HW216890   1.152   3.032   1.808  1.7779  1.4809 -1.3154
 1752SOL     OW16891   2.785   1.175   1.976  0.0922  0.1158  0.5542
 1752SOL    HW116892   2.848   1.165   2.048  1.3526 -0.3905 -0.6230
 1752SOL    HW216893   2.722   1.241   2.008  1.1844  2.0437 -1.3011
 1753SOL     OW16894   1.395   4.663   2.510  0.3786 -0.0542 -0.0412
 1753SOL    HW116895   1.400   4.674   2.415 -1.2243  1.9662  0.0966
 1753SOL    HW216896   1.331   4.728   2.539  1.9606  1.5135 -0.0388
 1754SOL     OW16897   0.554   2.339   7.968 -0.2522  0.6032 -0.3529
 1754SOL    HW116898   0.467   2.300   7.957 -0.1064 -0.2166  1.2638
 1754SOL    HW216899   0.569   2.306   8.057  0.4303 -0.1068 -0.7360
 1755SOL     OW16900   4.049   4.310   8.563 -0.2717 -0.2249 -0.2062
 1755SOL    HW116901   3.966   4.353   8.541  0.3271  1.8382  1.4954
 1755SOL    HW216902   4.008   4.240   8.613 -1.0850 -0.1187 -0.7215
 1756SOL     OW16903   2.289   3.797  14.726  0.0901 -0.6577 -0.3923
 1756SOL    HW116904   2.288   3.893  14.721  1.2656 -0.5868  0.8224
 1756SOL    HW216905   2.384   3.793  14.713  0.0741  0.3550 -0.8452
 1757SOL     OW16906   4.366   2.654   7.984 -0.4787  0.4350 -0.4049
 1757SOL    HW116907   4.292   2.633   8.041  0.0113  2.8416  1.0851
 1757SOL    HW216908   4.439   2.670   8.043 -0.0504 -0.6939 -0.6284
 1758SOL     OW16909   4.621   4.028   8.782  0.0995  0.3158  0.1214
 1758SOL    HW116910   4.541   3.979   8.799  0.4141 -0.1361  0.2943
 1758SOL    HW216911   4.647   4.057   8.870  1.5434  0.1889 -0.2560
 1759SOL     OW16912   3.209   1.241   0.771  0.1192 -0.1789 -0.1719
 1759SOL    HW116913   3.180   1.330   0.751 -1.9224 -0.8459 -0.1964
 1759SOL    HW216914   3.229   1.200   0.687  0.9638  3.4786 -1.7344
 1760SOL     OW16915   2.854   4.712   5.388  0.2130 -0.2179  0.2182
 1760SOL    HW116916   2.844   4.626   5.346  2.7887 -0.6751  0.5328
 1760SOL    HW216917   2.938   4.703   5.432  1.1335  1.8053 -1.1496
 1761SOL     OW16918   4.553   0.481   0.426  0.3832  0.2190 -0.6305
 1761SOL    HW116919   4.562   0.544   0.497 -0.4983  0.6844 -0.9219
 1761SOL    HW216920   4.531   0.395   0.464  0.4829  0.4880  0.0310
 1762SOL     OW16921   0.029   3.556   9.352 -0.2833 -0.4433 -0.2888
 1762SOL    HW116922   0.007   3.643   9.318  1.6719 -0.9196 -2.7241
 1762SOL    HW216923   0.108   3.584   9.399 -1.2301  1.7223  0.0583
 1763SOL     OW16924   1.628   3.178   1.698 -0.2572 -0.7465  0.0294
 1763SOL    HW116925   1.548   3.137   1.667 -0.8489  1.2863 -1.1149
 1763SOL    HW216926   1.612   3.272   1.704  3.7499 -0.0149 -0.6627
 1764SOL     OW16927   0.092   3.848   8.052  0.6120  0.4505  0.3604
 1764SOL    HW116928   0.097   3.786   7.979 -0.6840 -0.4794  1.0583
 1764SOL    HW216929   0.178   3.890   8.047  0.7205  0.1507 -0.3445
 1765SOL     OW16930   2.286   0.115   8.627  0.1158  0.3865  0.2693
 1765SOL    HW116931   2.270   0.037   8.574 -0.2522  0.4827  0.2427
 1765SOL    HW216932   2.211   0.165   8.596 -0.1408  0.2012  0.6099
 1766SOL     OW16933   1.400   0.729   8.281  1.1785 -0.1865 -0.1317
 1766SOL    HW116934   1.413   0.734   8.376  0.6504  1.2774 -0.1279
 1766SOL    HW216935   1.451   0.808   8.262 -0.1000  0.3896 -1.1560
 1767SOL     OW16936   1.115   1.123   5.307  0.3275  0.3620 -0.5011
 1767SOL    HW116937   1.058   1.073   5.249 -1.3217 -0.3907  1.7566
 1767SOL    HW216938   1.050   1.133   5.376  1.6203  2.2157  0.4589
 1768SOL     OW16939   3.230   1.821   4.740 -0.0523  0.0831 -0.7320
 1768SOL    HW116940   3.261   1.911   4.747  1.5754 -0.6842  1.8101
 1768SOL    HW216941   3.261   1.796   4.653  0.1089 -1.0117 -0.3531
 1769SOL     OW16942   2.122   2.446   1.751 -0.4588  0.2977 -0.2059
 1769SOL    HW116943   2.124   2.443   1.846  0.5755 -0.8525 -0.2665
 1769SOL    HW216944   2.182   2.518   1.734  1.3514 -1.1629  0.0908
 1770SOL     OW16945   3.455   2.882   3.001  0.3815  0.1268  0.1523
 1770SOL    HW116946   3.502   2.855   3.080  0.2876  0.7562  0.4216
 1770SOL    HW216947   3.513   2.953   2.975  0.3812 -0.3054 -1.0294
 1771SOL     OW16948   1.933   4.512   6.352  0.2674 -0.2087  0.0874
 1771SOL    HW116949   1.982   4.594   6.349  2.3705 -1.4933 -0.5685
 1771SOL    HW216950   1.864   4.527   6.287  0.9954 -1.0205 -0.8679
 1772SOL     OW16951   0.263   2.266   3.035 -0.2149  0.1557 -0.1279
 1772SOL    HW116952   0.326   2.305   2.975 -1.4544  0.8941 -0.9518
 1772SOL    HW216953   0.180   2.307   3.009 -0.7034 -0.0408  1.1273
 1773SOL     OW16954   0.216   1.284   8.400 -0.1064 -0.4057  0.4488
 1773SOL    HW116955   0.213   1.207   8.343  2.1704 -0.2017  0.0247
 1773SOL    HW216956   0.273   1.344   8.351 -0.7687 -0.8640 -0.8750
 1774SOL     OW16957   2.172   2.734   1.122  0.6627  0.0018  0.2374
 1774SOL    HW116958   2.119   2.685   1.184 -0.9223  1.1601 -0.1772
 1774SOL    HW216959   2.250   2.680   1.115 -0.5861 -1.8416  0.5199
 1775SOL     OW16960   0.983   1.490   7.153  0.0683  0.0669  0.1266
 1775SOL    HW116961   0.962   1.470   7.244 -0.4198  1.8202  0.4042
 1775SOL    HW216962   0.902   1.534   7.127  0.6923  0.5819 -0.9900
 1776SOL     OW16963   3.178   3.216   4.512 -0.3232  0.1864 -0.3389
 1776SOL    HW116964   3.189   3.310   4.506  1.3530 -0.1135 -1.9102
 1776SOL    HW216965   3.107   3.204   4.575  0.2945  1.9454  0.6893
 1777SOL     OW16966   0.810   0.300  14.151  0.8238  0.6826 -0.2068
 1777SOL    HW116967   0.859   0.290  14.070  0.5518  1.4365 -0.4657
 1777SOL    HW216968   0.739   0.362  14.129  2.3641  2.9873  1.2898
 1778SOL     OW16969   3.632   1.687  10.711 -0.2639 -0.4228 -0.0946
 1778SOL    HW116970   3.626   1.649  10.799  0.1991  0.7454  0.4452
 1778SOL    HW216971   3.690   1.760  10.732  0.5528 -0.9678 -0.4473
 1779SOL     OW16972   4.247   1.657  12.772 -0.2206  0.0030 -0.5553
 1779SOL    HW116973   4.184   1.622  12.834  0.4265  2.2135  1.3346
 1779SOL    HW216974   4.216   1.746  12.752  0.9716  0.6666  0.6197
 1780SOL     OW16975   3.971   1.342   2.942  0.0350  0.1444 -0.0288
 1780SOL    HW116976   3.920   1.414   2.904  0.2629  1.2700  1.7791
 1780SOL    HW216977   4.062   1.351   2.912 -0.3907  3.2262 -0.4408
 1781SOL     OW16978   2.347   1.099   4.419 -0.4617 -0.1991 -0.2447
 1781SOL    HW116979   2.344   1.093   4.323  0.2287  0.6653 -0.3201
 1781SOL    HW216980   2.394   1.018   4.438  0.0217  0.6245  2.0723
 1782SOL     OW16981   0.056   1.837  17.545 -0.5952 -0.8888  0.1175
 1782SOL    HW116982   0.125   1.875  17.491  1.2487 -2.7578  1.1864
 1782SOL    HW216983   0.115   1.788  17.602 -0.9172  0.2761  1.4404
 1783SOL     OW16984   2.168   3.301   9.826  0.2880 -0.4050  0.0354
 1783SOL    HW116985   2.195   3.221   9.872  1.8525 -0.3789 -0.8069
 1783SOL    HW216986   2.080   3.277   9.796  0.6614 -0.5377 -0.9799
 1784SOL     OW16987   1.352   3.428   2.351 -0.4062  0.4947  0.3838
 1784SOL    HW116988   1.359   3.509   2.300  0.0644 -0.3169 -0.8389
 1784SOL    HW216989   1.287   3.379   2.301  0.3426 -1.0876  0.9668
 1785SOL     OW16990   0.295   3.510   6.730 -0.2886  0.0622 -0.2296
 1785SOL    HW116991   0.310   3.433   6.785 -2.0580 -1.1603 -1.4900
 1785SOL    HW216992   0.381   3.546   6.710 -0.6238  0.6683 -0.5860
 1786SOL     OW16993   0.121   1.138  10.001 -0.2714 -0.0368 -0.5187
 1786SOL    HW116994   0.102   1.221   9.956 -0.2643 -0.3479 -1.0922
 1786SOL    HW216995   0.210   1.153  10.031 -1.4069  1.3286  2.2318
 1787SOL     OW16996   4.522   0.488   3.754 -0.1138 -0.1578 -0.7065
 1787SOL    HW116997   4.509   0.451   3.841 -0.3486 -1.6692 -1.3877
 1787SOL    HW216998   4.610   0.525   3.762 -0.3103  0.4980 -1.5389
 1788SOL     OW16999   4.677   2.947   8.354 -0.0361 -0.3264 -0.8233
 1788SOL    HW117000   4.729   2.871   8.381 -1.7961 -0.6375  1.7422
 1788SOL    HW217001   4.718   2.974   8.272  1.1170 -0.6901 -0.3536
 1789SOL     OW17002   4.658   0.220   5.119 -0.0073 -0.7127 -0.2394
 1789SOL    HW117003   0.001   0.209   5.071  0.4260 -1.0166  0.5852
 1789SOL    HW217004   4.684   0.259   5.202 -2.0361 -0.4356  0.2501
 1790SOL     OW17005   0.562   2.435   0.878 -0.5024  0.2484 -0.3052
 1790SOL    HW117006   0.613   2.361   0.910 -1.2377 -0.0658  0.1450
 1790SOL    HW217007   0.629   2.488   0.835 -1.8483  0.8749 -1.6440
 1791SOL     OW17008   2.156   3.992   4.962  0.1111 -0.2448 -0.4767
 1791SOL    HW117009   2.219   3.948   4.905  0.6001  0.0650 -0.1759
 1791SOL    HW217010   2.110   3.912   4.987  1.6619 -1.1220 -0.4346
 1792SOL     OW17011   0.297   1.954   3.930 -0.5876 -0.6982  0.3263
 1792SOL    HW117012   0.353   1.994   3.864 -2.7561  1.7299 -0.0471
 1792SOL    HW217013   0.296   1.868   3.887  0.8186 -1.0099  0.9125
 1793SOL     OW17014   1.908   0.653   8.396 -0.5925  0.6028  0.3847
 1793SOL    HW117015   1.996   0.669   8.364  0.3940 -0.0505  2.7091
 1793SOL    HW217016   1.861   0.726   8.357 -0.8955 -0.1509 -0.6697
 1794SOL     OW17017   3.293   2.033   8.591  0.2426 -0.8771  0.9263
 1794SOL    HW117018   3.254   1.973   8.655  0.4426  0.8432  2.6775
 1794SOL    HW217019   3.363   2.066   8.648 -0.1068 -0.5295  1.1599
 1795SOL     OW17020   3.261   3.424   5.796  0.6325  0.3068 -0.2720
 1795SOL    HW117021   3.310   3.506   5.798 -1.6369  1.6506  1.3485
 1795SOL    HW217022   3.331   3.359   5.797  2.2781  2.0939  0.8178
 1796SOL     OW17023   0.339   3.097   7.040  0.5520 -0.5870 -0.0550
 1796SOL    HW117024   0.268   3.084   7.103  0.4282  1.3286  0.2144
 1796SOL    HW217025   0.333   3.021   6.981  1.5765 -0.0151 -0.8992
 1797SOL     OW17026   4.271   3.690   5.928 -0.4956 -0.5009  0.6504
 1797SOL    HW117027   4.297   3.761   5.987  0.8346  1.0501 -1.7955
 1797SOL    HW217028   4.318   3.715   5.849 -1.5155 -1.2066 -0.1817
 1798SOL     OW17029   4.388   3.929  13.551 -0.0836 -0.3082 -0.8713
 1798SOL    HW117030   4.324   3.861  13.531 -0.1353 -0.4229 -0.3343
 1798SOL    HW217031   4.471   3.884  13.530 -0.1916 -1.8980  2.0959
 1799SOL     OW17032   1.655   1.360   3.828 -0.7139  0.1626  0.7956
 1799SOL    HW117033   1.676   1.308   3.749 -0.1032  0.6199  0.6582
 1799SOL    HW217034   1.659   1.450   3.796 -0.9125 -0.5034 -1.1581
 1800SOL     OW17035   3.249   4.249  12.311 -0.2216 -0.2005 -0.4387
 1800SOL    HW117036   3.166   4.294  12.297 -0.4614 -0.7181 -0.6881
 1800SOL    HW217037   3.316   4.284  12.252 -1.0599 -0.6631 -1.6508
 1801SOL     OW17038   1.508   1.983   8.411 -0.9388 -0.1406  0.1587
 1801SOL    HW117039   1.566   1.924   8.459 -0.8589 -0.8107 -0.7622
 1801SOL    HW217040   1.558   2.064   8.418  0.5773 -1.2673  2.4030
 1802SOL     OW17041   0.797   2.225  13.264  0.1471  0.0260  0.2860
 1802SOL    HW117042   0.821   2.277  13.341  0.8795 -0.6464  0.5067
 1802SOL    HW217043   0.706   2.249  13.246 -0.2867 -0.1742  2.2278
 1803SOL     OW17044   2.605   4.575  12.879  0.1145 -0.0603 -0.0393
 1803SOL    HW117045   2.664   4.629  12.932  2.3076 -1.4223 -1.0921
 1803SOL    HW217046   2.663   4.531  12.817 -0.5045  1.0746 -1.4276
 1804SOL     OW17047   3.743   2.913  14.093  0.0151  0.7024  0.0363
 1804SOL    HW117048   3.794   2.989  14.119  0.9976 -0.0324  0.2370
 1804SOL    HW217049   3.757   2.850  14.164 -1.0758 -0.3630 -0.6834
 1805SOL     OW17050   3.350   0.704   1.219  0.0035 -0.0036  0.0719
 1805SOL    HW117051   3.262   0.734   1.198 -0.1765  0.5108  1.5381
 1805SOL    HW217052   3.383   0.779   1.269  1.6913 -0.4757 -0.3276
 1806SOL     OW17053   1.077   0.379  10.747 -0.3356  0.3613  0.9786
 1806SOL    HW117054   0.987   0.413  10.744 -0.2163  0.5062 -0.8585
 1806SOL    HW217055   1.083   0.317  10.820  1.8629 -1.6181 -0.8828
 1807SOL     OW17056   0.158   3.715   2.001  0.5561 -0.8012  0.3748
 1807SOL    HW117057   0.140   3.695   2.093  0.9443  1.5323  0.9744
 1807SOL    HW217058   0.147   3.810   1.996  0.1832 -0.6692  3.6713
 1808SOL     OW17059   1.661   3.315   6.730 -0.8139 -0.0750  0.4089
 1808SOL    HW117060   1.615   3.397   6.717  0.6964  0.8560  0.9023
 1808SOL    HW217061   1.615   3.288   6.809  0.7756  0.8868  1.6524
 1809SOL     OW17062   4.479   4.459   8.094 -0.1692 -0.1374 -0.3505
 1809SOL    HW117063   4.519   4.486   8.177 -0.9900 -1.8188  0.5656
 1809SOL    HW217064   4.436   4.543   8.075 -0.0115  0.5707  2.3802
 1810SOL     OW17065   0.345   1.519  10.635 -0.2938  0.3001 -0.0586
 1810SOL    HW117066   0.305   1.605  10.620 -0.5220  0.3160  0.6178
 1810SOL    HW217067   0.405   1.508  10.562 -0.0402  2.1515 -0.1341
 1811SOL     OW17068   3.706   1.564  17.414  0.8726 -1.0695 -0.0974
 1811SOL    HW117069   3.708   1.581  17.508  0.4518 -1.7660  0.0397
 1811SOL    HW217070   3.721   1.650  17.375 -0.9770 -0.0626  1.4310
 1812SOL     OW17071   2.757   0.693   6.613  0.6127  0.2260  0.2329
 1812SOL    HW117072   2.674   0.655   6.644  1.2547 -0.8378  0.6336
 1812SOL    HW217073   2.788   0.632   6.546  0.2808  2.5755 -2.0954
 1813SOL     OW17074   4.516   2.499   2.192  0.1023  0.2924 -0.2110
 1813SOL    HW117075   4.603   2.530   2.164 -0.0104 -1.3840 -2.3701
 1813SOL    HW217076   4.460   2.564   2.150 -0.2066 -0.4417 -0.9349
 1814SOL     OW17077   1.245   4.046  17.099 -0.0405  0.4966  0.0845
 1814SOL    HW117078   1.291   3.994  17.034  0.8861  1.2368  0.1472
 1814SOL    HW217079   1.180   3.990  17.141 -0.2761  0.5729 -0.1749
 1815SOL     OW17080   2.263   1.422   1.375  0.4730  0.0106  0.0535
 1815SOL    HW117081   2.338   1.367   1.351  0.0459  0.7701 -3.1053
 1815SOL    HW217082   2.195   1.378   1.324  0.6920 -0.6752  0.3540
 1816SOL     OW17083   3.632   0.467   5.839  0.1375 -0.0721 -0.6127
 1816SOL    HW117084   3.547   0.472   5.795 -1.0308 -0.1694  1.6347
 1816SOL    HW217085   3.602   0.493   5.926 -1.3568 -0.3730 -1.0385
 1817SOL     OW17086   1.157   0.242   8.217 -0.4572 -0.2632  0.3371
 1817SOL    HW117087   1.189   0.270   8.303  0.4987  2.5958 -0.9746
 1817SOL    HW217088   1.215   0.169   8.198  0.4955  0.7788 -0.7016
 1818SOL     OW17089   0.616   3.845   3.003  0.0620  0.2218  0.0313
 1818SOL    HW117090   0.588   3.922   3.053  1.0326  0.8505 -0.3960
 1818SOL    HW217091   0.613   3.869   2.910  1.3762 -0.1927 -0.1097
 1819SOL     OW17092   0.043   0.875  17.665 -0.4427 -0.3408 -0.0590
 1819SOL    HW117093   0.123   0.912  17.629 -0.4545  0.1925  0.4709
 1819SOL    HW217094   4.735   0.857  17.584 -0.4491 -0.6972  0.0240
 1820SOL     OW17095   1.476   3.500   8.769 -0.3477  0.3882  0.0435
 1820SOL    HW117096   1.407   3.488   8.703  0.7819 -2.3179 -0.6358
 1820SOL    HW217097   1.535   3.427   8.753  1.0699  1.2370  1.4095
 1821SOL     OW17098   1.583   0.559  13.972 -0.1773 -0.3616  0.0900
 1821SOL    HW117099   1.532   0.555  13.892 -0.4683 -1.8293  0.3615
 1821SOL    HW217100   1.510   0.553  14.033  0.9368 -0.0818  1.4611
 1822SOL     OW17101   3.335   0.480   7.964 -0.0740  0.1815 -0.3523
 1822SOL    HW117102   3.372   0.544   7.903  0.0068 -1.4895 -2.0582
 1822SOL    HW217103   3.420   0.452   7.998 -0.7825 -2.9204 -1.1506
 1823SOL     OW17104   2.632   2.422   1.518 -0.5362  0.0988  0.5933
 1823SOL    HW117105   2.540   2.419   1.491 -0.9274  0.0684  1.9223
 1823SOL    HW217106   2.613   2.418   1.612 -1.4206 -0.9483  0.3686
 1824SOL     OW17107   2.434   2.527   2.198 -0.4631  0.4706  0.0145
 1824SOL    HW117108   2.457   2.549   2.108  0.6203 -2.7467 -0.5181
 1824SOL    HW217109   2.469   2.439   2.210  0.9693  0.9829 -0.4316
 1825SOL     OW17110   2.241   0.876   0.957  0.4202 -0.1141 -0.8653
 1825SOL    HW117111   2.150   0.848   0.950  0.1239 -0.0481  2.7878
 1825SOL    HW217112   2.262   0.894   1.049  0.3944 -0.0369 -0.8745
 1826SOL     OW17113   0.621   3.405   8.737  0.2140 -0.3005  0.3165
 1826SOL    HW117114   0.536   3.411   8.692  0.6123 -0.7093 -0.4947
 1826SOL    HW217115   0.648   3.317   8.712  1.0113  0.3283 -1.0488
 1827SOL     OW17116   2.554   1.954   6.460  0.0669 -0.0368  0.4298
 1827SOL    HW117117   2.508   2.035   6.484  1.2456  0.8122 -0.1944
 1827SOL    HW217118   2.525   1.942   6.369 -0.8700 -1.6656  0.9541
 1828SOL     OW17119   1.699   1.200  14.662 -0.4172 -0.1481 -0.4392
 1828SOL    HW117120   1.628   1.164  14.716 -0.3749  1.2650  0.5510
 1828SOL    HW217121   1.782   1.166  14.694  0.5162  0.7010 -1.9755
 1829SOL     OW17122   2.993   2.397   5.402  0.4201  0.9048  0.0161
 1829SOL    HW117123   3.066   2.373   5.346 -2.3164 -1.1044 -2.6127
 1829SOL    HW217124   2.995   2.491   5.382  0.6867  0.7740 -0.5617
 1830SOL     OW17125   4.101   1.661   8.216 -0.3523 -0.0685 -0.3226
 1830SOL    HW117126   4.103   1.669   8.311  1.3378  0.2805 -0.3894
 1830SOL    HW217127   4.160   1.586   8.206  0.9535  1.0297 -0.9099
 1831SOL     OW17128   4.335   2.901   2.287 -0.0278  0.2476 -0.4077
 1831SOL    HW117129   4.276   2.833   2.320 -0.5503  0.3833 -1.0612
 1831SOL    HW217130   4.416   2.862   2.319 -0.6255 -1.0019 -0.4319
 1832SOL     OW17131   3.553   1.610   2.514  0.1705 -0.0856  0.7020
 1832SOL    HW117132   3.640   1.580   2.488 -0.3899 -0.3066 -0.8956
 1832SOL    HW217133   3.522   1.674   2.451 -0.9036  0.9778  2.3014
 1833SOL     OW17134   4.463   0.575   9.560 -0.3326 -0.4768 -0.2327
 1833SOL    HW117135   4.505   0.518   9.496 -0.4426 -0.4303 -0.3445
 1833SOL    HW217136   4.440   0.515   9.632  2.7295 -0.5751  0.6736
 1834SOL     OW17137   3.791   3.766  10.365  0.4384 -0.1201 -0.2166
 1834SOL    HW117138   3.844   3.775  10.444  0.8449 -1.8624 -0.2875
 1834SOL    HW217139   3.815   3.685  10.320  0.9638 -0.8268  1.3419
 1835SOL     OW17140   0.248   0.613  11.122 -0.1831  0.4929  0.6182
 1835SOL    HW117141   0.170   0.571  11.086  1.7992 -1.3881 -1.5427
 1835SOL    HW217142   0.324   0.579  11.073 -1.5010 -0.7557 -0.5713
 1836SOL     OW17143   2.143   1.194   4.695 -0.2481  0.0711  0.1026
 1836SOL    HW117144   2.212   1.129   4.706 -2.4279 -2.4641 -1.0091
 1836SOL    HW217145   2.191   1.276   4.707 -2.7643  1.7164 -0.9192
 1837SOL     OW17146   3.824   1.959   4.811  0.3145  0.3850 -0.4017
 1837SOL    HW117147   3.839   2.033   4.869 -1.0318 -0.7483  1.3860
 1837SOL    HW217148   3.881   1.982   4.738 -1.0151  1.3292 -1.1382
 1838SOL     OW17149   3.359   0.235   3.832  0.1999  0.4231  0.3201
 1838SOL    HW117150   3.346   0.290   3.755  3.6714 -0.3218 -0.8025
 1838SOL    HW217151   3.290   0.168   3.828  2.5419 -1.9028 -1.4981
 1839SOL     OW17152   1.232   0.027  12.300 -0.5810 -0.3517 -0.3627
 1839SOL    HW117153   1.227   4.672  12.311 -0.8810 -0.4634 -1.4534
 1839SOL    HW217154   1.325   0.045  12.287 -0.9335  1.6753 -0.1682
 1840SOL     OW17155   1.021   1.180   0.989  0.2075 -0.3140 -0.0431
 1840SOL    HW117156   1.104   1.144   1.019  0.9719 -0.4942 -2.3250
 1840SOL    HW217157   1.008   1.115   0.920 -4.8979  0.3703  0.2609
 1841SOL     OW17158   2.191   1.886   1.464 -0.4974 -0.1684  0.1943
 1841SOL    HW117159   2.155   1.799   1.444  0.3435 -0.5766  0.4204
 1841SOL    HW217160   2.122   1.931   1.513 -0.7136 -1.0608  0.7301
 1842SOL     OW17161   3.643   4.262   5.535 -0.1947  0.5804  0.0480
 1842SOL    HW117162   3.579   4.191   5.530  0.6728 -0.5482  4.4140
 1842SOL    HW217163   3.722   4.230   5.491 -0.5576 -1.0761  0.5953
 1843SOL     OW17164   3.197   2.899   3.055 -0.7277 -0.0061  0.3750
 1843SOL    HW117165   3.213   2.843   3.132 -2.4858  0.7264  1.2826
 1843SOL    HW217166   3.276   2.882   3.004 -0.2087 -0.8133  1.4355
 1844SOL     OW17167   1.494   3.802   6.443  0.3878 -0.2675  0.1679
 1844SOL    HW117168   1.540   3.779   6.362  1.1714 -0.6231  0.7131
 1844SOL    HW217169   1.404   3.809   6.411  0.3238 -0.2455  0.3529
 1845SOL     OW17170   1.228   2.111   8.868 -0.0452  0.6636 -0.1702
 1845SOL    HW117171   1.306   2.153   8.832 -0.7384  0.9747 -1.2987
 1845SOL    HW217172   1.245   2.114   8.962  2.6832 -1.1955 -0.5815
 1846SOL     OW17173   0.384   1.063   7.959 -0.4704 -0.0619 -0.3079
 1846SOL    HW117174   0.461   1.119   7.951 -0.4333  0.0853  1.0441
 1846SOL    HW217175   0.319   1.133   7.964 -0.7474 -0.3706  0.5257
 1847SOL     OW17176   0.107   2.334   9.049 -0.0507  0.0270 -0.1460
 1847SOL    HW117177   0.067   2.258   9.091 -0.0310 -0.2716 -0.6713
 1847SOL    HW217178   0.183   2.296   9.006 -1.1323  0.3704 -2.3737
 1848SOL     OW17179   3.896   2.942  11.891 -0.0597 -0.1452 -0.4937
 1848SOL    HW117180   3.874   3.027  11.853  1.2894  1.1208  1.5850
 1848SOL    HW217181   3.989   2.959  11.909 -0.6207  3.1527 -0.6549
 1849SOL     OW17182   3.178   1.415   3.022  0.3969 -0.0237 -0.2452
 1849SOL    HW117183   3.139   1.366   3.094  1.4476 -0.7114 -0.1280
 1849SOL    HW217184   3.180   1.352   2.950  1.0317 -1.3912  0.9555
 1850SOL     OW17185   2.783   2.996  10.487  0.0853 -0.1622  0.7970
 1850SOL    HW117186   2.828   2.943  10.552 -1.3928 -1.6678  0.5851
 1850SOL    HW217187   2.721   3.044  10.542  0.9314  1.2282  0.5558
 1851SOL     OW17188   3.688   1.987   8.961 -0.0987 -0.2180  0.1527
 1851SOL    HW117189   3.671   2.015   9.051  1.9304 -2.6004  1.2862
 1851SOL    HW217190   3.697   2.072   8.917  2.8404 -0.4032  0.4029
 1852SOL     OW17191   3.964   2.014  11.790 -1.1100 -0.0317  0.4550
 1852SOL    HW117192   3.970   1.979  11.879  0.1350  2.0749  1.1950
 1852SOL    HW217193   3.875   2.049  11.791 -1.7822 -1.7038 -0.9553
 1853SOL     OW17194   1.467   1.922   7.883  0.2892  0.1867 -0.3190
 1853SOL    HW117195   1.469   1.918   7.978  4.1554  2.4889 -0.3118
 1853SOL    HW217196   1.460   1.832   7.852 -0.8873 -0.3009  1.3670
 1854SOL     OW17197   1.048   0.244   0.104  0.4807 -0.0888  0.0379
 1854SOL    HW117198   1.123   0.289   0.142  1.6933 -2.0817 -0.0088
 1854SOL    HW217199   1.060   0.156   0.139  1.6440  0.8153  1.8768
 1855SOL     OW17200   1.634   3.964   3.139  0.0217  0.2062  0.5924
 1855SOL    HW117201   1.578   3.938   3.066 -0.2999  0.0693  0.8845
 1855SOL    HW217202   1.573   4.016   3.192 -0.4021  0.0901  0.2121
 1856SOL     OW17203   0.459   1.259   2.398  0.0237  0.2508  0.2832
 1856SOL    HW117204   0.442   1.183   2.454 -2.1337  0.5786  0.0954
 1856SOL    HW217205   0.538   1.241   2.348 -1.4002 -0.8971 -1.5658
 1857SOL     OW17206   2.560   1.018   5.341  0.1762  0.1930  0.2985
 1857SOL    HW117207   2.602   1.051   5.421 -0.3375  0.4800  0.4501
 1857SOL    HW217208   2.494   0.960   5.377  1.4100 -1.4800 -0.1431
 1858SOL     OW17209   2.339   3.906   1.892 -0.5692 -0.5154 -0.0827
 1858SOL    HW117210   2.374   3.849   1.960 -1.5328  1.3556  1.9981
 1858SOL    HW217211   2.316   3.987   1.938  0.8961  0.2212 -0.6464
 1859SOL     OW17212   3.955   3.413   8.382 -0.5449 -0.1233  0.4658
 1859SOL    HW117213   3.977   3.340   8.325  1.9330 -0.5812  2.0130
 1859SOL    HW217214   4.028   3.475   8.387 -1.1404  0.8514 -3.0170
 1860SOL     OW17215   0.652   4.636   5.931  0.6948 -0.3650  0.1185
 1860SOL    HW117216   0.626   4.689   5.856  2.6223  0.6273  0.1545
 1860SOL    HW217217   0.685   4.710   5.980 -0.7517  0.7051 -0.5334
 1861SOL     OW17218   1.035   1.914   1.746  0.3143 -0.2244  0.3086
 1861SOL    HW117219   1.077   1.907   1.659  1.4204 -1.9542  0.9847
 1861SOL    HW217220   0.952   1.953   1.720  0.5502 -0.0243 -0.1544
 1862SOL     OW17221   2.101   3.983   6.530  0.4388  0.8196 -0.0914
 1862SOL    HW117222   2.172   3.924   6.505  1.3612  2.0207 -0.3020
 1862SOL    HW217223   2.148   4.066   6.529  5.2241 -1.8723 -0.1899
 1863SOL     OW17224   2.732   0.070   7.532 -0.4061 -0.6843  0.0428
 1863SOL    HW117225   2.694   0.099   7.615 -1.4204 -0.3233 -0.5507
 1863SOL    HW217226   2.709   4.716   7.532 -2.3256 -0.1989 -0.8052
 1864SOL     OW17227   4.165   0.382   0.775  0.1395 -0.2194 -0.2281
 1864SOL    HW117228   4.150   0.405   0.683  2.3545  3.3272  0.3258
 1864SOL    HW217229   4.104   0.447   0.809  2.6637  1.0704  1.7811
 1865SOL     OW17230   1.979   0.312  10.488  0.4741 -0.0549  0.5543
 1865SOL    HW117231   1.918   0.260  10.540  1.7147  0.6679  2.7281
 1865SOL    HW217232   2.029   0.356  10.556  2.2331 -2.9607  1.1232
 1866SOL     OW17233   1.216   3.953   3.381  0.1728 -0.6758 -0.3239
 1866SOL    HW117234   1.148   4.017   3.361 -0.4819 -0.6731  1.9641
 1866SOL    HW217235   1.275   4.014   3.424  0.6228 -0.2633 -1.5095
 1867SOL     OW17236   4.473   3.964   4.140 -0.5275  0.1896  0.3733
 1867SOL    HW117237   4.533   3.894   4.117  0.3819  1.3681 -0.8507
 1867SOL    HW217238   4.525   3.994   4.215 -0.2003 -2.4981  1.1969
 1868SOL     OW17239   4.052   0.370   5.814 -0.5415 -0.0462  0.8144
 1868SOL    HW117240   3.962   0.374   5.784 -0.1798 -0.8748 -0.3828
 1868SOL    HW217241   4.063   0.464   5.828 -0.0837  0.0300 -0.0795
 1869SOL     OW17242   1.828   3.461   2.644  0.7302 -0.3608 -0.1166
 1869SOL    HW117243   1.765   3.393   2.620  1.8016 -1.4422  0.1195
 1869SOL    HW217244   1.911   3.415   2.638  1.4900  0.8560  1.1058
 1870SOL     OW17245   2.100   1.831   3.092  0.2701 -0.0512  0.1105
 1870SOL    HW117246   2.177   1.862   3.044  0.5153 -1.1210 -0.1851
 1870SOL    HW217247   2.128   1.854   3.181 -2.7946  0.2122  1.0023
 1871SOL     OW17248   2.624   2.595  15.600 -0.3315  0.2197  0.3547
 1871SOL    HW117249   2.717   2.606  15.617 -0.2588 -0.2026  0.2088
 1871SOL    HW217250   2.592   2.685  15.614 -1.4761 -0.3032  1.1116
 1872SOL     OW17251   1.133   2.479   2.151 -0.7081  0.2713 -0.2622
 1872SOL    HW117252   1.121   2.423   2.074 -1.5744 -0.2539  0.2543
 1872SOL    HW217253   1.170   2.420   2.216  1.2854  0.9258 -0.8102
 1873SOL     OW17254   2.160   1.446  13.485  0.0278  0.2166 -0.1267
 1873SOL    HW117255   2.175   1.354  13.505 -1.8144  0.3351  1.7236
 1873SOL    HW217256   2.240   1.477  13.442  0.6733 -2.2632 -0.6913
 1874SOL     OW17257   3.705   2.618   9.960 -0.0887  0.5747  0.3420
 1874SOL    HW117258   3.610   2.608   9.951  0.0792 -1.1706  0.5037
 1874SOL    HW217259   3.707   2.710   9.985  1.7712  0.4074  0.8140
 1875SOL     OW17260   3.363   2.920   5.012  0.0096  0.0351 -0.1290
 1875SOL    HW117261   3.279   2.948   5.048 -0.1150 -0.2194 -0.2202
 1875SOL    HW217262   3.384   2.843   5.064  0.2938  1.2467  1.5426
 1876SOL     OW17263   3.860   3.096   6.469  0.2024  0.3477  0.0610
 1876SOL    HW117264   3.856   3.077   6.563  0.0942  3.8227  0.7583
 1876SOL    HW217265   3.767   3.113   6.461  0.4766  1.8786  0.2437
 1877SOL     OW17266   3.141   4.628   6.945 -0.9963  0.0759  0.1176
 1877SOL    HW117267   3.072   4.572   6.981 -1.7975  1.8669  1.3787
 1877SOL    HW217268   3.210   4.563   6.958  0.6071  1.6789 -0.3121
 1878SOL     OW17269   2.433   2.156  14.252  0.1387  1.3236  0.4689
 1878SOL    HW117270   2.352   2.128  14.295  0.2142 -0.5554 -0.6252
 1878SOL    HW217271   2.477   2.208  14.319  0.3493  1.0029  0.5764
 1879SOL     OW17272   3.429   3.916  17.632  0.3867  0.7646 -0.0007
 1879SOL    HW117273   3.426   3.940  17.539  0.3220 -1.3557 -0.5450
 1879SOL    HW217274   3.374   3.839  17.619  2.5237 -0.8795  0.6536
 1880SOL     OW17275   0.980   1.349   3.997  0.3735  0.4100 -0.1664
 1880SOL    HW117276   0.894   1.382   4.025  0.1673  0.9032 -1.3844
 1880SOL    HW217277   0.975   1.258   4.026 -1.3406  0.5103 -0.1240
 1881SOL     OW17278   0.378   2.154   5.661 -0.6299 -0.6580 -0.1301
 1881SOL    HW117279   0.322   2.094   5.611 -0.0672 -0.1146 -1.3936
 1881SOL    HW217280   0.463   2.119   5.634 -1.1279 -0.2123 -2.2359
 1882SOL     OW17281   2.369   1.958  11.319 -0.4695 -0.1547 -0.6206
 1882SOL    HW117282   2.365   1.862  11.314  0.8113 -0.2184 -0.3816
 1882SOL    HW217283   2.447   1.980  11.268  0.4109 -1.6428  0.0839
 1883SOL     OW17284   0.896   3.316   4.803 -0.0586 -0.3467  0.0784
 1883SOL    HW117285   0.890   3.246   4.867 -3.0761  0.3464  0.5637
 1883SOL    HW217286   0.813   3.306   4.756 -0.6815 -0.6279  1.2317
 1884SOL     OW17287   3.586   3.390  11.047 -0.0360  0.2731 -0.0551
 1884SOL    HW117288   3.642   3.377  10.970 -0.2562 -1.0198  0.0138
 1884SOL    HW217289   3.629   3.470  11.077 -0.3478  0.1583  0.6815
 1885SOL     OW17290   2.494   4.197   8.249  0.0819 -0.1238  0.3761
 1885SOL    HW117291   2.527   4.178   8.338  0.3244 -1.3358  0.0317
 1885SOL    HW217292   2.563   4.179   8.185 -1.2637  0.5498 -1.2224
 1886SOL     OW17293   4.384   1.797   2.292  0.0661  0.3669  0.3219
 1886SOL    HW117294   4.477   1.786   2.274 -0.2763  1.2038 -1.9806
 1886SOL    HW217295   4.388   1.833   2.380  0.6867  0.8961  0.0718
 1887SOL     OW17296   0.342   2.820  10.621 -0.4123 -0.7151 -0.4771
 1887SOL    HW117297   0.255   2.830  10.583 -1.4440 -1.9891  1.5329
 1887SOL    HW217298   0.314   2.772  10.699  0.4337 -0.7002 -0.1671
 1888SOL     OW17299   0.059   4.327  14.085 -0.0479  0.3290  0.0050
 1888SOL    HW117300   0.038   4.240  14.050 -0.3044 -0.7687  2.9002
 1888SOL    HW217301   0.003   4.388  14.037  0.5743  0.6749 -0.2808
 1889SOL     OW17302   2.011   2.511   7.944 -0.1884 -0.3109  0.4077
 1889SOL    HW117303   1.936   2.487   7.890  0.9375  1.1616 -1.8121
 1889SOL    HW217304   2.077   2.461   7.896  0.1384 -0.0671  0.6029
 1890SOL     OW17305   0.586   1.080  10.463 -0.0962  0.0226  0.4457
 1890SOL    HW117306   0.506   1.071  10.412 -0.9139 -1.8711  2.0511
 1890SOL    HW217307   0.593   0.989  10.492 -0.4636  1.5014  5.2579
 1891SOL     OW17308   3.407   3.224   2.747 -0.0430 -0.8847 -0.0204
 1891SOL    HW117309   3.343   3.262   2.807 -0.1183  1.2460 -1.4639
 1891SOL    HW217310   3.358   3.149   2.714 -5.6223  2.0894  1.4398
 1892SOL     OW17311   3.345   2.582  14.891 -0.2273  0.4202 -0.2527
 1892SOL    HW117312   3.435   2.613  14.898 -0.3505  0.2980  1.9400
 1892SOL    HW217313   3.332   2.576  14.986  2.1224 -2.0363 -0.0806
 1893SOL     OW17314   4.027   4.289   2.607  0.2240  0.1595  0.6308
 1893SOL    HW117315   4.023   4.203   2.566  1.5258  0.1716  0.4916
 1893SOL    HW217316   3.936   4.317   2.618 -0.1855 -1.6304  1.6896
 1894SOL     OW17317   1.101   3.199   1.238 -0.7918  0.5634 -0.1714
 1894SOL    HW117318   1.138   3.118   1.274  2.6881  2.6317  1.0135
 1894SOL    HW217319   1.103   3.261   1.311  2.0041  0.2411  0.0465
 1895SOL     OW17320   0.139   1.013  10.698 -0.1322 -0.3679  0.1694
 1895SOL    HW117321   0.097   1.090  10.735  0.3639 -0.3502  0.7065
 1895SOL    HW217322   0.164   0.981  10.785 -0.4963  0.8009  0.7087
 1896SOL     OW17323   4.497   0.922   8.493 -0.5861  0.7452 -0.1674
 1896SOL    HW117324   4.571   0.959   8.444 -0.0296  1.1194  0.9364
 1896SOL    HW217325   4.426   0.931   8.430  0.1004 -0.7906 -1.1723
 1897SOL     OW17326   0.141   1.940   2.325 -0.3212 -0.0693  0.3265
 1897SOL    HW117327   0.149   1.880   2.251 -0.8050  2.3443 -1.6849
 1897SOL    HW217328   0.140   2.026   2.283 -2.9091 -0.2355  0.0738
 1898SOL     OW17329   3.945   1.828   7.495  0.6146 -0.1266 -0.4324
 1898SOL    HW117330   3.861   1.793   7.465 -0.1239  1.7807 -0.5739
 1898SOL    HW217331   3.972   1.755   7.550 -1.8790 -1.3542 -0.8199
 1899SOL     OW17332   4.264   4.047  16.460  0.4777 -0.0457  0.0953
 1899SOL    HW117333   4.259   3.966  16.510  3.0171 -0.8642 -1.0064
 1899SOL    HW217334   4.323   4.092  16.521  1.9798 -0.5658 -0.9674
 1900SOL     OW17335   2.496   2.903   6.634  0.2469  0.4885 -0.0072
 1900SOL    HW117336   2.575   2.957   6.628  0.8546 -0.3278  0.6447
 1900SOL    HW217337   2.513   2.862   6.719  2.0519  1.6278  0.1753
 1901SOL     OW17338   1.092   4.006   8.440 -0.0519  0.2424  0.1098
 1901SOL    HW117339   1.007   3.969   8.419 -1.1576  2.2448  1.0028
 1901SOL    HW217340   1.074   4.100   8.438 -1.3256  0.0202  1.1747
 1902SOL     OW17341   3.815   1.404   9.147  0.1002  0.9027 -0.0181
 1902SOL    HW117342   3.728   1.442   9.160  0.1417  0.8114  0.5248
 1902SOL    HW217343   3.860   1.438   9.225 -2.5021  2.8332  0.6258
 1903SOL     OW17344   0.960   0.727   5.305  0.8057 -0.7145  0.0306
 1903SOL    HW117345   0.879   0.713   5.256  0.7109  0.9738 -0.3120
 1903SOL    HW217346   1.040   0.737   5.253 -0.4211 -1.3386 -1.9669
 1904SOL     OW17347   4.525   1.569  15.867  0.7809  0.2471 -0.1525
 1904SOL    HW117348   4.540   1.663  15.880 -1.3450  0.5147  0.2781
 1904SOL    HW217349   4.587   1.545  15.799  0.8828  0.3921 -0.1108
 1905SOL     OW17350   2.041   2.053  14.095 -0.4663 -0.4629 -0.4027
 1905SOL    HW117351   1.953   2.087  14.077 -0.1613  1.6351  2.1067
 1905SOL    HW217352   2.029   2.006  14.177  0.2851  0.3765  0.1899
 1906SOL     OW17353   3.546   0.379   3.487  0.1305 -0.2005 -0.0219
 1906SOL    HW117354   3.585   0.398   3.573  2.0248 -3.0124 -0.2709
 1906SOL    HW217355   3.610   0.431   3.438 -0.2044 -0.0428 -0.2959
 1907SOL     OW17356   2.342   1.336   8.976 -0.0165 -0.0519 -0.0976
 1907SOL    HW117357   2.262   1.299   9.014  1.6095  0.0184  3.3784
 1907SOL    HW217358   2.375   1.398   9.042 -1.4853  0.1325  0.4709
 1908SOL     OW17359   0.258   3.347   4.348  0.9375  0.5041  0.3137
 1908SOL    HW117360   0.224   3.344   4.259  4.2131  0.7028 -0.9370
 1908SOL    HW217361   0.194   3.408   4.385  0.9457 -0.0172  1.2158
 1909SOL     OW17362   2.496   1.286   3.706 -0.5623  0.0738  0.1495
 1909SOL    HW117363   2.589   1.266   3.719 -0.6670  0.5010  1.4917
 1909SOL    HW217364   2.480   1.303   3.799  0.1370  0.2320  0.2387
 1910SOL     OW17365   2.332   2.607   8.916 -0.3910 -0.1265 -0.1535
 1910SOL    HW117366   2.282   2.556   8.853  0.1457 -1.0851  0.2012
 1910SOL    HW217367   2.272   2.676   8.943 -0.3458 -0.9593  2.0520
 1911SOL     OW17368   3.454   3.993   2.028 -0.2284  0.1270  0.6063
 1911SOL    HW117369   3.390   4.031   2.089  0.2502 -0.5136  1.5195
 1911SOL    HW217370   3.404   3.927   1.980  0.8029 -1.6018  1.9157
 1912SOL     OW17371   2.496   4.660   9.238  0.2194 -0.1383  0.3184
 1912SOL    HW117372   2.536   4.573   9.246 -1.3167 -0.8416  0.1782
 1912SOL    HW217373   2.497   4.681   9.332  0.1578 -0.9384  0.4941
 1913SOL     OW17374   4.149   1.519   2.496 -0.4457 -1.0378 -0.4794
 1913SOL    HW117375   4.207   1.527   2.420 -0.9968  0.6175 -0.7242
 1913SOL    HW217376   4.097   1.442   2.472 -1.4011 -0.9825  1.4722
 1914SOL     OW17377   3.899   3.689  11.104 -0.2463 -0.0543  0.6881
 1914SOL    HW117378   3.870   3.610  11.151  0.2395 -1.3174 -1.1515
 1914SOL    HW217379   3.908   3.659  11.014  1.7187  2.9176 -0.0915
 1915SOL     OW17380   2.209   4.642  14.906 -0.3114  0.2639  0.4772
 1915SOL    HW117381   2.151   4.627  14.831 -0.7989 -1.5796  1.2134
 1915SOL    HW217382   2.176   4.726  14.938 -1.6794 -0.9570  2.2460
 1916SOL     OW17383   2.376   1.647   5.368 -0.3719 -0.3926 -0.0154
 1916SOL    HW117384   2.434   1.700   5.314 -0.8079 -0.0495 -0.1487
 1916SOL    HW217385   2.341   1.577   5.312 -1.5848  1.0248 -1.0357
 1917SOL     OW17386   0.272   4.052   0.821  0.2641  0.2053 -0.3597
 1917SOL    HW117387   0.309   3.995   0.754 -0.9520 -1.6514  0.5471
 1917SOL    HW217388   0.203   4.097   0.772 -1.8227 -1.4280  1.0654
 1918SOL     OW17389   3.325   3.915   5.854 -0.3575  0.1410  0.9292
 1918SOL    HW117390   3.366   3.959   5.780  0.2447 -0.6590  0.7879
 1918SOL    HW217391   3.230   3.921   5.845 -0.0408  1.6549 -1.3051
 1919SOL     OW17392   1.793   4.289  13.974 -0.0810  0.0868  0.2979
 1919SOL    HW117393   1.791   4.211  13.918 -0.2196 -0.0188  0.4512
 1919SOL    HW217394   1.793   4.361  13.911 -1.9098 -2.7769 -2.9706
 1920SOL     OW17395   2.389   1.081   4.778 -0.3741  0.1045  0.2843
 1920SOL    HW117396   2.442   1.134   4.718  0.1076 -0.3343  0.3228
 1920SOL    HW217397   2.399   1.127   4.861  2.1871 -0.3877  0.2629
 1921SOL     OW17398   1.995   3.899   6.762  0.0693  0.0845  0.1043
 1921SOL    HW117399   2.058   3.931   6.827 -0.3451  0.2099  0.4416
 1921SOL    HW217400   2.028   3.936   6.680  0.6508 -0.2861  0.1719
 1922SOL     OW17401   0.639   2.227   4.649  0.1707 -0.3530  0.2663
 1922SOL    HW117402   0.721   2.179   4.658 -0.4450 -1.2202  1.1253
 1922SOL    HW217403   0.594   2.193   4.726 -1.7013 -0.4457 -0.8727
 1923SOL     OW17404   1.042   0.905   0.203 -0.6654 -0.3832  0.1574
 1923SOL    HW117405   1.013   0.980   0.254 -2.7903 -1.9876  1.2736
 1923SOL    HW217406   1.109   0.948   0.149 -0.2470 -2.2612 -0.8295
 1924SOL     OW17407   3.632   1.714   9.722  0.4583  0.5942 -0.0381
 1924SOL    HW117408   3.670   1.714   9.810 -0.4318 -0.4270  0.3407
 1924SOL    HW217409   3.541   1.722   9.748 -0.1787 -2.7771 -1.2829
 1925SOL     OW17410   3.730   1.669   3.103 -0.3975  0.4869  0.5428
 1925SOL    HW117411   3.649   1.683   3.054  0.6504 -0.3732 -1.4318
 1925SOL    HW217412   3.705   1.617   3.179  0.5779  0.6108  0.9428
 1926SOL     OW17413   3.438   0.282   2.790 -0.5177 -0.2745 -0.5775
 1926SOL    HW117414   3.479   0.347   2.846  1.3629 -1.3276 -0.7055
 1926SOL    HW217415   3.413   0.338   2.717  0.8161  0.2860 -0.6026
 1927SOL     OW17416   0.921   0.518  15.662  0.0763  0.3940  0.2311
 1927SOL    HW117417   0.844   0.511  15.606 -0.6847  1.5802  1.1249
 1927SOL    HW217418   0.882   0.507  15.749 -1.5562  0.1694 -0.5371
 1928SOL     OW17419   1.912   3.188   7.018  0.1774 -0.1368  0.0790
 1928SOL    HW117420   1.853   3.234   7.078  0.6548 -1.3575  1.4815
 1928SOL    HW217421   1.917   3.102   7.059  0.2971 -0.2024 -0.0745
 1929SOL     OW17422   0.958   2.941   8.431 -0.5288  0.5717 -0.2796
 1929SOL    HW117423   0.924   2.881   8.497  1.2267 -0.2757 -0.1175
 1929SOL    HW217424   0.898   2.925   8.358 -1.2137  0.8399  0.2297
 1930SOL     OW17425   1.206   1.882   0.839 -0.0914 -0.0971  0.1022
 1930SOL    HW117426   1.241   1.847   0.757  1.6842 -0.1738  0.9023
 1930SOL    HW217427   1.228   1.814   0.903  0.9721  1.9139  1.9057
 1931SOL     OW17428   0.166   2.198   4.976 -0.2686  0.2294 -0.0469
 1931SOL    HW117429   0.238   2.222   5.034  0.3824 -2.8496  0.4180
 1931SOL    HW217430   0.173   2.102   4.968 -2.1367  0.0422  0.5594
 1932SOL     OW17431   0.030   3.350   2.048  0.3443 -0.3188  0.4643
 1932SOL    HW117432   4.682   3.369   2.016  0.0902  1.6680  2.3003
 1932SOL    HW217433   0.032   3.392   2.134 -0.5313  1.2621 -0.2741
 1933SOL     OW17434   1.165   4.337   9.346 -0.9327 -0.4443 -0.1328
 1933SOL    HW117435   1.248   4.290   9.342  1.5466  3.9805 -1.8975
 1933SOL    HW217436   1.119   4.306   9.268 -0.7163  0.9625 -0.8340
 1934SOL     OW17437   4.619   4.036   5.371  0.7677  0.4467 -0.7002
 1934SOL    HW117438   4.577   4.086   5.300 -2.4339 -1.4849 -0.1836
 1934SOL    HW217439   4.568   3.955   5.367  1.4647 -0.0525  0.8390
 1935SOL     OW17440   2.386   0.438   4.190  0.2783  0.4708  0.5191
 1935SOL    HW117441   2.363   0.468   4.102  3.4303 -0.6210 -0.6892
 1935SOL    HW217442   2.475   0.471   4.199  1.0966 -1.3356 -0.9238
 1936SOL     OW17443   2.061   4.149   8.151 -0.4699 -0.7111  0.7504
 1936SOL    HW117444   1.967   4.167   8.146  0.0653  2.4504  1.5734
 1936SOL    HW217445   2.054   4.054   8.162 -1.4619 -0.8917 -1.4153
 1937SOL     OW17446   1.850   2.446   3.362  0.1941  0.2990  0.6935
 1937SOL    HW117447   1.833   2.383   3.432 -1.2408  2.5603  2.3784
 1937SOL    HW217448   1.767   2.493   3.352  1.3991  1.9932 -1.4210
 1938SOL     OW17449   4.515   1.077   2.396  0.3662 -0.1613  0.2001
 1938SOL    HW117450   4.485   1.162   2.429  2.8107  0.1509  1.5876
 1938SOL    HW217451   4.528   1.103   2.305 -1.3217 -0.7541 -0.2181
 1939SOL     OW17452   1.976   3.792   7.054 -0.6994  0.1252 -0.0309
 1939SOL    HW117453   1.914   3.768   6.985 -0.2420  0.7734 -0.6616
 1939SOL    HW217454   2.005   3.704   7.076 -1.7744 -0.1487  0.3140
 1940SOL     OW17455   0.418   4.424   4.029  0.2704 -0.0667  0.2315
 1940SOL    HW117456   0.326   4.401   4.013 -0.0249  2.3549 -1.5480
 1940SOL    HW217457   0.445   4.434   3.938  1.5652 -1.7328  0.4173
 1941SOL     OW17458   0.085   0.424   8.114  0.7437  0.5655 -0.7470
 1941SOL    HW117459   0.167   0.436   8.065  1.8839  2.0297  1.5719
 1941SOL    HW217460   0.061   0.331   8.104 -0.2025  0.6842  0.4446
 1942SOL     OW17461   2.658   0.328   8.579  0.4336 -0.6261  0.5570
 1942SOL    HW117462   2.568   0.354   8.597 -0.0798 -0.9111 -1.5854
 1942SOL    HW217463   2.653   0.263   8.508 -0.1419  0.3962 -0.3203
 1943SOL     OW17464   3.865   3.021   4.989  0.4223  0.3521  0.5463
 1943SOL    HW117465   3.838   3.093   4.932 -1.2791 -0.0053  0.9045
 1943SOL    HW217466   3.787   2.966   4.994 -0.2456  1.3643  1.0604
 1944SOL     OW17467   4.063   2.792   2.924  0.0169  0.2514  0.3303
 1944SOL    HW117468   4.153   2.822   2.928  0.8364 -2.4409  2.2595
 1944SOL    HW217469   4.073   2.717   2.983 -3.2381 -0.0085  0.5640
 1945SOL     OW17470   1.133   1.252   7.850  0.1166  0.0753  0.1184
 1945SOL    HW117471   1.212   1.213   7.812 -0.1570 -1.7254  1.3991
 1945SOL    HW217472   1.068   1.196   7.808 -0.0896  1.6150 -1.6183
 1946SOL     OW17473   0.384   2.040   8.209  0.1289  0.1114  0.5768
 1946SOL    HW117474   0.381   2.132   8.234 -1.1558  0.5026 -1.0093
 1946SOL    HW217475   0.480   2.042   8.204  0.0649 -1.2365 -1.2344
 1947SOL     OW17476   3.673   0.498  10.145 -0.9599  0.0586  0.1391
 1947SOL    HW117477   3.739   0.442  10.103 -0.3866  2.1832 -1.8215
 1947SOL    HW217478   3.679   0.469  10.236 -1.6009  1.3724  0.5838
 1948SOL     OW17479   0.969   0.070   3.517 -0.4263 -0.1152 -0.0501
 1948SOL    HW117480   0.924   4.735   3.478 -0.3196 -0.3603  0.2968
 1948SOL    HW217481   0.897   0.133   3.520 -0.8088 -0.5364 -0.3275
 1949SOL     OW17482   4.323   1.875   4.933 -0.1996  0.0124 -0.1942
 1949SOL    HW117483   4.397   1.841   4.983  0.6796 -0.8178 -2.0630
 1949SOL    HW217484   4.343   1.830   4.850  0.9944  0.9263 -0.3941
 1950SOL     OW17485   1.102   0.224   7.539 -0.4694 -0.2229  0.1958
 1950SOL    HW117486   1.178   0.278   7.515 -1.1615  0.6200 -0.1273
 1950SOL    HW217487   1.082   0.200   7.448  1.7186 -1.5839  0.0799
 1951SOL     OW17488   4.486   3.734   9.734  0.1231  0.3609  0.5483
 1951SOL    HW117489   4.424   3.800   9.765  1.6384  1.3922  1.3209
 1951SOL    HW217490   4.571   3.763   9.766 -0.5239  0.8882  1.8184
 1952SOL     OW17491   1.006   1.033  13.699 -0.0433 -0.0323 -0.0769
 1952SOL    HW117492   0.913   1.036  13.720 -0.5589 -2.9740 -1.9869
 1952SOL    HW217493   1.033   1.124  13.710 -1.3241  0.4637 -1.0852
 1953SOL     OW17494   4.146   2.704   2.379  0.2264 -0.1901  0.0937
 1953SOL    HW117495   4.081   2.738   2.442 -0.9083  0.5401 -1.4782
 1953SOL    HW217496   4.182   2.636   2.436  1.3806 -0.5238 -1.0596
 1954SOL     OW17497   1.145   0.827   6.869 -0.0603  0.7110 -0.1019
 1954SOL    HW117498   1.198   0.747   6.874 -1.1757  0.0041  0.3830
 1954SOL    HW217499   1.073   0.784   6.823  0.1062  2.9232 -2.4004
 1955SOL     OW17500   0.597   3.037   4.433 -0.2306  0.6535 -0.0673
 1955SOL    HW117501   0.566   3.127   4.441  0.5965  1.1479 -2.3718
 1955SOL    HW217502   0.615   3.016   4.525  1.5424  1.7166 -0.1681
 1956SOL     OW17503   1.288   3.846   5.851 -0.0276 -0.4091  0.0123
 1956SOL    HW117504   1.301   3.835   5.945 -0.6841 -0.8448  0.0532
 1956SOL    HW217505   1.195   3.828   5.838  0.0207 -1.3346  0.9176
 1957SOL     OW17506   1.847   4.385   8.738 -0.4698  0.5075 -0.2117
 1957SOL    HW117507   1.812   4.437   8.665 -1.0348  1.0837  0.4692
 1957SOL    HW217508   1.775   4.352   8.792 -0.1323 -1.6237 -1.0964
 1958SOL     OW17509   2.348   0.729  17.745  0.3863  0.0306 -0.3406
 1958SOL    HW117510   2.286   0.672   0.034 -0.7207 -0.0667 -1.9927
 1958SOL    HW217511   2.380   0.656  17.692 -1.2617 -2.0694  1.5614
 1959SOL     OW17512   0.126   1.438   0.985  0.5166 -0.1268 -0.4473
 1959SOL    HW117513   0.173   1.413   0.906 -0.5281  1.7033 -1.6510
 1959SOL    HW217514   0.191   1.420   1.052  0.9497  0.0107 -0.8343
 1960SOL     OW17515   2.272   4.414   2.667 -0.4341  0.1948  0.2135
 1960SOL    HW117516   2.355   4.383   2.704 -0.7366 -1.2226 -0.2706
 1960SOL    HW217517   2.231   4.456   2.743 -0.4541  0.5744 -0.0109
 1961SOL     OW17518   0.586   4.548   4.181  0.7737 -0.0505  0.0224
 1961SOL    HW117519   0.625   4.489   4.246  2.5648  1.1195  0.0113
 1961SOL    HW217520   0.528   4.489   4.133  0.4793 -0.4062  0.8172
 1962SOL     OW17521   0.151   1.241   8.048  0.2864  0.7587  0.3853
 1962SOL    HW117522   0.159   1.317   7.989 -1.0095  0.0326 -0.7240
 1962SOL    HW217523   0.060   1.219   8.063 -0.1104  1.7498 -0.4860
 1963SOL     OW17524   4.154   0.619   0.592 -0.0606 -0.1819  0.5191
 1963SOL    HW117525   4.197   0.580   0.516  1.9873  1.1939  0.9443
 1963SOL    HW217526   4.176   0.712   0.584 -1.1704  0.0163 -0.0786
 1964SOL     OW17527   4.456   3.024   6.760 -0.3558 -0.0634 -0.2804
 1964SOL    HW117528   4.511   3.095   6.727  0.3874 -0.2633  0.5257
 1964SOL    HW217529   4.406   3.001   6.682 -3.2642  1.8262  1.0226
 1965SOL     OW17530   3.587   1.425   0.762 -0.0432 -0.1195 -0.0613
 1965SOL    HW117531   3.543   1.492   0.710  0.2120 -1.4642 -2.0115
 1965SOL    HW217532   3.528   1.403   0.834 -0.9110 -0.4726 -0.8725
 1966SOL     OW17533   3.073   0.788   6.674 -0.4561  0.0935 -0.4886
 1966SOL    HW117534   3.023   0.839   6.738 -2.3955  0.7205 -2.5214
 1966SOL    HW217535   3.029   0.825   6.598 -1.7723  0.8615  0.6376
 1967SOL     OW17536   2.823   1.693   9.329  0.0344  0.6108 -0.4939
 1967SOL    HW117537   2.817   1.656   9.418  0.8618 -0.2837 -0.8086
 1967SOL    HW217538   2.831   1.614   9.276 -0.6337  0.2964 -0.1339
 1968SOL     OW17539   1.682   3.583   0.221 -0.4760  0.1757  0.6208
 1968SOL    HW117540   1.662   3.610   0.310 -0.0577  1.2648  0.3802
 1968SOL    HW217541   1.610   3.522   0.205  0.4688 -0.7880  0.0239
 1969SOL     OW17542   0.624   1.974  11.700 -0.5942 -0.0486  0.0234
 1969SOL    HW117543   0.694   1.924  11.658  0.3775 -1.0318  2.8220
 1969SOL    HW217544   0.669   2.022  11.769  0.8342 -4.0815  1.8617
 1970SOL     OW17545   1.735   3.736   0.020 -0.0101 -0.1277 -0.0971
 1970SOL    HW117546   1.711   3.671   0.086  0.0908 -0.9946 -0.9064
 1970SOL    HW217547   1.828   3.747   0.038 -0.1674  1.1772 -0.0902
 1971SOL     OW17548   3.559   3.836   6.377  0.2819 -0.1929  0.1574
 1971SOL    HW117549   3.643   3.852   6.334  0.3498 -0.3721  0.2214
 1971SOL    HW217550   3.525   3.925   6.377  0.6222 -0.0562  2.0554
 1972SOL     OW17551   2.091   3.834  10.861 -0.5154 -0.2092 -0.0313
 1972SOL    HW117552   2.176   3.829  10.819 -0.8388 -0.3816 -0.6596
 1972SOL    HW217553   2.093   3.928  10.881  1.5180 -0.4139  0.7155
 1973SOL     OW17554   2.688   0.413  14.217  0.8691 -0.6395  0.1604
 1973SOL    HW117555   2.699   0.325  14.182 -1.3559 -1.2386  0.9612
 1973SOL    HW217556   2.686   0.378  14.307 -0.5485 -2.2574 -0.5005
 1974SOL     OW17557   4.056   1.608   4.112 -0.7597 -0.7909  0.4117
 1974SOL    HW117558   4.057   1.514   4.131 -1.0058 -1.0604 -0.9593
 1974SOL    HW217559   4.097   1.602   4.026 -0.8181  0.7985  0.2754
 1975SOL     OW17560   4.630   0.655  13.517  0.1712 -0.6212  0.1403
 1975SOL    HW117561   4.561   0.684  13.456 -0.6210 -1.0421  0.8311
 1975SOL    HW217562   4.592   0.676  13.603  2.9738  1.4668  0.8754
 1976SOL     OW17563   1.318   0.023   8.148 -0.5181  0.3366 -0.2742
 1976SOL    HW117564   1.411   0.020   8.127 -0.0776 -2.9351  2.0937
 1976SOL    HW217565   1.278   4.709   8.079  0.7910  0.6712 -1.2989
 1977SOL     OW17566   3.812   0.903  15.558  0.3357 -0.1002  0.1198
 1977SOL    HW117567   3.830   0.823  15.607  1.8667 -0.3845 -0.9086
 1977SOL    HW217568   3.873   0.904  15.484 -2.4904 -0.6027 -2.1941
 1978SOL     OW17569   3.953   0.680  15.702  0.0953  0.2828 -0.4649
 1978SOL    HW117570   3.861   0.657  15.687  0.5077 -0.1369 -2.3057
 1978SOL    HW217571   3.968   0.708  15.793 -3.1719  0.8041 -0.0735
 1979SOL     OW17572   2.087   1.058  16.590  0.1881 -0.0559 -0.3746
 1979SOL    HW117573   2.125   1.033  16.674 -1.3662  3.2529  1.2959
 1979SOL    HW217574   2.036   1.136  16.611  0.9073  0.8398 -1.9465
 1980SOL     OW17575   3.712   1.874   5.056  0.1734  0.6207 -0.2619
 1980SOL    HW117576   3.739   1.889   4.966  1.1908  3.7736  0.5922
 1980SOL    HW217577   3.729   1.780   5.069  0.8618  1.0848  2.3061
 1981SOL     OW17578   3.062   4.485   2.485 -0.6482  0.0644  0.7305
 1981SOL    HW117579   3.067   4.579   2.465 -0.4262  0.0775  0.8461
 1981SOL    HW217580   3.131   4.484   2.551 -0.3724 -1.0090  0.4141
 1982SOL     OW17581   3.539   1.882  17.274  0.1066 -0.0622  0.4806
 1982SOL    HW117582   3.511   1.971  17.253 -0.3967 -0.2876  0.2176
 1982SOL    HW217583   3.516   1.884  17.367 -1.7308  3.0799 -0.0431
 1983SOL     OW17584   3.310   3.476   0.148  0.5795 -0.1517 -0.3323
 1983SOL    HW117585   3.358   3.559   0.139 -0.0693  0.4906  2.1655
 1983SOL    HW217586   3.345   3.465   0.237  1.5754 -0.9212 -0.8129
 1984SOL     OW17587   3.159   2.833   3.834 -0.2883  0.2981  0.2458
 1984SOL    HW117588   3.076   2.876   3.856 -0.1395  1.1202 -0.8520
 1984SOL    HW217589   3.193   2.829   3.923 -0.5750  0.2907  0.3575
 1985SOL     OW17590   1.590   3.886   7.976 -0.0301 -0.3098  0.2157
 1985SOL    HW117591   1.630   3.957   8.027 -0.6130 -0.4348  0.8557
 1985SOL    HW217592   1.504   3.923   7.955  0.7941  1.2749 -0.3742
 1986SOL     OW17593   1.517   3.244   7.521 -0.0138 -0.2791  0.0012
 1986SOL    HW117594   1.489   3.168   7.573 -0.1528 -0.1963  0.0468
 1986SOL    HW217595   1.584   3.208   7.464  0.9563  0.9808  0.3630
 1987SOL     OW17596   3.219   1.362   6.684  0.1430  0.3718 -0.2375
 1987SOL    HW117597   3.264   1.423   6.742 -0.0676  1.5364 -1.2974
 1987SOL    HW217598   3.196   1.302   6.755  2.2934 -0.1771  0.0042
 1988SOL     OW17599   3.409   1.407   9.208  0.2467 -0.2337  0.0718
 1988SOL    HW117600   3.382   1.467   9.278 -2.6741 -3.4447  1.6770
 1988SOL    HW217601   3.474   1.356   9.256  0.6825  1.6802  1.5211
 1989SOL     OW17602   0.105   2.924   5.664  0.0482  0.3370 -0.3882
 1989SOL    HW117603   0.039   2.908   5.731  0.6933  0.7550  0.3387
 1989SOL    HW217604   0.105   3.020   5.667 -0.4713  0.2708  1.7938
 1990SOL     OW17605   0.781   4.410   2.379  0.2902 -0.6777 -0.1955
 1990SOL    HW117606   0.826   4.434   2.298  0.4033  0.8410  0.3024
 1990SOL    HW217607   0.790   4.315   2.382  0.5731 -0.6915 -1.6370
 1991SOL     OW17608   3.123   3.989   5.345 -0.9050  0.2721  0.1519
 1991SOL    HW117609   3.152   4.035   5.266 -0.1437 -0.0699  0.2336
 1991SOL    HW217610   3.078   3.912   5.309  0.5257  0.7468 -2.6304
 1992SOL     OW17611   1.947   0.538   7.106  0.2581  0.4866  0.3342
 1992SOL    HW117612   1.976   0.591   7.181  0.2998  1.2481 -0.2135
 1992SOL    HW217613   1.860   0.576   7.094 -0.2169 -0.6566  0.1947
 1993SOL     OW17614   3.497   0.939  17.581 -0.0722  0.4512  0.0704
 1993SOL    HW117615   3.573   0.996  17.566  0.9577 -1.6519 -2.9422
 1993SOL    HW217616   3.465   0.924  17.492  0.9257 -0.0433 -0.2079
 1994SOL     OW17617   0.692   0.153   4.596 -0.1185 -0.5472 -0.0547
 1994SOL    HW117618   0.662   0.152   4.505  0.4604  2.6476 -0.2814
 1994SOL    HW217619   0.776   0.113   4.577  0.6489  1.1691 -0.2350
 1995SOL     OW17620   0.765   4.593   3.851 -0.3410  0.1178  0.1157
 1995SOL    HW117621   0.854   4.626   3.840 -0.2442 -0.5706 -1.1699
 1995SOL    HW217622   0.740   4.620   3.763 -0.7205 -0.9586 -0.1083
 1996SOL     OW17623   3.279   2.837   2.148  0.0659 -0.2420 -0.3041
 1996SOL    HW117624   3.213   2.825   2.216 -0.2813 -0.7099 -0.7254
 1996SOL    HW217625   3.341   2.766   2.169  1.7953  0.9240 -1.4634
 1997SOL     OW17626   1.540   4.395   1.473  0.1821 -0.4470 -0.3353
 1997SOL    HW117627   1.569   4.479   1.507  1.6118 -0.6392 -1.0968
 1997SOL    HW217628   1.469   4.424   1.415 -2.1193 -1.4672  1.9535
 1998SOL     OW17629   4.382   0.373   3.957 -0.3333  0.3835  0.0583
 1998SOL    HW117630   4.313   0.429   3.991  1.5957  2.3120  0.7590
 1998SOL    HW217631   4.446   0.375   4.028  0.9167 -1.6785 -0.9707
 1999SOL     OW17632   2.612   3.892  14.827  0.2194  0.2310 -0.4283
 1999SOL    HW117633   2.661   3.811  14.839 -1.0793 -0.3844  0.7186
 1999SOL    HW217634   2.601   3.929  14.915  0.8546 -1.1228  0.2288
 2000SOL     OW17635   3.886   2.144   4.990 -0.0521  0.2901  0.2528
 2000SOL    HW117636   3.976   2.145   4.956 -0.1886 -3.6255 -0.2530
 2000SOL    HW217637   3.907   2.139   5.083  1.9110  4.6886  0.0643
 2001SOL     OW17638   4.016   2.099   0.809  0.1276  0.0084  0.5226
 2001SOL    HW117639   4.107   2.106   0.839 -0.0262 -1.5034  1.3599
 2001SOL    HW217640   3.982   2.058   0.889  0.3566  0.6948  0.9822
 2002SOL     OW17641   2.068   2.169   7.894  0.1243  0.4437 -0.9820
 2002SOL    HW117642   2.128   2.096   7.879 -3.2650 -2.7718  1.2619
 2002SOL    HW217643   2.002   2.159   7.825  2.0268 -2.4474 -2.3646
 2003SOL     OW17644   3.962   0.358   9.130 -0.6855 -0.2486 -0.5750
 2003SOL    HW117645   3.978   0.264   9.119 -0.2729 -0.2990  0.5342
 2003SOL    HW217646   3.984   0.393   9.043  0.5324  1.0377  0.2577
 2004SOL     OW17647   3.790   0.461   6.482  0.7145 -0.0020  0.6263
 2004SOL    HW117648   3.771   0.380   6.435 -1.9746  0.7063  0.4701
 2004SOL    HW217649   3.844   0.516   6.425 -1.5100  0.1000 -1.3778
 2005SOL     OW17650   0.650   2.559   6.456 -0.0260  0.1936  0.6272
 2005SOL    HW117651   0.599   2.527   6.381  1.9873  1.1263 -1.1593
 2005SOL    HW217652   0.590   2.626   6.488 -0.1247  0.6451 -0.4879
 2006SOL     OW17653   3.064   0.196   4.814  0.0190  0.2471  0.0991
 2006SOL    HW117654   2.982   0.245   4.812  0.1481  0.4009 -2.4025
 2006SOL    HW217655   3.040   0.132   4.881  0.5817  1.5668  1.5582
 2007SOL     OW17656   0.150   2.265   9.868  0.1530  0.0085 -0.0669
 2007SOL    HW117657   0.063   2.295   9.840 -0.7054 -2.3950  0.0547
 2007SOL    HW217658   0.205   2.342   9.855 -0.6187  0.5125 -0.3937
 2008SOL     OW17659   2.149   0.932   0.297  0.1346 -0.2224  0.4228
 2008SOL    HW117660   2.066   0.904   0.261  1.0655 -2.1768 -0.2020
 2008SOL    HW217661   2.143   1.028   0.303 -0.0736  0.0857 -4.7615
 2009SOL     OW17662   4.568   0.512  10.438  0.5215 -0.5724  0.3614
 2009SOL    HW117663   4.570   0.493  10.344 -0.2350 -2.9085  0.8359
 2009SOL    HW217664   4.476   0.535  10.452  0.9150  1.2776 -0.0797
 2010SOL     OW17665   3.068   3.434   5.615 -0.2567 -0.1888  0.2370
 2010SOL    HW117666   3.135   3.408   5.678 -0.3133 -0.7795  0.0538
 2010SOL    HW217667   3.106   3.514   5.580  0.3939 -0.7230 -0.2855
 2011SOL     OW17668   0.636   3.717   5.642  0.5008  0.5752  0.2046
 2011SOL    HW117669   0.725   3.703   5.675  0.6156  2.5245  0.7488
 2011SOL    HW217670   0.653   3.741   5.551  1.1754 -0.9589 -0.0830
 2012SOL     OW17671   0.029   1.238  12.345 -0.2345  0.3382  0.3065
 2012SOL    HW117672   0.028   1.164  12.405  1.5612  2.0022  2.3744
 2012SOL    HW217673   0.070   1.196  12.270 -1.1628 -3.1257  1.7714
 2013SOL     OW17674   4.642   1.996  10.450  0.2165 -0.0865  0.6727
 2013SOL    HW117675   4.694   1.968  10.374  0.3988  0.3865  0.6269
 2013SOL    HW217676   4.680   2.081  10.468  0.3340  0.1053 -0.4853
 2014SOL     OW17677   0.309   0.541   8.573  0.1349  0.4498 -0.2763
 2014SOL    HW117678   0.289   0.633   8.555 -1.2343  0.4901  1.5007
 2014SOL    HW217679   0.379   0.535   8.509  0.1853 -0.2508 -0.1568
 2015SOL     OW17680   1.157   2.676   6.013 -0.3201 -0.1162  0.0729
 2015SOL    HW117681   1.143   2.707   5.924 -1.4752  0.2437  0.3777
 2015SOL    HW217682   1.138   2.755   6.063 -0.0074  0.0214 -0.0289
 2016SOL     OW17683   0.834   0.777   0.043 -0.3894  0.1814  0.4420
 2016SOL    HW117684   0.898   0.750  17.733 -1.1382 -0.0536 -0.1936
 2016SOL    HW217685   0.900   0.818   0.098 -0.4555 -0.6938  1.1772
 2017SOL     OW17686   4.392   2.587   6.347  0.3912 -0.0700  0.3200
 2017SOL    HW117687   4.426   2.651   6.285 -3.9721  2.2403  0.3561
 2017SOL    HW217688   4.304   2.562   6.320  0.0178  0.7422  0.7934
 2018SOL     OW17689   1.062   2.668  16.245 -0.4140  0.2347  0.2373
 2018SOL    HW117690   1.151   2.682  16.276  0.0607  0.9879 -1.4719
 2018SOL    HW217691   1.032   2.759  16.237 -0.5167  0.0609 -1.2761
 2019SOL     OW17692   2.939   1.045  11.032  0.1736  0.5480 -0.0158
 2019SOL    HW117693   2.986   1.054  10.948 -0.7396  0.3479 -0.5409
 2019SOL    HW217694   2.999   1.095  11.088 -0.8690  1.4394  0.3100
 2020SOL     OW17695   2.659   0.113   6.139  0.0641 -0.1069  0.2206
 2020SOL    HW117696   2.673   0.035   6.193 -1.0053  0.3700  1.1897
 2020SOL    HW217697   2.613   0.069   6.068  1.4654 -2.3827  0.6944
 2021SOL     OW17698   1.404   0.419  13.138 -0.5245 -0.1703  0.1299
 2021SOL    HW117699   1.377   0.421  13.047  2.4793  1.0401 -0.7279
 2021SOL    HW217700   1.399   0.512  13.163 -0.5348  0.4772 -2.3376
 2022SOL     OW17701   0.174   1.828   4.316  0.6880 -0.1894 -0.2856
 2022SOL    HW117702   0.131   1.877   4.245 -0.2765  0.6950  0.9038
 2022SOL    HW217703   0.263   1.858   4.301 -0.1083  2.1862 -0.3251
 2023SOL     OW17704   3.970   4.613   5.187 -0.6477  0.0933  0.9378
 2023SOL    HW117705   4.061   4.583   5.179 -0.1742  1.4758  1.1523
 2023SOL    HW217706   3.946   4.664   5.110 -0.3043 -0.4731  0.4588
 2024SOL     OW17707   0.722   1.827  14.489  0.1210 -0.2717 -0.3441
 2024SOL    HW117708   0.642   1.828  14.436  1.8348  1.0075 -2.9443
 2024SOL    HW217709   0.772   1.904  14.460  0.1598  1.1758  3.6137
 2025SOL     OW17710   2.809   2.947   4.212 -0.0317  0.0547 -0.1468
 2025SOL    HW117711   2.902   2.932   4.229 -0.0017  0.1189 -0.2539
 2025SOL    HW217712   2.776   2.861   4.234  0.5734 -0.9993 -3.3914
 2026SOL     OW17713   1.189   0.760   0.814  0.1767 -0.1150  0.7071
 2026SOL    HW117714   1.174   0.829   0.750 -2.1263  0.3270  1.7278
 2026SOL    HW217715   1.182   0.676   0.768  2.2050 -0.2734  0.6787
 2027SOL     OW17716   0.348   2.740   2.836  0.1787  0.2757  0.4505
 2027SOL    HW117717   0.392   2.710   2.915  0.1012 -1.0513  0.0043
 2027SOL    HW217718   0.349   2.835   2.847  2.1013  0.3875 -0.6933
 2028SOL     OW17719   2.571   1.965   4.844  0.3343 -0.2156 -0.2693
 2028SOL    HW117720   2.583   2.047   4.893 -0.6530  0.3984 -1.0744
 2028SOL    HW217721   2.612   1.989   4.761 -0.7100 -3.0770 -1.6164
 2029SOL     OW17722   3.968   2.126   5.232 -0.2163 -0.2780 -0.8647
 2029SOL    HW117723   3.902   2.126   5.301  1.2526  0.3094  0.5301
 2029SOL    HW217724   4.026   2.060   5.271  0.9711 -0.7342 -3.3509
 2030SOL     OW17725   0.169   0.723   8.336 -0.0090 -0.5411  0.4660
 2030SOL    HW117726   0.137   0.731   8.425  0.3463  0.4500  0.4972
 2030SOL    HW217727   0.218   0.804   8.327 -0.7855  0.1045  2.1922
 2031SOL     OW17728   0.944   2.826  16.990  0.4054 -0.9849  0.2097
 2031SOL    HW117729   0.874   2.763  17.006 -0.9498  0.7579  1.1020
 2031SOL    HW217730   0.998   2.768  16.936 -0.1588 -1.2848 -0.0360
 2032SOL     OW17731   3.621   3.586   7.436 -0.3545  0.0830  0.2265
 2032SOL    HW117732   3.635   3.553   7.525 -0.2906 -0.9500 -0.1655
 2032SOL    HW217733   3.661   3.672   7.450 -0.1615  0.0681 -0.2336
 2033SOL     OW17734   1.060   2.175  13.141  0.5691  0.1878  0.2743
 2033SOL    HW117735   0.965   2.176  13.153  0.3971 -0.3779 -1.1398
 2033SOL    HW217736   1.080   2.269  13.147  0.4593  0.1404  1.3863
 2034SOL     OW17737   3.955   4.342   3.771 -0.1422  0.1149  0.8811
 2034SOL    HW117738   4.029   4.302   3.725 -0.2746 -0.2245  0.9679
 2034SOL    HW217739   3.994   4.360   3.857 -1.6612 -1.9234  1.9885
 2035SOL     OW17740   0.713   0.129   5.718 -0.6784 -0.1786  0.3566
 2035SOL    HW117741   0.771   0.156   5.789 -0.4387 -0.2553  0.1879
 2035SOL    HW217742   0.637   0.169   5.762  1.6574  3.2333  1.2836
 2036SOL     OW17743   4.704   3.681   2.812  0.9725 -0.5829  0.5618
 2036SOL    HW117744   4.650   3.639   2.745  0.1507 -0.7577  1.3517
 2036SOL    HW217745   0.052   3.684   2.771  0.7397  0.3574  0.1186
 2037SOL     OW17746   2.350   3.114   0.678  0.1514  0.3388  0.4390
 2037SOL    HW117747   2.356   3.178   0.608 -0.1761 -0.3490 -0.2177
 2037SOL    HW217748   2.260   3.084   0.666  0.5635 -0.1807 -1.4114
 2038SOL     OW17749   0.296   0.425  10.887  0.1897  0.2898 -0.2025
 2038SOL    HW117750   0.244   0.458  10.814 -1.1407  1.6490  1.3588
 2038SOL    HW217751   0.344   0.352  10.849  0.9328 -0.2530  1.7904
 2039SOL     OW17752   1.806   4.308   2.277  0.0131  0.4352  0.3249
 2039SOL    HW117753   1.880   4.363   2.302  1.3346 -1.5903  0.8414
 2039SOL    HW217754   1.747   4.349   2.339  0.5818  2.2000 -0.2934
 2040SOL     OW17755   2.902   3.347   5.420  0.0865  0.3423 -0.4749
 2040SOL    HW117756   2.949   3.377   5.497 -0.7569 -0.1900  0.2510
 2040SOL    HW217757   2.950   3.266   5.402 -0.5174  0.0674 -0.8555
 2041SOL     OW17758   3.598   4.229   6.714  0.1244 -0.2321 -0.6079
 2041SOL    HW117759   3.611   4.286   6.638 -1.3593  0.3611 -0.4258
 2041SOL    HW217760   3.653   4.155   6.691  0.2079 -1.1926  2.6500
 2042SOL     OW17761   3.909   3.219  14.478  0.1831 -0.1570  0.1513
 2042SOL    HW117762   3.894   3.231  14.572 -0.3210  2.6229 -0.2703
 2042SOL    HW217763   3.861   3.136  14.476 -2.1919  1.1988  0.4573
 2043SOL     OW17764   4.075   1.299   9.093 -0.3033 -0.0421  0.6191
 2043SOL    HW117765   4.081   1.297   9.188 -0.4867 -2.0506  0.5876
 2043SOL    HW217766   3.986   1.335   9.084 -1.2641 -2.5274  0.1295
 2044SOL     OW17767   0.829   1.380   3.760  0.1411  0.0064  0.3844
 2044SOL    HW117768   0.897   1.410   3.821 -0.0440  2.2230 -0.4951
 2044SOL    HW217769   0.783   1.464   3.753 -0.2461 -0.2857 -0.4409
 2045SOL     OW17770   0.122   1.727   5.798  0.1833  0.4752  0.4312
 2045SOL    HW117771   0.172   1.646   5.808 -2.1685 -1.1113 -0.4597
 2045SOL    HW217772   0.168   1.776   5.866  0.8130 -2.0616  1.8552
 2046SOL     OW17773   4.496   2.275   9.000  0.0011 -0.0709  0.0390
 2046SOL    HW117774   4.572   2.259   9.056 -0.8712  0.5333  1.4033
 2046SOL    HW217775   4.444   2.198   9.021 -1.6473  1.1157  0.3106
 2047SOL     OW17776   1.831   3.932   1.943  0.4803  0.2855 -0.4376
 2047SOL    HW117777   1.750   3.984   1.946  1.0008  1.0694  0.0277
 2047SOL    HW217778   1.807   3.840   1.945 -0.0729  0.4094 -0.9791
 2048SOL     OW17779   1.830   1.869   7.499 -0.3112 -0.0696 -0.1521
 2048SOL    HW117780   1.737   1.880   7.520  0.6439  2.9389  2.5373
 2048SOL    HW217781   1.823   1.853   7.405 -1.4898 -2.9851  0.4169
 2049SOL     OW17782   1.725   1.359   9.086 -0.2466 -0.2506 -0.2086
 2049SOL    HW117783   1.790   1.302   9.126  0.4960 -1.3264 -2.9561
 2049SOL    HW217784   1.706   1.423   9.155 -0.7854 -1.4633  0.7728
 2050SOL     OW17785   0.529   2.302  10.924 -0.4701 -0.3882  0.2312
 2050SOL    HW117786   0.481   2.265  10.849 -0.2479  0.1011 -0.1485
 2050SOL    HW217787   0.498   2.243  10.992 -0.5686  1.4167  1.7484
 2051SOL     OW17788   1.663   1.735   5.866 -0.1323 -0.0374  0.1729
 2051SOL    HW117789   1.645   1.650   5.825 -1.0893  0.2058  0.0978
 2051SOL    HW217790   1.622   1.788   5.798 -0.7081 -0.4306  0.2141
 2052SOL     OW17791   3.396   0.147   2.220 -0.0601  0.3424  0.6634
 2052SOL    HW117792   3.346   0.080   2.266  1.1651 -1.2038 -0.2669
 2052SOL    HW217793   3.483   0.109   2.231  0.2422  0.8930  0.1501
 2053SOL     OW17794   1.037   4.435   6.681  0.2047  0.0068 -0.2491
 2053SOL    HW117795   1.034   4.522   6.720 -0.6769  0.2973 -0.9684
 2053SOL    HW217796   1.026   4.376   6.755  2.1950  1.5855  1.2833
 2054SOL     OW17797   4.726   0.364   2.110  0.0748 -0.2693  0.5982
 2054SOL    HW117798   4.639   0.403   2.116 -0.3034 -0.9865 -0.3182
 2054SOL    HW217799   4.719   0.318   2.194 -2.8649  2.4208  1.8522
 2055SOL     OW17800   2.646   2.380   2.314  0.6558  0.8625 -0.5949
 2055SOL    HW117801   2.728   2.383   2.265  0.2850 -1.4948 -1.3308
 2055SOL    HW217802   2.656   2.460   2.365  2.4264 -0.7420  1.5239
 2056SOL     OW17803   1.372   3.145  13.822 -0.5234 -0.2355  0.1342
 2056SOL    HW117804   1.461   3.146  13.787 -0.3693  0.4942  0.5506
 2056SOL    HW217805   1.383   3.161  13.915 -0.6706  0.2234  0.0756
 2057SOL     OW17806   2.084   3.152   1.837  0.0609 -0.1801  0.1140
 2057SOL    HW117807   2.040   3.212   1.777  0.8495  0.1144 -0.1706
 2057SOL    HW217808   2.036   3.168   1.918 -1.5710  2.6446 -1.4168
 2058SOL     OW17809   0.284   2.416   2.473 -0.0032 -0.2696  0.0142
 2058SOL    HW117810   0.251   2.505   2.482 -1.4446 -0.4186 -3.5965
 2058SOL    HW217811   0.368   2.421   2.427  0.0544 -0.5643  0.0859
 2059SOL     OW17812   4.393   2.237  12.432 -0.1519 -0.0502 -0.4698
 2059SOL    HW117813   4.299   2.222  12.426 -0.4640  0.3286  3.4832
 2059SOL    HW217814   4.419   2.217  12.342 -0.7929  0.8717 -0.8579
 2060SOL     OW17815   1.559   0.984  14.743  0.0983 -0.0880  0.3982
 2060SOL    HW117816   1.533   1.019  14.829  2.1110 -0.7612  1.2811
 2060SOL    HW217817   1.570   0.890  14.756  0.1354 -0.5686 -3.1284
 2061SOL     OW17818   3.767   4.187   3.883 -0.1452  0.1546 -0.1085
 2061SOL    HW117819   3.698   4.254   3.890  1.5588  2.0832 -1.7543
 2061SOL    HW217820   3.828   4.255   3.856 -0.4729  0.3932 -0.2563
 2062SOL     OW17821   0.241   2.791  14.876 -0.0405  0.2431 -0.0170
 2062SOL    HW117822   0.179   2.783  14.803  1.4286  3.3515 -1.5815
 2062SOL    HW217823   0.182   2.809  14.950 -0.1503 -0.7356  0.1389
 2063SOL     OW17824   0.192   2.928   3.736 -1.0428 -0.2925 -0.6612
 2063SOL    HW117825   0.104   2.951   3.705 -0.6014  1.7720 -0.4280
 2063SOL    HW217826   0.170   2.906   3.826 -1.6015 -0.4242 -0.8283
 2064SOL     OW17827   1.596   2.328   2.017  0.0724 -0.7852 -0.4403
 2064SOL    HW117828   1.674   2.368   1.979 -0.5188 -0.9452 -1.8456
 2064SOL    HW217829   1.585   2.256   1.955 -1.6223 -0.2076 -0.8257
 2065SOL     OW17830   4.009   3.176  16.722 -0.2923  0.0086  0.0136
 2065SOL    HW117831   3.947   3.199  16.792 -1.8364 -0.4667 -1.2085
 2065SOL    HW217832   3.962   3.215  16.648  0.3023  1.2600  0.2852
 2066SOL     OW17833   4.072   0.423   0.192 -0.0340  0.0374  0.0549
 2066SOL    HW117834   4.136   0.456   0.255  0.6431 -0.1264 -0.5472
 2066SOL    HW217835   4.025   0.370   0.257 -0.6420 -1.1870 -1.3692
 2067SOL     OW17836   0.163   1.621  15.727 -0.2437 -0.2114 -0.1930
 2067SOL    HW117837   0.239   1.679  15.723  0.5385 -1.2536 -0.4009
 2067SOL    HW217838   0.177   1.578  15.812 -0.7826  2.0933  1.0628
 2068SOL     OW17839   1.844   2.697  11.539 -0.6526 -0.0545 -0.7969
 2068SOL    HW117840   1.763   2.747  11.540  0.0604  1.0728  1.6573
 2068SOL    HW217841   1.797   2.617  11.516  0.2853 -0.9469  0.3864
 2069SOL     OW17842   3.787   0.859   5.676  0.3186 -0.0309  0.0079
 2069SOL    HW117843   3.858   0.920   5.697  0.2833  0.5957 -1.6978
 2069SOL    HW217844   3.747   0.910   5.605  0.8577 -1.8552 -1.6076
 2070SOL     OW17845   2.558   1.811   9.246 -0.5176 -0.3413  0.4979
 2070SOL    HW117846   2.545   1.857   9.328 -1.8938 -1.2674  0.8031
 2070SOL    HW217847   2.640   1.763   9.256 -0.5756 -0.6380 -0.3946
 2071SOL     OW17848   1.744   2.247   5.569  0.9129  0.1655 -0.8510
 2071SOL    HW117849   1.680   2.302   5.524  0.6222  1.5781  1.3050
 2071SOL    HW217850   1.821   2.265   5.514  1.4273 -0.8501 -0.4772
 2072SOL     OW17851   3.547   2.007   3.225 -0.6023 -0.4369 -0.0881
 2072SOL    HW117852   3.593   2.091   3.211 -0.1922 -0.9892 -2.1061
 2072SOL    HW217853   3.547   1.984   3.132  0.8018  0.8664 -0.4289
 2073SOL     OW17854   0.372   1.577  15.923  0.3057 -0.2963 -0.0677
 2073SOL    HW117855   0.297   1.556  15.978  1.0652  0.1170  1.1180
 2073SOL    HW217856   0.346   1.669  15.919 -0.9504 -0.7181 -1.8630
 2074SOL     OW17857   3.131   0.025   2.249 -0.0021  0.3135  0.1886
 2074SOL    HW117858   3.184   4.686   2.240 -0.8622 -0.1524 -0.7730
 2074SOL    HW217859   3.128   0.026   2.345 -0.3871 -2.3268  0.2014
 2075SOL     OW17860   4.653   3.049   4.682  0.1417 -0.2599  0.3343
 2075SOL    HW117861   4.648   2.996   4.761 -1.1642  1.0523  1.1411
 2075SOL    HW217862   4.601   2.995   4.623  0.8743 -0.1186 -0.4373
 2076SOL     OW17863   1.773   4.105  15.080 -0.2306  0.2189  0.1879
 2076SOL    HW117864   1.788   4.180  15.138  2.1750  2.0791 -2.8368
 2076SOL    HW217865   1.859   4.069  15.060  0.2081  0.8792  0.8834
 2077SOL     OW17866   4.217   2.500   5.723  0.7731  0.5036 -0.0550
 2077SOL    HW117867   4.142   2.522   5.779  2.3580  0.7930  1.9580
 2077SOL    HW217868   4.195   2.417   5.680  1.5245 -0.1361  0.7779
 2078SOL     OW17869   2.247   0.158   2.809  0.2407 -0.2974  0.1848
 2078SOL    HW117870   2.340   0.181   2.799  0.2437  0.2772  1.6313
 2078SOL    HW217871   2.209   0.245   2.795 -0.3861 -0.8475 -1.5522
 2079SOL     OW17872   1.008   3.227   3.069  0.7689  0.4672 -0.3057
 2079SOL    HW117873   0.950   3.158   3.038  0.0684  1.9446 -2.2344
 2079SOL    HW217874   1.060   3.255   2.993 -0.8357 -0.1959 -1.6196
 2080SOL     OW17875   3.856   2.572   4.475 -0.1866  0.6681 -0.6997
 2080SOL    HW117876   3.829   2.643   4.417  1.2469 -0.0056 -2.1834
 2080SOL    HW217877   3.855   2.503   4.409 -2.4544  0.4695 -0.4550
 2081SOL     OW17878   0.366   3.904   8.015 -0.0544  0.4037  0.0987
 2081SOL    HW117879   0.406   3.981   8.056  1.8381  0.0123 -0.9829
 2081SOL    HW217880   0.398   3.921   7.926  0.3162 -0.6311  0.0368
 2082SOL     OW17881   3.110   0.606   8.108 -0.0338 -0.4809 -0.4648
 2082SOL    HW117882   3.061   0.567   8.181 -0.8072  0.4637 -0.4806
 2082SOL    HW217883   3.152   0.534   8.060  0.3643 -0.7199  0.2410
 2083SOL     OW17884   3.727   2.473  13.484  0.8485  0.2660  0.5603
 2083SOL    HW117885   3.667   2.499  13.554  1.5145  1.8574  0.5480
 2083SOL    HW217886   3.705   2.380  13.488  4.9519 -0.8682 -2.6369
 2084SOL     OW17887   3.181   1.559   9.627  0.3435  1.1002 -0.5231
 2084SOL    HW117888   3.174   1.519   9.713  1.3015  0.6480 -0.6564
 2084SOL    HW217889   3.175   1.480   9.573  0.1781  2.7606 -2.9438
 2085SOL     OW17890   4.588   1.459   7.081 -0.6199  0.4414 -0.2055
 2085SOL    HW117891   4.518   1.486   7.141  0.2457  0.7919  0.6339
 2085SOL    HW217892   4.660   1.510   7.117 -1.7756  2.0182 -0.1312
 2086SOL     OW17893   0.933   3.896   9.163  0.2588  0.0558 -0.2595
 2086SOL    HW117894   0.929   3.863   9.253 -1.8336  1.5211  0.1960
 2086SOL    HW217895   0.870   3.843   9.112 -2.4071  1.4200  1.6130
 2087SOL     OW17896   0.640   4.693   7.306  0.7521 -0.1937  0.0030
 2087SOL    HW117897   0.653   4.731   7.394 -0.9826 -1.0818  0.6309
 2087SOL    HW217898   0.720   4.646   7.283  1.3996  0.2192  1.3882
 2088SOL     OW17899   4.721   0.190   8.009  0.0839  0.0482 -0.4048
 2088SOL    HW117900   0.011   0.104   7.981  2.1609  1.0222 -1.2291
 2088SOL    HW217901   4.632   0.197   7.973  1.7158  3.7077 -3.8032
 2089SOL     OW17902   2.881   1.579   1.954 -0.2479  0.0831  0.4766
 2089SOL    HW117903   2.883   1.485   1.942 -0.8943  0.0960  0.2718
 2089SOL    HW217904   2.900   1.588   2.047  1.4022 -1.6241  0.2824
 2090SOL     OW17905   4.302   4.323  10.478  0.4204 -0.3738  0.1736
 2090SOL    HW117906   4.344   4.237  10.474  2.9015  0.8502  0.4169
 2090SOL    HW217907   4.322   4.356  10.391 -3.4042  1.7217  0.0831
 2091SOL     OW17908   0.298   2.345  17.427 -0.4315 -0.1450  0.3841
 2091SOL    HW117909   0.298   2.280  17.356  1.7683  1.6430 -1.2541
 2091SOL    HW217910   0.245   2.297  17.491  0.4469 -2.1016 -0.3430
 2092SOL     OW17911   1.123   2.904  17.342  0.7231  0.0427  0.5687
 2092SOL    HW117912   1.101   2.879  17.432 -0.4726  0.1269  0.3002
 2092SOL    HW217913   1.050   2.957  17.308  1.7256  0.8978 -0.2339
 2093SOL     OW17914   1.742   3.815   6.819  0.3361 -0.1479  0.5892
 2093SOL    HW117915   1.718   3.908   6.815  0.2581 -0.1031  2.3589
 2093SOL    HW217916   1.832   3.824   6.789 -0.3862  1.9202 -0.9785
 2094SOL     OW17917   1.579   2.052   2.415  0.2090  0.0541  0.2696
 2094SOL    HW117918   1.526   2.105   2.474 -0.3474  0.3522 -0.5026
 2094SOL    HW217919   1.563   1.964   2.449 -2.1393  0.1616 -0.5580
 2095SOL     OW17920   4.199   1.882   8.088  0.3385 -0.0708  0.3918
 2095SOL    HW117921   4.287   1.858   8.118  0.3962 -1.5817 -0.9678
 2095SOL    HW217922   4.162   1.811   8.141 -0.4986 -0.2664 -0.4535
 2096SOL     OW17923   3.315   4.127   1.644 -0.2636  0.0259  0.0879
 2096SOL    HW117924   3.300   4.212   1.604  2.6555  1.2759  1.6844
 2096SOL    HW217925   3.237   4.077   1.619 -2.0244  2.6212  0.3799
 2097SOL     OW17926   0.490   4.190   3.763  0.3342 -0.0943 -0.0922
 2097SOL    HW117927   0.583   4.182   3.742 -0.0356  0.3224 -1.8484
 2097SOL    HW217928   0.475   4.282   3.740  2.1026  0.7487  2.1628
 2098SOL     OW17929   2.681   1.030   7.040  0.0842 -0.4285  0.4555
 2098SOL    HW117930   2.631   1.036   7.121  0.4327 -2.3488  0.8089
 2098SOL    HW217931   2.755   1.086   7.064 -0.1158  0.5038 -1.1403
 2099SOL     OW17932   3.629   4.307  13.886  0.1259 -0.2946  0.1259
 2099SOL    HW117933   3.690   4.235  13.869  0.0746 -1.0165  3.0601
 2099SOL    HW217934   3.675   4.362  13.949  1.7678 -0.0839 -1.2224
 2100SOL     OW17935   0.735   2.291   7.420 -0.3959  0.9533 -0.1762
 2100SOL    HW117936   0.801   2.327   7.479  0.6109 -0.7274 -0.2690
 2100SOL    HW217937   0.748   2.350   7.345  2.5409  1.2622  0.5828
 2101SOL     OW17938   3.498   2.938  12.067  0.5547  0.2004  0.4188
 2101SOL    HW117939   3.423   2.990  12.094  0.2774  0.3222 -0.5899
 2101SOL    HW217940   3.508   2.888  12.148 -1.1377  1.2455  1.2593
 2102SOL     OW17941   3.616   3.381   4.536  0.3778  0.3321 -0.3542
 2102SOL    HW117942   3.710   3.367   4.547  0.8455  3.1049 -0.8554
 2102SOL    HW217943   3.597   3.428   4.618  0.1553 -0.3483 -0.0189
 2103SOL     OW17944   2.589   1.038   6.795 -0.3642  0.0907  0.1756
 2103SOL    HW117945   2.534   1.115   6.808  1.2572  1.8547 -3.3871
 2103SOL    HW217946   2.612   1.022   6.887  1.7074 -0.8425 -0.5024
 2104SOL     OW17947   0.793   1.299   9.111  0.0693  0.3562  0.2719
 2104SOL    HW117948   0.739   1.265   9.182  1.2482 -0.8234  0.5994
 2104SOL    HW217949   0.735   1.296   9.035  0.4934 -1.8389  0.0216
 2105SOL     OW17950   3.464   1.124   8.366 -0.0399 -0.5423 -0.6313
 2105SOL    HW117951   3.375   1.125   8.399  0.3500  0.0884  0.3963
 2105SOL    HW217952   3.490   1.214   8.386  1.5604 -1.4692  1.4339
 2106SOL     OW17953   0.780   1.490   8.314  0.5088 -0.7695  0.6494
 2106SOL    HW117954   0.794   1.458   8.225  1.2814 -3.4130  1.7277
 2106SOL    HW217955   0.716   1.562   8.304  0.4666 -0.4166  3.5207
 2107SOL     OW17956   3.787   0.890   3.961 -0.0589  0.3594 -0.0686
 2107SOL    HW117957   3.698   0.921   3.944  0.1781  0.7887 -0.5377
 2107SOL    HW217958   3.790   0.808   3.911 -2.8266  1.4002 -1.9527
 2108SOL     OW17959   2.144   0.654   5.145 -0.4319 -0.6098  0.2311
 2108SOL    HW117960   2.063   0.613   5.174 -1.9575  2.5837  0.5735
 2108SOL    HW217961   2.186   0.574   5.115  1.1865  1.2352 -2.4132
 2109SOL     OW17962   3.348   3.461   7.440  0.2039 -0.1929 -0.1700
 2109SOL    HW117963   3.272   3.508   7.474 -1.4532 -0.7202 -3.1306
 2109SOL    HW217964   3.418   3.526   7.434  0.0422  0.4734  4.8497
 2110SOL     OW17965   1.114   4.218   4.248  0.4062  0.1435 -0.4143
 2110SOL    HW117966   1.038   4.211   4.306 -0.3206  1.2833 -1.2482
 2110SOL    HW217967   1.185   4.215   4.312  0.7715  2.2310 -0.7347
 2111SOL     OW17968   3.344   1.204  12.118 -0.3946  0.2490  0.5643
 2111SOL    HW117969   3.411   1.137  12.105  0.2233  0.8681  0.6022
 2111SOL    HW217970   3.268   1.145  12.113  0.3848 -0.8766  2.0735
 2112SOL     OW17971   4.709   0.665  10.088 -1.0428 -0.3870 -0.4052
 2112SOL    HW117972   4.694   0.731  10.156 -0.7618  0.4842 -1.1866
 2112SOL    HW217973   4.679   0.581  10.122 -2.1670  1.2688  2.7557
 2113SOL     OW17974   4.374   2.914   5.379  0.0306 -0.4241  0.5180
 2113SOL    HW117975   4.327   2.981   5.429 -0.7943 -0.2126 -0.5399
 2113SOL    HW217976   4.322   2.836   5.401  0.8649 -0.4267  2.4929
 2114SOL     OW17977   1.499   2.175   8.779 -0.2183  0.0990  0.1276
 2114SOL    HW117978   1.570   2.114   8.760  0.2428  0.3740  0.9710
 2114SOL    HW217979   1.535   2.227   8.851 -0.5401 -0.8749  1.0013
 2115SOL     OW17980   3.440   2.134  17.251 -0.1213 -0.1650 -0.3863
 2115SOL    HW117981   3.440   2.152  17.345 -0.8441 -1.1689 -0.1932
 2115SOL    HW217982   3.465   2.216  17.209 -1.8647  1.4248  1.6182
 2116SOL     OW17983   2.177   4.269   7.397 -0.3145  0.6156 -0.1836
 2116SOL    HW117984   2.188   4.178   7.371 -2.7665  0.0548  0.7468
 2116SOL    HW217985   2.089   4.267   7.436 -0.3968  2.5531 -0.2697
 2117SOL     OW17986   4.636   4.089   8.326 -0.5164  0.1769 -0.0080
 2117SOL    HW117987   4.632   4.008   8.378  0.5779  0.6784  0.8503
 2117SOL    HW217988   4.575   4.141   8.379 -1.0970 -1.5719  1.0300
 2118SOL     OW17989   1.920   3.682   2.471 -0.1176  0.5903 -0.2499
 2118SOL    HW117990   1.991   3.696   2.533  0.5055 -2.1150 -0.3329
 2118SOL    HW217991   1.862   3.636   2.532 -0.3758  0.0501 -0.8969
 2119SOL     OW17992   0.786   1.667   4.130  0.0626 -1.0269 -0.5427
 2119SOL    HW117993   0.850   1.654   4.199  1.6206  1.0270 -1.5986
 2119SOL    HW217994   0.785   1.579   4.093 -0.9698 -0.4237 -1.9489
 2120SOL     OW17995   2.895   0.739   7.564 -0.6706  0.0454  0.1626
 2120SOL    HW117996   2.967   0.700   7.514  1.3716  0.0041  3.1682
 2120SOL    HW217997   2.836   0.762   7.492 -0.0303  0.1493 -0.3224
 2121SOL     OW17998   0.660   0.171   4.319  0.2682  0.5219 -0.3310
 2121SOL    HW117999   0.691   0.112   4.250 -2.5455 -1.8789  0.4646
 2121SOL    HW218000   0.628   0.237   4.258 -1.8462  0.5448  0.8155
 2122SOL     OW18001   3.466   0.852   6.135  0.2501  0.3586 -0.6962
 2122SOL    HW118002   3.429   0.861   6.223  1.3595  0.9541 -0.2835
 2122SOL    HW218003   3.404   0.903   6.083 -0.2837  0.1908 -0.2202
 2123SOL     OW18004   4.651   2.955   6.958 -0.1937 -0.4143 -0.4192
 2123SOL    HW118005   4.572   2.914   6.923  0.3103 -2.4232  0.8154
 2123SOL    HW218006   4.704   2.965   6.879 -1.7083 -0.0505 -1.3913
 2124SOL     OW18007   1.483   0.944  12.743 -0.2483 -0.2380 -0.5720
 2124SOL    HW118008   1.464   0.859  12.783  0.1529 -1.3481 -2.7401
 2124SOL    HW218009   1.578   0.943  12.752 -0.3872 -0.1570  0.9423
 2125SOL     OW18010   0.613   1.553   9.478  0.2916  0.5783  0.1349
 2125SOL    HW118011   0.650   1.627   9.430 -0.7649  0.2889 -1.1189
 2125SOL    HW218012   0.678   1.529   9.544 -0.6935 -1.4834  0.3403
 2126SOL     OW18013   1.269   1.840   5.945  0.4801  0.1340  0.3315
 2126SOL    HW118014   1.233   1.825   5.857  1.7681  1.4481 -0.4235
 2126SOL    HW218015   1.262   1.757   5.991  0.1332 -0.6843 -1.1880
 2127SOL     OW18016   4.734   4.699   9.483  0.0106  0.1823  0.1796
 2127SOL    HW118017   0.066   0.021   9.502  0.0322  0.8516 -2.0878
 2127SOL    HW218018   4.702   4.673   9.570  0.6355  1.4705  0.7930
 2128SOL     OW18019   2.400   3.631   8.433  0.3956  0.1165 -0.0564
 2128SOL    HW118020   2.477   3.574   8.425 -1.0483 -1.7785 -0.5421
 2128SOL    HW218021   2.454   3.710   8.433 -0.1523  0.4987  0.7297
 2129SOL     OW18022   0.307   3.672  14.474  0.1654  0.4005  0.3480
 2129SOL    HW118023   0.397   3.657  14.506  1.0944  0.1693 -2.4309
 2129SOL    HW218024   0.261   3.661  14.557 -0.6530 -0.1045 -0.1744
 2130SOL     OW18025   0.199   3.039   6.481  0.3113 -0.3061  0.1175
 2130SOL    HW118026   0.238   3.126   6.495 -1.1909  0.0863  1.8303
 2130SOL    HW218027   0.275   2.997   6.440  1.9709  1.9761  0.7998
 2131SOL     OW18028   3.416   3.759   0.104 -0.2000 -0.0936  0.3112
 2131SOL    HW118029   3.412   3.831   0.041 -1.5769 -1.0088 -0.6315
 2131SOL    HW218030   3.503   3.720   0.094  0.0080  0.7756 -1.3719
 2132SOL     OW18031   3.941   0.210   7.698  0.5714 -0.4560  0.2126
 2132SOL    HW118032   3.927   0.119   7.673 -1.4810  0.2771 -1.3331
 2132SOL    HW218033   3.894   0.218   7.781 -0.3283  1.3881 -0.4622
 2133SOL     OW18034   2.900   4.146   5.053  0.3304 -0.3856  0.3417
 2133SOL    HW118035   2.831   4.154   5.119  1.3714 -0.7953  1.4920
 2133SOL    HW218036   2.883   4.058   5.019 -0.0809  0.4657 -1.6551
 2134SOL     OW18037   1.979   0.555   8.745  0.4062  0.1898  0.0086
 2134SOL    HW118038   1.998   0.524   8.656  0.2113  2.2878 -0.7623
 2134SOL    HW218039   2.034   0.501   8.802  0.6518  0.0429 -0.3684
 2135SOL     OW18040   0.925   4.226   5.052 -0.1916 -0.0702 -0.1408
 2135SOL    HW118041   0.858   4.272   5.103 -0.2402 -0.7989  0.4539
 2135SOL    HW218042   1.004   4.269   5.085  2.2200 -3.3412 -1.5780
 2136SOL     OW18043   4.228   4.336  17.087 -0.4455 -0.1261  0.1882
 2136SOL    HW118044   4.235   4.270  17.156 -0.1585  1.6238  1.8420
 2136SOL    HW218045   4.264   4.408  17.138  0.9086  0.4044 -1.5316
 2137SOL     OW18046   4.094   0.575   6.885  0.1629  0.2209  0.4073
 2137SOL    HW118047   4.136   0.655   6.917  1.9077  0.0963 -1.6428
 2137SOL    HW218048   4.166   0.514   6.905 -0.5783 -0.0585  2.3159
 2138SOL     OW18049   2.322   3.846  17.642  0.3037  0.1438  0.6687
 2138SOL    HW118050   2.233   3.880  17.645 -0.0482 -0.7064  0.1679
 2138SOL    HW218051   2.332   3.818  17.733 -0.6073  0.3091  0.8236
 2139SOL     OW18052   3.553   1.550   4.386  0.2140 -0.1377  0.3601
 2139SOL    HW118053   3.600   1.582   4.463 -0.5787  0.9702  0.3913
 2139SOL    HW218054   3.581   1.603   4.311  0.9515 -0.4104  0.4381
 2140SOL     OW18055   0.727   1.479   7.778  0.1421  0.3823 -0.1110
 2140SOL    HW118056   0.740   1.398   7.727  3.8092  0.0954  1.2352
 2140SOL    HW218057   0.697   1.544   7.715  2.0827  0.4164 -1.0193
 2141SOL     OW18058   4.566   4.662   4.463 -0.2350 -0.1754 -0.0576
 2141SOL    HW118059   4.619   4.627   4.392  0.3091 -0.2451  0.3859
 2141SOL    HW218060   4.479   4.653   4.424 -0.3456  0.9385 -0.0544
 2142SOL     OW18061   2.466   3.045   4.124  0.2482 -0.9246  0.1221
 2142SOL    HW118062   2.546   3.095   4.137  0.4738 -1.0128 -0.8910
 2142SOL    HW218063   2.397   3.092   4.170 -1.0465  0.1278 -2.8945
 2143SOL     OW18064   1.419   2.195   1.411  0.0620  0.5139 -0.1372
 2143SOL    HW118065   1.421   2.236   1.324 -0.0377  0.6813 -0.0604
 2143SOL    HW218066   1.349   2.243   1.454  0.0486  1.4125 -1.1615
 2144SOL     OW18067   2.700   1.755   5.807 -0.0857 -0.2574  0.4956
 2144SOL    HW118068   2.755   1.676   5.800  1.7240  1.2550 -2.3644
 2144SOL    HW218069   2.704   1.792   5.719  1.5243 -1.2829  0.1268
 2145SOL     OW18070   2.466   2.571   4.230 -0.0517 -0.5916  0.5919
 2145SOL    HW118071   2.523   2.584   4.155  0.5356 -0.9226  0.9832
 2145SOL    HW218072   2.483   2.484   4.266  0.1064 -1.2454 -1.0716
 2146SOL     OW18073   4.426   4.193  13.608  0.0309 -0.3716 -0.0160
 2146SOL    HW118074   4.414   4.098  13.598 -1.7716 -0.2337  0.9063
 2146SOL    HW218075   4.418   4.211  13.702  3.7461  0.7982  0.0810
 2147SOL     OW18076   2.189   3.555   8.255  0.0556  0.1832 -0.7316
 2147SOL    HW118077   2.244   3.614   8.306 -1.1389 -0.4200  1.2540
 2147SOL    HW218078   2.103   3.596   8.247 -0.5854 -1.0641 -0.1737
 2148SOL     OW18079   4.062   4.450   2.372 -0.0255  0.4307  0.0196
 2148SOL    HW118080   4.056   4.425   2.464 -1.4795 -0.1493 -0.2362
 2148SOL    HW218081   3.980   4.413   2.338  0.4690 -0.3058 -0.3822
 2149SOL     OW18082   3.020   3.014  16.814 -0.1289 -0.0013 -0.0010
 2149SOL    HW118083   2.986   2.962  16.886  0.3807  2.5235  2.0511
 2149SOL    HW218084   2.935   3.032  16.772 -1.4570 -0.2122  2.6122
 2150SOL     OW18085   3.350   2.919   9.410 -0.0388 -0.2500  0.3880
 2150SOL    HW118086   3.365   2.826   9.427  0.6032 -0.6882 -2.5488
 2150SOL    HW218087   3.262   2.935   9.445  0.4165  1.8150  0.5823
 2151SOL     OW18088   2.919   1.875   5.181 -0.5282 -0.1693  0.2162
 2151SOL    HW118089   3.001   1.878   5.231 -1.1307  0.0378  1.1917
 2151SOL    HW218090   2.870   1.831   5.251 -1.3334  2.7598  1.4900
 2152SOL     OW18091   3.421   4.083   8.433 -0.2453 -0.2223 -0.0602
 2152SOL    HW118092   3.363   4.131   8.374  0.5736  1.6787  0.6773
 2152SOL    HW218093   3.387   4.111   8.519 -0.4001  0.7083 -0.4175
 2153SOL     OW18094   0.322   3.945   5.474 -0.1028 -0.3478 -0.0311
 2153SOL    HW118095   0.363   3.983   5.552  1.1016 -0.8486 -0.4187
 2153SOL    HW218096   0.341   3.852   5.482 -3.2404 -0.8844  1.1885
 2154SOL     OW18097   2.499   1.437  17.640  0.0607 -0.1283  0.6860
 2154SOL    HW118098   2.465   1.368  17.698  0.2795 -1.9315 -1.3356
 2154SOL    HW218099   2.586   1.402  17.624  0.1846  1.1476 -1.3819
 2155SOL     OW18100   2.263   3.206   7.744  0.4170  0.5829  0.3925
 2155SOL    HW118101   2.341   3.154   7.726  0.2927  0.2473  0.8366
 2155SOL    HW218102   2.267   3.288   7.694  1.8356  0.9871  1.1793
 2156SOL     OW18103   4.126   2.246   4.523 -0.1457  0.2565  0.2315
 2156SOL    HW118104   4.221   2.257   4.526 -0.0601  0.1018 -2.1203
 2156SOL    HW218105   4.113   2.285   4.610  1.0104  0.2756  0.3968
 2157SOL     OW18106   4.714   0.077  10.611 -0.2058  0.3407 -0.4350
 2157SOL    HW118107   4.715   4.725  10.640  1.1025  0.4327 -0.1890
 2157SOL    HW218108   0.065   0.077  10.580 -0.0693 -0.9849 -0.0540
 2158SOL     OW18109   1.649   4.220   7.185 -0.7392 -0.4232  0.1429
 2158SOL    HW118110   1.644   4.207   7.091  2.2783 -0.6394  0.0102
 2158SOL    HW218111   1.744   4.233   7.190 -0.7570 -0.1812 -0.2345
 2159SOL     OW18112   3.798   3.835   8.239 -0.0915 -0.0189  0.6956
 2159SOL    HW118113   3.818   3.743   8.258 -0.3415 -0.0973  0.5814
 2159SOL    HW218114   3.760   3.860   8.324 -0.8281 -1.4189  0.7703
 2160SOL     OW18115   0.371   4.573   5.090  0.7363  0.2722  0.1998
 2160SOL    HW118116   0.397   4.521   5.014  3.4627  1.9455 -0.0335
 2160SOL    HW218117   0.450   4.578   5.143  0.9564 -1.1887  0.0005
 2161SOL     OW18118   3.692   0.891   4.900 -0.0129 -0.0509  0.2771
 2161SOL    HW118119   3.749   0.903   4.824 -1.6709  0.4511 -0.8908
 2161SOL    HW218120   3.720   0.971   4.945  1.1643 -0.4697  0.2816
 2162SOL     OW18121   2.094   3.829   6.013 -0.0048  0.3105 -0.0782
 2162SOL    HW118122   2.145   3.804   5.937  1.2128  0.1891  0.7737
 2162SOL    HW218123   2.164   3.820   6.079 -1.2309  0.6688  1.2769
 2163SOL     OW18124   4.248   0.847   7.035 -0.2574  0.3376 -0.2802
 2163SOL    HW118125   4.198   0.922   7.003  1.2412  0.6402 -1.9245
 2163SOL    HW218126   4.319   0.882   7.089  1.0551 -0.4497 -1.4695
 2164SOL     OW18127   0.022   0.282   8.350 -0.3526 -0.1885 -0.0657
 2164SOL    HW118128   0.072   0.340   8.293  1.1383 -1.9532 -0.5444
 2164SOL    HW218129   0.030   0.327   8.434 -0.3498 -0.0351 -0.1485
 2165SOL     OW18130   4.537   4.328   5.074 -0.5098  0.5312  0.5248
 2165SOL    HW118131   4.561   4.357   5.162 -0.4051 -0.1043  0.7059
 2165SOL    HW218132   4.498   4.245   5.101  2.2285 -0.9360 -0.0741
 2166SOL     OW18133   3.910   0.095   2.373 -0.6131  0.3390 -0.5155
 2166SOL    HW118134   3.967   0.164   2.340  2.4052 -1.9019  0.0547
 2166SOL    HW218135   3.854   0.147   2.430 -2.1219 -2.4016  0.5288
 2167SOL     OW18136   1.408   3.844  11.650 -0.0873 -0.1808 -0.0270
 2167SOL    HW118137   1.502   3.842  11.635 -0.0522  0.6248  0.1040
 2167SOL    HW218138   1.394   3.754  11.680  2.1168 -1.0278 -1.5888
 2168SOL     OW18139   3.933   2.411   5.838  1.0962 -0.7789  0.6553
 2168SOL    HW118140   3.871   2.448   5.776  1.9089 -1.2090 -0.4200
 2168SOL    HW218141   3.931   2.319   5.809 -0.3297  0.0202 -1.7573
 2169SOL     OW18142   0.119   0.955   2.810  0.0991 -0.2735  0.1463
 2169SOL    HW118143   0.078   0.960   2.723 -0.2415 -2.4456  0.1823
 2169SOL    HW218144   0.210   0.951   2.780 -0.5619 -1.7394 -1.6925
 2170SOL     OW18145   1.293   2.652   8.332 -0.3706  0.0766 -0.1320
 2170SOL    HW118146   1.223   2.670   8.268 -1.3860  0.8234  1.1982
 2170SOL    HW218147   1.344   2.733   8.336  0.6549 -0.5667 -0.1441
 2171SOL     OW18148   4.444   4.717   3.388  0.1944  0.1528 -0.1704
 2171SOL    HW118149   4.372   0.033   3.359  0.4264  1.2393  1.3776
 2171SOL    HW218150   4.413   4.629   3.367 -0.8702  0.4810  0.0204
 2172SOL     OW18151   1.296   1.329   5.780  0.2810  0.3810  0.1392
 2172SOL    HW118152   1.355   1.295   5.847  1.2938 -1.1705 -1.5056
 2172SOL    HW218153   1.356   1.380   5.725  1.3832  0.4026  1.3450
 2173SOL     OW18154   3.559   0.231   8.897 -0.5338  0.1994  0.3663
 2173SOL    HW118155   3.523   0.240   8.985 -0.4171  2.9795  0.1525
 2173SOL    HW218156   3.632   0.294   8.898  0.1945 -0.6489  0.3793
 2174SOL     OW18157   2.100   1.863   2.168 -0.1226  0.7436 -0.5136
 2174SOL    HW118158   2.179   1.876   2.220 -0.0427 -0.6126 -0.2888
 2174SOL    HW218159   2.147   1.888   2.088 -0.0223 -0.5330 -0.8525
 2175SOL     OW18160   2.277   1.997   5.196  0.4170  0.1894  0.4219
 2175SOL    HW118161   2.213   1.952   5.252 -0.8966 -0.8733 -1.9670
 2175SOL    HW218162   2.310   1.925   5.143 -4.1477 -2.0960  0.6408
 2176SOL     OW18163   4.730   2.263   7.713  0.0496 -0.1109 -0.7512
 2176SOL    HW118164   4.671   2.193   7.741 -0.4961 -0.0224 -1.6901
 2176SOL    HW218165   0.009   2.309   7.795 -0.8003 -0.5610 -0.3093
 2177SOL     OW18166   1.167   0.984  17.567  0.2781  0.3299  0.4431
 2177SOL    HW118167   1.095   0.922  17.566  0.4590  0.1285 -0.5881
 2177SOL    HW218168   1.242   0.924  17.564  0.2838  0.4596 -2.1655
 2178SOL     OW18169   3.342   2.034   2.408  0.5020  0.1905 -0.0214
 2178SOL    HW118170   3.261   2.021   2.456  0.8306 -0.7188  0.2752
 2178SOL    HW218171   3.308   2.052   2.320 -0.3157  0.7238  0.4019
 2179SOL     OW18172   1.558   4.224  12.368 -0.2518  0.2236 -0.2079
 2179SOL    HW118173   1.540   4.190  12.280 -0.8510  0.8121 -0.3116
 2179SOL    HW218174   1.469   4.235  12.402  0.2988 -1.2570  1.6953
 2180SOL     OW18175   1.153   2.075  10.015  0.1454  0.1195 -0.4768
 2180SOL    HW118176   1.206   2.026  10.078 -0.4481  0.2458  0.1138
 2180SOL    HW218177   1.132   2.012   9.947  4.5443 -2.1946  0.2905
 2181SOL     OW18178   1.217   2.258   5.587  0.0866  0.5754  0.4100
 2181SOL    HW118179   1.176   2.344   5.593  0.9701  0.9044  1.7017
 2181SOL    HW218180   1.155   2.200   5.633  1.2992 -1.5120 -0.5922
 2182SOL     OW18181   2.023   0.961   4.139  0.4775 -0.0171 -0.2410
 2182SOL    HW118182   2.045   0.868   4.132  2.7401  0.3579  1.7014
 2182SOL    HW218183   2.025   0.979   4.233 -0.9917 -2.8594  0.3064
 2183SOL     OW18184   0.780   3.097   5.006 -0.2413  0.0926  0.3543
 2183SOL    HW118185   0.782   3.145   5.089  1.0447 -0.1192  0.4381
 2183SOL    HW218186   0.863   3.050   5.012  0.8260  1.9473  0.3044
 2184SOL     OW18187   1.496   2.215   6.536  0.0440 -0.2554 -0.2423
 2184SOL    HW118188   1.449   2.292   6.505 -1.4738 -1.2044 -0.2781
 2184SOL    HW218189   1.487   2.151   6.466 -0.5004 -0.5016  0.0519
 2185SOL     OW18190   0.542   3.831   3.996  0.1011 -0.0532  0.0573
 2185SOL    HW118191   0.559   3.924   4.009  1.8428 -0.3546  0.0191
 2185SOL    HW218192   0.614   3.794   3.945  0.5114  0.8103  0.0046
 2186SOL     OW18193   0.934   1.416   8.899  0.1685 -1.1192  0.3329
 2186SOL    HW118194   0.864   1.392   8.960  0.0512 -0.1689  0.5755
 2186SOL    HW218195   0.999   1.370   8.953  0.4672 -1.8768 -0.6685
 2187SOL     OW18196   3.521   1.929  12.172  0.1294  0.7088 -0.0094
 2187SOL    HW118197   3.431   1.958  12.160 -0.2309 -0.0103  0.9753
 2187SOL    HW218198   3.525   1.919  12.267  1.5217 -1.4808 -0.2966
 2188SOL     OW18199   4.221   2.608   2.615 -0.5853  0.0223  0.2137
 2188SOL    HW118200   4.179   2.624   2.699 -3.8570 -1.1408 -1.2149
 2188SOL    HW218201   4.310   2.639   2.631 -0.8611 -0.4669  2.5905
 2189SOL     OW18202   0.194   0.573   3.195 -0.2613  0.2962 -0.2554
 2189SOL    HW118203   0.103   0.588   3.170 -0.6155 -1.1183  0.1780
 2189SOL    HW218204   0.247   0.611   3.124 -0.6196 -1.5136 -1.4831
 2190SOL     OW18205   0.593   0.933   5.389  0.1970  0.2992 -0.2464
 2190SOL    HW118206   0.669   0.925   5.448 -0.0196  0.0148 -0.0087
 2190SOL    HW218207   0.578   1.028   5.384 -1.9083 -0.0614 -0.4870
 2191SOL     OW18208   0.024   1.495  14.264  0.2650 -0.4811 -0.0427
 2191SOL    HW118209   0.060   1.408  14.246 -0.9146 -1.1315  0.6960
 2191SOL    HW218210   4.699   1.477  14.333  1.3569 -1.1117  0.8161
 2192SOL     OW18211   3.603   4.100   2.833  0.1364  0.2649 -0.5121
 2192SOL    HW118212   3.575   4.010   2.817 -1.6315  0.9977 -1.4332
 2192SOL    HW218213   3.524   4.152   2.848 -0.7652 -1.7472  1.8839
 2193SOL     OW18214   2.409   2.925   7.109 -0.5322 -0.5501 -0.4681
 2193SOL    HW118215   2.497   2.925   7.144 -0.0460 -0.5271 -1.6834
 2193SOL    HW218216   2.367   2.879   7.182 -2.7946  3.0819  0.5167
 2194SOL     OW18217   1.740   1.486  13.323 -0.2822  0.2479  0.2980
 2194SOL    HW118218   1.647   1.483  13.345 -0.4272  1.3189 -0.1569
 2194SOL    HW218219   1.779   1.495  13.410 -0.9215  1.5831  0.4477
 2195SOL     OW18220   2.729   2.615   1.742  0.0276 -0.1756  0.3094
 2195SOL    HW118221   2.722   2.711   1.750 -2.2965 -0.1244 -2.5689
 2195SOL    HW218222   2.800   2.618   1.678  0.2922  2.1645  0.6855
 2196SOL     OW18223   2.316   4.057   0.236 -0.4379 -0.0352 -0.3976
 2196SOL    HW118224   2.325   3.987   0.171 -0.9768 -0.2213 -0.2782
 2196SOL    HW218225   2.373   4.022   0.304 -1.3104 -1.9786 -0.6606
 2197SOL     OW18226   0.230   1.799  16.390  0.4363 -0.6816 -0.4846
 2197SOL    HW118227   0.271   1.718  16.361 -0.2992 -0.8817 -0.9898
 2197SOL    HW218228   0.293   1.857  16.347  2.8614 -1.4873  2.0308
 2198SOL     OW18229   3.725   1.846   7.704 -0.3920 -0.2998 -0.3167
 2198SOL    HW118230   3.632   1.834   7.690 -0.9237  0.8822  2.0782
 2198SOL    HW218231   3.743   1.753   7.690 -3.3411 -0.9974  0.6846
 2199SOL     OW18232   0.005   3.849   9.804  0.5412 -0.3470  0.1870
 2199SOL    HW118233   0.015   3.846   9.709  0.5004  0.2031  0.1616
 2199SOL    HW218234   0.079   3.803   9.842  0.7669  0.2886  0.5153
 2200SOL     OW18235   2.089   2.411   2.038  0.4766 -0.2962  0.2057
 2200SOL    HW118236   2.084   2.449   2.125  1.6815 -1.2882  0.7036
 2200SOL    HW218237   2.149   2.338   2.058  0.0729 -0.6314  0.1967
 2201SOL     OW18238   3.866   1.891   6.005  0.7762  0.1844 -0.4928
 2201SOL    HW118239   3.857   1.802   6.040  1.0586  1.4210  2.6621
 2201SOL    HW218240   3.782   1.924   6.037  1.0287  0.7530 -0.4121
 2202SOL     OW18241   3.333   0.417   2.559 -0.1461  0.2936  0.0777
 2202SOL    HW118242   3.273   0.491   2.553  0.2492  0.8911  3.7254
 2202SOL    HW218243   3.286   0.379   2.484 -3.3845  2.3519  1.0732
 2203SOL     OW18244   3.748   2.424   2.635  0.4990  0.6180 -0.1416
 2203SOL    HW118245   3.724   2.381   2.717  0.1950  0.6236 -0.2295
 2203SOL    HW218246   3.711   2.511   2.640 -1.0281 -0.0536  0.1034
 2204SOL     OW18247   1.458   3.530   8.090  0.3992 -0.0429 -0.7300
 2204SOL    HW118248   1.550   3.559   8.089  0.0129  1.2494  1.1125
 2204SOL    HW218249   1.463   3.439   8.119  2.7226  0.4042  0.3024
 2205SOL     OW18250   2.591   2.209  15.409 -0.1356  0.1362  0.2268
 2205SOL    HW118251   2.532   2.277  15.374  0.9548  0.5149 -0.8611
 2205SOL    HW218252   2.601   2.237  15.500 -0.9526 -1.4720  0.8024
 2206SOL     OW18253   2.475   0.205   4.436  0.7002  0.2034  0.8931
 2206SOL    HW118254   2.432   0.139   4.381  2.2748 -1.3275  1.5231
 2206SOL    HW218255   2.400   0.246   4.478  0.0120 -0.0958 -0.0508
 2207SOL     OW18256   1.916   2.001   5.414 -0.1849 -0.3885 -0.3416
 2207SOL    HW118257   2.000   1.956   5.424 -0.9531 -2.0430 -1.4135
 2207SOL    HW218258   1.935   2.084   5.458 -1.8596  1.0937 -2.3927
 2208SOL     OW18259   1.060   1.698   9.931 -0.5921 -0.0190 -0.0809
 2208SOL    HW118260   1.116   1.724   9.858 -0.0259 -3.8400 -0.9675
 2208SOL    HW218261   1.024   1.787   9.929 -0.2110  0.1105 -1.2014
 2209SOL     OW18262   2.208   3.519  14.204 -0.4843 -0.1457 -0.2918
 2209SOL    HW118263   2.263   3.557  14.135 -0.3142 -1.7174 -1.0351
 2209SOL    HW218264   2.165   3.593  14.247 -0.2533  0.2049 -0.6568
 2210SOL     OW18265   3.241   1.810   0.052 -0.1337 -0.1519  0.1375
 2210SOL    HW118266   3.334   1.825   0.034 -0.1869  0.6538  0.5777
 2210SOL    HW218267   3.217   1.901   0.065 -1.5616 -0.3220 -1.2638
 2211SOL     OW18268   3.974   4.249   9.845  0.3294  0.2764 -0.6071
 2211SOL    HW118269   3.918   4.326   9.830  1.3261  0.8034 -1.5965
 2211SOL    HW218270   4.016   4.288   9.922 -0.1208  0.8048 -0.6264
 2212SOL     OW18271   2.431   1.665   4.712 -0.2134 -0.4556  0.2319
 2212SOL    HW118272   2.417   1.733   4.646  2.1522 -0.3714 -0.1739
 2212SOL    HW218273   2.465   1.597   4.654  1.3676 -0.4999  1.2039
 2213SOL     OW18274   2.818   3.685   8.385  0.2879  0.2045 -0.3467
 2213SOL    HW118275   2.912   3.676   8.398  0.1568 -0.0664  0.3895
 2213SOL    HW218276   2.795   3.607   8.435 -2.9817  1.9244  0.8189
 2214SOL     OW18277   0.211   3.550   5.776 -0.1424 -0.0144  0.6489
 2214SOL    HW118278   0.116   3.549   5.791 -0.1920 -2.1569  0.0657
 2214SOL    HW218279   0.205   3.574   5.683 -1.3782  0.0089  0.7364
 2215SOL     OW18280   0.843   0.492  13.427 -0.5726 -0.2619 -0.3171
 2215SOL    HW118281   0.831   0.398  13.422 -1.5641 -0.1424 -0.1474
 2215SOL    HW218282   0.766   0.524  13.381 -1.4361 -1.1095  0.5387
 2216SOL     OW18283   4.065   1.139   7.502 -0.1495  0.4483  0.4773
 2216SOL    HW118284   3.998   1.193   7.459  0.1193 -1.0936 -1.8604
 2216SOL    HW218285   4.085   1.078   7.431 -0.0822  1.1398 -0.1066
 2217SOL     OW18286   3.403   4.006   5.590  1.0228  0.2980  0.1139
 2217SOL    HW118287   3.344   3.933   5.572  0.3491  0.6395  0.9492
 2217SOL    HW218288   3.463   4.002   5.515 -1.4176 -2.3817 -1.7172
 2218SOL     OW18289   2.446   4.082  16.804 -0.2026 -0.2671 -0.5433
 2218SOL    HW118290   2.502   4.027  16.749  1.5349  0.2368  0.6972
 2218SOL    HW218291   2.503   4.086  16.881 -0.7495 -0.1813 -0.1402
 2219SOL     OW18292   1.023   4.688  17.391 -0.2463 -0.0275  0.1151
 2219SOL    HW118293   1.026   4.601  17.352  0.2264 -0.2034  0.5404
 2219SOL    HW218294   1.076   4.670  17.469  2.2323  0.3461 -1.4696
 2220SOL     OW18295   4.641   3.084   8.817  0.1547 -0.8265  0.0728
 2220SOL    HW118296   4.634   3.072   8.722  1.2801 -1.1285  0.0221
 2220SOL    HW218297   4.623   3.176   8.835  2.8342 -0.2507 -0.2074
 2221SOL     OW18298   0.818   3.757   2.528  0.0272  0.1267 -0.1651
 2221SOL    HW118299   0.851   3.815   2.597  1.7473 -0.7813 -0.2015
 2221SOL    HW218300   0.902   3.719   2.501 -0.4674 -1.4643  0.4898
 2222SOL     OW18301   4.532   2.206   8.712 -0.2708  0.2474  0.3913
 2222SOL    HW118302   4.496   2.118   8.706  0.9342 -0.3333  1.5443
 2222SOL    HW218303   4.537   2.227   8.805 -3.7060  1.3860  0.3139
 2223SOL     OW18304   1.798   4.246   7.821  0.6932 -0.1855 -0.0575
 2223SOL    HW118305   1.757   4.330   7.803  1.0426  0.1950  0.9601
 2223SOL    HW218306   1.890   4.266   7.801  0.3402  0.5439 -0.9510
 2224SOL     OW18307   0.311   4.235   7.931 -0.7512 -0.0821 -0.4710
 2224SOL    HW118308   0.225   4.241   7.972 -0.6538 -0.8482 -0.1511
 2224SOL    HW218309   0.302   4.170   7.861  2.5570 -0.2160 -0.7857
 2225SOL     OW18310   1.470   1.314   9.319  0.1438  0.0311 -0.0039
 2225SOL    HW118311   1.397   1.296   9.378  1.4038  0.7575  1.7721
 2225SOL    HW218312   1.532   1.244   9.337  0.6522  0.7596  1.1210
 2226SOL     OW18313   3.619   0.384  14.094 -0.2026  0.1976 -0.3912
 2226SOL    HW118314   3.586   0.473  14.099  0.6979  0.5440 -0.5738
 2226SOL    HW218315   3.542   0.327  14.093 -0.2895  0.3373 -1.2280
 2227SOL     OW18316   3.084   0.571  16.320  0.3384 -0.5768  0.3651
 2227SOL    HW118317   3.163   0.617  16.295 -1.9844  2.2189 -1.8176
 2227SOL    HW218318   3.106   0.521  16.399  0.9589  0.2207  0.6943
 2228SOL     OW18319   1.975   2.124  16.289  0.0716  0.0679  0.2505
 2228SOL    HW118320   1.899   2.142  16.234 -1.3185 -0.2037  2.1000
 2228SOL    HW218321   2.047   2.114  16.226  0.0438  3.7992 -0.3468
 2229SOL     OW18322   4.554   2.096   2.994 -0.2617  0.1121 -0.1139
 2229SOL    HW118323   4.461   2.105   2.972  0.3678  3.1622 -1.4386
 2229SOL    HW218324   4.555   2.162   3.062 -2.1803  0.0602 -0.0231
 2230SOL     OW18325   0.616   4.660   3.619 -0.0483 -0.4272 -0.2736
 2230SOL    HW118326   0.552   4.730   3.635 -1.8067 -1.8760 -1.0366
 2230SOL    HW218327   0.638   4.675   3.527  1.8450  0.5717  0.3489
 2231SOL     OW18328   2.029   0.814  16.860 -0.7153 -0.4358 -0.0147
 2231SOL    HW118329   2.075   0.892  16.826 -0.6434 -1.6971 -2.8556
 2231SOL    HW218330   1.945   0.851  16.887  0.2312  1.9787 -0.3370
 2232SOL     OW18331   3.558   2.929  15.187 -0.3821  0.2685  0.3118
 2232SOL    HW118332   3.631   2.965  15.136 -2.2920  0.6046 -2.2054
 2232SOL    HW218333   3.593   2.930  15.276  2.1102  0.1666 -0.6837
 2233SOL     OW18334   3.207   1.951   5.940  0.0757  0.6105 -0.3706
 2233SOL    HW118335   3.256   1.941   5.859  0.6356  0.3920 -0.0075
 2233SOL    HW218336   3.276   1.933   6.004  1.2096  1.3465 -1.3907
 2234SOL     OW18337   4.438   0.875   6.246  0.2930  0.5621 -0.1103
 2234SOL    HW118338   4.358   0.825   6.234  0.9995 -0.4527 -0.5824
 2234SOL    HW218339   4.427   0.912   6.334 -1.2702  0.0040 -0.0712
 2235SOL     OW18340   4.273   0.124  11.449 -0.5520  0.0264  0.7255
 2235SOL    HW118341   4.249   0.164  11.366  1.3243  1.5755  0.9233
 2235SOL    HW218342   4.208   0.054  11.462 -0.9714 -0.0327 -1.8658
 2236SOL     OW18343   1.641   2.626   2.808 -0.3242  0.3506 -0.2682
 2236SOL    HW118344   1.720   2.598   2.761 -0.5237  1.0299 -1.0005
 2236SOL    HW218345   1.682   2.649   2.892 -1.6486 -1.2981  0.8469
 2237SOL     OW18346   2.262   1.792  13.645  0.0712 -0.3765 -0.4137
 2237SOL    HW118347   2.275   1.710  13.694 -1.0412 -0.4647 -0.2727
 2237SOL    HW218348   2.190   1.831  13.694  2.2182  2.3276  0.6093
 2238SOL     OW18349   0.791   1.612   7.433 -0.5073  0.2217 -0.9825
 2238SOL    HW118350   0.866   1.567   7.473 -1.4452 -0.1157  0.3808
 2238SOL    HW218351   0.748   1.647   7.511  1.8117 -0.0517  0.4415
 2239SOL     OW18352   0.688   0.472   3.919 -0.0125  0.0265 -0.0431
 2239SOL    HW118353   0.765   0.452   3.971 -0.3567 -3.3197 -0.8164
 2239SOL    HW218354   0.676   0.567   3.914 -1.1715 -0.1003  0.2332
 2240SOL     OW18355   0.259   2.764  15.290 -0.3855  0.3421  0.4031
 2240SOL    HW118356   0.177   2.809  15.269 -1.3687 -1.3693  0.5544
 2240SOL    HW218357   0.219   2.689  15.336 -2.7479  2.2375  1.4485
 2241SOL     OW18358   2.920   2.085   3.529  0.2198 -0.0933  0.0415
 2241SOL    HW118359   2.847   2.132   3.488 -1.3649  0.1055  3.1214
 2241SOL    HW218360   2.935   2.139   3.607  0.3353  0.6422 -0.4879
 2242SOL     OW18361   2.497   3.560   6.053  0.2606 -0.3578 -0.8395
 2242SOL    HW118362   2.536   3.480   6.089  2.9642  1.2779 -0.1232
 2242SOL    HW218363   2.474   3.533   5.964  0.6279 -1.6279 -0.5506
 2243SOL     OW18364   2.611   3.912   3.277 -0.3560  0.1829  0.3366
 2243SOL    HW118365   2.545   3.844   3.261  0.0227 -0.3724  1.0848
 2243SOL    HW218366   2.677   3.884   3.214  2.0528 -1.7141  3.6563
 2244SOL     OW18367   0.932   3.764   9.404 -0.6958  0.1971  0.1160
 2244SOL    HW118368   1.009   3.815   9.426  1.1648 -2.4655 -0.2190
 2244SOL    HW218369   0.892   3.735   9.486  1.6126 -2.4026  0.3445
 2245SOL     OW18370   3.751   3.727   5.337  0.5338  0.4514  0.8433
 2245SOL    HW118371   3.682   3.683   5.288  0.5727 -1.4871  2.5750
 2245SOL    HW218372   3.797   3.646   5.356 -1.6408 -0.5137  1.9372
 2246SOL     OW18373   2.016   0.843  14.374  0.0147  0.0946  0.4862
 2246SOL    HW118374   1.994   0.830  14.282 -0.1885 -1.5285  0.7655
 2246SOL    HW218375   1.945   0.796  14.418 -2.2687  3.3231  0.2726
 2247SOL     OW18376   1.608   1.608   1.069 -1.0209 -0.5857  0.5862
 2247SOL    HW118377   1.699   1.576   1.066 -1.2606 -1.3601  1.4088
 2247SOL    HW218378   1.585   1.580   0.980 -0.3008  0.2883  0.1249
 2248SOL     OW18379   3.548   2.857  16.591 -0.5063  0.0739 -0.4463
 2248SOL    HW118380   3.556   2.953  16.597  2.8490 -0.3684  2.1863
 2248SOL    HW218381   3.552   2.835  16.684 -1.0344 -2.3891 -1.0064
 2249SOL     OW18382   4.405   3.825   2.746 -0.2857 -0.4619 -0.2423
 2249SOL    HW118383   4.330   3.882   2.728 -1.1486 -1.6079 -0.2753
 2249SOL    HW218384   4.390   3.750   2.688 -2.7208  0.1573 -0.3827
 2250SOL     OW18385   1.935   0.509  16.411  0.7932 -0.1590 -0.0276
 2250SOL    HW118386   1.886   0.427  16.404  1.9612 -1.0673  2.4408
 2250SOL    HW218387   1.865   0.569  16.438 -0.1921 -1.1212 -0.4594
 2251SOL     OW18388   4.421   3.370  15.994 -0.1997 -0.7654 -0.5144
 2251SOL    HW118389   4.398   3.393  15.904  1.4794 -2.3858 -1.3475
 2251SOL    HW218390   4.501   3.322  15.974 -0.0043 -0.5185 -0.3161
 2252SOL     OW18391   2.480   3.077   7.689  0.2167  0.2849 -0.0431
 2252SOL    HW118392   2.506   3.034   7.607  0.2931 -0.7354  0.5143
 2252SOL    HW218393   2.536   3.154   7.681  2.7331 -1.6608 -1.6189
 2253SOL     OW18394   3.855   1.604   9.596 -0.1352  0.0553 -0.2923
 2253SOL    HW118395   3.780   1.638   9.645  1.7909  2.0331  1.3035
 2253SOL    HW218396   3.905   1.685   9.606 -2.1020  0.9851  2.2926
 2254SOL     OW18397   3.502   1.958  13.672 -0.6059  0.1004  0.4100
 2254SOL    HW118398   3.526   1.987  13.584  1.3869  0.3526  1.0615
 2254SOL    HW218399   3.458   2.034  13.710 -0.8918  0.2558 -0.2250
 2255SOL     OW18400   4.541   0.454  13.879 -0.0015  0.4357 -0.8091
 2255SOL    HW118401   4.550   0.441  13.974  1.8339  0.5260 -0.9799
 2255SOL    HW218402   4.545   0.549  13.868 -0.4281  0.6241  0.6438
 2256SOL     OW18403   1.471   0.855   4.599 -0.1688  0.7734  0.2126
 2256SOL    HW118404   1.470   0.838   4.505 -1.2685 -1.6240  0.6677
 2256SOL    HW218405   1.560   0.890   4.601  0.4043 -0.8328  2.4766
 2257SOL     OW18406   3.968   1.401   9.730  0.2612  0.0127  0.1573
 2257SOL    HW118407   3.931   1.483   9.697 -2.0371 -1.1615 -0.1369
 2257SOL    HW218408   3.936   1.396   9.820 -0.4732  3.0848  0.0512
 2258SOL     OW18409   1.307   4.410   2.732  0.3168 -0.7949 -0.0822
 2258SOL    HW118410   1.274   4.405   2.642  1.4234  0.3398 -0.5513
 2258SOL    HW218411   1.229   4.380   2.778 -0.2095  1.6643  0.6066
 2259SOL     OW18412   1.470   2.327   2.570  0.1576  0.0757  0.5683
 2259SOL    HW118413   1.558   2.340   2.605  0.6377  0.3588 -0.7693
 2259SOL    HW218414   1.426   2.399   2.616 -0.2948 -0.3510  0.8072
 2260SOL     OW18415   1.073   2.608   6.983  0.2447 -0.3060 -0.1268
 2260SOL    HW118416   1.097   2.518   7.007  1.1866 -0.3434 -1.1956
 2260SOL    HW218417   1.097   2.652   7.064 -0.1174  0.1782 -0.2851
 2261SOL     OW18418   0.500   2.663  12.154 -0.1372 -0.3107  0.4067
 2261SOL    HW118419   0.416   2.639  12.115  0.3018 -1.3560  0.0892
 2261SOL    HW218420   0.556   2.680  12.078  0.1916 -0.9067  0.5138
 2262SOL     OW18421   0.943   4.158   1.421 -0.5988  0.4386 -0.8032
 2262SOL    HW118422   0.953   4.252   1.430  1.6377  0.1350 -0.2077
 2262SOL    HW218423   0.993   4.127   1.345 -0.6738 -1.7315  0.0182
 2263SOL     OW18424   0.215   1.662   2.406 -0.5753 -0.0891  0.1968
 2263SOL    HW118425   0.179   1.581   2.367 -1.0644  0.8100 -1.2389
 2263SOL    HW218426   0.170   1.732   2.357  1.9351 -0.0368 -2.0395
 2264SOL     OW18427   4.099   2.174  15.978 -0.2792  0.5702  0.7603
 2264SOL    HW118428   4.149   2.253  15.955 -0.6951  0.9443  1.1439
 2264SOL    HW218429   4.011   2.212  15.980 -0.8976 -0.8718  0.7293
 2265SOL     OW18430   0.631   2.243   8.458  0.8683 -0.4431  0.0297
 2265SOL    HW118431   0.658   2.179   8.524 -2.3596 -0.7448  1.0296
 2265SOL    HW218432   0.540   2.255   8.485  1.3062 -0.5082  1.5283
 2266SOL     OW18433   1.845   1.855   7.219  0.1997  0.0391  0.1574
 2266SOL    HW118434   1.926   1.887   7.257  0.1911  0.1467  0.0848
 2266SOL    HW218435   1.873   1.835   7.130 -3.0234 -0.2228 -0.8329
 2267SOL     OW18436   3.715   4.046   3.122  0.2562  0.2050 -0.1254
 2267SOL    HW118437   3.704   3.979   3.055 -3.8272 -2.0416  2.8176
 2267SOL    HW218438   3.721   3.991   3.200 -1.3652 -1.7288 -1.4013
 2268SOL     OW18439   2.765   2.130   0.248 -0.4626 -0.0108 -0.0853
 2268SOL    HW118440   2.670   2.135   0.232 -0.6291 -1.4719  0.4161
 2268SOL    HW218441   2.770   2.125   0.343  1.7046  3.3305 -0.0335
 2269SOL     OW18442   4.260   4.413   3.359 -0.0687 -0.9245 -0.1966
 2269SOL    HW118443   4.170   4.423   3.327 -0.3049  0.7861  1.0231
 2269SOL    HW218444   4.262   4.370   3.444  2.5192 -2.0093 -0.8221
 2270SOL     OW18445   4.689   0.561   2.479  0.0333 -0.2911 -0.2061
 2270SOL    HW118446   4.659   0.638   2.429 -0.5118  0.8615  1.9191
 2270SOL    HW218447   0.038   0.570   2.444  0.6066 -0.3439  1.2459
 2271SOL     OW18448   4.268   3.779   7.884  0.1757  0.0625  0.0731
 2271SOL    HW118449   4.184   3.762   7.841 -0.2418 -2.5924  1.9460
 2271SOL    HW218450   4.238   3.843   7.949  0.0820  0.4868 -0.3860
 2272SOL     OW18451   3.548   1.232  12.880  0.1607 -0.4793 -0.5156
 2272SOL    HW118452   3.537   1.323  12.909 -2.6498 -0.9222 -0.2486
 2272SOL    HW218453   3.573   1.244  12.788 -0.4147 -1.4818 -0.8002
 2273SOL     OW18454   1.858   4.210   2.827  0.9918 -0.1096 -0.7368
 2273SOL    HW118455   1.854   4.116   2.810  1.6280 -0.0533 -1.1819
 2273SOL    HW218456   1.947   4.231   2.799  1.1400  0.8159  0.3960
 2274SOL     OW18457   4.579   2.827   2.872  0.1249  0.4566 -0.2809
 2274SOL    HW118458   4.558   2.742   2.832  1.6919 -0.9186  1.7766
 2274SOL    HW218459   4.673   2.842   2.859  0.6413 -1.3007  1.3141
 2275SOL     OW18460   4.134   2.374   8.857  0.3189  0.0300  0.3279
 2275SOL    HW118461   4.056   2.427   8.875  1.2910  0.8602  2.0379
 2275SOL    HW218462   4.208   2.426   8.885  0.6795 -0.7026  0.7348
 2276SOL     OW18463   0.718   4.159  16.697 -0.2505 -0.2359 -0.5182
 2276SOL    HW118464   0.643   4.205  16.661  0.5806  2.1154  0.7832
 2276SOL    HW218465   0.796   4.182  16.647 -0.4499 -0.3881 -0.9008
 2277SOL     OW18466   4.050   1.323   5.129  0.0225 -0.0351 -0.4927
 2277SOL    HW118467   3.992   1.320   5.206 -0.4686  1.7198 -0.8028
 2277SOL    HW218468   4.134   1.333   5.173  0.5339  1.4547 -1.8290
 2278SOL     OW18469   1.954   4.626   8.838  0.0304 -0.0245  0.6556
 2278SOL    HW118470   1.902   4.619   8.918 -1.4790 -1.6512 -0.4733
 2278SOL    HW218471   1.941   4.540   8.798  3.9304 -0.6514  0.7909
 2279SOL     OW18472   1.757   3.739   6.308  0.1317 -0.0806  0.0437
 2279SOL    HW118473   1.829   3.725   6.370  0.4859 -0.5016 -0.4573
 2279SOL    HW218474   1.796   3.792   6.238  1.8499 -0.1178  0.9777
 2280SOL     OW18475   4.631   0.336   5.700 -0.1230 -0.8182  0.1889
 2280SOL    HW118476   4.633   0.322   5.795  4.3649 -0.0125  0.1977
 2280SOL    HW218477   4.684   0.416   5.697 -2.7068  0.9019  0.5201
 2281SOL     OW18478   2.346   0.391   4.598  0.3087  0.1320  0.1685
 2281SOL    HW118479   2.275   0.341   4.637  0.7499 -0.1234  0.6394
 2281SOL    HW218480   2.379   0.451   4.665  0.3923  1.1378 -0.7745
 2282SOL     OW18481   1.248   2.338   2.876  0.5877  0.2096  0.0122
 2282SOL    HW118482   1.238   2.427   2.841 -1.5910 -0.0575 -0.0103
 2282SOL    HW218483   1.342   2.332   2.859  0.8295  0.6721  1.2337
 2283SOL     OW18484   3.854   3.232   7.118  0.3537 -0.2533  0.3981
 2283SOL    HW118485   3.941   3.191   7.111  0.7311  0.6229 -0.0114
 2283SOL    HW218486   3.826   3.241   7.027  0.2366 -1.1545  0.3396
 2284SOL     OW18487   2.168   0.163   9.223 -0.2493  0.0496 -0.6436
 2284SOL    HW118488   2.222   0.239   9.242 -1.5240  0.1323  2.6913
 2284SOL    HW218489   2.183   0.128   9.311 -1.1657  0.8346 -0.1775
 2285SOL     OW18490   0.957   1.528   6.042  0.0853  0.3444 -0.1194
 2285SOL    HW118491   1.045   1.543   6.076 -0.6782 -1.3599  2.6446
 2285SOL    HW218492   0.926   1.510   6.131 -2.6928 -2.2495 -1.5967
 2286SOL     OW18493   0.117   3.803   3.655  0.8033 -0.5296 -0.3011
 2286SOL    HW118494   0.113   3.707   3.652 -1.2768 -0.4474 -0.2943
 2286SOL    HW218495   0.176   3.818   3.728  1.3684 -1.5940 -0.5375
 2287SOL     OW18496   1.727   1.138   6.683  0.3127  0.0359  0.2075
 2287SOL    HW118497   1.646   1.097   6.652  0.4777  1.1329 -1.6684
 2287SOL    HW218498   1.794   1.083   6.642  0.7303  0.0615  0.8604
 2288SOL     OW18499   1.321   3.709   3.408 -0.0526  0.3297  0.3385
 2288SOL    HW118500   1.273   3.668   3.336  0.9200  0.4830 -0.3947
 2288SOL    HW218501   1.271   3.791   3.418  0.3656  0.7374 -0.9494
 2289SOL     OW18502   3.461   2.161   0.589  0.3128 -0.7182  0.1319
 2289SOL    HW118503   3.539   2.182   0.641  1.1159 -1.8811 -0.5947
 2289SOL    HW218504   3.410   2.238   0.615 -0.0138 -0.6687 -0.6824
 2290SOL     OW18505   3.920   1.436   3.872 -0.6776 -0.2644 -0.3786
 2290SOL    HW118506   3.991   1.490   3.838 -0.6186  0.4244  0.8307
 2290SOL    HW218507   3.958   1.395   3.950  0.6983 -0.8745 -1.3736
 2291SOL     OW18508   1.145   3.309   2.849  0.0006 -0.1706 -0.3993
 2291SOL    HW118509   1.191   3.262   2.779 -1.4672  0.3544 -1.7218
 2291SOL    HW218510   1.214   3.364   2.887  0.5041 -1.2773  0.2961
 2292SOL     OW18511   1.690   4.625  13.934 -0.3936 -0.2543  0.4667
 2292SOL    HW118512   1.608   4.579  13.952 -0.8623  0.9248  1.3388
 2292SOL    HW218513   1.714   4.568  13.861 -0.3105 -0.0285  0.3166
 2293SOL     OW18514   1.189   2.335   1.499 -0.2226  0.5168  0.1098
 2293SOL    HW118515   1.115   2.277   1.478  0.1275 -0.9754  3.0402
 2293SOL    HW218516   1.190   2.403   1.431 -0.2347  1.9794  1.5805
 2294SOL     OW18517   1.479   1.005   3.643  0.0080 -0.4100  0.2423
 2294SOL    HW118518   1.431   0.962   3.572 -0.8163  1.3016 -0.2216
 2294SOL    HW218519   1.446   0.964   3.723 -0.3995  0.7529  0.6661
 2295SOL     OW18520   3.690   1.777   7.373 -0.0790  0.8912 -0.9119
 2295SOL    HW118521   3.670   1.726   7.295  0.4060  0.6485 -0.8779
 2295SOL    HW218522   3.659   1.714   7.438 -0.3391  1.7963 -0.1689
 2296SOL     OW18523   4.276   2.327   0.493  0.1354 -0.3121 -0.0838
 2296SOL    HW118524   4.239   2.359   0.411  0.0049  0.0002  0.0970
 2296SOL    HW218525   4.356   2.281   0.469 -0.6934 -1.0199 -1.4506
 2297SOL     OW18526   4.708   2.157   9.528 -0.0299 -0.3431 -0.2329
 2297SOL    HW118527   0.017   2.222   9.476 -0.9689  0.0220 -0.6486
 2297SOL    HW218528   0.043   2.114   9.570  0.6939  1.2902  0.1563
 2298SOL     OW18529   3.074   1.779   3.128  0.2866 -0.0237  0.0509
 2298SOL    HW118530   3.080   1.765   3.223 -1.9839 -1.2341  0.0124
 2298SOL    HW218531   3.146   1.720   3.104 -1.7632 -2.1998 -0.7484
 2299SOL     OW18532   2.830   4.422   1.309  0.4210 -0.4927  0.1000
 2299SOL    HW118533   2.852   4.500   1.360 -2.2729 -0.7084  1.6255
 2299SOL    HW218534   2.800   4.453   1.224  0.3009  2.4591  1.2239
 2300SOL     OW18535   2.928   1.463   9.212 -0.1102  0.1880  0.0481
 2300SOL    HW118536   2.929   1.388   9.272 -0.3309 -0.1973 -0.4316
 2300SOL    HW218537   3.010   1.460   9.163  0.5867  1.6651  1.1429
 2301SOL     OW18538   0.789   3.812   3.883  0.4107 -0.6911  0.2600
 2301SOL    HW118539   0.857   3.780   3.824  0.7290 -2.6761  1.7164
 2301SOL    HW218540   0.769   3.899   3.850  0.0533 -1.8152 -2.4551
 2302SOL     OW18541   0.212   3.797   7.306  0.2503 -0.0315 -0.3670
 2302SOL    HW118542   0.291   3.753   7.340 -0.7322  0.4032  2.4785
 2302SOL    HW218543   0.219   3.788   7.211 -0.4429 -3.4824 -0.0951
 2303SOL     OW18544   2.399   2.190   6.480 -0.6715  0.1447  0.1794
 2303SOL    HW118545   2.305   2.173   6.469 -0.7269 -2.0751  3.9619
 2303SOL    HW218546   2.400   2.283   6.503  1.6717  0.3560 -0.8790
 2304SOL     OW18547   2.252   2.568   0.684  0.2833 -0.5908 -0.0558
 2304SOL    HW118548   2.250   2.483   0.728 -1.9652 -0.3490  0.2724
 2304SOL    HW218549   2.177   2.609   0.726  0.6784 -0.3358  0.4067
 2305SOL     OW18550   3.479   3.990  13.444 -0.2785  0.0781 -0.2099
 2305SOL    HW118551   3.419   3.918  13.429  0.4213 -0.2485 -1.4814
 2305SOL    HW218552   3.419   4.062  13.464 -1.8366 -1.2565 -0.0659
 2306SOL     OW18553   1.231   1.975   5.164 -0.2016 -0.1699  0.4727
 2306SOL    HW118554   1.150   2.025   5.162  0.1306  0.3348 -0.3160
 2306SOL    HW218555   1.217   1.921   5.087 -0.4049 -0.1304  0.4835
 2307SOL     OW18556   1.961   4.536   7.247  0.3892 -0.0697 -0.1863
 2307SOL    HW118557   1.895   4.500   7.306 -1.0246 -0.3833 -1.9653
 2307SOL    HW218558   2.021   4.584   7.305 -1.4389  0.4804  1.2431
 2308SOL     OW18559   2.646   2.050   4.344  0.4763  0.4945 -0.1476
 2308SOL    HW118560   2.653   2.064   4.438  0.0993  2.5077 -0.4190
 2308SOL    HW218561   2.714   2.099   4.299  1.3735  0.8033  1.5497
 2309SOL     OW18562   4.379   2.081   7.287 -0.2767 -0.5785  0.6145
 2309SOL    HW118563   4.356   2.040   7.371  2.3879 -0.4889  1.3933
 2309SOL    HW218564   4.397   2.168   7.321 -0.2111 -0.7485  1.0206
 2310SOL     OW18565   1.659   4.413  10.001  0.2095 -0.2865 -0.0393
 2310SOL    HW118566   1.676   4.505   9.982  0.7795 -0.4996 -0.5617
 2310SOL    HW218567   1.580   4.431  10.051  1.6727 -1.5396  2.7250
 2311SOL     OW18568   0.540   2.776   4.206  0.5518  0.3082  0.0704
 2311SOL    HW118569   0.523   2.784   4.300 -0.9688  3.2842 -0.4855
 2311SOL    HW218570   0.615   2.717   4.216  0.9181  0.7674  0.0477
 2312SOL     OW18571   4.290   0.379   6.864 -0.1505 -0.1037  0.2042
 2312SOL    HW118572   4.368   0.420   6.900  1.0292 -2.0230 -0.1976
 2312SOL    HW218573   4.328   0.326   6.794  0.1496 -0.4126  0.5974
 2313SOL     OW18574   2.894   0.951   8.304 -0.1733  0.1635 -0.1150
 2313SOL    HW118575   2.802   0.938   8.327 -0.7182 -1.8157 -3.4909
 2313SOL    HW218576   2.901   1.047   8.302  0.9955  0.0465 -2.3782
 2314SOL     OW18577   3.593   0.279   9.941  0.3178 -0.1010 -0.2199
 2314SOL    HW118578   3.664   0.215   9.938 -0.4179 -0.9040 -0.4477
 2314SOL    HW218579   3.584   0.286  10.036  3.9785  4.7507 -0.2039
 2315SOL     OW18580   3.431   1.059   8.977 -0.6078 -0.5722  0.5395
 2315SOL    HW118581   3.472   1.058   9.064  1.1279 -0.4617 -0.2787
 2315SOL    HW218582   3.431   1.154   8.972 -0.3876 -0.5845  0.2922
 2316SOL     OW18583   1.610   0.542   5.104 -0.0950  0.0997  0.2510
 2316SOL    HW118584   1.539   0.565   5.164  1.0723  2.3941  0.7719
 2316SOL    HW218585   1.587   0.588   5.024 -0.1945 -1.1434 -0.4258
 2317SOL     OW18586   1.453   3.380  15.750 -0.0280  0.3009  0.7288
 2317SOL    HW118587   1.507   3.396  15.828  2.5381  0.9650 -1.2022
 2317SOL    HW218588   1.459   3.469  15.714 -0.7065  0.2367  0.4651
 2318SOL     OW18589   2.651   1.466   4.556  0.1054 -0.1261  0.2140
 2318SOL    HW118590   2.696   1.423   4.484  1.9966  1.1441  0.6174
 2318SOL    HW218591   2.575   1.412   4.577  0.5337 -0.1042  1.9068
 2319SOL     OW18592   4.434   0.259   3.538  0.5207 -0.2048  0.2808
 2319SOL    HW118593   4.399   0.293   3.455  1.5048 -1.4352 -0.6315
 2319SOL    HW218594   4.389   0.318   3.598 -1.1328  0.3593 -1.5121
 2320SOL     OW18595   1.482   3.629   1.776 -0.4585  0.0800  0.1222
 2320SOL    HW118596   1.504   3.655   1.866 -2.8780 -0.6767  0.9340
 2320SOL    HW218597   1.486   3.710   1.725 -0.9832 -1.4009 -2.2468
 2321SOL     OW18598   1.052   0.289  12.108  0.4832  0.4625  0.4124
 2321SOL    HW118599   0.983   0.272  12.043  1.4554  1.7277 -0.9687
 2321SOL    HW218600   1.082   0.375  12.077 -3.6979  1.5166 -0.8388
 2322SOL     OW18601   3.474   0.244  17.054  0.3525 -0.6420  0.2677
 2322SOL    HW118602   3.412   0.230  16.983 -0.9116 -1.3377  1.4974
 2322SOL    HW218603   3.550   0.195  17.021  0.7532 -0.6874  1.2457
 2323SOL     OW18604   0.448   4.431   8.829  0.1766  0.2860  0.3924
 2323SOL    HW118605   0.440   4.336   8.836  0.1160  0.5616  3.9399
 2323SOL    HW218606   0.488   4.442   8.916 -0.0731  1.3357  0.3787
 2324SOL     OW18607   0.255   1.025   7.387 -0.2985 -0.0694 -0.2523
 2324SOL    HW118608   0.218   1.069   7.464 -0.9682 -1.3074  0.1243
 2324SOL    HW218609   0.211   0.940   7.392  0.2877 -0.1932  2.4455
 2325SOL     OW18610   2.021   4.218   0.804 -0.1431 -0.6571 -0.2449
 2325SOL    HW118611   2.063   4.245   0.886 -0.2098 -2.3511  0.3566
 2325SOL    HW218612   2.090   4.169   0.758  1.8468 -0.4153  2.4552
 2326SOL     OW18613   0.802   1.417  13.585  0.0676 -0.3837 -0.4235
 2326SOL    HW118614   0.855   1.480  13.536  2.1714 -2.1713 -0.4067
 2326SOL    HW218615   0.861   1.366  13.640  0.8994  1.3347  0.2909
 2327SOL     OW18616   0.616   1.153   2.155 -0.3746 -0.8045 -0.5517
 2327SOL    HW118617   0.609   1.057   2.162  0.2247 -0.7921  0.2939
 2327SOL    HW218618   0.704   1.182   2.177 -0.0031 -2.8640  0.7403
 2328SOL     OW18619   4.191   2.219   4.204  0.2570 -0.6300 -0.3275
 2328SOL    HW118620   4.246   2.296   4.191  1.5301 -2.0574 -3.4406
 2328SOL    HW218621   4.205   2.207   4.298 -0.5442 -0.6901 -0.2200
 2329SOL     OW18622   3.680   1.568   7.654  0.0226 -0.2197 -0.1075
 2329SOL    HW118623   3.678   1.472   7.646  1.8679 -0.3353  0.8000
 2329SOL    HW218624   3.772   1.572   7.681 -0.5741 -0.2541  1.9426
 2330SOL     OW18625   2.073   0.990   3.778  0.0689  0.4341 -0.3206
 2330SOL    HW118626   2.165   0.974   3.757 -0.7925 -2.1522 -2.0527
 2330SOL    HW218627   2.050   0.898   3.789 -1.7938  1.0647  1.0780
 2331SOL     OW18628   2.157   0.690   8.260  0.2709 -0.5003  0.1596
 2331SOL    HW118629   2.191   0.771   8.296  1.1061  0.2330 -2.2671
 2331SOL    HW218630   2.218   0.623   8.290 -0.3009 -0.3463  1.6590
 2332SOL     OW18631   0.680   3.726   1.608 -0.3400  0.2097 -0.0193
 2332SOL    HW118632   0.614   3.695   1.545 -1.2674  0.2847  0.9154
 2332SOL    HW218633   0.644   3.678   1.682  0.8335  1.0289  1.0689
 2333SOL     OW18634   0.173   3.669   8.725  0.1970 -0.3126  0.1554
 2333SOL    HW118635   0.217   3.754   8.726 -0.4789  0.0309  0.4586
 2333SOL    HW218636   0.190   3.647   8.634  0.8846 -1.4137  0.5468
 2334SOL     OW18637   0.973   1.053   2.680  0.0220  0.4630 -0.3395
 2334SOL    HW118638   0.996   1.117   2.747 -0.9892 -0.1077  0.5539
 2334SOL    HW218639   1.040   0.991   2.707 -0.6441  0.0401  0.3372
 2335SOL     OW18640   2.064   0.208   3.263  0.0134 -0.3022 -0.9155
 2335SOL    HW118641   2.018   0.235   3.183 -1.2603  0.2821 -0.0006
 2335SOL    HW218642   2.116   0.287   3.277 -0.9367  0.0614  0.6199
 2336SOL     OW18643   4.194   4.470   7.654 -0.1139 -0.2703  0.6798
 2336SOL    HW118644   4.195   4.539   7.588 -1.9975 -0.9199 -0.0367
 2336SOL    HW218645   4.239   4.406   7.599  0.1068 -0.2167  0.7985
 2337SOL     OW18646   3.214   4.587  16.146 -0.2806 -0.1083 -0.7568
 2337SOL    HW118647   3.207   4.573  16.051 -0.6492 -1.2423 -0.5664
 2337SOL    HW218648   3.148   4.655  16.161  1.0875  1.1308 -0.4120
 2338SOL     OW18649   2.476   2.757   2.434  0.2604 -0.3336  0.6584
 2338SOL    HW118650   2.406   2.692   2.428 -0.0165 -0.0008  0.2643
 2338SOL    HW218651   2.556   2.708   2.417 -1.6002 -2.1330 -2.9182
 2339SOL     OW18652   1.393   0.305   7.095 -0.1691 -0.4108 -0.4357
 2339SOL    HW118653   1.470   0.331   7.045  0.5362  0.4644  1.1103
 2339SOL    HW218654   1.369   0.215   7.073 -0.2437  0.2185 -2.9108
 2340SOL     OW18655   2.073   0.273   5.404 -0.1250 -0.0997 -0.1524
 2340SOL    HW118656   2.099   0.292   5.313  0.3867  0.4862  0.1172
 2340SOL    HW218657   2.075   0.364   5.433  0.7179  0.0898 -0.7667
 2341SOL     OW18658   4.266   4.465   4.022 -0.4440 -0.3078  0.1055
 2341SOL    HW118659   4.314   4.502   3.948 -2.0913 -0.4097 -1.0266
 2341SOL    HW218660   4.320   4.388   4.042  0.9911  0.4257 -1.0053
 2342SOL     OW18661   1.856   0.801  14.618  0.0048  0.1163  0.2196
 2342SOL    HW118662   1.928   0.741  14.638  0.8358  1.1636  0.4224
 2342SOL    HW218663   1.791   0.779  14.685 -0.0022  1.9157  0.8033
 2343SOL     OW18664   3.734   0.718   9.283  0.0950  0.0963 -0.6445
 2343SOL    HW118665   3.703   0.725   9.193  0.4436 -1.1771 -0.8689
 2343SOL    HW218666   3.821   0.679   9.269 -0.0894 -0.4589 -0.2651
 2344SOL     OW18667   4.333   1.430  16.875  0.3594 -0.7006 -0.3843
 2344SOL    HW118668   4.282   1.510  16.891 -0.4075 -1.4563  0.9096
 2344SOL    HW218669   4.401   1.424  16.942 -0.4045  0.1314  0.4756
 2345SOL     OW18670   0.300   0.730   2.683 -0.3726 -0.0796 -0.1163
 2345SOL    HW118671   0.306   0.664   2.615  2.1716 -1.7069  1.6853
 2345SOL    HW218672   0.214   0.768   2.664 -0.5460 -0.2569  0.2988
 2346SOL     OW18673   4.708   4.547   6.484 -0.2229  0.8005 -0.5185
 2346SOL    HW118674   0.038   4.537   6.549 -0.0367 -0.8844 -0.9623
 2346SOL    HW218675   0.030   4.535   6.410 -0.1879  3.0935 -0.8502
 2347SOL     OW18676   3.787   2.069   1.884 -0.2809 -0.4972 -0.3812
 2347SOL    HW118677   3.693   2.054   1.875 -0.4114 -0.3563  0.6671
 2347SOL    HW218678   3.793   2.085   1.979  0.3838 -0.0776 -0.4925
 2348SOL     OW18679   0.920   1.490  11.345  0.0028  0.1511 -0.2357
 2348SOL    HW118680   0.934   1.459  11.435 -1.6550  2.3735  0.7802
 2348SOL    HW218681   0.846   1.435  11.319 -0.4163 -0.5894  2.4585
 2349SOL     OW18682   1.129   1.529   1.664 -0.3653  0.2302  0.1082
 2349SOL    HW118683   1.151   1.436   1.656 -0.4420  0.3861 -1.8505
 2349SOL    HW218684   1.202   1.577   1.625 -0.6200  1.8175  1.5739
 2350SOL     OW18685   1.665   4.203  16.197 -0.5771 -0.5991 -0.1835
 2350SOL    HW118686   1.575   4.225  16.223 -0.2996 -0.8052  0.9373
 2350SOL    HW218687   1.662   4.108  16.198 -0.7141 -0.5444  2.7989
 2351SOL     OW18688   0.400   3.989   0.599 -0.2192 -0.5196  0.3015
 2351SOL    HW118689   0.487   4.010   0.567 -1.0403  1.3531 -0.6324
 2351SOL    HW218690   0.395   3.894   0.584  0.1440 -0.0185 -2.9919
 2352SOL     OW18691   1.282   4.666   7.248 -0.4130 -0.9110  0.0181
 2352SOL    HW118692   1.334   4.685   7.326 -0.5438  2.2261 -0.6368
 2352SOL    HW218693   1.313   4.578   7.229  0.0793 -0.8303  0.4686
 2353SOL     OW18694   1.917   0.173   6.977 -1.0843 -0.2075 -0.3889
 2353SOL    HW118695   1.959   0.106   6.922  1.6544  2.2763 -1.3528
 2353SOL    HW218696   1.877   0.216   6.902 -0.1269  0.7148 -0.3708
 2354SOL     OW18697   0.013   0.300  10.792  0.0336 -0.1180  0.0669
 2354SOL    HW118698   0.023   0.272  10.701  0.4055 -0.8073  0.3211
 2354SOL    HW218699   0.053   0.232  10.846 -1.9005 -0.0058  1.6403
 2355SOL     OW18700   1.343   2.774   2.115  0.8252 -0.5967 -0.4094
 2355SOL    HW118701   1.400   2.697   2.117  0.3391 -0.9816 -1.3317
 2355SOL    HW218702   1.405   2.846   2.101  2.3762 -1.8142  0.1528
 2356SOL     OW18703   3.903   4.163  14.304  0.4361 -0.3055 -0.3224
 2356SOL    HW118704   3.840   4.126  14.366 -0.1040  0.2676 -0.5324
 2356SOL    HW218705   3.916   4.087  14.247  1.1315 -1.4732  1.3986
 2357SOL     OW18706   2.974   4.552   5.772 -0.7338 -0.6350  0.2921
 2357SOL    HW118707   3.015   4.595   5.847 -1.2180 -1.4875  1.0433
 2357SOL    HW218708   2.978   4.460   5.800  0.4889 -0.8055 -0.4396
 2358SOL     OW18709   4.414   2.227   5.862  0.4707  0.3999  0.0053
 2358SOL    HW118710   4.450   2.188   5.782 -3.6544 -0.8670 -1.2298
 2358SOL    HW218711   4.455   2.314   5.855 -0.3157  0.6601 -1.3771
 2359SOL     OW18712   0.913   3.663   5.731 -0.2794  0.5160  0.4560
 2359SOL    HW118713   0.900   3.736   5.791 -2.4372  1.8066 -1.5948
 2359SOL    HW218714   0.910   3.584   5.786  0.3485  0.6989  0.7447
 2360SOL     OW18715   0.673   2.833   5.046 -0.5795 -0.4973  0.1160
 2360SOL    HW118716   0.665   2.928   5.055 -0.3925 -0.6530  1.8044
 2360SOL    HW218717   0.765   2.820   5.026 -0.1947 -0.8350  2.1266
 2361SOL     OW18718   3.040   3.275   7.625 -0.3482 -0.0223  0.9888
 2361SOL    HW118719   3.019   3.187   7.655 -0.9452 -0.3118 -0.2527
 2361SOL    HW218720   3.064   3.317   7.708  0.8072  0.0381  0.6300
 2362SOL     OW18721   1.933   2.743   5.033  0.2206  0.0938 -0.5887
 2362SOL    HW118722   1.865   2.806   5.058 -2.3800 -2.5550 -0.8932
 2362SOL    HW218723   1.877   2.665   5.041 -1.6119  1.4900  0.2135
 2363SOL     OW18724   3.533   4.181  14.184 -0.0265 -0.0164  0.0172
 2363SOL    HW118725   3.592   4.200  14.110  0.3331 -1.3009 -0.0187
 2363SOL    HW218726   3.505   4.271  14.200 -1.1248 -0.4668  0.6087
 2364SOL     OW18727   4.081   1.775  10.088 -0.5679 -1.0503 -0.9479
 2364SOL    HW118728   4.023   1.839  10.129  2.8211 -0.4113  2.8133
 2364SOL    HW218729   4.126   1.741  10.165  0.2579 -1.6420 -1.6857
 2365SOL     OW18730   2.424   1.590   1.979  0.2576  0.2503 -0.0804
 2365SOL    HW118731   2.440   1.609   1.887 -1.5229  0.2410 -0.3816
 2365SOL    HW218732   2.332   1.565   1.977  0.3203 -0.1345  1.9064
 2366SOL     OW18733   4.375   2.301   1.894  0.5020 -0.0050 -0.1010
 2366SOL    HW118734   4.317   2.233   1.927 -0.0480  0.9309  0.8699
 2366SOL    HW218735   4.320   2.378   1.907 -0.0869 -0.8082  2.0790
 2367SOL     OW18736   2.185   4.190   1.643 -0.2146  0.0843 -0.0916
 2367SOL    HW118737   2.162   4.280   1.619 -2.1278 -0.9033 -1.9393
 2367SOL    HW218738   2.104   4.172   1.692  1.5876 -1.3900  2.3582
 2368SOL     OW18739   3.380   0.224   0.297 -0.1671 -0.0285  0.3689
 2368SOL    HW118740   3.307   0.185   0.250  0.2832  1.0905 -1.2464
 2368SOL    HW218741   3.426   0.144   0.322  0.2549  0.3716  0.8974
 2369SOL     OW18742   2.539   0.657   0.930  0.3675 -0.0344  0.4407
 2369SOL    HW118743   2.540   0.744   0.969 -3.1733  1.4305 -2.7575
 2369SOL    HW218744   2.484   0.667   0.852 -0.2890  0.4834  0.9687
 2370SOL     OW18745   2.698   4.602   5.706 -0.0834 -0.7232  0.3693
 2370SOL    HW118746   2.790   4.584   5.724  0.1145  1.4427  1.4776
 2370SOL    HW218747   2.665   4.524   5.661 -0.4220 -1.4587  1.8991
 2371SOL     OW18748   2.112   4.139   9.795 -0.1484 -0.3029  0.4916
 2371SOL    HW118749   2.101   4.092   9.712  0.6054  1.1203 -0.4091
 2371SOL    HW218750   2.023   4.149   9.827  0.1603 -1.6912  1.8026
 2372SOL     OW18751   1.802   0.481  11.445 -0.3981 -0.2313 -0.0288
 2372SOL    HW118752   1.882   0.436  11.475  0.4829  1.1818 -0.2648
 2372SOL    HW218753   1.768   0.532  11.518  0.0914  0.0621 -0.0047
 2373SOL     OW18754   1.030   2.849  15.022 -0.2463 -0.1930  0.5374
 2373SOL    HW118755   1.091   2.908  15.068  1.3878 -0.7684 -0.9097
 2373SOL    HW218756   0.950   2.875  15.068  0.2255  0.3193  1.0709
 2374SOL     OW18757   4.592   0.572   9.846 -0.2391 -0.3473  0.9439
 2374SOL    HW118758   4.617   0.617   9.926  3.3703 -1.0059  0.1954
 2374SOL    HW218759   4.497   0.572   9.852 -0.2390 -0.0023  0.9343
 2375SOL     OW18760   3.443   1.390   7.077  0.4312  0.7388 -0.7326
 2375SOL    HW118761   3.403   1.432   7.001  0.6887  1.1886 -0.6196
 2375SOL    HW218762   3.370   1.353   7.127  0.6171  1.2550 -0.0801
 2376SOL     OW18763   4.051   3.188  11.283 -0.0264 -0.0663 -0.4494
 2376SOL    HW118764   3.982   3.122  11.275 -0.3834  0.2986 -0.4075
 2376SOL    HW218765   4.026   3.240  11.207  1.7016 -2.0112 -2.3362
 2377SOL     OW18766   3.220   0.441   5.931  0.7155  0.3699  0.0833
 2377SOL    HW118767   3.282   0.432   5.859 -0.8963  0.1798 -1.2693
 2377SOL    HW218768   3.140   0.410   5.889  1.5480 -2.9384  1.0084
 2378SOL     OW18769   3.116   0.744   1.069  0.1849  0.5139  0.0797
 2378SOL    HW118770   3.085   0.835   1.065 -1.2939  0.0935  1.8193
 2378SOL    HW218771   3.042   0.707   1.117  0.1672  0.4264 -0.0151
 2379SOL     OW18772   0.555   4.467   6.251 -0.0449 -0.5300  0.1633
 2379SOL    HW118773   0.548   4.389   6.307 -0.9800 -1.1357 -0.7957
 2379SOL    HW218774   0.637   4.450   6.206 -0.1265 -0.8853  0.1430
 2380SOL     OW18775   3.011   1.145  17.411  0.0078  0.3517  0.0551
 2380SOL    HW118776   3.021   1.163  17.505  1.3546  1.5466 -0.3169
 2380SOL    HW218777   2.982   1.227  17.370  0.6531 -0.0455 -1.1674
 2381SOL     OW18778   0.305   0.969  11.670  0.1790 -0.1948  0.0905
 2381SOL    HW118779   0.333   1.007  11.754  1.0429  1.0841 -0.7716
 2381SOL    HW218780   0.217   0.940  11.694  0.4347 -1.0041  0.0573
 2382SOL     OW18781   4.655   2.044   0.667  0.3438  0.2619 -0.5631
 2382SOL    HW118782   4.737   2.063   0.622  0.1849  0.1137 -0.9123
 2382SOL    HW218783   4.683   1.974   0.727 -1.0703 -0.3379 -0.6064
 2383SOL     OW18784   2.337   3.947   8.289 -0.0461  0.1863 -0.1122
 2383SOL    HW118785   2.359   4.038   8.312  1.4997 -0.5416  1.3493
 2383SOL    HW218786   2.424   3.906   8.286 -0.2835 -0.1796 -1.7453
 2384SOL     OW18787   0.635   0.787   4.847 -0.5537  0.3443  0.2176
 2384SOL    HW118788   0.681   0.704   4.835 -0.6026  0.4227 -0.4737
 2384SOL    HW218789   0.704   0.846   4.817 -0.5460  0.5845  0.6970
 2385SOL     OW18790   1.861   1.431   1.047  0.2157 -0.1260 -0.3075
 2385SOL    HW118791   1.848   1.365   0.979 -0.3605 -2.5430  2.1676
 2385SOL    HW218792   1.956   1.428   1.045  0.3038  1.1642  1.7017
 2386SOL     OW18793   1.233   1.834   5.678  0.4658  0.3703  0.5396
 2386SOL    HW118794   1.226   1.846   5.583  0.0814 -1.9811  0.2848
 2386SOL    HW218795   1.327   1.851   5.681  0.7362 -0.6847 -1.8713
 2387SOL     OW18796   2.526   1.214   6.465  0.0210 -0.1882 -0.2730
 2387SOL    HW118797   2.615   1.218   6.429  0.3868  0.2496  0.6813
 2387SOL    HW218798   2.510   1.299   6.507  2.1325  0.7744 -1.4516
 2388SOL     OW18799   2.716   2.691   7.634 -0.2146 -0.0282 -0.2821
 2388SOL    HW118800   2.728   2.666   7.726 -1.6458  2.2745  0.5469
 2388SOL    HW218801   2.793   2.658   7.588  0.3603 -1.9417  2.0239
 2389SOL     OW18802   0.631   2.777   6.696 -0.2281  0.4074  0.0326
 2389SOL    HW118803   0.562   2.713   6.715 -0.5989  0.0411 -2.5004
 2389SOL    HW218804   0.706   2.728   6.730 -0.6591  0.5895  1.2446
 2390SOL     OW18805   0.107   4.620   4.487 -0.0316  1.0503 -0.2405
 2390SOL    HW118806   0.164   4.612   4.563  0.4198 -1.1976 -0.7911
 2390SOL    HW218807   0.023   4.623   4.533 -1.4557 -1.0143 -2.6463
 2391SOL     OW18808   2.869   3.839   6.088 -0.4486 -0.5352 -0.0564
 2391SOL    HW118809   2.894   3.761   6.040  1.9902 -0.8808  1.7874
 2391SOL    HW218810   2.787   3.804   6.123 -0.2852 -0.6215  0.2408
 2392SOL     OW18811   0.336   0.794   4.729  0.8201 -0.7394 -0.1768
 2392SOL    HW118812   0.265   0.777   4.667 -0.1206 -0.4718  0.8123
 2392SOL    HW218813   0.297   0.782   4.816  1.6041 -0.2285  0.2431
 2393SOL     OW18814   3.226   1.041   4.193  0.0616 -0.0017  0.0103
 2393SOL    HW118815   3.200   1.022   4.103 -1.1427 -0.7449  0.5303
 2393SOL    HW218816   3.135   1.054   4.219  0.5374  2.5972  0.3877
 2394SOL     OW18817   0.511   0.317   1.514  0.1521  0.0049 -0.0393
 2394SOL    HW118818   0.448   0.299   1.584 -0.0270  0.3943 -0.0991
 2394SOL    HW218819   0.510   0.242   1.455  1.9083  1.9175 -2.5141
 2395SOL     OW18820   1.303   3.929   3.111 -0.3679  0.4222  0.4004
 2395SOL    HW118821   1.288   3.887   3.196 -1.7822 -1.0286 -0.5597
 2395SOL    HW218822   1.334   4.016   3.135 -0.3236  0.6217 -0.3798
 2396SOL     OW18823   2.730   2.074   5.380  0.5091 -0.2632  0.3985
 2396SOL    HW118824   2.721   2.154   5.432  0.1318 -0.0055 -0.0699
 2396SOL    HW218825   2.650   2.076   5.328  0.4986  1.0024  0.4746
 2397SOL     OW18826   1.369   1.124   9.070 -0.5298  0.7696 -0.7758
 2397SOL    HW118827   1.331   1.039   9.048  0.6024  0.0262  0.1622
 2397SOL    HW218828   1.462   1.117   9.047 -0.2970 -0.4733  0.5568
 2398SOL     OW18829   2.693   2.881   2.863  0.8788 -0.2364  0.3308
 2398SOL    HW118830   2.668   2.966   2.898  0.4292  0.2213 -1.0874
 2398SOL    HW218831   2.782   2.872   2.898  1.3263  0.9754 -0.5175
 2399SOL     OW18832   4.075   2.750   1.004 -0.5559 -0.5737  0.0166
 2399SOL    HW118833   3.988   2.763   1.042 -0.8684 -0.8268 -0.6066
 2399SOL    HW218834   4.062   2.662   0.969 -3.3236 -1.0190  2.1658
 2400SOL     OW18835   1.678   4.709   9.689  0.3247 -0.4954  0.2418
 2400SOL    HW118836   1.690   4.614   9.681  0.0162 -0.3190 -2.4093
 2400SOL    HW218837   1.675   4.712   9.785 -0.4149  1.3511  0.1632
 2401SOL     OW18838   0.698   4.190   7.164  0.4672  0.3281 -0.4998
 2401SOL    HW118839   0.664   4.253   7.227  1.9293  1.9947 -1.3903
 2401SOL    HW218840   0.675   4.102   7.193  2.0732 -0.2825 -1.1038
 2402SOL     OW18841   4.678   4.539   7.063  0.3412  0.7507  0.2612
 2402SOL    HW118842   4.608   4.563   7.124 -1.8000  0.0826 -1.9396
 2402SOL    HW218843   4.631   4.476   7.008  0.9416  0.3138  0.2523
 2403SOL     OW18844   2.407   1.347  16.651 -0.0190  0.1627  0.2186
 2403SOL    HW118845   2.354   1.409  16.601  0.2977  1.0025  0.9260
 2403SOL    HW218846   2.403   1.269  16.595  2.1806  2.1640 -2.7417
 2404SOL     OW18847   0.452   0.113   7.208 -0.4204  0.0803  0.7040
 2404SOL    HW118848   0.510   0.039   7.229 -0.3566 -0.7039 -2.2947
 2404SOL    HW218849   0.396   0.103   7.285  0.5090  0.8688  1.4834
 2405SOL     OW18850   1.450   1.191   4.264 -0.3028 -0.0258  0.2886
 2405SOL    HW118851   1.462   1.144   4.181  0.1165 -0.3467  0.5289
 2405SOL    HW218852   1.355   1.192   4.263 -0.2850  1.3977 -0.3098
 2406SOL     OW18853   0.085   4.656   7.920  0.0972 -0.2265 -0.5511
 2406SOL    HW118854   0.048   4.671   7.833  1.3595  1.7049 -0.7533
 2406SOL    HW218855   0.035   4.575   7.929 -1.3741  0.5906 -1.4400
 2407SOL     OW18856   4.021   0.429   4.507  0.0638  0.1599 -0.0486
 2407SOL    HW118857   4.116   0.445   4.513  0.2750 -0.9031 -0.5336
 2407SOL    HW218858   3.987   0.499   4.453  0.9026  0.3075 -0.3842
 2408SOL     OW18859   1.933   3.402   8.553  0.3110  0.0724 -0.2930
 2408SOL    HW118860   1.912   3.315   8.586 -1.3862  1.3779  2.0250
 2408SOL    HW218861   2.007   3.374   8.499 -1.9611 -1.3398 -2.6805
 2409SOL     OW18862   1.651   0.289   6.320 -0.2356 -0.1873 -0.4013
 2409SOL    HW118863   1.711   0.353   6.358 -1.7001  1.5952 -1.0859
 2409SOL    HW218864   1.644   0.224   6.390  1.2257  1.6134  1.4198
 2410SOL     OW18865   2.363   3.856   1.298  0.8667  0.6293  0.1069
 2410SOL    HW118866   2.402   3.903   1.224  2.5122 -0.9603 -0.0192
 2410SOL    HW218867   2.294   3.920   1.318 -0.2946 -0.9898  1.2367
 2411SOL     OW18868   2.953   0.073   5.030 -0.1239  0.2215  0.1412
 2411SOL    HW118869   2.864   0.074   5.064 -0.4677 -0.5833 -0.7244
 2411SOL    HW218870   3.000   0.146   5.069  0.9539 -1.1182  1.3515
 2412SOL     OW18871   1.724   4.440   9.651 -0.0214 -0.2057  0.3061
 2412SOL    HW118872   1.754   4.383   9.722  0.1908  0.9788  1.1475
 2412SOL    HW218873   1.802   4.442   9.596 -0.8855 -0.4908 -0.9584
 2413SOL     OW18874   1.150   2.019   1.983 -0.2224  0.1410 -0.4360
 2413SOL    HW118875   1.173   1.935   2.023 -0.7435 -0.9088 -2.3237
 2413SOL    HW218876   1.130   1.993   1.893  0.3508  0.4254 -0.6489
 2414SOL     OW18877   3.345   1.508   1.993 -0.1772 -0.2531 -0.2403
 2414SOL    HW118878   3.277   1.458   1.947  1.2197 -1.5756 -0.8402
 2414SOL    HW218879   3.420   1.501   1.933  0.9706  0.0659  1.1791
 2415SOL     OW18880   3.409   1.466   7.751 -0.3456  0.1442  0.6744
 2415SOL    HW118881   3.401   1.424   7.665  0.1995  0.0056  0.6901
 2415SOL    HW218882   3.344   1.413   7.796  0.5408 -0.7080  0.9615
 2416SOL     OW18883   0.073   2.118   3.298  0.0905 -0.0093 -0.2868
 2416SOL    HW118884   0.119   2.121   3.383  1.7936 -1.5710 -1.1529
 2416SOL    HW218885   0.020   2.197   3.297  0.8263  0.4290 -3.0032
 2417SOL     OW18886   1.939   4.446  17.392  0.0400 -0.2158 -0.1058
 2417SOL    HW118887   1.945   4.368  17.338 -1.0057  0.1453 -0.7339
 2417SOL    HW218888   2.007   4.498  17.350  0.2115  0.4477  0.9907
 2418SOL     OW18889   2.163   4.031   1.376  0.5031  0.0707 -0.0196
 2418SOL    HW118890   2.196   4.084   1.448  0.7730  2.2787 -1.7756
 2418SOL    HW218891   2.103   3.973   1.424 -0.9945  2.4737  1.0255
 2419SOL     OW18892   0.713   2.564  13.784 -0.1015 -0.3351  0.1575
 2419SOL    HW118893   0.650   2.603  13.724 -0.6634 -1.4537  0.0099
 2419SOL    HW218894   0.677   2.589  13.870  0.6235 -1.4280  0.7782
 2420SOL     OW18895   1.101   1.226   7.052 -0.6298 -0.2878 -0.5157
 2420SOL    HW118896   1.047   1.270   7.118  0.2894  2.3513 -1.5187
 2420SOL    HW218897   1.142   1.295   6.999  0.7186  0.3423  1.3267
 2421SOL     OW18898   4.463   3.005   2.679 -0.1224  0.8328  0.4126
 2421SOL    HW118899   4.491   2.933   2.736 -0.6152  0.6335  0.4090
 2421SOL    HW218900   4.367   3.005   2.679 -0.1219  0.7070 -0.0406
 2422SOL     OW18901   2.206   0.880   1.241  0.0322  0.1472  0.0882
 2422SOL    HW118902   2.268   0.813   1.271 -1.8453 -1.0108  1.4326
 2422SOL    HW218903   2.135   0.859   1.302  2.0734 -1.8990  1.7600
 2423SOL     OW18904   2.152   4.710   3.734 -0.1399  0.2888 -0.5526
 2423SOL    HW118905   2.196   4.687   3.652  4.1111  1.3641  1.4279
 2423SOL    HW218906   2.063   4.677   3.721 -0.2026 -1.2864  4.0947
 2424SOL     OW18907   2.162   0.269   1.269  0.0857  0.1287  0.2393
 2424SOL    HW118908   2.168   0.327   1.345  1.2575 -0.1543  0.3576
 2424SOL    HW218909   2.176   0.332   1.198 -0.9472 -0.9228 -0.9122
 2425SOL     OW18910   4.018   3.411   2.056  0.1129 -0.0206  0.5938
 2425SOL    HW118911   4.049   3.383   1.970 -0.6410  2.0184 -0.3374
 2425SOL    HW218912   4.102   3.435   2.096  0.8612 -0.4948 -0.7016
 2426SOL     OW18913   4.159   3.113   5.771 -0.1577 -0.1406 -0.5759
 2426SOL    HW118914   4.187   3.122   5.862  0.6397  0.6174 -0.8994
 2426SOL    HW218915   4.175   3.019   5.771  0.9802  0.0463  2.1209
 2427SOL     OW18916   1.096   1.538   0.634 -0.5090 -0.6909  0.0621
 2427SOL    HW118917   1.045   1.587   0.699 -2.0625 -0.7639 -1.0925
 2427SOL    HW218918   1.023   1.508   0.578  1.6013  0.0757 -3.0774
 2428SOL     OW18919   2.288   0.866   8.960 -0.7005  0.0070  0.3280
 2428SOL    HW118920   2.380   0.855   8.936 -0.9989  0.6899 -1.0992
 2428SOL    HW218921   2.246   0.878   8.875 -2.8045 -0.5979  1.2850
 2429SOL     OW18922   0.484   0.442   3.696 -0.6894  0.3256  0.0653
 2429SOL    HW118923   0.569   0.438   3.740 -0.4572  0.2872 -0.3828
 2429SOL    HW218924   0.455   0.531   3.712 -0.6947 -0.0113  1.8895
 2430SOL     OW18925   1.928   4.082  12.323  0.3429  0.2313 -0.3607
 2430SOL    HW118926   1.950   4.109  12.233  0.6184 -0.7298 -0.5766
 2430SOL    HW218927   2.013   4.048  12.351  0.0376  0.1714  0.4956
 2431SOL     OW18928   3.853   1.284   6.223 -0.3806  0.1175 -0.2160
 2431SOL    HW118929   3.796   1.220   6.265  0.0101 -0.6999 -0.9335
 2431SOL    HW218930   3.887   1.234   6.149  0.3256 -0.4651  0.5092
 2432SOL     OW18931   3.317   0.638  10.346 -0.1375  0.5805 -0.1956
 2432SOL    HW118932   3.292   0.620  10.255 -0.9419 -0.5657  0.2378
 2432SOL    HW218933   3.354   0.556  10.380  1.3170  1.2532 -0.1916
 2433SOL     OW18934   2.137   0.318  17.002  0.3941 -0.0098 -0.6529
 2433SOL    HW118935   2.066   0.278  17.053 -1.1549  2.4657 -0.9010
 2433SOL    HW218936   2.091   0.332  16.919 -0.6041  0.7379  0.0329
 2434SOL     OW18937   1.345   3.325   9.018 -0.4720 -0.2676  0.5078
 2434SOL    HW118938   1.308   3.253   8.968  0.5272  0.0362 -0.6825
 2434SOL    HW218939   1.274   3.386   9.037 -0.3386  0.9218 -2.8772
 2435SOL     OW18940   1.421   2.917   7.336  0.2859  0.2698 -0.2325
 2435SOL    HW118941   1.461   2.878   7.259  2.5529 -0.0812  1.1126
 2435SOL    HW218942   1.474   2.875   7.404  0.8050  0.5097 -0.4927
 2436SOL     OW18943   1.469   4.457   7.181  0.5212  0.9203  0.3907
 2436SOL    HW118944   1.541   4.517   7.203  0.1214  0.9681  1.5272
 2436SOL    HW218945   1.498   4.379   7.229 -0.1394  0.3814 -0.0794
 2437SOL     OW18946   4.461   0.138   9.580  0.4532  0.0507 -0.4293
 2437SOL    HW118947   4.541   0.174   9.541 -0.0618  0.0307 -1.5003
 2437SOL    HW218948   4.480   0.144   9.673  0.5581 -2.0833 -0.3129
 2438SOL     OW18949   3.019   2.894   3.524 -0.3688 -0.1634 -0.0949
 2438SOL    HW118950   2.983   2.981   3.541  1.4166  0.2589  1.5545
 2438SOL    HW218951   2.943   2.839   3.506  0.3934 -1.4726  0.6130
 2439SOL     OW18952   4.043   4.523   7.877  0.3589  0.1479  0.3527
 2439SOL    HW118953   4.100   4.493   7.807 -0.7849 -4.1064  1.2291
 2439SOL    HW218954   3.982   4.450   7.864 -0.2843  0.9520 -1.1028
 2440SOL     OW18955   3.574   1.475  13.217  0.4044  0.2043  0.0708
 2440SOL    HW118956   3.588   1.447  13.126 -1.1138  0.0103 -0.0886
 2440SOL    HW218957   3.571   1.391  13.263 -0.2938 -0.3251 -0.9496
 2441SOL     OW18958   4.152   1.787  15.966 -0.2518 -0.0984 -0.0051
 2441SOL    HW118959   4.194   1.780  15.881 -0.2489 -1.6592  0.1239
 2441SOL    HW218960   4.230   1.801  16.020 -1.1815 -2.9808  2.0704
 2442SOL     OW18961   2.391   3.567   6.416  0.2933  0.2281 -0.1549
 2442SOL    HW118962   2.377   3.474   6.399  1.6953  0.3013 -1.7000
 2442SOL    HW218963   2.312   3.576   6.469  1.0609  1.6338  0.7393
 2443SOL     OW18964   1.748   2.719   9.039  0.3463  0.6581 -0.1863
 2443SOL    HW118965   1.724   2.712   8.947  2.0774 -1.9982 -0.4544
 2443SOL    HW218966   1.841   2.704   9.019 -0.0116  1.8390 -2.6004
 2444SOL     OW18967   1.274   1.261   1.595 -0.8330 -0.0128 -0.2414
 2444SOL    HW118968   1.299   1.266   1.502 -0.8311 -0.6451 -0.2757
 2444SOL    HW218969   1.283   1.167   1.610 -0.2083 -0.3605 -2.6277
 2445SOL     OW18970   4.226   1.897  14.740 -0.0658 -0.1860  0.1459
 2445SOL    HW118971   4.150   1.905  14.799 -0.5812 -0.4722 -0.4805
 2445SOL    HW218972   4.301   1.921  14.794 -1.3160  0.0124  1.7853
 2446SOL     OW18973   3.243   2.114   3.415 -0.5175 -0.2182  0.1962
 2446SOL    HW118974   3.246   2.182   3.348  1.2422 -1.8307 -1.3696
 2446SOL    HW218975   3.199   2.163   3.484  1.4145 -3.2956  3.5932
 2447SOL     OW18976   1.048   2.913  15.497 -0.3446 -0.5706 -0.1418
 2447SOL    HW118977   1.136   2.878  15.480  0.2788 -0.2952  2.6159
 2447SOL    HW218978   1.044   2.913  15.592  0.4436  2.1013 -0.1120
 2448SOL     OW18979   0.334   3.672   5.433  0.1321 -0.3753  0.0680
 2448SOL    HW118980   0.311   3.683   5.341  0.2999  1.6489  0.2777
 2448SOL    HW218981   0.371   3.584   5.443  1.2725  0.3411  1.9822
 2449SOL     OW18982   1.590   0.091  16.394 -0.0378 -0.1252 -0.2428
 2449SOL    HW118983   1.660   0.027  16.411 -0.7335 -0.7278  0.3461
 2449SOL    HW218984   1.530   0.053  16.330  0.4141 -1.8507  0.3572
 2450SOL     OW18985   1.410   2.486   3.569  0.3388  0.0213 -0.0484
 2450SOL    HW118986   1.398   2.557   3.506 -2.3346  1.3718  1.9785
 2450SOL    HW218987   1.432   2.419   3.504 -1.0279  0.6351 -1.1332
 2451SOL     OW18988   1.503   0.053   6.541  0.6316 -0.4575  1.0419
 2451SOL    HW118989   1.435   0.120   6.553  0.7676 -0.0161 -0.6029
 2451SOL    HW218990   1.471   4.726   6.602 -1.3680 -2.3997 -2.1716
 2452SOL     OW18991   0.623   3.017  10.915  0.4593  0.3059  0.2545
 2452SOL    HW118992   0.632   3.096  10.969 -3.7563 -0.5075  2.1627
 2452SOL    HW218993   0.629   2.949  10.982  0.2887  1.1169  1.0917
 2453SOL     OW18994   4.512   0.123   5.556  0.7955 -1.0819  0.3752
 2453SOL    HW118995   4.547   0.176   5.484  1.2175 -0.1209  1.2854
 2453SOL    HW218996   4.520   0.191   5.624 -1.5025  0.6620 -1.0906
 2454SOL     OW18997   1.927   1.769   6.503  0.4056  0.2033 -0.2917
 2454SOL    HW118998   1.850   1.740   6.553  1.6549 -0.4198  1.2478
 2454SOL    HW218999   1.924   1.714   6.424 -0.4184  2.5293 -1.8913
 2455SOL     OW19000   3.635   3.070   5.193  0.6016 -0.0798  0.4824
 2455SOL    HW119001   3.681   2.986   5.201 -2.4161 -1.8384 -0.5094
 2455SOL    HW219002   3.562   3.058   5.254 -0.5132  3.0783 -0.2338
 2456SOL     OW19003   0.917   0.128  11.127 -0.7663 -0.2461 -0.6227
 2456SOL    HW119004   0.985   0.168  11.074 -0.1141  1.2014  1.3191
 2456SOL    HW219005   0.937   0.035  11.116  1.1819  0.4802 -3.2139
 2457SOL     OW19006   2.457   2.894   1.833  0.7972 -0.0334  0.3377
 2457SOL    HW119007   2.385   2.867   1.776 -0.2666  1.8934  0.7602
 2457SOL    HW219008   2.448   2.850   1.918  0.9633  0.8828  0.8258
 2458SOL     OW19009   2.886   0.863   6.058  0.1157  0.7817  0.5832
 2458SOL    HW119010   2.847   0.809   5.989 -1.4338  2.2565  0.2910
 2458SOL    HW219011   2.841   0.947   6.044 -1.7808 -0.7821 -2.7612
 2459SOL     OW19012   2.162   4.456   1.615 -0.6186 -0.0697 -0.4161
 2459SOL    HW119013   2.117   4.522   1.667 -2.1716 -1.6585  0.2672
 2459SOL    HW219014   2.238   4.496   1.574  1.1456 -1.6893  1.2567
 2460SOL     OW19015   3.399   3.396   0.441  0.2693 -0.0554  0.5585
 2460SOL    HW119016   3.448   3.467   0.481 -0.7276  0.6128  0.5798
 2460SOL    HW219017   3.464   3.327   0.431  2.6031  2.0159  1.6357
 2461SOL     OW19018   1.606   0.288  16.114  0.0858 -0.6024 -0.0850
 2461SOL    HW119019   1.524   0.270  16.067 -0.9020 -0.0591  1.4330
 2461SOL    HW219020   1.660   0.321  16.042 -2.0978  1.4727 -0.7983
 2462SOL     OW19021   2.817   1.762   3.488  0.0541 -0.0815  0.0546
 2462SOL    HW119022   2.903   1.804   3.483  0.1003 -0.2440 -0.5782
 2462SOL    HW219023   2.770   1.812   3.421  1.3299 -0.1720 -0.9123
 2463SOL     OW19024   3.850   4.092   9.626  0.2482 -0.3282 -0.5112
 2463SOL    HW119025   3.904   4.013   9.620  0.1870 -0.4565  0.6396
 2463SOL    HW219026   3.896   4.144   9.692 -0.7181  0.4885 -0.4846
 2464SOL     OW19027   1.300   3.537  11.501  0.2015  0.1211 -0.3920
 2464SOL    HW119028   1.350   3.507  11.425 -1.0981 -3.0102 -0.0149
 2464SOL    HW219029   1.219   3.555  11.454 -0.9096  0.5667  1.6698
 2465SOL     OW19030   4.723   2.060   5.870 -0.3200 -0.6923  0.0869
 2465SOL    HW119031   4.665   1.985   5.883 -0.0263 -1.1841 -1.3773
 2465SOL    HW219032   0.047   2.048   5.940  0.1550 -0.4110 -0.2932
 2466SOL     OW19033   3.426   2.571   9.449  0.5876 -0.0223  0.5694
 2466SOL    HW119034   3.423   2.605   9.538 -0.4624  0.9347  0.1605
 2466SOL    HW219035   3.518   2.588   9.430 -0.3012  0.7873 -3.0958
 2467SOL     OW19036   0.965   2.914   4.586  0.1743  0.1386  0.3769
 2467SOL    HW119037   0.950   2.867   4.668  0.4209 -1.9152 -0.7651
 2467SOL    HW219038   0.998   2.996   4.623 -1.8429 -0.1737  2.8904
 2468SOL     OW19039   0.754   4.441   7.984 -0.4976 -0.1678  0.5797
 2468SOL    HW119040   0.746   4.502   7.910  0.5186  1.2910  1.6614
 2468SOL    HW219041   0.758   4.358   7.937 -1.8232 -0.3489  0.7958
 2469SOL     OW19042   2.337   0.772   6.369  0.0900  0.2861  0.3590
 2469SOL    HW119043   2.420   0.725   6.373 -0.5291 -0.7632  0.7413
 2469SOL    HW219044   2.361   0.835   6.437  1.1494  1.5774 -1.2262
 2470SOL     OW19045   0.922   0.494  10.085 -0.2904  0.0796 -0.0720
 2470SOL    HW119046   1.007   0.461  10.114 -0.5295 -1.2461 -0.8934
 2470SOL    HW219047   0.916   0.581  10.126  1.4489 -0.4867  1.3468
 2471SOL     OW19048   1.084   1.405  10.462  0.4962  0.7293 -0.4080
 2471SOL    HW119049   1.174   1.416  10.492  0.6776  2.2316 -1.5345
 2471SOL    HW219050   1.071   1.317  10.498  2.2437  1.0036  0.8889
 2472SOL     OW19051   1.207   0.164   0.713 -0.2208 -0.2854  0.6009
 2472SOL    HW119052   1.157   0.086   0.734 -2.8754  0.4432 -3.0281
 2472SOL    HW219053   1.189   0.164   0.619  1.4610 -5.1545  0.2875
 2473SOL     OW19054   4.430   1.356   8.834  0.0812  0.0881  0.0768
 2473SOL    HW119055   4.446   1.283   8.774 -0.9833 -0.6200  0.6506
 2473SOL    HW219056   4.499   1.417   8.809 -0.0355  0.3793  0.4814
 2474SOL     OW19057   4.125   4.170   5.571 -0.0625  0.0519 -0.1067
 2474SOL    HW119058   4.160   4.121   5.496  0.3944 -0.1742  0.2587
 2474SOL    HW219059   4.039   4.128   5.570  0.1158 -0.3168  0.5805
 2475SOL     OW19060   2.280   2.166   7.518  0.2602 -0.2382 -0.1972
 2475SOL    HW119061   2.272   2.168   7.613 -1.6192 -2.7644 -0.3185
 2475SOL    HW219062   2.203   2.216   7.491 -0.6305 -1.5965 -0.1230
 2476SOL     OW19063   3.570   1.011   3.834 -0.4259  0.7284  0.4401
 2476SOL    HW119064   3.531   1.099   3.838  2.0264  1.8798 -0.8950
 2476SOL    HW219065   3.617   1.006   3.751 -2.2015 -0.9093 -0.4742
 2477SOL     OW19066   1.972   2.342   6.976  0.0693 -0.0557  0.4695
 2477SOL    HW119067   1.952   2.249   6.974 -1.2423  0.2132  1.2074
 2477SOL    HW219068   1.938   2.373   6.892 -0.0288  0.0694  0.5551
 2478SOL     OW19069   3.846   3.096   9.451 -0.9145 -0.6204  0.2983
 2478SOL    HW119070   3.903   3.154   9.502 -0.4302  0.6263 -1.6251
 2478SOL    HW219071   3.763   3.144   9.457 -0.2372  0.3738  1.8328
 2479SOL     OW19072   1.015   3.937   5.777  0.1758  0.2252  0.2895
 2479SOL    HW119073   1.043   4.012   5.726  1.8599 -1.8589 -1.8498
 2479SOL    HW219074   0.935   3.976   5.813 -0.1611 -0.6085  0.4404
 2480SOL     OW19075   4.706   2.904   5.905 -0.4437  0.2399 -0.3309
 2480SOL    HW119076   0.053   2.882   5.940 -1.5121 -1.2983  1.3566
 2480SOL    HW219077   4.656   2.824   5.922 -0.9814  1.2590  2.7696
 2481SOL     OW19078   0.574   0.055   4.807  0.1583 -0.3585 -0.1397
 2481SOL    HW119079   0.610   0.101   4.731  0.0038  1.0480  0.6583
 2481SOL    HW219080   0.650   0.004   4.837 -1.8179 -1.8346  2.3339
 2482SOL     OW19081   4.489   2.608   4.223 -0.2484 -0.0611  0.1172
 2482SOL    HW119082   4.536   2.649   4.295  0.5299  1.2750 -1.1624
 2482SOL    HW219083   4.559   2.605   4.159 -0.5532 -2.7554 -0.0582
 2483SOL     OW19084   1.859   3.202  11.721 -0.2180 -0.2599 -0.0883
 2483SOL    HW119085   1.790   3.238  11.666  0.5679  0.9573 -0.2768
 2483SOL    HW219086   1.880   3.272  11.784  1.6422  0.8730 -1.9692
 2484SOL     OW19087   1.662   4.106   7.433 -0.3111  0.2994  0.3356
 2484SOL    HW119088   1.675   4.157   7.352  1.3695 -0.1751  0.3097
 2484SOL    HW219089   1.586   4.053   7.407 -1.4407  0.8452  2.5332
 2485SOL     OW19090   1.451   1.855   4.591 -0.3811  0.7594  0.2624
 2485SOL    HW119091   1.415   1.932   4.636  0.9222  1.6314 -0.1806
 2485SOL    HW219092   1.399   1.851   4.511  0.1137  0.8925 -0.0620
 2486SOL     OW19093   0.586   3.039  14.278 -0.8015  0.6454 -0.8637
 2486SOL    HW119094   0.528   3.048  14.202 -3.4713 -1.7450  0.9076
 2486SOL    HW219095   0.645   2.968  14.254 -1.3760 -0.3490  0.7471
 2487SOL     OW19096   1.180   0.694   5.114  0.2902 -0.1647  0.5656
 2487SOL    HW119097   1.197   0.785   5.089 -0.7828 -0.7960 -2.4729
 2487SOL    HW219098   1.271   0.665   5.126  0.8744  1.0467 -1.0604
 2488SOL     OW19099   4.672   0.373   9.704 -0.4258 -0.1836 -0.3167
 2488SOL    HW119100   4.644   0.301   9.760  2.5919 -1.0381  0.1377
 2488SOL    HW219101   4.652   0.457   9.746 -0.2732 -0.2674 -0.0724
 2489SOL     OW19102   0.535   1.585   5.885 -0.3181 -0.1387 -0.0851
 2489SOL    HW119103   0.625   1.619   5.890 -0.7153  0.5681  2.5266
 2489SOL    HW219104   0.541   1.516   5.951 -2.7458  1.1766  1.5375
 2490SOL     OW19105   0.310   3.957   9.827  0.4067 -0.1845 -0.0682
 2490SOL    HW119106   0.286   4.048   9.811  0.5834  0.2362  1.9705
 2490SOL    HW219107   0.366   3.965   9.904 -2.6222  2.3615  1.9057
 2491SOL     OW19108   1.234   2.958  12.382 -0.5149 -0.2701  0.0619
 2491SOL    HW119109   1.299   3.015  12.342  2.1546 -3.8946 -0.7748
 2491SOL    HW219110   1.274   2.872  12.366 -1.4229 -0.8538  0.9191
 2492SOL     OW19111   0.288   2.240  13.234 -0.3530  0.2283  0.2951
 2492SOL    HW119112   0.216   2.302  13.228 -2.1822 -2.0527 -1.0110
 2492SOL    HW219113   0.254   2.172  13.292  1.1414 -0.9717 -0.2223
 2493SOL     OW19114   4.103   4.392   0.813  0.3604 -0.2233 -0.0399
 2493SOL    HW119115   4.128   4.316   0.866  0.0673  0.0670  0.5205
 2493SOL    HW219116   4.058   4.433   0.887 -1.6939 -0.5691 -1.1066
 2494SOL     OW19117   4.551   3.440   9.461 -0.5847  0.2638 -0.7352
 2494SOL    HW119118   4.594   3.408   9.540 -1.4881  1.2259  0.1382
 2494SOL    HW219119   4.626   3.483   9.420 -0.6004  1.1193  0.1446
 2495SOL     OW19120   3.989   1.191   5.611 -0.2017 -0.0239  0.3395
 2495SOL    HW119121   4.057   1.156   5.668  0.5312  1.2734  0.2515
 2495SOL    HW219122   3.914   1.148   5.652 -0.7752 -1.2503 -1.9890
 2496SOL     OW19123   0.723   4.278   9.791  0.0798  0.0342 -0.1136
 2496SOL    HW119124   0.653   4.342   9.800 -0.2474 -0.4910  1.0786
 2496SOL    HW219125   0.670   4.200   9.804 -0.5600  0.6905  1.3190
 2497SOL     OW19126   4.669   1.576  10.628  0.4948 -0.2570 -0.5610
 2497SOL    HW119127   4.690   1.540  10.542  1.6010 -0.8690 -0.0192
 2497SOL    HW219128   4.574   1.590  10.622  0.0669 -2.0769  1.8266
 2498SOL     OW19129   0.208   2.003   2.995  0.6440  0.3106 -0.5147
 2498SOL    HW119130   0.214   2.020   2.901 -0.2114 -1.3434 -0.8538
 2498SOL    HW219131   0.233   2.088   3.032  0.9979  0.3975 -0.9534
 2499SOL     OW19132   2.489   1.151   1.512  0.1483  0.6126 -0.7909
 2499SOL    HW119133   2.557   1.089   1.538  0.2465  0.8036 -0.5929
 2499SOL    HW219134   2.419   1.132   1.573 -0.3601 -1.0281 -1.8750
 2500SOL     OW19135   4.372   3.988   3.848  0.0740 -0.0721 -0.2254
 2500SOL    HW119136   4.389   4.046   3.922 -0.7290  0.9445 -0.8513
 2500SOL    HW219137   4.461   3.952   3.845 -0.8827 -2.3241 -1.9201
 2501SOL     OW19138   0.996   2.364   4.431 -0.3269 -0.2907 -0.2469
 2501SOL    HW119139   1.005   2.440   4.488 -0.4320  0.2346 -0.9414
 2501SOL    HW219140   0.902   2.356   4.414 -0.7002  0.8089  1.3560
 2502SOL     OW19141   0.687   2.521   5.160 -0.1915 -0.0254 -0.2759
 2502SOL    HW119142   0.686   2.430   5.133 -1.3977  0.0803 -0.5804
 2502SOL    HW219143   0.620   2.511   5.228  0.6463 -1.3578  0.3530
 2503SOL     OW19144   3.073   4.241  12.844 -0.2999  0.4084  0.0087
 2503SOL    HW119145   2.979   4.258  12.836 -1.1412 -3.3339  1.9779
 2503SOL    HW219146   3.112   4.290  12.771 -0.3646  2.0116  1.0577
 2504SOL     OW19147   2.653   0.101   5.576  0.1123  0.1912 -0.1352
 2504SOL    HW119148   2.695   0.044   5.511 -1.3898  2.9539 -3.5168
 2504SOL    HW219149   2.654   0.032   5.642 -1.2683 -0.2120 -0.5386
 2505SOL     OW19150   2.474   3.230   5.549 -0.5977  0.3794  0.7460
 2505SOL    HW119151   2.434   3.228   5.636 -0.5784 -0.6242  0.7328
 2505SOL    HW219152   2.395   3.209   5.499 -1.4005  1.8416  1.4230
 2506SOL     OW19153   3.726   4.665  11.657 -0.5378 -0.1484  0.2281
 2506SOL    HW119154   3.704   4.621  11.575  0.7943  0.2850 -0.3628
 2506SOL    HW219155   3.759   0.012  11.635  0.6101  0.2750  3.5514
 2507SOL     OW19156   2.644   4.401   5.497 -0.5505  0.2335 -0.0442
 2507SOL    HW119157   2.656   4.367   5.409 -0.8556 -2.2182  0.8455
 2507SOL    HW219158   2.560   4.362   5.523 -0.0456 -1.1080 -0.4684
 2508SOL     OW19159   2.192   3.539   0.190 -0.2472 -0.3054  0.0612
 2508SOL    HW119160   2.270   3.503   0.231  0.2697 -1.2463 -1.7843
 2508SOL    HW219161   2.118   3.496   0.234 -0.9406  0.3242 -0.4815
 2509SOL     OW19162   2.022   3.340   4.522  0.2842  0.1810  0.2175
 2509SOL    HW119163   1.949   3.358   4.581 -0.1827 -2.5966  0.4840
 2509SOL    HW219164   2.084   3.293   4.578 -0.1402  1.3695  1.7096
 2510SOL     OW19165   1.054   2.158  10.731  0.3448  0.2197 -0.1200
 2510SOL    HW119166   1.124   2.099  10.702 -0.9420 -1.5765  0.4331
 2510SOL    HW219167   1.109   2.222  10.776 -1.8019  2.1368 -0.2255
 2511SOL     OW19168   3.284   0.512   5.417 -0.1999  0.1298 -0.2832
 2511SOL    HW119169   3.189   0.506   5.422 -0.4695  1.7895 -3.1344
 2511SOL    HW219170   3.307   0.442   5.356  1.4895 -0.5459  1.1159
 2512SOL     OW19171   0.445   4.667   7.797 -0.0307  0.4198  0.9037
 2512SOL    HW119172   0.536   4.696   7.808 -0.0679  0.9782 -0.3606
 2512SOL    HW219173   0.431   4.622   7.881  3.6477 -1.2519  0.6083
 2513SOL     OW19174   1.453   1.514   4.585 -0.1032  0.3641  0.4186
 2513SOL    HW119175   1.484   1.424   4.593 -1.0530  0.2984  3.5298
 2513SOL    HW219176   1.379   1.508   4.645 -0.4068  0.3384  0.0411
 2514SOL     OW19177   1.888   1.184   5.274  0.6880  0.0113 -0.0436
 2514SOL    HW119178   1.979   1.188   5.305  0.4615 -0.4375  0.6652
 2514SOL    HW219179   1.841   1.197   5.356  0.0061  2.1744 -0.7716
 2515SOL     OW19180   0.274   1.068  15.558 -0.1395  0.1221  0.0827
 2515SOL    HW119181   0.330   1.100  15.488 -1.6237  0.9534 -0.7248
 2515SOL    HW219182   0.258   1.156  15.593 -0.6203  0.1385 -0.1783
 2516SOL     OW19183   2.963   2.357   4.032  0.3893 -0.0460  0.2571
 2516SOL    HW119184   3.007   2.421   4.089 -0.4386  0.2484  0.5686
 2516SOL    HW219185   3.049   2.340   3.996 -0.1690 -0.0576 -1.0602
 2517SOL     OW19186   4.052   2.935   5.989 -0.4940  0.2336  0.3652
 2517SOL    HW119187   4.035   2.976   6.074 -0.1617 -0.7357  0.8953
 2517SOL    HW219188   3.975   2.883   5.967  0.5519 -1.9468  1.8109
 2518SOL     OW19189   3.172   4.187   4.404  0.2140  0.6280  0.5624
 2518SOL    HW119190   3.168   4.236   4.486 -0.6312  1.5718 -0.0451
 2518SOL    HW219191   3.130   4.253   4.349  0.0951  0.8717  0.9432
 2519SOL     OW19192   0.320   3.493   3.098  0.4883 -0.3369 -0.4568
 2519SOL    HW119193   0.243   3.520   3.048 -1.0732  0.2478  2.2955
 2519SOL    HW219194   0.394   3.532   3.052  0.2802 -0.3771 -0.8317
 2520SOL     OW19195   1.933   3.814   4.786  0.3259  0.1480  0.3090
 2520SOL    HW119196   1.895   3.823   4.699  0.5637  2.7811  0.4828
 2520SOL    HW219197   2.027   3.826   4.771  0.1824 -0.1420 -0.7707
 2521SOL     OW19198   3.591   3.025   8.779  0.1734 -0.2346  0.4094
 2521SOL    HW119199   3.532   2.951   8.790  0.1165 -0.2200  0.1974
 2521SOL    HW219200   3.641   2.993   8.704  1.0224  1.1548  0.3781
 2522SOL     OW19201   1.313   3.403   3.271  0.5102  0.4034  0.3278
 2522SOL    HW119202   1.385   3.384   3.211 -0.8197  0.4895 -1.3107
 2522SOL    HW219203   1.267   3.472   3.222  0.3764 -0.9962 -1.5301
 2523SOL     OW19204   2.311   1.398   2.652  0.0331  0.1042  0.5016
 2523SOL    HW119205   2.349   1.486   2.654  0.7779 -0.2346  0.9645
 2523SOL    HW219206   2.264   1.405   2.569 -0.3460 -2.8425  0.4640
 2524SOL     OW19207   0.563   4.389   6.973  0.3649  0.1541  0.3484
 2524SOL    HW119208   0.558   4.337   6.893  0.0040  2.5854 -1.2073
 2524SOL    HW219209   0.589   4.320   7.034 -0.2338 -1.2213 -0.9502
 2525SOL     OW19210   4.316   4.353   2.317 -0.0314  0.3908  0.6021
 2525SOL    HW119211   4.298   4.285   2.381 -1.0606  0.3872  0.3073
 2525SOL    HW219212   4.227   4.389   2.319 -0.3760 -0.4527  0.3786
 2526SOL     OW19213   1.067   3.535   1.713 -0.4734  0.8323 -0.3995
 2526SOL    HW119214   1.039   3.624   1.690  0.1438  1.3658  0.9091
 2526SOL    HW219215   0.997   3.477   1.685 -1.5073  0.7496  2.3330
 2527SOL     OW19216   1.916   2.083   6.955 -0.0468 -0.5609 -0.4465
 2527SOL    HW119217   1.997   2.031   6.958  0.9556  1.1063  1.3445
 2527SOL    HW219218   1.857   2.009   6.941 -0.7697  0.2766 -1.8069
 2528SOL     OW19219   3.024   3.342   3.821 -0.3064 -0.0096  0.3144
 2528SOL    HW119220   2.949   3.327   3.878 -0.3123  3.1726  1.1698
 2528SOL    HW219221   3.075   3.393   3.884  0.2837  0.8394 -0.8405
 2529SOL     OW19222   0.557   1.695   5.456  0.7990 -0.3667 -0.0358
 2529SOL    HW119223   0.599   1.708   5.541 -0.8157  2.3575  0.3342
 2529SOL    HW219224   0.477   1.647   5.479  0.9014 -0.4050  0.2446
 2530SOL     OW19225   3.995   2.157  13.368 -0.4821 -0.3939 -0.0988
 2530SOL    HW119226   3.991   2.228  13.303 -0.5386 -0.3833 -0.0836
 2530SOL    HW219227   4.045   2.089  13.323  1.1826  0.7725 -0.0219
 2531SOL     OW19228   3.003   3.613   1.790  0.4569  0.4526 -0.4979
 2531SOL    HW119229   2.952   3.540   1.755  0.9449 -1.2865  2.4504
 2531SOL    HW219230   2.961   3.694   1.761 -1.4152 -0.6177 -0.7698
 2532SOL     OW19231   1.881   2.998   7.827 -0.4679  0.1313  0.2913
 2532SOL    HW119232   1.893   2.903   7.825 -2.5082 -0.0633 -1.4251
 2532SOL    HW219233   1.800   2.993   7.877 -0.6146 -1.4405 -0.1025
 2533SOL     OW19234   2.802   1.595   8.028 -0.9124 -0.0829 -0.1241
 2533SOL    HW119235   2.797   1.539   7.951  1.4802  0.1205 -0.4214
 2533SOL    HW219236   2.876   1.554   8.072 -2.5152 -1.7844  0.9942
 2534SOL     OW19237   0.655   1.145   5.110 -0.3056  0.0663 -0.4231
 2534SOL    HW119238   0.645   1.071   5.171  0.6409  0.3801  0.1205
 2534SOL    HW219239   0.605   1.116   5.034  1.3969 -1.3148 -1.0128
 2535SOL     OW19240   1.967   1.466   2.651 -0.4376 -0.3288  0.1658
 2535SOL    HW119241   1.876   1.456   2.624 -0.2222  1.0162 -1.0332
 2535SOL    HW219242   2.003   1.486   2.565 -0.8566  1.6084  0.4469
 2536SOL     OW19243   1.218   1.848   2.184 -0.2574 -0.1634  0.0473
 2536SOL    HW119244   1.233   1.942   2.200 -0.2945  0.0695 -1.3269
 2536SOL    HW219245   1.234   1.818   2.274  1.1334  0.5004  0.0117
 2537SOL     OW19246   1.367   1.022   0.219  0.3893  0.3143 -0.3072
 2537SOL    HW119247   1.289   1.055   0.173 -0.2412 -0.7045  0.0494
 2537SOL    HW219248   1.330   1.004   0.305 -0.4395 -2.3437 -1.2362
 2538SOL     OW19249   1.751   2.932  11.809  0.3377  0.2062 -0.3898
 2538SOL    HW119250   1.840   2.953  11.838 -0.1617 -0.6838  1.7883
 2538SOL    HW219251   1.740   2.852  11.860  0.4848  1.6156  1.8472
 2539SOL     OW19252   0.341   1.752   7.081 -0.0491  0.0193  0.0827
 2539SOL    HW119253   0.396   1.751   7.159  0.4616 -1.3948 -0.2876
 2539SOL    HW219254   0.326   1.847   7.076  0.9318  0.0583 -2.1802
 2540SOL     OW19255   1.989   3.012   6.404  0.7000 -0.6666  0.9453
 2540SOL    HW119256   2.025   3.092   6.364  1.4819 -1.3647  0.2553
 2540SOL    HW219257   2.046   2.948   6.363 -1.2250 -1.5088 -0.4132
 2541SOL     OW19258   1.475   1.587  14.094 -0.3559 -0.9200 -0.0843
 2541SOL    HW119259   1.406   1.521  14.095  0.3222 -1.5892  1.8568
 2541SOL    HW219260   1.534   1.554  14.027 -1.0389  0.2790 -1.2906
 2542SOL     OW19261   4.192   4.698   2.349  0.0525  0.2319  0.4315
 2542SOL    HW119262   4.106   4.728   2.320 -0.3363 -1.5557 -0.2877
 2542SOL    HW219263   4.188   4.603   2.334 -0.8935  0.2722  0.4614
 2543SOL     OW19264   3.075   0.295   5.132 -0.1331  0.1044 -0.4964
 2543SOL    HW119265   3.062   0.301   5.227 -1.9063 -0.5466 -0.7131
 2543SOL    HW219266   3.154   0.348   5.118 -0.6534  1.3061  1.0865
 2544SOL     OW19267   3.684   4.450  16.914 -0.0995 -0.1095  0.2509
 2544SOL    HW119268   3.746   4.377  16.906  1.8223  1.4078  1.2882
 2544SOL    HW219269   3.602   4.406  16.892  0.2825  0.2954 -2.0200
 2545SOL     OW19270   3.563   3.928  10.317  0.5196 -0.1830  0.4757
 2545SOL    HW119271   3.583   4.001  10.376 -2.3789  0.6433  0.4442
 2545SOL    HW219272   3.616   3.857  10.351  1.1005 -0.2209 -0.5044
 2546SOL     OW19273   4.326   2.520   3.698 -0.1921  0.5808  0.6188
 2546SOL    HW119274   4.274   2.543   3.775 -0.4861 -3.1360  1.5465
 2546SOL    HW219275   4.319   2.425   3.693 -2.2961  0.7695 -0.0746
 2547SOL     OW19276   2.950   1.894   7.435 -0.3334 -0.2297  0.2381
 2547SOL    HW119277   3.004   1.822   7.401  1.5427  1.4708 -0.3501
 2547SOL    HW219278   3.004   1.964   7.400  0.5539 -1.1587 -0.2572
 2548SOL     OW19279   4.112   3.150   3.833 -0.0732 -0.5779 -0.2748
 2548SOL    HW119280   4.206   3.167   3.833 -0.4145  1.2112 -0.8322
 2548SOL    HW219281   4.097   3.131   3.926 -0.8010 -1.9016 -0.6631
 2549SOL     OW19282   1.265   3.378   4.608  0.5448 -0.1905  0.1773
 2549SOL    HW119283   1.224   3.293   4.622 -0.7994  0.5554  0.8574
 2549SOL    HW219284   1.207   3.426   4.548 -1.0255 -0.4290  1.5034
 2550SOL     OW19285   1.569   3.890   7.207  0.5553 -0.5139 -0.2040
 2550SOL    HW119286   1.592   3.829   7.137  0.3462  0.5594 -1.1960
 2550SOL    HW219287   1.660   3.885   7.239  0.2307 -1.9464  0.5128
 2551SOL     OW19288   4.096   0.824   8.976 -0.4648 -0.6645 -0.3543
 2551SOL    HW119289   4.081   0.738   9.015  1.2782 -1.1902 -0.8480
 2551SOL    HW219290   4.017   0.846   8.925 -1.1628 -1.1201  0.5219
 2552SOL     OW19291   2.137   3.006   8.415  0.2823 -0.0952  0.4610
 2552SOL    HW119292   2.134   3.062   8.337  2.3166  0.2420  0.6231
 2552SOL    HW219293   2.231   2.987   8.408  0.1368 -1.0126  1.0385
 2553SOL     OW19294   2.601   1.604   2.945 -0.4715 -0.3386 -0.3076
 2553SOL    HW119295   2.581   1.678   2.887 -0.3976  0.9880  1.3610
 2553SOL    HW219296   2.534   1.546   2.910 -0.0889  0.4472 -2.3543
 2554SOL     OW19297   3.284   3.276   1.927 -0.3426  0.4045  0.0138
 2554SOL    HW119298   3.223   3.238   1.865  0.5071  2.1982 -1.9294
 2554SOL    HW219299   3.223   3.316   1.989  0.4496  0.5140  0.7269
 2555SOL     OW19300   3.366   3.834  12.255  0.3517  0.6070 -0.2439
 2555SOL    HW119301   3.290   3.862  12.203  0.8921  2.5355  0.0157
 2555SOL    HW219302   3.328   3.753  12.287  1.5804 -0.0263 -0.3953
 2556SOL     OW19303   0.048   3.422  14.495  0.1240  0.3729 -0.3163
 2556SOL    HW119304   0.014   3.468  14.572  0.3389  0.5441 -0.3240
 2556SOL    HW219305   0.141   3.407  14.511  0.0401  1.3029  1.0481
 2557SOL     OW19306   0.019   0.082   7.642  0.2789 -0.4287 -0.0197
 2557SOL    HW119307   0.111   0.085   7.666  1.0263  2.8506 -3.3760
 2557SOL    HW219308   0.014   0.082   7.546  0.8256 -1.6174 -0.0452
 2558SOL     OW19309   2.042   3.766   0.412  0.1141 -0.3651  0.1496
 2558SOL    HW119310   1.963   3.721   0.441 -0.6023  1.0562  0.4327
 2558SOL    HW219311   2.107   3.699   0.433  1.7650  1.2475  0.1961
 2559SOL     OW19312   0.214   4.022   7.755 -0.1293 -0.5354  0.3384
 2559SOL    HW119313   0.134   4.028   7.703 -1.4152 -1.0269  2.2756
 2559SOL    HW219314   0.205   3.930   7.782  0.1992 -0.8815 -0.7345
 2560SOL     OW19315   4.202   1.125   7.886 -0.1596  0.0168 -0.0595
 2560SOL    HW119316   4.137   1.073   7.934  0.7278  0.2702  1.4287
 2560SOL    HW219317   4.208   1.070   7.808  2.6381  1.2794 -0.7336
 2561SOL     OW19318   4.430   0.697   7.486 -0.5159 -0.4066 -0.5178
 2561SOL    HW119319   4.360   0.639   7.516  0.9942 -1.7164  0.4732
 2561SOL    HW219320   4.477   0.719   7.567 -0.1427 -1.6011 -0.4093
 2562SOL     OW19321   1.820   3.812   3.277  0.6168 -0.1404 -0.4761
 2562SOL    HW119322   1.767   3.776   3.349  0.4553 -1.7612 -1.3934
 2562SOL    HW219323   1.756   3.867   3.232 -0.3111 -2.2434 -1.7111
 2563SOL     OW19324   2.246   1.565   6.328 -0.0772 -0.3357 -0.4631
 2563SOL    HW119325   2.263   1.474   6.352 -3.0810 -1.7531 -3.7134
 2563SOL    HW219326   2.186   1.543   6.256 -2.3619  0.7064  1.1148
 2564SOL     OW19327   1.106   1.312   6.215 -0.0239 -0.2686  0.1522
 2564SOL    HW119328   1.191   1.340   6.248 -1.2281  1.6200  1.6895
 2564SOL    HW219329   1.139   1.253   6.147 -0.7058  0.1641 -0.5558
 2565SOL     OW19330   2.091   1.430   2.886  0.1392  0.1275 -0.0277
 2565SOL    HW119331   2.038   1.499   2.925  0.6886  0.7943 -0.4516
 2565SOL    HW219332   2.063   1.450   2.796 -0.0355  1.1389  0.2513
 2566SOL     OW19333   3.554   4.098   7.754  0.1226  0.3498  0.0367
 2566SOL    HW119334   3.519   4.102   7.665  0.1695  1.1876  0.0545
 2566SOL    HW219335   3.485   4.149   7.797 -0.0691  1.7993 -1.9454
 2567SOL     OW19336   2.839   3.261   3.456 -0.1506 -0.3935  0.2337
 2567SOL    HW119337   2.863   3.206   3.530  1.3683 -0.4249 -0.2885
 2567SOL    HW219338   2.850   3.191   3.392  0.4485  1.0985 -1.2912
 2568SOL     OW19339   2.000   2.079   8.433  0.5758 -0.0700 -0.0848
 2568SOL    HW119340   2.093   2.078   8.409  0.2268  2.2554 -1.4733
 2568SOL    HW219341   1.958   2.014   8.377  1.4334  0.0360 -0.8488
 2569SOL     OW19342   4.526   3.837  14.151  0.2071  0.3794  0.8138
 2569SOL    HW119343   4.483   3.885  14.081  1.4570  0.1814 -0.0813
 2569SOL    HW219344   4.616   3.868  14.146  0.3897 -0.4064 -0.7075
 2570SOL     OW19345   2.305   3.822   6.507  0.3674  0.6084 -0.3043
 2570SOL    HW119346   2.335   3.764   6.437 -1.4129  3.1092 -3.1367
 2570SOL    HW219347   2.365   3.790   6.575 -0.3042 -4.5421 -2.1707
 2571SOL     OW19348   2.714   2.660  14.623 -0.3113 -0.2802  0.0592
 2571SOL    HW119349   2.694   2.572  14.657  1.3763 -0.6490  0.0659
 2571SOL    HW219350   2.804   2.668  14.655 -0.7258  0.9546  0.9426
 2572SOL     OW19351   0.552   1.217   4.682  0.4559  0.1021 -0.0768
 2572SOL    HW119352   0.574   1.125   4.676  0.9059  0.3004 -1.5237
 2572SOL    HW219353   0.532   1.237   4.590 -1.9199 -0.9466  0.2203
 2573SOL     OW19354   2.682   2.844   2.253 -0.4054  0.0667 -0.3557
 2573SOL    HW119355   2.660   2.936   2.267  1.1405  0.4976 -0.7466
 2573SOL    HW219356   2.693   2.795   2.334 -2.7404  1.7510  0.9509
 2574SOL     OW19357   2.021   0.292   7.192  0.2267  0.0859  0.7887
 2574SOL    HW119358   1.989   0.378   7.164 -1.0359 -1.7702 -3.4348
 2574SOL    HW219359   1.990   0.242   7.117  0.6124  1.2971 -0.1901
 2575SOL     OW19360   3.564   1.675   5.609 -0.1372  0.0336 -0.0872
 2575SOL    HW119361   3.565   1.580   5.617  0.8227 -0.2223 -3.1539
 2575SOL    HW219362   3.658   1.690   5.603 -0.1420 -0.0565 -0.3640
 2576SOL     OW19363   3.981   0.015   3.676  0.0635 -0.2314 -0.3020
 2576SOL    HW119364   3.948   4.693   3.742 -1.2679  0.9868  0.1734
 2576SOL    HW219365   3.922   0.087   3.696 -0.6385 -1.0776  0.7001
 2577SOL     OW19366   2.786   2.747   0.841  0.4974 -0.2433 -0.4413
 2577SOL    HW119367   2.749   2.833   0.822  2.5358  0.2296 -2.2601
 2577SOL    HW219368   2.760   2.725   0.931 -0.6003  2.3107 -0.1464
 2578SOL     OW19369   0.181   4.190  16.838  0.0223 -0.6159  0.4729
 2578SOL    HW119370   0.235   4.118  16.806 -1.4331 -0.4186 -2.4205
 2578SOL    HW219371   0.162   4.236  16.756 -2.0931 -0.4362  1.0695
 2579SOL     OW19372   0.030   1.634   3.046  0.0612 -0.0282  0.0793
 2579SOL    HW119373   4.717   1.698   3.093 -1.1785 -1.6432  0.8917
 2579SOL    HW219374   0.111   1.630   3.096  1.3358  0.6777 -1.9353
 2580SOL     OW19375   2.970   1.623   6.684  0.5641 -0.2129  0.0634
 2580SOL    HW119376   3.036   1.660   6.743 -0.7193 -0.1719  1.4576
 2580SOL    HW219377   2.951   1.706   6.640 -5.4601 -1.4072  0.4736
 2581SOL     OW19378   3.419   2.938   2.460 -0.0390  0.2816 -0.2417
 2581SOL    HW119379   3.478   2.879   2.507  1.5414  0.6627 -1.7563
 2581SOL    HW219380   3.486   2.996   2.425  0.3534 -0.0483 -0.0373
 2582SOL     OW19381   3.160   2.133   8.042  0.2374 -0.2080  0.1336
 2582SOL    HW119382   3.155   2.049   7.997  1.6680  0.0911 -0.5665
 2582SOL    HW219383   3.066   2.137   8.057  0.3196 -3.7878  1.5511
 2583SOL     OW19384   4.083   1.873  11.998  0.5546 -0.3372  0.0064
 2583SOL    HW119385   4.178   1.881  12.009  0.3323  0.9388  0.9915
 2583SOL    HW219386   4.064   1.783  11.972  1.2321 -0.2848 -0.6788
 2584SOL     OW19387   3.748   1.531   2.795 -0.0961 -0.2547  0.1015
 2584SOL    HW119388   3.706   1.617   2.803  0.4147  0.0597 -0.5897
 2584SOL    HW219389   3.688   1.491   2.858 -3.3788  2.1715 -1.4746
 2585SOL     OW19390   1.201   4.449   8.341 -0.4258  0.0051 -0.3975
 2585SOL    HW119391   1.216   4.448   8.247  0.6168 -1.2333 -0.2209
 2585SOL    HW219392   1.275   4.404   8.381 -0.9821  1.3488  2.1091
 2586SOL     OW19393   4.366   0.683   8.620  0.1844 -0.1297  0.9656
 2586SOL    HW119394   4.438   0.628   8.652  0.8856  1.6773  2.4333
 2586SOL    HW219395   4.416   0.762   8.602 -0.8665 -0.2217 -2.3929
 2587SOL     OW19396   0.350   1.353   1.143  0.7706 -0.2084  0.1812
 2587SOL    HW119397   0.429   1.391   1.104  1.4716 -1.0204  0.8124
 2587SOL    HW219398   0.332   1.416   1.213  1.7008 -2.2331  2.2455
 2588SOL     OW19399   2.339   0.805   4.800 -0.0525  0.5719 -0.2902
 2588SOL    HW119400   2.252   0.807   4.840  0.4424 -0.2184  0.8189
 2588SOL    HW219401   2.374   0.892   4.822 -2.9097  1.5267  0.4699
 2589SOL     OW19402   3.370   1.442   6.462  0.4123  0.7281 -0.0284
 2589SOL    HW119403   3.333   1.401   6.541 -0.4675  1.1080 -0.2424
 2589SOL    HW219404   3.290   1.466   6.415  0.8209 -0.1585 -1.1487
 2590SOL     OW19405   0.902   0.216  11.911 -0.1029  0.2014  0.0625
 2590SOL    HW119406   0.967   0.236  11.844 -0.1470  0.5806  0.1331
 2590SOL    HW219407   0.832   0.176  11.859 -1.3890  0.6238  1.4871
 2591SOL     OW19408   3.451   3.492   7.042  0.4909 -0.0320 -0.3504
 2591SOL    HW119409   3.416   3.564   7.094  0.0414  0.6731 -1.6308
 2591SOL    HW219410   3.462   3.426   7.111  2.8109  0.4156 -0.3141
 2592SOL     OW19411   4.588   3.098   6.089 -1.0208 -0.3608 -0.6844
 2592SOL    HW119412   4.660   3.161   6.100 -1.0617 -0.4982  0.3356
 2592SOL    HW219413   4.635   3.028   6.042 -1.5145 -1.5590  0.6090
 2593SOL     OW19414   1.735   3.699  10.623  0.1051 -0.0158  0.2310
 2593SOL    HW119415   1.758   3.610  10.597 -0.5143 -0.4688  1.2380
 2593SOL    HW219416   1.706   3.691  10.714  0.4238  1.0145  0.4176
 2594SOL     OW19417   4.466   4.361   7.477 -0.3192 -0.4066  0.2833
 2594SOL    HW119418   4.426   4.276   7.462  1.8554 -1.5179  0.8282
 2594SOL    HW219419   4.541   4.333   7.529  0.1436  1.4939  0.6328
 2595SOL     OW19420   4.696   4.526   2.711  0.1800  0.3210  0.5187
 2595SOL    HW119421   0.051   4.543   2.703  0.1435 -0.5468 -1.6866
 2595SOL    HW219422   4.690   4.531   2.806 -1.2728  1.9550  0.3325
 2596SOL     OW19423   4.106   4.588   8.595  0.2680  0.2504  0.2040
 2596SOL    HW119424   4.159   4.613   8.520  0.9547 -1.3428  0.1392
 2596SOL    HW219425   4.103   4.494   8.575 -0.6502  0.0640  1.1903
 2597SOL     OW19426   4.460   4.037   3.473  0.4073 -0.2725 -0.1209
 2597SOL    HW119427   4.502   4.080   3.398  1.5250 -0.1349  0.5768
 2597SOL    HW219428   4.528   3.973   3.492 -1.5854 -2.1930  0.5724
 2598SOL     OW19429   0.990   3.516   8.050  0.6648  0.1456  0.0822
 2598SOL    HW119430   1.037   3.439   8.018 -0.5400 -1.0130  1.1165
 2598SOL    HW219431   0.996   3.575   7.974  0.5014  3.8313  2.9351
 2599SOL     OW19432   0.499   3.238   7.212  0.5569  0.0043  0.5774
 2599SOL    HW119433   0.536   3.189   7.285 -0.9185  0.1814  1.4517
 2599SOL    HW219434   0.433   3.177   7.180  0.6831  0.5520 -0.7252
 2600SOL     OW19435   1.540   2.174   9.743  0.5995  0.1602  0.0542
 2600SOL    HW119436   1.460   2.213   9.777  0.8955 -0.2250  1.1919
 2600SOL    HW219437   1.609   2.237   9.762 -0.2188  0.8744  0.6542
 2601SOL     OW19438   1.465   1.083   9.777 -0.1009 -0.1450 -0.6260
 2601SOL    HW119439   1.515   1.008   9.810  0.8611 -0.4195 -2.7294
 2601SOL    HW219440   1.436   1.120   9.861 -4.7618 -3.2292 -0.8356
 2602SOL     OW19441   4.504   3.136  13.897  0.7029  0.4636  0.2332
 2602SOL    HW119442   4.526   3.221  13.935  1.9047  0.1956  0.1518
 2602SOL    HW219443   4.594   3.104  13.900  0.1289 -1.0794  1.0273
 2603SOL     OW19444   4.232   2.305   9.373  0.7749  0.3212  0.0134
 2603SOL    HW119445   4.232   2.382   9.317 -0.8164 -0.6956 -1.3968
 2603SOL    HW219446   4.155   2.328   9.426  0.4131  0.2808 -0.4976
 2604SOL     OW19447   4.525   1.448   2.999  0.1861  0.2853  0.8708
 2604SOL    HW119448   4.607   1.495   3.015  0.8320 -0.4864 -0.1901
 2604SOL    HW219449   4.540   1.364   3.043 -0.9902 -0.1963  0.3615
 2605SOL     OW19450   4.197   4.051   7.270 -0.0666 -0.3248  0.6483
 2605SOL    HW119451   4.266   4.025   7.210 -0.5661 -0.5825  0.1776
 2605SOL    HW219452   4.239   4.062   7.355  0.3665  2.6330  0.0588
 2606SOL     OW19453   4.728   3.434   9.707 -0.2863 -0.9164  0.6512
 2606SOL    HW119454   0.072   3.465   9.673 -0.2643 -0.8634  0.7537
 2606SOL    HW219455   0.015   3.390   9.788  1.8765  1.2128  1.1003
 2607SOL     OW19456   2.850   3.219   5.922 -0.3946  0.0419 -0.7782
 2607SOL    HW119457   2.913   3.160   5.880 -1.7026 -1.9644  0.1044
 2607SOL    HW219458   2.860   3.299   5.871 -2.0969 -0.6674 -2.2165
 2608SOL     OW19459   3.562   2.604   5.351  0.2634 -0.3771  0.0940
 2608SOL    HW119460   3.618   2.593   5.274  2.6566  3.0604  1.3496
 2608SOL    HW219461   3.558   2.515   5.386 -1.6525 -0.4346 -0.2631
 2609SOL     OW19462   2.979   1.272   4.726  0.2885  0.8595  0.5446
 2609SOL    HW119463   3.011   1.217   4.655  0.0343 -0.1501  1.2100
 2609SOL    HW219464   2.914   1.209   4.758 -0.1505  1.1116  0.1614
 2610SOL     OW19465   2.893   1.910   9.094 -0.0841 -0.0085 -0.4259
 2610SOL    HW119466   2.958   1.854   9.052  1.0578 -0.2366  1.6597
 2610SOL    HW219467   2.848   1.849   9.152 -0.8474 -0.9205 -1.9810
 2611SOL     OW19468   0.788   1.550   9.697  0.1895 -0.2445 -0.0239
 2611SOL    HW119469   0.863   1.516   9.649  1.8863  2.8220  0.4487
 2611SOL    HW219470   0.801   1.497   9.775  0.5952  1.1467  0.8580
 2612SOL     OW19471   3.696   4.517   4.939  0.2583  0.0379 -0.6000
 2612SOL    HW119472   3.612   4.564   4.937  0.6429  0.7741  0.5836
 2612SOL    HW219473   3.761   4.586   4.931 -0.9417  1.3607  1.0913
 2613SOL     OW19474   0.379   2.233   6.189 -0.4476 -0.3747 -0.4219
 2613SOL    HW119475   0.457   2.268   6.231 -0.7391 -1.3731  0.9603
 2613SOL    HW219476   0.408   2.224   6.099 -1.7878  0.7932 -0.9815
 2614SOL     OW19477   0.251   0.133   0.890 -0.9766  0.1136 -0.3095
 2614SOL    HW119478   0.252   0.074   0.966 -2.8396  1.2400  0.6056
 2614SOL    HW219479   0.283   0.214   0.929 -0.2339 -1.6213  2.6800
 2615SOL     OW19480   0.805   0.602   3.668 -0.1643 -0.5533 -0.1654
 2615SOL    HW119481   0.817   0.691   3.703 -0.2299  0.3316 -2.3937
 2615SOL    HW219482   0.739   0.613   3.600  0.4672  0.6034 -0.5930
 2616SOL     OW19483   0.021   1.512  10.877 -0.3922 -0.0965  0.3053
 2616SOL    HW119484   0.071   1.591  10.898  0.5238 -0.5250 -0.2693
 2616SOL    HW219485   4.735   1.529  10.786  0.8714  1.1207  0.1808
 2617SOL     OW19486   4.632   0.511   9.101  0.3090 -0.4018  0.0259
 2617SOL    HW119487   4.690   0.506   9.177 -0.0771  0.9919  0.4068
 2617SOL    HW219488   4.557   0.455   9.123 -0.2959  0.7435  0.8559
 2618SOL     OW19489   1.500   2.999   0.200  0.2069  0.0643  0.3463
 2618SOL    HW119490   1.491   3.064   0.270 -1.0426  0.2202  0.0314
 2618SOL    HW219491   1.502   3.051   0.120 -1.6933  0.5922  0.6363
 2619SOL     OW19492   0.450   4.048   9.102  0.4181 -0.4140 -0.0773
 2619SOL    HW119493   0.370   4.005   9.073  1.5314 -2.0287 -0.7611
 2619SOL    HW219494   0.505   4.029   9.026  0.6456 -0.2963  0.0574
 2620SOL     OW19495   4.043   3.176   3.571  0.1746 -0.1885 -0.1916
 2620SOL    HW119496   4.124   3.226   3.584  0.6081 -1.4351  1.9197
 2620SOL    HW219497   4.033   3.133   3.656  1.3797 -1.2320 -0.5855
 2621SOL     OW19498   2.504   1.296   1.293  0.3461  0.8832 -0.0055
 2621SOL    HW119499   2.473   1.248   1.216 -0.5710 -1.5904  1.8872
 2621SOL    HW219500   2.516   1.221   1.351  1.2535  2.0206  1.2644
 2622SOL     OW19501   2.013   2.573   7.124  0.1443 -0.0730  0.3505
 2622SOL    HW119502   2.070   2.536   7.191  2.2086  2.1816 -0.1787
 2622SOL    HW219503   1.990   2.501   7.066 -0.4581  0.4790 -0.1061
 2623SOL     OW19504   1.154   3.714   6.472  0.0509  0.0233  0.5506
 2623SOL    HW119505   1.223   3.649   6.467  0.9953  1.1179 -0.7732
 2623SOL    HW219506   1.094   3.681   6.405  0.6735 -2.0912  1.0557
 2624SOL     OW19507   2.459   3.281   6.820 -0.2689 -0.5591 -0.3669
 2624SOL    HW119508   2.391   3.217   6.841 -0.0457 -0.9703 -0.9123
 2624SOL    HW219509   2.530   3.235   6.866 -0.0081  2.5267  2.3129
 2625SOL     OW19510   0.233   3.175   8.138 -0.5322  0.0273  0.0955
 2625SOL    HW119511   0.252   3.243   8.203  0.0275  0.2530 -0.3058
 2625SOL    HW219512   0.306   3.207   8.085 -0.0264 -0.5431  0.4420
 2626SOL     OW19513   2.038   2.269  10.197  0.2383  0.7861  0.1898
 2626SOL    HW119514   1.973   2.339  10.204 -1.1710 -0.2471 -2.7601
 2626SOL    HW219515   1.985   2.197  10.232 -0.9391 -0.1634 -3.5576
 2627SOL     OW19516   3.747   1.505   6.355 -0.8854 -0.1254 -0.2202
 2627SOL    HW119517   3.665   1.501   6.306 -0.3091 -2.4313 -0.9662
 2627SOL    HW219518   3.777   1.415   6.344 -0.8593  0.0489 -1.4989
 2628SOL     OW19519   1.482   3.625  12.048  0.0786  0.1819 -0.3876
 2628SOL    HW119520   1.420   3.578  11.992  2.7600  0.4874 -3.5919
 2628SOL    HW219521   1.517   3.693  11.991 -0.0328  0.5524 -0.0199
 2629SOL     OW19522   0.583   3.332  14.413 -0.0916 -0.1211 -0.5267
 2629SOL    HW119523   0.569   3.271  14.486 -0.3650  0.8690  0.2470
 2629SOL    HW219524   0.570   3.411  14.465  1.7255 -1.5482  2.1213
 2630SOL     OW19525   3.902   3.192  11.823  0.1620  0.2532 -0.3259
 2630SOL    HW119526   3.943   3.192  11.737 -1.9127  0.1117 -1.2972
 2630SOL    HW219527   3.971   3.235  11.874 -0.0047  0.5301 -0.3343
 2631SOL     OW19528   4.022   3.026   7.038 -0.1575  0.2126 -0.6569
 2631SOL    HW119529   4.023   2.938   7.077 -2.2698 -0.2378 -1.6297
 2631SOL    HW219530   4.112   3.037   7.006  0.4644  1.0740  1.3631
 2632SOL     OW19531   1.268   2.287   7.646  0.1020  0.0087 -0.0399
 2632SOL    HW119532   1.320   2.300   7.725 -0.1169 -2.6630  0.5516
 2632SOL    HW219533   1.223   2.370   7.636  1.1346  0.6464  0.6594
 2633SOL     OW19534   0.419   4.128   1.245  0.1226 -0.2189  0.3835
 2633SOL    HW119535   0.399   4.221   1.235  0.5515 -0.3451 -1.5377
 2633SOL    HW219536   0.468   4.128   1.328  1.8123  2.0527 -0.6162
 2634SOL     OW19537   2.849   4.375  16.108  0.2317 -0.3812 -0.2230
 2634SOL    HW119538   2.774   4.326  16.076 -0.7153  1.1576 -0.3521
 2634SOL    HW219539   2.921   4.312  16.117  0.2588 -0.1793  1.0091
 2635SOL     OW19540   0.027   2.279   4.348  0.8376  0.0718  0.3613
 2635SOL    HW119541   0.099   2.277   4.285 -2.2854 -0.6663 -3.1810
 2635SOL    HW219542   4.690   2.258   4.295  1.9612 -1.3373 -0.7055
 2636SOL     OW19543   4.439   4.218   8.440 -0.0493  0.3958 -0.3392
 2636SOL    HW119544   4.423   4.300   8.392 -0.3031 -0.6691 -2.0954
 2636SOL    HW219545   4.390   4.239   8.519 -0.5452 -0.0553 -0.5291
 2637SOL     OW19546   3.640   0.040   2.288  0.1819 -0.4260  0.3954
 2637SOL    HW119547   3.608   0.087   2.365 -0.9469  1.0627 -0.9633
 2637SOL    HW219548   3.728   0.014   2.317  1.1972  0.0765 -2.2303
 2638SOL     OW19549   1.784   1.709   6.945  0.3208 -0.2279  0.2648
 2638SOL    HW119550   1.758   1.747   6.861 -0.1711 -1.7343 -0.2512
 2638SOL    HW219551   1.773   1.616   6.928  1.4872 -0.5331  1.1756
 2639SOL     OW19552   4.052   1.737   5.104  0.7556 -0.0035 -0.3091
 2639SOL    HW119553   4.141   1.772   5.099  0.8822 -0.3236 -0.2871
 2639SOL    HW219554   4.038   1.751   5.198  0.8330  1.4798 -0.5089
 2640SOL     OW19555   4.509   1.517   2.679 -0.0458 -0.4835 -0.2814
 2640SOL    HW119556   4.416   1.525   2.697 -0.1089  2.3709 -1.8765
 2640SOL    HW219557   4.529   1.441   2.734  0.1215 -0.7829 -0.7568
 2641SOL     OW19558   3.709   3.469  17.440 -0.2485 -1.1063  0.2603
 2641SOL    HW119559   3.629   3.450  17.489 -0.1995 -1.6774  0.1153
 2641SOL    HW219560   3.774   3.446  17.506  0.8545 -2.8784 -1.4745
 2642SOL     OW19561   0.172   2.794   4.486 -0.2522 -0.4978 -0.1798
 2642SOL    HW119562   0.228   2.781   4.563 -0.4170 -0.7231 -0.1002
 2642SOL    HW219563   0.190   2.886   4.467  0.0477 -0.7347 -1.0758
 2643SOL     OW19564   3.044   0.345   5.751 -0.1168  0.0156  0.2261
 2643SOL    HW119565   3.084   0.272   5.704  0.2801  1.4661 -1.7158
 2643SOL    HW219566   2.955   0.322   5.775 -0.2430 -0.4584 -0.7215
 2644SOL     OW19567   0.353   0.236   6.073 -0.3482  0.2154 -0.2888
 2644SOL    HW119568   0.368   0.305   6.137  2.6145 -1.5796  0.9406
 2644SOL    HW219569   0.356   0.153   6.120 -0.0806 -0.1426 -0.9272
 2645SOL     OW19570   2.608   3.175  11.548  0.3447  0.1625 -0.2950
 2645SOL    HW119571   2.538   3.207  11.491  0.7138 -1.6782 -1.7766
 2645SOL    HW219572   2.634   3.257  11.590 -0.4008 -0.7708  1.9716
 2646SOL     OW19573   0.453   0.828   8.610 -0.1415 -0.4722 -0.1668
 2646SOL    HW119574   0.439   0.922   8.603 -0.3066 -0.3680  1.6520
 2646SOL    HW219575   0.455   0.809   8.704 -0.5985 -3.0053 -0.6660
 2647SOL     OW19576   3.682   0.381   3.707 -0.7481  0.3367  0.5312
 2647SOL    HW119577   3.773   0.358   3.691 -1.9044 -3.5065 -0.4476
 2647SOL    HW219578   3.642   0.318   3.767 -0.9404  0.6145  0.6984
 2648SOL     OW19579   1.565   3.016   4.316 -0.0293  0.2482  0.6318
 2648SOL    HW119580   1.603   3.101   4.338 -0.7885  0.5099  0.9481
 2648SOL    HW219581   1.479   3.018   4.359 -1.7429 -1.2670 -2.6808
 2649SOL     OW19582   1.716   1.166   3.630  0.2483  0.6267 -0.2426
 2649SOL    HW119583   1.651   1.097   3.640  1.0782  0.1537  2.0013
 2649SOL    HW219584   1.797   1.114   3.628  0.0460  0.2785  0.5433
 2650SOL     OW19585   3.954   0.298   3.684  0.4468 -0.8393 -0.4093
 2650SOL    HW119586   4.036   0.274   3.639  0.6674 -2.3882  0.8032
 2650SOL    HW219587   3.995   0.309   3.770  0.4871  0.7362 -0.6366
 2651SOL     OW19588   0.100   2.569  12.557  0.3018  0.0158 -0.5180
 2651SOL    HW119589   0.122   2.604  12.643  2.0216 -1.0915 -0.5070
 2651SOL    HW219590   0.006   2.588  12.557  0.1101 -0.8769 -1.7972
 2652SOL     OW19591   4.082   0.124   4.194 -0.3691 -0.3305  0.1230
 2652SOL    HW119592   4.086   0.033   4.166  0.2094  0.6881 -3.0702
 2652SOL    HW219593   4.141   0.119   4.269  0.9056  1.3773 -0.7608
 2653SOL     OW19594   2.026   4.276   4.360  0.5700 -0.1147  0.0305
 2653SOL    HW119595   2.110   4.249   4.397  0.1548  1.6975  2.3140
 2653SOL    HW219596   2.057   4.340   4.296  0.3639 -0.2673 -0.2199
 2654SOL     OW19597   2.133   1.582   7.900 -0.1341 -0.1893  0.1246
 2654SOL    HW119598   2.062   1.532   7.939 -1.2009  1.5652  0.4606
 2654SOL    HW219599   2.107   1.584   7.808  1.2034  3.0379 -0.1827
 2655SOL     OW19600   3.950   2.913   4.645 -0.1079  0.0452 -0.1292
 2655SOL    HW119601   3.942   2.933   4.551  0.5499 -0.0276 -0.1962
 2655SOL    HW219602   3.973   2.994   4.689 -0.5499 -0.0326  0.2449
 2656SOL     OW19603   1.369   2.152   2.123  0.1774  0.0663 -0.5514
 2656SOL    HW119604   1.323   2.093   2.064 -1.0160  0.4074  0.0276
 2656SOL    HW219605   1.403   2.211   2.056  1.7863 -0.9659 -0.6206
 2657SOL     OW19606   2.836   1.981   9.609  0.5165 -0.5109  0.3267
 2657SOL    HW119607   2.883   1.914   9.560 -1.8246 -1.5692 -0.5089
 2657SOL    HW219608   2.869   2.063   9.573  0.7038 -0.3854  0.7955
 2658SOL     OW19609   0.869   4.321   5.425  0.2176 -0.0578  0.4483
 2658SOL    HW119610   0.825   4.254   5.476  1.9852 -0.0075  2.0485
 2658SOL    HW219611   0.943   4.282   5.378  0.2108  0.9848 -0.4422
 2659SOL     OW19612   3.843   4.536   2.918  0.3392  0.9777 -0.0192
 2659SOL    HW119613   3.937   4.530   2.903  0.5384  0.7999  1.2677
 2659SOL    HW219614   3.861   4.595   2.992 -3.4170  0.5156  1.2752
 2660SOL     OW19615   2.523   1.254   7.897 -0.7068  0.6280 -0.8935
 2660SOL    HW119616   2.546   1.210   7.979  1.3247  1.0094 -1.2440
 2660SOL    HW219617   2.476   1.332   7.925  0.1368  0.5074  0.8827
 2661SOL     OW19618   1.036   0.881   4.087  0.0958  0.4589 -0.1274
 2661SOL    HW119619   1.066   0.801   4.131 -2.7070  0.2288  1.3424
 2661SOL    HW219620   0.947   0.888   4.122 -0.8375  0.7588 -2.6003
 2662SOL     OW19621   3.539   1.724  15.118  0.3355 -0.5466  0.1651
 2662SOL    HW119622   3.479   1.716  15.193  1.3781  1.1223  1.1866
 2662SOL    HW219623   3.501   1.665  15.053  1.1724 -2.1192  1.1013
 2663SOL     OW19624   3.652   2.372   4.235  0.2469 -0.0003  0.1705
 2663SOL    HW119625   3.747   2.369   4.241  0.4278  1.2557 -2.0200
 2663SOL    HW219626   3.624   2.327   4.314 -1.9078  2.8645  1.0344
 2664SOL     OW19627   4.315   4.236   8.015  0.0761 -0.1651 -0.3701
 2664SOL    HW119628   4.367   4.314   7.997  0.3441  0.0032  1.1563
 2664SOL    HW219629   4.269   4.270   8.091  0.8999 -0.6985  0.3627
 2665SOL     OW19630   4.458   2.296   3.158  0.0443 -0.5909  0.3321
 2665SOL    HW119631   4.364   2.316   3.157  0.5360  1.7403  0.2765
 2665SOL    HW219632   4.496   2.382   3.179 -1.4699  0.2568 -0.3794
 2666SOL     OW19633   2.616   1.720   4.926 -0.0498 -0.0423  0.2250
 2666SOL    HW119634   2.583   1.808   4.907  1.5428  0.4631 -0.1689
 2666SOL    HW219635   2.608   1.670   4.845  0.5140 -0.5828  0.5026
 2667SOL     OW19636   2.998   3.020   5.794 -0.3170 -0.3191  0.2415
 2667SOL    HW119637   3.051   2.997   5.718 -0.8055 -1.4536  0.2459
 2667SOL    HW219638   2.932   2.951   5.789 -2.6832  2.0180 -0.8649
 2668SOL     OW19639   0.902   1.769   8.369 -0.0600 -0.5007 -0.6811
 2668SOL    HW119640   0.860   1.684   8.359 -1.4317 -0.0690  1.3206
 2668SOL    HW219641   0.847   1.804   8.439  0.7403 -1.5324  0.4599
 2669SOL     OW19642   0.029   1.474  14.650  0.7192  0.2609 -0.1591
 2669SOL    HW119643   0.004   1.561  14.683  0.1834  0.4429 -1.0647
 2669SOL    HW219644   4.683   1.446  14.616 -0.2927  1.6502  1.2328
 2670SOL     OW19645   2.931   4.695   8.145 -0.1484  0.1126 -0.3374
 2670SOL    HW119646   2.971   4.611   8.126 -0.6833 -0.0793 -0.6201
 2670SOL    HW219647   2.928   4.721   8.053 -0.7576 -1.2252 -0.6919
 2671SOL     OW19648   4.607   2.270  16.921  0.0194 -0.3975  0.4188
 2671SOL    HW119649   4.527   2.265  16.973 -1.2485  0.3283 -1.4447
 2671SOL    HW219650   4.629   2.354  16.961 -0.1661  0.0423 -0.4136
 2672SOL     OW19651   2.296   3.443   1.844 -0.3350 -0.2782 -0.6434
 2672SOL    HW119652   2.370   3.430   1.785 -0.1385 -1.3886 -0.1443
 2672SOL    HW219653   2.330   3.392   1.917  0.0722  2.4965  1.1228
 2673SOL     OW19654   3.603   3.318   6.344  0.2334 -0.7536  0.5077
 2673SOL    HW119655   3.621   3.301   6.436 -0.5849 -1.4106  0.5461
 2673SOL    HW219656   3.521   3.276   6.317 -0.3995  0.6747  0.1981
 2674SOL     OW19657   0.598   3.677   2.732  0.0179  0.8124  0.1061
 2674SOL    HW119658   0.625   3.769   2.726  0.3866  0.8377  2.1351
 2674SOL    HW219659   0.582   3.658   2.640 -0.0800 -0.3744  0.3685
 2675SOL     OW19660   3.326   2.345   5.985 -0.4659 -0.0768 -0.2631
 2675SOL    HW119661   3.349   2.268   6.036  3.3022  0.0233 -1.7691
 2675SOL    HW219662   3.241   2.317   5.951 -1.2556 -0.8094  2.3111
 2676SOL     OW19663   4.090   3.798   8.998 -0.4793  0.2971  0.2658
 2676SOL    HW119664   4.184   3.807   9.017 -0.3323 -1.8865  0.5257
 2676SOL    HW219665   4.079   3.706   9.020  2.2853 -0.4856 -1.5183
 2677SOL     OW19666   1.054   3.543   4.767 -0.0063  0.3392  0.1361
 2677SOL    HW119667   1.013   3.461   4.794  1.1897  0.3739  2.0629
 2677SOL    HW219668   1.064   3.515   4.676  0.6995  0.4085  0.1965
 2678SOL     OW19669   1.937   4.170  12.054  0.8848  0.1967  0.5284
 2678SOL    HW119670   1.857   4.163  12.001  0.2662 -2.3999  1.7896
 2678SOL    HW219671   2.005   4.163  11.988 -1.7534  1.9341 -2.3780
 2679SOL     OW19672   2.201   3.903  16.759 -0.1903  0.0825 -0.5831
 2679SOL    HW119673   2.286   3.943  16.779 -1.6014  2.4857  0.6512
 2679SOL    HW219674   2.184   3.929  16.669  0.4646 -0.4754 -0.8654
 2680SOL     OW19675   1.582   0.323  13.315 -0.2175 -0.2228  0.4294
 2680SOL    HW119676   1.510   0.264  13.338 -1.1182  0.3678 -0.8565
 2680SOL    HW219677   1.535   0.377  13.251 -1.1949  0.4442  1.7052
 2681SOL     OW19678   0.899   2.940  15.267  0.1273  0.2628  0.0735
 2681SOL    HW119679   0.811   2.909  15.291  0.5915  0.4537  2.0543
 2681SOL    HW219680   0.946   2.929  15.349 -1.4672  1.6639  1.1826
 2682SOL     OW19681   4.579   0.302   5.949 -0.0988  1.0184 -0.2569
 2682SOL    HW119682   4.583   0.302   6.045 -2.2430  1.0963 -0.1818
 2682SOL    HW219683   4.487   0.281   5.936 -0.1006  2.1364 -2.0788
 2683SOL     OW19684   4.214   3.602   5.026  0.4817 -0.6595  0.5685
 2683SOL    HW119685   4.130   3.577   4.988  0.9667  3.1981 -3.0807
 2683SOL    HW219686   4.276   3.550   4.974  0.9946  0.4388  0.0907
 2684SOL     OW19687   2.675   0.951   7.738  0.1109  0.9505  0.5097
 2684SOL    HW119688   2.704   0.879   7.794 -0.3138 -0.1051 -0.6146
 2684SOL    HW219689   2.597   0.923   7.690  0.3459 -0.3714  0.8862
 2685SOL     OW19690   0.612   0.022   3.296 -0.3223  0.2992  0.3816
 2685SOL    HW119691   0.633   0.108   3.261  0.0004  0.5256  1.1321
 2685SOL    HW219692   0.522   0.025   3.263  0.2778 -1.3673 -1.3821
 2686SOL     OW19693   2.903   3.532  15.621  0.3032 -0.6178  0.0584
 2686SOL    HW119694   2.850   3.464  15.662 -0.4447  2.0063  3.4624
 2686SOL    HW219695   2.978   3.476  15.598  0.1344  0.0647 -2.2055
 2687SOL     OW19696   4.384   3.864   5.664 -0.1320 -0.4419  0.3827
 2687SOL    HW119697   4.349   3.847   5.576 -0.9906 -1.4501  0.9220
 2687SOL    HW219698   4.465   3.913   5.650  0.4547 -0.3928  4.0285
 2688SOL     OW19699   0.701   3.563  16.912 -0.4311  0.2458 -0.0016
 2688SOL    HW119700   0.718   3.618  16.836  0.8170 -0.3541 -0.1612
 2688SOL    HW219701   0.636   3.504  16.873  1.9434 -0.8006 -2.3747
 2689SOL     OW19702   2.288   3.788   3.081 -0.0527 -0.4364  0.0246
 2689SOL    HW119703   2.371   3.826   3.054  0.8319 -2.0474  0.4509
 2689SOL    HW219704   2.237   3.859   3.120 -3.6746 -3.0958  0.1632
 2690SOL     OW19705   1.434   0.205  14.906  0.6278 -0.3731  0.5309
 2690SOL    HW119706   1.359   0.147  14.895  1.7573 -1.9129  1.0516
 2690SOL    HW219707   1.421   0.253  14.988 -0.3505 -1.8867  1.2516
 2691SOL     OW19708   1.194   3.820   6.838  0.3827  0.2211  0.6127
 2691SOL    HW119709   1.178   3.915   6.838  0.6349  0.2587 -1.2332
 2691SOL    HW219710   1.128   3.795   6.903 -1.1908 -0.7291 -1.3713
 2692SOL     OW19711   4.579   2.616   3.605 -0.9357  0.4929 -0.5322
 2692SOL    HW119712   4.501   2.562   3.620 -0.7838 -0.1294 -1.9592
 2692SOL    HW219713   4.554   2.701   3.639  1.7316  0.8868  0.4124
 2693SOL     OW19714   4.230   1.794   7.259  0.4363 -0.7023  0.2972
 2693SOL    HW119715   4.197   1.846   7.332  0.8695 -0.0116 -0.0041
 2693SOL    HW219716   4.260   1.860   7.197  0.2550  0.0583  1.0321
 2694SOL     OW19717   2.726   1.700   5.439 -0.3358  0.2045  0.9629
 2694SOL    HW119718   2.718   1.613   5.477  0.3296  0.6324  2.0743
 2694SOL    HW219719   2.701   1.680   5.348  0.8545  3.0084  0.0227
 2695SOL     OW19720   3.852   3.543   0.091 -0.1651 -0.1747  0.2873
 2695SOL    HW119721   3.895   3.484   0.029  0.6036 -0.6342  1.2480
 2695SOL    HW219722   3.893   3.521   0.175 -0.1451  0.6802  0.5000
 2696SOL     OW19723   3.408   0.780   3.116  0.2917  0.0375  0.5766
 2696SOL    HW119724   3.321   0.814   3.137  0.8226  2.3355 -0.8622
 2696SOL    HW219725   3.384   0.751   3.028  0.9536 -1.6231  0.9553
 2697SOL     OW19726   2.225   4.086   9.501  0.0226 -0.1604  0.0819
 2697SOL    HW119727   2.297   4.030   9.530  0.5853 -0.1175 -1.2702
 2697SOL    HW219728   2.146   4.044   9.535  1.2840 -2.7112 -0.2048
 2698SOL     OW19729   0.989   2.843   7.790  0.2288 -0.1278 -0.1759
 2698SOL    HW119730   1.080   2.864   7.768 -0.1029  1.9734  0.4240
 2698SOL    HW219731   0.955   2.932   7.784  1.4499  0.1979 -2.4512
 2699SOL     OW19732   2.016   1.045   0.771  0.3481 -0.1795 -0.0013
 2699SOL    HW119733   1.993   1.012   0.684 -0.6245 -2.4437  1.0820
 2699SOL    HW219734   1.990   0.972   0.829 -1.0563  0.3101 -0.0103
 2700SOL     OW19735   4.231   3.244   0.668  1.0002  0.0599  0.2206
 2700SOL    HW119736   4.204   3.256   0.760 -0.0294  0.6269 -0.1545
 2700SOL    HW219737   4.152   3.285   0.632  1.7434  1.2955 -0.0214
 2701SOL     OW19738   1.262   1.847   5.407 -0.3212  0.5357 -0.4081
 2701SOL    HW119739   1.261   1.888   5.321 -0.4810 -1.6657 -1.4714
 2701SOL    HW219740   1.200   1.776   5.389  0.7821  0.0453 -2.2425
 2702SOL     OW19741   1.739   4.451   0.315 -0.1919  0.0966  0.2102
 2702SOL    HW119742   1.811   4.464   0.253 -0.5039  0.1107 -0.1437
 2702SOL    HW219743   1.678   4.404   0.258  0.8887 -1.4983  0.3603
 2703SOL     OW19744   0.047   4.037   9.305 -0.4025  0.4272  0.3788
 2703SOL    HW119745   0.130   4.075   9.277 -0.1712  0.7721  1.5385
 2703SOL    HW219746   0.010   4.098   9.369 -0.5605 -0.2181  0.8913
 2704SOL     OW19747   4.100   1.444  17.123  0.3393 -0.1721 -0.2221
 2704SOL    HW119748   4.175   1.390  17.149 -1.8970 -3.6611 -0.8993
 2704SOL    HW219749   4.103   1.443  17.027 -0.1625  0.5151 -0.2398
 2705SOL     OW19750   2.996   2.873   6.288 -0.4264 -0.1707  0.0957
 2705SOL    HW119751   2.942   2.944   6.253  0.7615 -0.2071 -1.8095
 2705SOL    HW219752   2.941   2.845   6.361 -1.1724 -0.7230 -0.6850
 2706SOL     OW19753   3.400   2.791   8.835 -0.5868  0.2423  0.6363
 2706SOL    HW119754   3.341   2.791   8.760  0.3401  4.2416 -0.0901
 2706SOL    HW219755   3.399   2.698   8.859 -3.6505  0.2642  0.5027
 2707SOL     OW19756   0.041   3.585   7.058 -0.6898 -0.3223 -0.1432
 2707SOL    HW119757   0.007   3.643   6.989 -2.5502  1.9578  2.6749
 2707SOL    HW219758   0.129   3.558   7.029 -0.9363 -1.0777 -0.1722
 2708SOL     OW19759   2.805   1.768   8.508  0.0324 -0.2848  0.3910
 2708SOL    HW119760   2.804   1.826   8.585 -0.4417 -1.1679  1.0588
 2708SOL    HW219761   2.785   1.829   8.437  1.8603  1.1864  1.1409
 2709SOL     OW19762   0.118   0.641   4.547 -0.0035  0.5140 -0.1229
 2709SOL    HW119763   0.180   0.570   4.531  0.8701  0.9743  1.2195
 2709SOL    HW219764   0.136   0.696   4.470  1.1374  0.2238 -0.0618
 2710SOL     OW19765   2.683   2.819   5.068  1.0293 -0.1939  0.1500
 2710SOL    HW119766   2.597   2.841   5.104  0.2201 -2.6445 -0.2995
 2710SOL    HW219767   2.651   2.730   5.052  1.1514  0.1017 -1.8116
 2711SOL     OW19768   4.712   1.336  15.716  0.1009  0.1473 -0.2370
 2711SOL    HW119769   4.675   1.391  15.646  0.3133  0.4205 -0.1364
 2711SOL    HW219770   0.059   1.313  15.681  0.7243  1.6954  0.2765
 2712SOL     OW19771   3.184   0.495   9.076 -0.0249 -0.0663  0.7821
 2712SOL    HW119772   3.182   0.422   9.014 -0.8259 -0.8491  1.7377
 2712SOL    HW219773   3.136   0.459   9.151 -2.5579  0.2390 -0.6849
 2713SOL     OW19774   1.153   1.687   9.021  0.3628 -0.1945 -0.2627
 2713SOL    HW119775   1.122   1.709   9.109  0.6079 -0.0942 -0.2011
 2713SOL    HW219776   1.244   1.669   9.044  0.4742 -1.0553 -1.3985
 2714SOL     OW19777   1.310   3.554   3.737 -0.0802 -0.2531 -0.5068
 2714SOL    HW119778   1.278   3.637   3.701 -0.2764 -0.9590 -1.9937
 2714SOL    HW219779   1.262   3.545   3.819  0.1272  3.6885  0.0189
 2715SOL     OW19780   2.951   1.449   5.581  0.3513  0.2080  0.0366
 2715SOL    HW119781   3.002   1.528   5.597  1.9315 -0.6482 -0.6494
 2715SOL    HW219782   3.019   1.389   5.550  1.4044  1.8953 -0.8926
 2716SOL     OW19783   1.822   0.950   6.961  0.2745  0.1175  0.2917
 2716SOL    HW119784   1.750   1.009   6.981  0.2067 -0.3505  1.4404
 2716SOL    HW219785   1.894   0.994   7.008  0.7390  0.1360 -0.4446
 2717SOL     OW19786   1.848   2.190   6.494 -0.4545  0.4775  0.3881
 2717SOL    HW119787   1.790   2.116   6.473 -1.4305  1.4633 -0.4266
 2717SOL    HW219788   1.843   2.242   6.414  0.2288 -1.1788 -0.7221
 2718SOL     OW19789   0.932   3.738   4.123 -0.1000  0.0378 -0.2329
 2718SOL    HW119790   0.899   3.805   4.064 -0.2328 -0.4593 -0.7243
 2718SOL    HW219791   0.898   3.765   4.208 -0.4841 -2.4220  0.4078
 2719SOL     OW19792   3.289   2.665   4.913  0.1763  0.0337 -0.0782
 2719SOL    HW119793   3.330   2.730   4.855  0.0371 -1.7833 -2.2005
 2719SOL    HW219794   3.204   2.658   4.868 -0.0489  0.4424  0.2830
 2720SOL     OW19795   2.563   4.543   2.867  0.0219  0.1061 -0.7382
 2720SOL    HW119796   2.592   4.462   2.908 -0.4528  0.8819  1.1127
 2720SOL    HW219797   2.573   4.601   2.943 -0.6047  1.6289 -1.8142
 2721SOL     OW19798   2.475   0.052   7.238  0.1184 -0.0098 -0.4747
 2721SOL    HW119799   2.528   0.118   7.282 -1.0174  1.0518 -0.6933
 2721SOL    HW219800   2.388   0.090   7.247 -0.2745 -1.1041  0.4208
 2722SOL     OW19801   3.101   4.604   5.505  0.0103 -0.0673  0.0106
 2722SOL    HW119802   3.079   4.586   5.596  0.9289 -0.9618  0.0538
 2722SOL    HW219803   3.196   4.610   5.511  0.0799  0.2741 -1.3272
 2723SOL     OW19804   3.976   4.449   3.356 -0.0355  0.3426 -0.5754
 2723SOL    HW119805   3.989   4.452   3.262  0.3245  2.6988 -0.4391
 2723SOL    HW219806   3.926   4.368   3.369  1.8821 -0.1162  3.8598
 2724SOL     OW19807   3.121   2.152   1.642 -0.0192  0.4482 -0.2825
 2724SOL    HW119808   3.084   2.119   1.561  1.2388 -1.0058 -0.2473
 2724SOL    HW219809   3.049   2.204   1.679 -1.4965 -1.5662 -0.3799
 2725SOL     OW19810   2.956   3.050   7.988  0.4389  0.3779 -1.1194
 2725SOL    HW119811   3.046   3.080   7.994 -0.6066  2.2853  4.3336
 2725SOL    HW219812   2.964   2.986   8.058 -0.5630 -2.0155 -3.1780
 2726SOL     OW19813   0.537   0.852   0.047  0.3906  0.4899  0.5819
 2726SOL    HW119814   0.614   0.795   0.041  0.6893  0.8399  1.1214
 2726SOL    HW219815   0.463   0.793   0.035  0.9560 -0.4586  1.7047
 2727SOL     OW19816   2.504   0.579   6.708 -0.0634 -0.3885  0.3357
 2727SOL    HW119817   2.507   0.505   6.768 -0.2396 -0.0939  0.7117
 2727SOL    HW219818   2.410   0.596   6.706 -0.1459 -0.9356 -0.5110
 2728SOL     OW19819   2.069   1.973  12.190  0.3788  0.2509  0.4779
 2728SOL    HW119820   2.030   1.899  12.236 -3.0683  0.6075 -1.8913
 2728SOL    HW219821   2.050   1.950  12.099  1.8986 -0.7818  0.4311
 2729SOL     OW19822   0.416   1.900   4.201 -0.6048  0.8110 -0.0712
 2729SOL    HW119823   0.387   1.908   4.110  3.1529  1.7775 -1.1642
 2729SOL    HW219824   0.502   1.939   4.187  0.4753 -1.8693 -1.0110
 2730SOL     OW19825   0.774   2.971  10.089  0.0714  0.1003 -0.3611
 2730SOL    HW119826   0.746   2.968   9.998  2.0672 -0.6912 -0.9353
 2730SOL    HW219827   0.863   3.006  10.084  0.7185 -1.9479 -2.7680
 2731SOL     OW19828   4.418   1.442   8.413 -0.3499 -0.4665 -0.3698
 2731SOL    HW119829   4.362   1.479   8.481 -1.4237 -0.4087 -1.2808
 2731SOL    HW219830   4.455   1.373   8.467 -1.2775  0.4358  1.4296
 2732SOL     OW19831   0.816   2.339   9.915 -0.4622  0.1476  1.0622
 2732SOL    HW119832   0.773   2.392   9.848  0.6211 -1.2156 -0.7451
 2732SOL    HW219833   0.822   2.252   9.874 -1.2314 -0.5400  2.4362
 2733SOL     OW19834   0.637   1.736   6.407 -0.1834  0.9327  0.2286
 2733SOL    HW119835   0.624   1.684   6.486 -0.2509  0.4683 -0.0836
 2733SOL    HW219836   0.677   1.677   6.343 -0.8238  0.8590 -0.1127
 2734SOL     OW19837   2.338   2.068  11.604 -0.1600  0.3702  0.2745
 2734SOL    HW119838   2.251   2.081  11.566  0.8936  0.1916 -2.2328
 2734SOL    HW219839   2.388   2.051  11.524 -2.1662  0.9374 -1.1063
 2735SOL     OW19840   1.534   2.492   4.557  0.4082  0.0676  0.2149
 2735SOL    HW119841   1.474   2.560   4.525 -0.6168 -1.2788 -0.7126
 2735SOL    HW219842   1.614   2.545   4.553  0.1582  0.6995  3.4871
 2736SOL     OW19843   2.934   0.196   2.334  0.1126  0.1886 -0.4768
 2736SOL    HW119844   2.847   0.158   2.320  0.2181 -1.5309  3.7487
 2736SOL    HW219845   2.985   0.131   2.285 -0.7008  0.2666 -1.4470
 2737SOL     OW19846   3.819   3.796   2.155  0.4737 -0.0346  0.1531
 2737SOL    HW119847   3.799   3.744   2.077 -0.2553 -0.8327  0.8729
 2737SOL    HW219848   3.882   3.737   2.197 -0.2461 -0.9978 -0.1450
 2738SOL     OW19849   0.610   0.481   9.294  0.1364  0.1145 -0.0235
 2738SOL    HW119850   0.548   0.547   9.263 -0.2563 -0.6783 -0.9675
 2738SOL    HW219851   0.682   0.502   9.235  1.8990 -0.5195  1.8946
 2739SOL     OW19852   0.261   0.835  10.080 -0.2697 -0.0231  0.4070
 2739SOL    HW119853   0.214   0.778  10.020 -1.7814  0.3212  1.2685
 2739SOL    HW219854   0.319   0.874  10.014  0.7008 -1.3921  0.4641
 2740SOL     OW19855   2.704   3.859   4.589  0.1130  0.2634 -0.1790
 2740SOL    HW119856   2.635   3.922   4.569 -0.6201  0.0163  1.6008
 2740SOL    HW219857   2.751   3.846   4.507  0.4860  0.6697 -0.0304
 2741SOL     OW19858   1.101   2.255   7.197  0.6160 -0.0961 -0.2753
 2741SOL    HW119859   1.084   2.182   7.257  0.9350  0.6280  0.6984
 2741SOL    HW219860   1.169   2.308   7.239 -0.1061 -0.5900  1.5239
 2742SOL     OW19861   1.911   0.894  12.296 -0.0614 -0.5832 -0.3912
 2742SOL    HW119862   1.897   0.930  12.384 -1.9402 -0.7352 -0.6282
 2742SOL    HW219863   1.962   0.816  12.319  0.1051 -0.7185 -1.2136
 2743SOL     OW19864   0.551   3.613   8.961 -0.2803  0.3063 -0.0221
 2743SOL    HW119865   0.456   3.602   8.950 -0.1093 -2.9703  1.8970
 2743SOL    HW219866   0.586   3.549   8.900  1.1351  0.2916  0.8148
 2744SOL     OW19867   3.494   4.439   8.937  0.4651  0.2461 -0.0765
 2744SOL    HW119868   3.533   4.458   8.852  0.6356  1.4654  0.2801
 2744SOL    HW219869   3.547   4.362   8.954 -0.0865 -0.4706 -1.5722
 2745SOL     OW19870   0.229   1.555  10.305  0.0866  0.5595 -0.1026
 2745SOL    HW119871   0.225   1.481  10.366  0.6077  1.0057  0.4777
 2745SOL    HW219872   0.252   1.626  10.365 -1.2203  1.6016 -0.8329
 2746SOL     OW19873   1.203   4.216   4.852  0.6411 -0.3730  0.6363
 2746SOL    HW119874   1.184   4.271   4.928 -0.7316 -0.7723  0.5735
 2746SOL    HW219875   1.295   4.194   4.866  0.5046 -1.4241 -0.1173
 2747SOL     OW19876   2.673   0.927   1.452  0.5449 -0.1258 -0.0745
 2747SOL    HW119877   2.677   0.900   1.360  3.0019 -0.9397  0.2827
 2747SOL    HW219878   2.759   0.967   1.463  0.6129  0.0915 -1.3788
 2748SOL     OW19879   1.558   0.862   8.875 -0.2078  0.0842  0.3154
 2748SOL    HW119880   1.633   0.807   8.852 -2.0890 -2.9535  1.4204
 2748SOL    HW219881   1.571   0.884   8.968 -3.1401 -0.1012  0.7854
 2749SOL     OW19882   1.078   1.455   2.212 -0.1457  0.1259  0.1204
 2749SOL    HW119883   1.030   1.531   2.245  1.1105 -0.1359  2.5741
 2749SOL    HW219884   1.138   1.511   2.163 -0.5387 -1.3993 -2.0968
 2750SOL     OW19885   3.355   0.494  17.126 -0.2318 -0.0862 -0.6138
 2750SOL    HW119886   3.356   0.545  17.045 -2.8293 -1.3118 -1.4140
 2750SOL    HW219887   3.415   0.422  17.107 -1.7781 -1.1179 -1.5792
 2751SOL     OW19888   2.664   0.451  13.282 -0.1014 -0.1368  0.2733
 2751SOL    HW119889   2.681   0.513  13.353 -0.5201 -0.0708  0.3157
 2751SOL    HW219890   2.637   0.502  13.205 -1.4941 -0.9089  0.2576
 2752SOL     OW19891   0.272   3.665   0.439 -0.1207 -0.0130  0.2180
 2752SOL    HW119892   0.216   3.738   0.411  0.5021  0.3934  0.0214
 2752SOL    HW219893   0.303   3.636   0.353 -0.2496 -1.2104  0.5731
 2753SOL     OW19894   3.006   0.453   9.304  0.4001 -0.5060 -0.1065
 2753SOL    HW119895   2.947   0.378   9.310 -0.9264  0.4171 -1.8768
 2753SOL    HW219896   3.039   0.462   9.393 -0.4146 -0.7171  0.2072
 2754SOL     OW19897   4.132   3.889   6.220 -0.4638  0.0804  0.1623
 2754SOL    HW119898   4.147   3.980   6.247 -1.8034  0.5547 -0.6723
 2754SOL    HW219899   4.196   3.887   6.148 -1.3809  1.5081 -0.7076
 2755SOL     OW19900   2.729   0.512   2.907  0.2459 -0.1466 -0.6536
 2755SOL    HW119901   2.747   0.505   2.813 -0.5698  0.1949 -0.8327
 2755SOL    HW219902   2.720   0.606   2.922 -3.2909 -0.6818  0.4050
 2756SOL     OW19903   0.678   3.720  10.231  0.2969  0.5047 -0.1509
 2756SOL    HW119904   0.760   3.733  10.184  0.0541 -1.1068 -1.0648
 2756SOL    HW219905   0.637   3.805  10.216  3.4169  2.0639  0.4030
 2757SOL     OW19906   4.724   0.350   5.359 -0.1794 -0.0802  0.3859
 2757SOL    HW119907   4.675   0.424   5.394 -0.3594  0.0356 -0.1150
 2757SOL    HW219908   0.064   0.360   5.412  1.6874  0.4783 -2.5036
 2758SOL     OW19909   2.132   2.969   7.494  0.1993  0.4400 -0.1434
 2758SOL    HW119910   2.188   3.006   7.427 -0.6165  1.7106 -0.1323
 2758SOL    HW219911   2.074   3.040   7.524 -0.7878 -0.7085  0.6926
 2759SOL     OW19912   4.077   3.341   4.367  0.0192  0.4073  0.2943
 2759SOL    HW119913   4.118   3.295   4.294 -0.0545  3.6049 -1.7531
 2759SOL    HW219914   4.059   3.418   4.313 -0.6088 -0.9957 -1.4899
 2760SOL     OW19915   3.944   1.293   3.219  0.1201 -0.2321 -0.0445
 2760SOL    HW119916   3.951   1.282   3.124  1.5303 -0.9088  0.1366
 2760SOL    HW219917   4.032   1.308   3.253  0.3660 -0.6217 -0.5164
 2761SOL     OW19918   0.185   0.732  11.521  0.0564  0.0751 -0.2929
 2761SOL    HW119919   0.110   0.779  11.558 -0.4110 -0.8173 -0.0996
 2761SOL    HW219920   0.180   0.754  11.428  0.3090  2.4698  0.2745
 2762SOL     OW19921   4.415   1.577  10.309 -0.0032  0.3113 -0.5197
 2762SOL    HW119922   4.391   1.668  10.289 -3.7015 -0.1807  1.5853
 2762SOL    HW219923   4.386   1.567  10.400 -3.1431 -0.3133 -1.5769
 2763SOL     OW19924   2.520   2.516   7.488 -0.0559 -0.2988 -0.1090
 2763SOL    HW119925   2.524   2.599   7.536 -0.2948  0.5355 -1.5321
 2763SOL    HW219926   2.583   2.534   7.418 -0.6282 -1.8060 -0.9964
 2764SOL     OW19927   0.391   2.759   3.598  0.3886  0.0063 -0.2671
 2764SOL    HW119928   0.329   2.820   3.639  0.9822  1.4315 -1.5047
 2764SOL    HW219929   0.476   2.797   3.619  0.8481 -0.5164 -1.2186
 2765SOL     OW19930   0.630   0.312   2.227 -0.3296  0.0638 -0.0641
 2765SOL    HW119931   0.606   0.255   2.154  1.9272 -0.1993 -0.5863
 2765SOL    HW219932   0.675   0.386   2.186 -0.3978 -0.1470 -0.5144
 2766SOL     OW19933   4.219   4.312   4.941 -0.4756 -0.2000 -0.2750
 2766SOL    HW119934   4.243   4.282   5.028 -2.1219 -0.3683  0.1304
 2766SOL    HW219935   4.226   4.408   4.948 -1.5383 -0.1105 -0.3308
 2767SOL     OW19936   1.093   2.385   8.689 -0.6376 -0.3662 -0.3303
 2767SOL    HW119937   1.064   2.358   8.777  1.4516 -0.5238  0.3232
 2767SOL    HW219938   1.182   2.349   8.686 -0.9006 -0.7756 -2.5936
 2768SOL     OW19939   0.022   3.469   0.168  0.0313  0.2031 -0.0090
 2768SOL    HW119940   0.053   3.474   0.258  0.4069  1.1340 -0.1951
 2768SOL    HW219941   0.038   3.550   0.121  0.4605  0.4564  0.5706
 2769SOL     OW19942   3.427   3.651   5.867  0.5759 -0.2355  0.5047
 2769SOL    HW119943   3.385   3.737   5.856  3.5592  1.1169 -0.1619
 2769SOL    HW219944   3.435   3.642   5.962  0.1176  0.1815  0.5813
 2770SOL     OW19945   2.700   1.465   7.790 -0.4430  0.4999 -0.1270
 2770SOL    HW119946   2.703   1.373   7.767  0.1877 -0.2622  3.0423
 2770SOL    HW219947   2.632   1.474   7.856 -0.0460 -1.7870  0.5659
 2771SOL     OW19948   0.915   2.305   7.011  0.8124  0.0397  0.1729
 2771SOL    HW119949   0.845   2.360   7.046  0.0502 -0.3664 -0.7216
 2771SOL    HW219950   0.973   2.290   7.086 -0.4064 -1.6091  0.7914
 2772SOL     OW19951   0.232   3.212   0.742  0.0936 -0.4048 -0.0119
 2772SOL    HW119952   0.317   3.168   0.742  0.4734  0.3263 -0.3300
 2772SOL    HW219953   0.170   3.140   0.735  1.7259 -1.8014 -0.2171
 2773SOL     OW19954   1.763   1.754   4.036  0.3064  0.2686  0.7981
 2773SOL    HW119955   1.693   1.817   4.056 -0.0692 -0.3886  1.5114
 2773SOL    HW219956   1.729   1.674   4.075 -1.8192  1.3289  1.1094
 2774SOL     OW19957   3.709   0.996  14.723 -0.7217  0.2109 -0.1639
 2774SOL    HW119958   3.624   0.968  14.690  0.9290 -1.8573 -2.6637
 2774SOL    HW219959   3.684   1.075  14.771  1.3452  0.6574  0.1769
 2775SOL     OW19960   1.987   2.284  12.621 -0.2343 -0.6554 -0.7479
 2775SOL    HW119961   2.061   2.237  12.661 -0.0422  0.4893  0.2353
 2775SOL    HW219962   1.912   2.229  12.641  0.7454 -2.2575 -1.4302
 2776SOL     OW19963   4.653   3.280   1.278  0.2610 -0.3254 -0.4711
 2776SOL    HW119964   4.681   3.367   1.307 -0.1049 -0.3716  0.0106
 2776SOL    HW219965   4.708   3.258   1.202 -0.5435  1.8335 -1.6723
 2777SOL     OW19966   0.230   4.171   0.497 -0.5031 -0.1130 -0.1984
 2777SOL    HW119967   0.288   4.103   0.531 -0.2954 -0.0213 -0.3700
 2777SOL    HW219968   0.170   4.176   0.572  0.6140 -2.5700  0.8297
 2778SOL     OW19969   2.055   1.352   6.711  0.0623  0.3610  0.1302
 2778SOL    HW119970   2.098   1.433   6.684 -0.9317  0.9232  0.2215
 2778SOL    HW219971   2.080   1.361   6.803 -1.6886  0.7907  0.5624
 2779SOL     OW19972   0.130   1.824  13.447 -0.3761  0.1177 -0.1332
 2779SOL    HW119973   0.157   1.779  13.527 -0.9007 -0.1168 -0.0939
 2779SOL    HW219974   0.145   1.912  13.483  0.4771 -0.3495  0.6634
 2780SOL     OW19975   2.503   4.029   0.435 -0.4649 -0.0056  0.0436
 2780SOL    HW119976   2.595   4.050   0.454 -0.2702 -0.9236  0.1371
 2780SOL    HW219977   2.497   3.944   0.481 -1.0816 -0.3891 -0.7508
 2781SOL     OW19978   2.255   2.578   7.745 -0.2103 -0.5971  0.7233
 2781SOL    HW119979   2.289   2.667   7.748  0.1901 -0.6924 -0.9431
 2781SOL    HW219980   2.215   2.588   7.659 -1.4615  0.3563  1.4117
 2782SOL     OW19981   2.659   2.320  15.653 -0.6442  0.7592 -0.5881
 2782SOL    HW119982   2.666   2.341  15.746 -2.3887  0.2879 -0.3434
 2782SOL    HW219983   2.633   2.407  15.621  2.1511  1.2616 -1.4433
 2783SOL     OW19984   0.091   1.908   4.910  0.1421  0.1276  0.3592
 2783SOL    HW119985   0.054   1.903   4.997  1.7544  0.1428  1.0497
 2783SOL    HW219986   0.118   1.817   4.899 -4.8083 -1.1522 -1.1135
 2784SOL     OW19987   0.995   2.077  12.880  0.2757 -0.6120 -0.2615
 2784SOL    HW119988   0.932   2.025  12.929 -0.5409 -0.6666 -1.3613
 2784SOL    HW219989   1.032   2.129  12.952 -0.5576 -0.5078  0.0865
 2785SOL     OW19990   0.813   0.933   7.313  0.7262  0.3827 -0.1621
 2785SOL    HW119991   0.772   0.930   7.399  0.1806  0.6734 -0.4164
 2785SOL    HW219992   0.738   0.945   7.254  1.5941  1.5021 -1.0548
 2786SOL     OW19993   2.350   1.520  10.187  0.1290 -0.0313 -0.3527
 2786SOL    HW119994   2.274   1.490  10.237  1.0817 -2.1128 -0.1563
 2786SOL    HW219995   2.418   1.455  10.206 -1.8743 -1.9683  0.2278
 2787SOL     OW19996   2.488   4.248  10.214 -0.0267  0.8834 -0.5348
 2787SOL    HW119997   2.559   4.205  10.167 -0.9266 -1.0150 -0.1554
 2787SOL    HW219998   2.530   4.276  10.296  1.0482  0.1623 -0.8435
 2788SOL     OW19999   0.296   1.233  13.484  0.4304 -0.1669  0.2711
 2788SOL    HW120000   0.263   1.290  13.553  1.5108  0.6355  0.1136
 2788SOL    HW220001   0.215   1.185  13.463  1.5855 -1.1162 -1.9880
 2789SOL     OW20002   0.583   4.535   8.177  0.2949 -0.2363 -0.7443
 2789SOL    HW120003   0.632   4.482   8.115 -0.4010 -1.8168  0.0281
 2789SOL    HW220004   0.501   4.552   8.131  0.0974  2.7259  0.7230
 2790SOL     OW20005   4.279   0.866   2.394 -0.0906  0.0741 -0.7095
 2790SOL    HW120006   4.341   0.826   2.454 -0.0796 -0.3436 -0.9970
 2790SOL    HW220007   4.313   0.953   2.373 -2.4432  1.5519  1.6374
 2791SOL     OW20008   4.439   4.471  10.254 -0.4472 -0.5152  0.3155
 2791SOL    HW120009   4.525   4.500  10.285 -0.6999  0.4643  0.1190
 2791SOL    HW220010   4.453   4.384  10.216 -1.0727  0.5761 -2.4563
 2792SOL     OW20011   3.034   3.838  13.906  0.9295 -0.5555 -0.2347
 2792SOL    HW120012   3.003   3.927  13.891  2.5641 -0.4598 -3.0974
 2792SOL    HW220013   2.974   3.771  13.873 -1.6160  1.1407  0.9659
 2793SOL     OW20014   0.130   3.206   7.649 -0.5098  0.2347  0.0363
 2793SOL    HW120015   0.125   3.293   7.608 -0.7486 -0.4640 -1.4343
 2793SOL    HW220016   0.132   3.240   7.738  1.5721 -2.7198  1.1042
 2794SOL     OW20017   3.662   3.484   1.604 -0.8054  0.1866  0.0541
 2794SOL    HW120018   3.587   3.441   1.646 -0.1102  0.6715  1.7730
 2794SOL    HW220019   3.615   3.566   1.586 -0.3468  0.0306 -1.7849
 2795SOL     OW20020   0.276   0.572   0.504  0.2999 -0.4457 -0.5241
 2795SOL    HW120021   0.274   0.529   0.419 -0.2827 -2.4761  0.4947
 2795SOL    HW220022   0.186   0.555   0.530  0.2727 -0.4456 -0.6211
 2796SOL     OW20023   0.237   0.396   4.419  0.1717 -0.0781  1.0661
 2796SOL    HW120024   0.311   0.373   4.476  0.7425 -1.9771 -0.4319
 2796SOL    HW220025   0.192   0.312   4.409 -1.4115  0.7769  1.0762
 2797SOL     OW20026   3.431   3.277  11.874 -0.0153  0.6361 -0.2404
 2797SOL    HW120027   3.410   3.294  11.966  0.0001  0.9862 -0.3017
 2797SOL    HW220028   3.348   3.235  11.853  1.3672 -1.5746 -1.1638
 2798SOL     OW20029   1.654   2.307   1.588 -0.0359  0.0711  0.8239
 2798SOL    HW120030   1.738   2.343   1.562  1.1304 -2.6752  0.7731
 2798SOL    HW220031   1.589   2.359   1.540  1.2470 -0.3530 -1.3617
 2799SOL     OW20032   3.890   3.616   0.931  0.5494  0.4351 -0.2598
 2799SOL    HW120033   3.977   3.642   0.901  0.1275  0.3507 -1.5607
 2799SOL    HW220034   3.867   3.689   0.988  1.1350  0.6884 -0.3585
 2800SOL     OW20035   2.805   1.242   4.375 -0.0967 -0.4433  0.5033
 2800SOL    HW120036   2.886   1.260   4.424  0.5391 -0.6135 -0.4832
 2800SOL    HW220037   2.844   1.194   4.302  3.3654  0.8719  1.4585
 2801SOL     OW20038   2.595   1.942   9.725  0.1814 -0.4623 -0.6329
 2801SOL    HW120039   2.609   1.991   9.806 -2.3747  0.2673 -0.6459
 2801SOL    HW220040   2.674   1.950   9.672  1.5760  3.0567  1.9663
 2802SOL     OW20041   0.446   2.326   6.530 -0.2865  0.0075  0.3223
 2802SOL    HW120042   0.520   2.323   6.470 -1.5427  0.3933 -1.2616
 2802SOL    HW220043   0.370   2.331   6.472  0.0179  0.1931 -0.0585
 2803SOL     OW20044   3.512   3.886   7.347 -0.1460  0.1778 -0.7476
 2803SOL    HW120045   3.459   3.951   7.394  2.5677  3.5418 -2.3029
 2803SOL    HW220046   3.592   3.892   7.400  0.3111 -0.0077 -1.4183
 2804SOL     OW20047   1.167   2.434   9.107 -0.0145 -0.1606  0.3246
 2804SOL    HW120048   1.107   2.395   9.044  2.0016 -1.4594 -0.7796
 2804SOL    HW220049   1.103   2.452   9.176  0.9434 -0.3411  1.2635
 2805SOL     OW20050   4.139   4.077   0.227 -0.0712 -0.0323 -0.1838
 2805SOL    HW120051   4.072   4.009   0.221  1.2313 -1.2750 -0.6091
 2805SOL    HW220052   4.092   4.154   0.194  0.0414 -0.6514 -1.7775
 2806SOL     OW20053   3.615   0.891  16.284 -0.3042  0.3867  0.1414
 2806SOL    HW120054   3.601   0.984  16.271  0.2858  0.4481 -0.0652
 2806SOL    HW220055   3.710   0.887  16.273 -0.0644  0.2526  2.1824
 2807SOL     OW20056   0.633   3.392   3.474  0.1792 -0.2280 -0.6103
 2807SOL    HW120057   0.545   3.371   3.442  0.5733 -0.8141 -1.3122
 2807SOL    HW220058   0.667   3.303   3.471 -0.8189 -0.6982  1.7826
 2808SOL     OW20059   2.387   1.344   5.656  0.7673  0.3309 -0.2329
 2808SOL    HW120060   2.437   1.302   5.726  0.7671  0.9691  0.1528
 2808SOL    HW220061   2.328   1.275   5.627  1.7129 -0.2894 -0.6872
 2809SOL     OW20062   0.007   4.508   4.792 -0.3328 -0.1301  0.5687
 2809SOL    HW120063   4.682   4.438   4.797 -0.1047 -0.1860  2.7132
 2809SOL    HW220064   0.087   4.458   4.774 -1.7731 -3.2165  2.6714
 2810SOL     OW20065   0.636   4.163   0.838  0.6213  0.1326  0.1888
 2810SOL    HW120066   0.626   4.150   0.743 -0.7036  2.4633  0.0220
 2810SOL    HW220067   0.705   4.229   0.843  1.7779 -0.9267 -1.4265
 2811SOL     OW20068   0.247   0.952   5.174  0.4646 -0.4060 -0.7211
 2811SOL    HW120069   0.282   0.875   5.220 -1.5753 -1.1121 -0.3478
 2811SOL    HW220070   0.309   0.959   5.102 -0.1467  1.2306 -1.0880
 2812SOL     OW20071   1.638   2.865  12.440 -0.1296  0.1068 -0.1080
 2812SOL    HW120072   1.653   2.797  12.506  2.1099 -0.0532 -0.7699
 2812SOL    HW220073   1.577   2.926  12.482  2.8126  1.3959  2.3422
 2813SOL     OW20074   2.891   2.366   6.707 -0.0382  0.6038  0.6622
 2813SOL    HW120075   2.937   2.353   6.624 -0.3598 -3.5587  1.1005
 2813SOL    HW220076   2.950   2.325   6.770  1.1591  3.2695  1.2824
 2814SOL     OW20077   0.608   2.289   6.315  0.7318 -0.9155 -0.0414
 2814SOL    HW120078   0.615   2.194   6.317 -0.0086 -0.9218  2.8820
 2814SOL    HW220079   0.682   2.313   6.259  1.7321  1.8631  2.4580
 2815SOL     OW20080   4.168   3.495   3.033  0.2609  0.1267  0.1320
 2815SOL    HW120081   4.225   3.468   2.961  0.7062 -0.8365  0.8381
 2815SOL    HW220082   4.101   3.426   3.041 -0.9006  1.0348 -1.7918
 2816SOL     OW20083   3.190   4.194   5.161 -0.3126  0.2124 -0.3682
 2816SOL    HW120084   3.229   4.281   5.162 -0.1969  0.1282  1.8076
 2816SOL    HW220085   3.119   4.205   5.098  0.3716  0.5927 -1.0829
 2817SOL     OW20086   3.635   3.501   5.772 -0.0313  0.4613 -0.1858
 2817SOL    HW120087   3.697   3.560   5.728 -1.8577  0.7906 -2.2848
 2817SOL    HW220088   3.578   3.568   5.808  0.1273 -0.0702  1.0512
 2818SOL     OW20089   3.936   2.725   5.572  0.3882 -0.0960  0.0456
 2818SOL    HW120090   4.026   2.692   5.569  0.9615  1.3407  1.4398
 2818SOL    HW220091   3.918   2.720   5.478 -1.7283  1.9379  0.3402
 2819SOL     OW20092   4.546   1.164   9.020  0.0880  0.0817  0.1330
 2819SOL    HW120093   4.535   1.217   8.942 -0.8702 -0.7136 -0.2770
 2819SOL    HW220094   4.461   1.119   9.019 -0.7849  1.8573 -3.5836
 2820SOL     OW20095   2.811   1.563  10.863  0.0610 -0.2334  0.2921
 2820SOL    HW120096   2.775   1.623  10.929  1.0129  0.0032  0.6089
 2820SOL    HW220097   2.902   1.595  10.858 -0.2674  0.4130 -1.6558
 2821SOL     OW20098   0.553   2.549  14.003 -0.3393 -0.1556 -0.4449
 2821SOL    HW120099   0.527   2.483  14.067  2.6142 -0.4406  0.4560
 2821SOL    HW220100   0.467   2.585  13.983 -0.8342 -0.9962  0.2044
 2822SOL     OW20101   1.394   1.114  15.667  0.0175  0.4417 -0.2072
 2822SOL    HW120102   1.360   1.129  15.755 -2.4341  0.5705 -1.1900
 2822SOL    HW220103   1.477   1.076  15.696  0.3536  0.5323 -1.0342
 2823SOL     OW20104   2.249   2.006  14.490  0.9504 -0.0827 -1.2853
 2823SOL    HW120105   2.198   1.928  14.472  2.2058 -1.0998 -0.4605
 2823SOL    HW220106   2.188   2.077  14.468  0.2631 -0.4274 -0.4786
 2824SOL     OW20107   3.352   3.823   3.593  0.0180  0.2391  0.2617
 2824SOL    HW120108   3.310   3.892   3.541  1.1601  0.6344 -0.1393
 2824SOL    HW220109   3.311   3.742   3.563 -1.4394  1.5186 -1.1841
 2825SOL     OW20110   0.204   1.566   6.287 -0.5433  0.2094 -0.0705
 2825SOL    HW120111   0.170   1.571   6.377  1.2546 -0.9454  0.6696
 2825SOL    HW220112   0.127   1.540   6.236 -1.8612  3.0722  0.4450
 2826SOL     OW20113   0.857   1.603   3.018  0.1587 -0.2734 -0.0015
 2826SOL    HW120114   0.857   1.507   3.016 -1.2472 -0.2652 -0.4062
 2826SOL    HW220115   0.777   1.623   3.067  0.0818 -0.4151 -0.0709
 2827SOL     OW20116   2.846   3.193   1.755 -0.3444  0.4591 -0.8495
 2827SOL    HW120117   2.834   3.288   1.761 -0.6939  0.2482  1.7265
 2827SOL    HW220118   2.778   3.151   1.808  0.6387 -1.2604 -0.9658
 2828SOL     OW20119   1.233   3.604   9.051 -0.5238 -0.1936  0.1716
 2828SOL    HW120120   1.302   3.605   9.117  0.7706  1.3702 -1.2074
 2828SOL    HW220121   1.266   3.652   8.975 -0.3118  0.7603  0.8573
 2829SOL     OW20122   2.698   2.953   7.081 -0.0990 -0.3801  0.4612
 2829SOL    HW120123   2.785   2.975   7.048  0.2401 -3.2754 -0.5939
 2829SOL    HW220124   2.672   2.900   7.006 -0.5093  0.5740 -0.0615
 2830SOL     OW20125   3.924   3.398   9.498  0.1311 -0.6311 -0.1818
 2830SOL    HW120126   3.984   3.355   9.437  2.0881 -0.7970  1.8595
 2830SOL    HW220127   3.963   3.485   9.502  0.2581 -0.6864 -0.1892
 2831SOL     OW20128   0.739   1.197  10.206  0.1643 -0.0277 -0.9114
 2831SOL    HW120129   0.699   1.159  10.128  0.9910  0.7392 -1.7162
 2831SOL    HW220130   0.690   1.152  10.274  0.6182  1.5802  0.4815
 2832SOL     OW20131   0.939   1.133   0.319  0.2066 -0.3145  0.1738
 2832SOL    HW120132   0.965   1.133   0.411  3.0793 -0.6607 -0.6458
 2832SOL    HW220133   0.954   1.220   0.281 -0.4160  0.0622  0.7825
 2833SOL     OW20134   4.709   3.822   6.020  0.0668 -0.5556 -0.1212
 2833SOL    HW120135   0.009   3.898   5.977 -1.5679 -0.0031 -0.6190
 2833SOL    HW220136   0.001   3.830   6.110  0.2380 -0.2442 -0.2083
 2834SOL     OW20137   1.900   1.716   1.633 -0.3770 -0.2642  0.5015
 2834SOL    HW120138   1.866   1.779   1.697  1.2918  2.5469 -1.3893
 2834SOL    HW220139   1.832   1.702   1.568  3.2557 -1.4466 -3.0536
 2835SOL     OW20140   2.872   2.577  12.331  0.1692 -0.0138  0.9357
 2835SOL    HW120141   2.866   2.483  12.353  1.2589  0.2041  2.1785
 2835SOL    HW220142   2.807   2.569  12.261  1.4578 -0.5699 -0.1886
 2836SOL     OW20143   2.783   4.704   2.785 -0.2412  0.3277  0.5107
 2836SOL    HW120144   2.801   4.613   2.762 -0.2734  0.0656  1.5485
 2836SOL    HW220145   2.719   4.702   2.856 -0.4246  0.1070  0.3365
 2837SOL     OW20146   0.907   0.095  16.590 -0.1435 -0.3664  0.4931
 2837SOL    HW120147   0.888   0.013  16.634 -3.1671 -0.7538 -1.5842
 2837SOL    HW220148   0.845   0.104  16.518  0.9048  1.5008 -0.1851
 2838SOL     OW20149   0.428   3.349   4.922 -0.4161  0.6670 -0.3606
 2838SOL    HW120150   0.463   3.370   5.008 -2.6416  2.0767  0.1840
 2838SOL    HW220151   0.394   3.434   4.897 -1.8163  0.6623  1.5329
 2839SOL     OW20152   4.246   0.177  11.202  0.5500 -0.5405  0.1353
 2839SOL    HW120153   4.208   0.180  11.114 -0.7158  0.5852  0.7254
 2839SOL    HW220154   4.340   0.164  11.190  1.0936 -0.4955  4.4163
 2840SOL     OW20155   2.605   3.820   8.617  0.5310  0.2949 -0.5656
 2840SOL    HW120156   2.574   3.760   8.684  0.9979  1.9765  1.1646
 2840SOL    HW220157   2.698   3.808   8.635 -0.5465 -5.4847  1.0224
 2841SOL     OW20158   3.393   0.405   5.695 -0.4263 -0.3599 -0.3603
 2841SOL    HW120159   3.395   0.318   5.655  0.6391 -0.1420 -0.7868
 2841SOL    HW220160   3.352   0.455   5.624 -1.1123  0.1798  0.4112
 2842SOL     OW20161   1.456   1.010  10.513  0.2794  0.6492 -0.1855
 2842SOL    HW120162   1.552   1.006  10.507  0.3036  0.1163  0.5072
 2842SOL    HW220163   1.434   0.936  10.570  1.1813  0.3069 -0.2819
 2843SOL     OW20164   1.783   2.541   2.549  0.8112  0.2018 -0.3160
 2843SOL    HW120165   1.860   2.589   2.579  1.6938 -0.5214 -1.4416
 2843SOL    HW220166   1.823   2.463   2.510 -1.5814 -1.3524  0.3224
 2844SOL     OW20167   0.956   1.719   4.584  0.1338  0.1459  0.7911
 2844SOL    HW120168   0.993   1.707   4.497 -0.3748  0.5989  0.5103
 2844SOL    HW220169   0.968   1.631   4.619 -1.3115 -0.8802 -1.2905
 2845SOL     OW20170   2.953   0.095  13.326 -0.0927 -0.1227 -0.1544
 2845SOL    HW120171   2.938   0.032  13.397 -3.2751 -1.0185 -1.6186
 2845SOL    HW220172   3.029   0.135  13.368 -1.3918  0.1814  1.9321
 2846SOL     OW20173   2.147   1.607   1.536  0.3785  0.4471  0.3107
 2846SOL    HW120174   2.052   1.605   1.536  0.4111 -1.0682  0.5972
 2846SOL    HW220175   2.180   1.550   1.467  0.2770  1.3862 -0.5203
 2847SOL     OW20176   0.238   0.086   9.454  0.3475  0.2725 -0.1929
 2847SOL    HW120177   0.267   0.102   9.365  0.2831  0.6202 -0.1532
 2847SOL    HW220178   0.236   0.179   9.477  2.1717  0.2923 -0.1175
 2848SOL     OW20179   3.180   4.607  17.737  0.7485 -0.1957  0.5852
 2848SOL    HW120180   3.185   4.640  17.647 -1.4672 -0.8609  0.1991
 2848SOL    HW220181   3.232   4.527  17.740  1.8670  0.4718 -1.0977
 2849SOL     OW20182   2.751   2.697  11.896  0.0956  0.2286 -0.5422
 2849SOL    HW120183   2.787   2.624  11.846 -0.3887 -0.5775  0.2745
 2849SOL    HW220184   2.666   2.706  11.852  0.1603  1.2499 -0.4448
 2850SOL     OW20185   1.063   1.503   7.960  0.8431 -0.3624 -0.2011
 2850SOL    HW120186   1.085   1.415   7.929 -0.7699 -0.0691 -2.2002
 2850SOL    HW220187   1.072   1.487   8.054 -1.5834  0.5486  0.1954
 2851SOL     OW20188   2.118   0.666   9.162  0.0611  0.4143 -0.1685
 2851SOL    HW120189   2.137   0.701   9.075 -1.9087  0.1513 -0.7081
 2851SOL    HW220190   2.211   0.680   9.180  0.3850 -1.3980 -0.4631
 2852SOL     OW20191   4.207   0.986   9.265  0.8117  0.1487  0.5606
 2852SOL    HW120192   4.112   0.989   9.252  0.7792  0.2402  0.8088
 2852SOL    HW220193   4.235   1.013   9.178  0.5276 -3.0443 -0.5293
 2853SOL     OW20194   2.504   1.865   6.889 -0.1487 -0.4675 -0.4410
 2853SOL    HW120195   2.487   1.895   6.979  0.3209 -1.2604 -0.0853
 2853SOL    HW220196   2.555   1.941   6.860  0.4667 -0.7750 -0.1682
 2854SOL     OW20197   2.898   1.607   2.941  0.6961  0.2194 -0.3045
 2854SOL    HW120198   2.805   1.589   2.936  0.1378  2.4889  1.5642
 2854SOL    HW220199   2.906   1.643   3.030 -0.2436 -2.2169  0.7819
 2855SOL     OW20200   4.625   2.928   8.038 -0.1119 -0.1121 -0.3069
 2855SOL    HW120201   4.712   2.922   8.076 -0.0999  0.8496 -0.1786
 2855SOL    HW220202   4.630   2.859   7.972  1.9762 -0.2523 -0.0127
 2856SOL     OW20203   4.402   3.201   3.387  0.3026  0.3306  0.1407
 2856SOL    HW120204   4.429   3.281   3.343 -1.0922  1.3421  1.1300
 2856SOL    HW220205   4.344   3.245   3.449 -0.4673  1.8447 -1.6906
 2857SOL     OW20206   3.404   1.899  10.152 -0.0611 -0.2440 -0.0257
 2857SOL    HW120207   3.456   1.894  10.233  1.8698 -0.6848 -1.3055
 2857SOL    HW220208   3.320   1.908  10.196  0.8237  1.3809  1.3440
 2858SOL     OW20209   2.397   0.750   7.352  0.1208  0.2692 -0.0409
 2858SOL    HW120210   2.343   0.701   7.290  0.6526 -0.0949 -0.2188
 2858SOL    HW220211   2.468   0.786   7.298 -0.7667 -0.6925 -1.8309
 2859SOL     OW20212   3.591   0.065  12.712  0.3545  0.1831  0.0902
 2859SOL    HW120213   3.654   4.733  12.723  1.6765  1.0395 -1.8336
 2859SOL    HW220214   3.558   0.071  12.801 -1.2644 -0.6429 -0.4564
 2860SOL     OW20215   4.161   0.689   5.349 -0.6152  0.3199 -0.3760
 2860SOL    HW120216   4.136   0.741   5.273 -0.7084  0.9672  0.1001
 2860SOL    HW220217   4.242   0.735   5.371 -0.0004  0.1097 -2.1608
 2861SOL     OW20218   4.517   2.294   2.593 -0.8997 -0.3036  0.0117
 2861SOL    HW120219   4.591   2.233   2.597 -0.7619 -0.1226  0.1670
 2861SOL    HW220220   4.466   2.271   2.515  0.7929 -1.1678 -0.8494
 2862SOL     OW20221   2.283   3.063   2.978  0.1669  0.1002  0.2668
 2862SOL    HW120222   2.217   3.109   2.925  0.8764 -1.2323 -1.7902
 2862SOL    HW220223   2.361   3.061   2.922  0.2731 -0.0356  0.4205
 2863SOL     OW20224   4.097   1.453   4.880 -0.3531 -0.0282 -0.1769
 2863SOL    HW120225   4.131   1.417   4.962 -0.2671  0.4332 -0.0148
 2863SOL    HW220226   4.180   1.460   4.833 -0.9175 -1.2928 -1.3760
 2864SOL     OW20227   3.265   1.167   8.070  0.1756  0.1589  0.2567
 2864SOL    HW120228   3.356   1.192   8.088  0.1196  0.7702 -0.3107
 2864SOL    HW220229   3.272   1.106   7.996  0.2465  2.4330 -1.6313
 2865SOL     OW20230   4.235   0.086  10.312 -0.2773 -0.6868  0.0238
 2865SOL    HW120231   4.163   0.130  10.357 -1.6341  0.1526 -3.0004
 2865SOL    HW220232   4.311   0.114  10.364 -0.4188  0.9200 -0.6365
 2866SOL     OW20233   2.046   3.238  11.368 -0.3201 -0.2063 -0.1550
 2866SOL    HW120234   2.086   3.319  11.398  1.9571 -0.9169 -1.2131
 2866SOL    HW220235   2.102   3.205  11.297  0.1281 -1.0277  0.5772
 2867SOL     OW20236   1.148   1.471  13.576 -0.6144 -0.9218 -0.0469
 2867SOL    HW120237   1.120   1.387  13.613 -3.3313 -0.0770 -0.1720
 2867SOL    HW220238   1.068   1.487  13.526 -0.2287  2.7639  0.4576
 2868SOL     OW20239   0.755   2.662   9.197  0.4809  0.0820 -0.5486
 2868SOL    HW120240   0.710   2.646   9.114  0.1152 -0.6467 -0.2015
 2868SOL    HW220241   0.773   2.756   9.199  4.4128 -0.7112  1.2060
 2869SOL     OW20242   2.399   3.638  17.004  0.0678  0.1093 -0.6631
 2869SOL    HW120243   2.455   3.576  17.049  1.1643  0.6664 -1.2742
 2869SOL    HW220244   2.324   3.639  17.064  0.2373  1.5888 -0.4676
 2870SOL     OW20245   3.476   1.315   4.250  0.4694  0.5926 -0.3579
 2870SOL    HW120246   3.512   1.389   4.299  2.0693 -1.0390  0.9235
 2870SOL    HW220247   3.414   1.284   4.316  1.1260 -1.2121 -0.5997
 2871SOL     OW20248   2.512   0.126   0.277 -0.0340  0.3129  0.0315
 2871SOL    HW120249   2.451   0.057   0.251  0.2351  0.2012 -0.3041
 2871SOL    HW220250   2.585   0.066   0.293  0.0072 -0.0030 -1.3949
 2872SOL     OW20251   3.071   2.528   4.257 -0.0260 -0.1665  0.1044
 2872SOL    HW120252   3.106   2.445   4.290  1.5711 -0.6087 -2.7131
 2872SOL    HW220253   3.135   2.589   4.292  2.0875 -1.5366 -1.3614
 2873SOL     OW20254   3.877   0.360  13.968  0.4949 -0.7199  0.4318
 2873SOL    HW120255   3.786   0.386  13.976  0.1575 -2.1687  1.3946
 2873SOL    HW220256   3.869   0.317  13.883  0.8316 -0.8825  0.4812
 2874SOL     OW20257   2.622   3.646   2.730  0.4264  0.1452 -0.3118
 2874SOL    HW120258   2.574   3.570   2.698  0.4098 -0.4237  1.0689
 2874SOL    HW220259   2.558   3.710   2.699  1.2157 -0.8018 -3.8819
 2875SOL     OW20260   0.380   2.323   8.248 -0.2007  0.4689  0.6180
 2875SOL    HW120261   0.293   2.348   8.280 -1.2736 -0.6529 -1.4524
 2875SOL    HW220262   0.426   2.384   8.305  0.2019  1.4169 -0.7234
 2876SOL     OW20263   0.139   2.323   8.357  0.0330 -0.4127  0.2274
 2876SOL    HW120264   0.073   2.328   8.426 -0.0988 -0.5110  0.1099
 2876SOL    HW220265   0.101   2.250   8.307 -0.8605 -1.5855  2.6303
 2877SOL     OW20266   0.240   4.457   2.433  0.1312 -0.2640 -0.6185
 2877SOL    HW120267   0.291   4.442   2.512 -1.2616  1.2855  0.5933
 2877SOL    HW220268   0.234   4.553   2.436 -0.2681 -0.3127  0.1565
 2878SOL     OW20269   3.057   1.094   3.527  0.0701  0.2788  0.3118
 2878SOL    HW120270   3.034   1.017   3.579 -1.1915 -0.6401 -1.6016
 2878SOL    HW220271   2.975   1.096   3.477  1.1660  2.5075 -1.4427
 2879SOL     OW20272   3.589   3.507   3.285  0.0248 -0.1934  0.7291
 2879SOL    HW120273   3.625   3.474   3.367  0.0556 -1.1897  0.3225
 2879SOL    HW220274   3.564   3.425   3.241  0.4931  0.1933 -0.2676
 2880SOL     OW20275   0.535   2.093  15.431 -0.1443  0.1557 -0.0065
 2880SOL    HW120276   0.524   2.018  15.489  0.6625 -0.1484 -0.2472
 2880SOL    HW220277   0.526   2.051  15.346  1.8680 -0.1650 -0.0622
 2881SOL     OW20278   2.259   2.880  11.327  0.4943  0.3137 -0.3375
 2881SOL    HW120279   2.177   2.838  11.303 -0.2611  2.7626 -1.9746
 2881SOL    HW220280   2.258   2.962  11.279  0.7946  0.1733 -0.5926
 2882SOL     OW20281   3.161   2.870   8.330 -0.0420 -0.0771 -0.3726
 2882SOL    HW120282   3.086   2.825   8.370  0.4484 -0.1657  0.4495
 2882SOL    HW220283   3.180   2.808   8.259 -1.7889 -0.6447 -0.3453
 2883SOL     OW20284   2.673   4.442   3.737 -0.2817  0.1444 -0.1154
 2883SOL    HW120285   2.591   4.486   3.761  0.5005  2.0266 -0.9081
 2883SOL    HW220286   2.694   4.395   3.817 -0.0728 -0.0577 -0.2917
 2884SOL     OW20287   0.494   2.735  14.243 -0.3660  0.4323  0.6798
 2884SOL    HW120288   0.474   2.772  14.157 -0.7319  2.7382  1.7456
 2884SOL    HW220289   0.586   2.761  14.241 -0.0704 -0.9985 -3.1520
 2885SOL     OW20290   2.649   2.961   3.543 -0.4911  0.5025  0.5610
 2885SOL    HW120291   2.611   2.962   3.631  1.6596  2.4264  1.4740
 2885SOL    HW220292   2.638   3.052   3.518 -0.6726 -0.2668 -2.0929
 2886SOL     OW20293   3.141   1.015   2.731  0.3816  0.1725  0.0477
 2886SOL    HW120294   3.178   1.042   2.815  0.2300 -0.4676  0.3155
 2886SOL    HW220295   3.048   0.996   2.746 -0.3165  3.5716  0.0574
 2887SOL     OW20296   1.778   2.947   5.097 -0.3456 -0.2456 -0.4970
 2887SOL    HW120297   1.745   3.007   5.030 -0.6235 -0.9229 -0.9718
 2887SOL    HW220298   1.703   2.947   5.155  0.4202  0.5467  0.4849
 2888SOL     OW20299   4.227   0.568   3.062 -0.0093 -0.9707 -0.4213
 2888SOL    HW120300   4.215   0.661   3.045  0.3669 -0.7635  0.4428
 2888SOL    HW220301   4.238   0.524   2.978  1.3138 -0.7601 -0.3540
 2889SOL     OW20302   3.412   2.954   7.098  0.1497 -0.0843 -0.2038
 2889SOL    HW120303   3.372   2.955   7.185  0.8213  0.1764  0.1002
 2889SOL    HW220304   3.504   2.965   7.123 -0.1143  1.4208  0.1299
 2890SOL     OW20305   1.004   0.060  13.660 -0.2768  0.3744  0.3448
 2890SOL    HW120306   0.973   0.001  13.591 -0.1807 -0.0659  0.6799
 2890SOL    HW220307   1.041   0.126  13.602 -0.6573 -0.0664 -0.4002
 2891SOL     OW20308   2.802   3.735   6.747  0.5232 -0.0246  0.1244
 2891SOL    HW120309   2.823   3.733   6.654  0.3152 -0.4683  0.0850
 2891SOL    HW220310   2.884   3.698   6.779 -0.4449 -1.8850  0.4346
 2892SOL     OW20311   4.124   2.831   6.439 -0.5205 -0.2867  0.3946
 2892SOL    HW120312   4.184   2.905   6.441 -2.8518  1.6365 -0.9191
 2892SOL    HW220313   4.184   2.770   6.397 -2.3869 -1.4370 -0.6080
 2893SOL     OW20314   0.044   3.878   9.548 -0.2246 -0.5303 -0.3172
 2893SOL    HW120315   4.696   3.860   9.513 -0.0316 -0.3549 -0.8780
 2893SOL    HW220316   0.073   3.949   9.491  1.9437 -0.7922  0.4553
 2894SOL     OW20317   0.692   0.278   3.249 -0.0250 -0.1468 -0.1625
 2894SOL    HW120318   0.713   0.282   3.343 -1.9641 -0.6268  0.3059
 2894SOL    HW220319   0.663   0.368   3.235  0.9552  0.1721 -0.1569
 2895SOL     OW20320   0.625   1.356   9.983  0.3551  0.2069  0.1969
 2895SOL    HW120321   0.717   1.378   9.971  0.5956 -1.2621 -0.7856
 2895SOL    HW220322   0.610   1.411  10.059  0.2203 -0.0418  0.3502
 2896SOL     OW20323   1.267   1.442   4.760 -0.3246 -1.1863  0.2282
 2896SOL    HW120324   1.268   1.346   4.760  0.3351 -1.1837 -0.6643
 2896SOL    HW220325   1.186   1.453   4.709  0.6074 -0.3836 -1.0830
 2897SOL     OW20326   2.563   3.207   3.456 -0.1105  0.1526  0.5719
 2897SOL    HW120327   2.510   3.277   3.493 -0.1290  0.9280 -0.9200
 2897SOL    HW220328   2.650   3.244   3.471  0.6569 -0.7411 -1.6599
 2898SOL     OW20329   2.639   3.821   1.819 -0.4466  0.7275  0.5162
 2898SOL    HW120330   2.626   3.773   1.900 -0.7188 -1.7393 -0.9709
 2898SOL    HW220331   2.580   3.893   1.840 -1.4121  0.6537 -1.9199
 2899SOL     OW20332   1.546   3.952   3.942  0.1887 -0.1779 -0.1070
 2899SOL    HW120333   1.510   3.874   3.984 -0.2202  1.6341  2.9727
 2899SOL    HW220334   1.505   4.022   3.993 -0.6245 -1.0539  0.4280
 2900SOL     OW20335   1.198   2.885   2.677  0.2691  0.0662  1.0574
 2900SOL    HW120336   1.220   2.977   2.691  1.6223  0.2614 -2.6126
 2900SOL    HW220337   1.275   2.838   2.647 -0.5888  0.3246 -1.5513
 2901SOL     OW20338   0.957   0.343   0.698  0.0851 -0.4889 -0.0644
 2901SOL    HW120339   0.984   0.268   0.751 -1.6020 -1.2388 -0.2700
 2901SOL    HW220340   0.975   0.297   0.616  1.2182  0.0288 -0.1069
 2902SOL     OW20341   3.744   2.181  13.478 -0.4393 -0.5807 -0.8240
 2902SOL    HW120342   3.704   2.097  13.456  2.3201 -2.6988  2.2542
 2902SOL    HW220343   3.814   2.192  13.414  2.4905  0.5099  2.6034
 2903SOL     OW20344   1.561   1.477   6.446 -0.1277  0.2805 -0.2874
 2903SOL    HW120345   1.653   1.462   6.466 -0.3230 -0.9988 -0.3752
 2903SOL    HW220346   1.532   1.390   6.418  0.6359 -0.0770  0.0437
 2904SOL     OW20347   2.828   3.918   4.848  0.2527 -0.1797  0.0851
 2904SOL    HW120348   2.784   3.878   4.923 -0.4321  1.9333  0.7882
 2904SOL    HW220349   2.765   3.894   4.779 -0.7619  1.6137  0.3828
 2905SOL     OW20350   3.930   3.704   3.863 -0.1875 -0.1718 -0.1396
 2905SOL    HW120351   3.957   3.661   3.943  0.0209  0.9161  0.3801
 2905SOL    HW220352   3.992   3.777   3.855 -2.9585  2.1387 -0.6233
 2906SOL     OW20353   3.569   3.458  10.261  0.4614 -0.0166  0.4046
 2906SOL    HW120354   3.636   3.454  10.193 -2.5185 -0.8850 -2.5135
 2906SOL    HW220355   3.552   3.365  10.273  1.5688 -0.7156 -3.4938
 2907SOL     OW20356   3.697   3.642  14.091 -0.1420  0.5622 -0.0654
 2907SOL    HW120357   3.759   3.624  14.020  1.2860 -1.2999  1.6551
 2907SOL    HW220358   3.615   3.628  14.043  0.3016  1.1560 -0.9978
 2908SOL     OW20359   0.227   1.340   3.113  0.0872  0.7043  0.5047
 2908SOL    HW120360   0.249   1.433   3.120 -0.2321  0.7516  0.9555
 2908SOL    HW220361   0.164   1.345   3.041 -1.2415  0.7095  1.6633
 2909SOL     OW20362   0.502   2.337  16.026 -0.4426  0.0846 -0.2648
 2909SOL    HW120363   0.488   2.424  15.988  0.6201  0.0762 -0.6902
 2909SOL    HW220364   0.598   2.337  16.031 -0.4418 -0.7323 -0.2286
 2910SOL     OW20365   4.501   4.138  10.425 -0.9905 -0.2298 -0.2070
 2910SOL    HW120366   4.575   4.135  10.486  0.2524  0.8552 -1.6507
 2910SOL    HW220367   4.534   4.136  10.336  1.6015 -0.7894  0.7473
 2911SOL     OW20368   1.413   2.333   5.256  0.5095  0.3520  0.2669
 2911SOL    HW120369   1.417   2.353   5.163 -1.0723  1.6084  0.4753
 2911SOL    HW220370   1.340   2.392   5.273 -0.0601 -0.5021  0.7452
 2912SOL     OW20371   2.405   2.808   2.089  0.0567 -0.5103 -0.3078
 2912SOL    HW120372   2.368   2.720   2.092 -0.4263 -0.1723  3.8333
 2912SOL    HW220373   2.458   2.820   2.168 -0.1978  0.5405 -0.2975
 2913SOL     OW20374   0.103   1.982   7.880  0.0892 -0.2818 -0.1381
 2913SOL    HW120375   0.094   1.934   7.963  4.3339  2.7019  2.0844
 2913SOL    HW220376   0.100   2.074   7.905 -0.3386 -0.6682  1.2698
 2914SOL     OW20377   2.641   2.264   7.154  0.7125 -0.3419  0.1987
 2914SOL    HW120378   2.613   2.215   7.231  0.7722 -0.4356  0.1610
 2914SOL    HW220379   2.561   2.279   7.103 -0.0295 -0.6812  1.2595
 2915SOL     OW20380   3.610   2.613  16.488  0.0143  0.6425 -0.1057
 2915SOL    HW120381   3.618   2.556  16.564 -2.2017  1.6098  0.8753
 2915SOL    HW220382   3.604   2.697  16.533  0.9225  0.4796  0.3077
 2916SOL     OW20383   2.813   4.161  15.067  0.4269  0.5655 -0.2971
 2916SOL    HW120384   2.757   4.152  14.990 -0.5761  0.6237  0.4348
 2916SOL    HW220385   2.776   4.224  15.128  0.5124 -1.0375  1.3922
 2917SOL     OW20386   2.224   2.766  16.232  0.6319 -0.4017  0.5183
 2917SOL    HW120387   2.154   2.821  16.266  1.0245  0.6102 -0.3090
 2917SOL    HW220388   2.202   2.685  16.279  1.3710 -0.2712  1.0855
 2918SOL     OW20389   0.459   0.396  12.490 -0.0400  0.3578 -0.4506
 2918SOL    HW120390   0.375   0.426  12.457  0.0632  3.0682  1.8064
 2918SOL    HW220391   0.451   0.368  12.582  1.0611 -2.3984 -1.1775
 2919SOL     OW20392   2.883   4.641   1.442 -0.3475 -0.6330  0.2244
 2919SOL    HW120393   2.855   4.624   1.532 -0.6448 -0.1457  0.2208
 2919SOL    HW220394   2.960   4.697   1.452 -0.7049  0.4046 -2.9627
 2920SOL     OW20395   2.687   4.013   7.798  0.4111 -0.4822  0.2413
 2920SOL    HW120396   2.689   3.993   7.892  0.2080 -1.2909  0.0743
 2920SOL    HW220397   2.611   3.965   7.766 -0.9735  2.4653 -0.9129
 2921SOL     OW20398   3.371   3.491   6.453 -0.4268  0.6593 -0.3395
 2921SOL    HW120399   3.430   3.564   6.436  2.1145 -0.6581  2.6713
 2921SOL    HW220400   3.421   3.446   6.522 -2.6130  1.1126  1.5277
 2922SOL     OW20401   0.939   1.680   3.543 -0.2105 -0.1359 -0.2385
 2922SOL    HW120402   0.857   1.632   3.559 -0.7609  0.5900 -0.9259
 2922SOL    HW220403   1.001   1.608   3.530 -0.3933  0.2343 -3.0465
 2923SOL     OW20404   3.726   3.587   0.415 -0.4968  0.1154  0.3071
 2923SOL    HW120405   3.762   3.509   0.457  1.1087 -0.5183 -2.2887
 2923SOL    HW220406   3.660   3.618   0.478  0.4415  0.6751  1.0219
 2924SOL     OW20407   4.487   1.130   4.215  0.0545 -0.1029  0.2247
 2924SOL    HW120408   4.429   1.059   4.187 -0.4377  0.9756 -1.5139
 2924SOL    HW220409   4.426   1.171   4.276 -1.2077  1.3225 -1.9565
 2925SOL     OW20410   3.984   3.338   5.779 -0.4323 -0.3204  0.0167
 2925SOL    HW120411   3.987   3.362   5.686 -3.1133 -1.9237 -0.5143
 2925SOL    HW220412   4.051   3.270   5.783 -2.3340 -1.9716  3.6362
 2926SOL     OW20413   4.557   4.107   7.767  0.8688  0.4816 -0.2987
 2926SOL    HW120414   4.589   4.108   7.858 -0.4719 -2.9931  0.2221
 2926SOL    HW220415   4.485   4.044   7.769  3.7539 -2.7618  2.1670
 2927SOL     OW20416   0.183   2.851  12.306  0.2706  0.0587 -0.2515
 2927SOL    HW120417   0.121   2.907  12.352  0.8345  1.0577 -0.7066
 2927SOL    HW220418   0.232   2.819  12.382  0.2848  1.2169  0.2200
 2928SOL     OW20419   0.801   0.800  13.559 -0.7889  0.1198  0.0834
 2928SOL    HW120420   0.792   0.895  13.550  0.0694  0.0739 -1.3550
 2928SOL    HW220421   0.773   0.777  13.648 -1.2874 -0.4296 -0.2162
 2929SOL     OW20422   2.162   2.197  14.328  0.0593  0.3575  0.0763
 2929SOL    HW120423   2.087   2.257  14.328 -0.7018 -0.6103 -2.2586
 2929SOL    HW220424   2.149   2.166  14.238 -2.7494  2.9322 -0.3976
 2930SOL     OW20425   0.582   2.167   7.607 -0.5335 -0.2019  0.1807
 2930SOL    HW120426   0.492   2.184   7.582 -1.3074 -1.7807  1.8989
 2930SOL    HW220427   0.613   2.228   7.540  2.4180 -3.2167 -1.1726
 2931SOL     OW20428   0.049   0.694  10.805  0.1510 -0.2874  0.2833
 2931SOL    HW120429   0.099   0.648  10.736 -0.7809 -1.5530  0.4537
 2931SOL    HW220430   4.721   0.735  10.751 -0.3623 -1.0490  0.3367
 2932SOL     OW20431   3.217   4.652   3.515 -0.4659 -0.2857 -0.0979
 2932SOL    HW120432   3.241   0.003   3.496 -0.2191 -0.1397  0.9237
 2932SOL    HW220433   3.216   4.611   3.428  1.1293  0.5164 -0.4961
 2933SOL     OW20434   3.318   3.691  17.543 -0.2965  0.2378 -0.5154
 2933SOL    HW120435   3.310   3.615  17.485 -2.6089 -2.3148  3.1402
 2933SOL    HW220436   3.227   3.719  17.553 -0.2985  0.1064 -0.1600
 2934SOL     OW20437   4.116   0.047   7.876  0.0798  0.1527  0.0280
 2934SOL    HW120438   4.079   4.698   7.876  0.1402  0.1298 -0.9144
 2934SOL    HW220439   4.068   0.096   7.943 -2.7179 -0.9905 -1.1398
 2935SOL     OW20440   3.487   3.322   7.245  0.0250 -0.4146  0.1271
 2935SOL    HW120441   3.522   3.239   7.278 -0.9534 -0.5256  0.8713
 2935SOL    HW220442   3.455   3.370   7.321 -2.4417 -0.3901 -0.9485
 2936SOL     OW20443   1.267   4.161  12.085  0.0371 -0.1065  0.2609
 2936SOL    HW120444   1.183   4.168  12.130 -0.1686  0.3513 -0.1921
 2936SOL    HW220445   1.249   4.088  12.026 -0.1053 -0.0759  0.2660
 2937SOL     OW20446   3.953   2.625   7.959 -0.1253  0.8468  0.3158
 2937SOL    HW120447   4.033   2.573   7.962 -0.2815  0.6983  1.6197
 2937SOL    HW220448   3.934   2.638   7.866  0.8336 -0.8678 -0.1179
 2938SOL     OW20449   1.145   2.262  15.142 -0.1600  0.3496  0.0734
 2938SOL    HW120450   1.136   2.174  15.106  0.1305  0.0435  0.7538
 2938SOL    HW220451   1.074   2.307  15.095  1.3100  0.8765 -1.6272
 2939SOL     OW20452   2.328   3.729   4.100  0.0360 -0.4086 -0.7394
 2939SOL    HW120453   2.283   3.807   4.133  0.0966 -0.1915 -1.1720
 2939SOL    HW220454   2.347   3.746   4.008  0.7715 -2.9209 -1.0461
 2940SOL     OW20455   0.737   2.313  15.442 -0.1631 -0.0812  0.1027
 2940SOL    HW120456   0.661   2.314  15.500 -1.0355 -1.1187 -0.9962
 2940SOL    HW220457   0.717   2.227  15.404  0.8603 -0.5565  0.6435
 2941SOL     OW20458   3.880   4.439   6.175 -0.2795 -0.0972  0.1607
 2941SOL    HW120459   3.796   4.394   6.160  1.3437 -2.8226 -0.8744
 2941SOL    HW220460   3.907   4.400   6.258  1.2514  0.1678 -0.2148
 2942SOL     OW20461   1.142   3.135   3.638 -0.0472  0.1394  0.1922
 2942SOL    HW120462   1.200   3.059   3.650  0.3423  0.7243  2.1235
 2942SOL    HW220463   1.150   3.191   3.716 -0.8826 -1.3041  1.3256
 2943SOL     OW20464   1.937   2.421  17.565  0.2592  0.3116 -0.3068
 2943SOL    HW120465   1.965   2.511  17.552  2.2772 -0.5378 -1.8197
 2943SOL    HW220466   2.021   2.376  17.567  0.3104  0.3329 -1.8979
 2944SOL     OW20467   2.909   0.774   6.314  0.4114 -0.1266 -0.2551
 2944SOL    HW120468   2.921   0.862   6.350 -0.3033  0.6203 -1.8649
 2944SOL    HW220469   2.932   0.795   6.224  0.3751  0.1915 -0.1888
 2945SOL     OW20470   2.182   1.951   3.325 -0.6067  0.2016  0.2931
 2945SOL    HW120471   2.219   1.909   3.403  0.8749  1.0166  0.0384
 2945SOL    HW220472   2.205   2.040   3.350  0.1290  0.1792 -0.3221
 2946SOL     OW20473   1.669   0.227   0.061  0.5156  0.2035 -0.0546
 2946SOL    HW120474   1.713   0.275   0.131  0.1411  1.6313 -0.8083
 2946SOL    HW220475   1.746   0.214   0.005  1.0443  2.3088  0.1920
 2947SOL     OW20476   2.050   4.409  13.965 -0.0996  0.6089 -0.3182
 2947SOL    HW120477   1.978   4.458  14.005 -2.0092 -0.8343 -1.9843
 2947SOL    HW220478   2.056   4.326  14.011 -1.7060  0.7501  0.1328
 2948SOL     OW20479   4.585   2.280  13.544  0.0658 -0.0324 -0.6266
 2948SOL    HW120480   4.603   2.374  13.548  2.3323 -0.5315  1.1303
 2948SOL    HW220481   4.616   2.240  13.625  3.1149 -0.8548 -2.2018
 2949SOL     OW20482   1.106   3.669  12.589  0.0751  1.1480  0.5423
 2949SOL    HW120483   1.174   3.700  12.648  0.7221  0.5996  0.0827
 2949SOL    HW220484   1.078   3.749  12.546  0.0176  1.4368  1.1193
 2950SOL     OW20485   1.976   0.616   6.618 -0.1161 -0.5700 -0.2990
 2950SOL    HW120486   1.912   0.548   6.596  1.2707 -1.7696 -0.6523
 2950SOL    HW220487   2.038   0.602   6.546 -1.3489  0.5442 -1.5720
 2951SOL     OW20488   2.171   1.913   7.878  0.1481 -0.8524  0.2012
 2951SOL    HW120489   2.124   1.830   7.883 -0.0043 -0.7930 -0.2453
 2951SOL    HW220490   2.226   1.906   7.800  0.5809  1.2187  0.3075
 2952SOL     OW20491   4.424   2.032   0.211  0.2197 -0.0879 -0.9187
 2952SOL    HW120492   4.331   2.045   0.232  0.6018  0.6120  0.3577
 2952SOL    HW220493   4.413   2.015   0.117  0.5277 -2.3239 -0.5559
 2953SOL     OW20494   3.478   3.901  17.367 -0.8051 -0.5649  0.2975
 2953SOL    HW120495   3.406   3.902  17.304  0.3138  0.2523 -0.9832
 2953SOL    HW220496   3.535   3.840  17.319  0.0176  1.0736 -0.8213
 2954SOL     OW20497   2.349   0.761  12.329 -0.0818 -0.5722 -0.5962
 2954SOL    HW120498   2.391   0.762  12.243  1.5884 -0.2627  0.2229
 2954SOL    HW220499   2.367   0.669  12.346  1.4692  0.3853  3.1062
 2955SOL     OW20500   4.403   3.538   7.782 -0.0259 -0.0689  0.2251
 2955SOL    HW120501   4.494   3.529   7.809 -0.2448 -1.3645  0.5418
 2955SOL    HW220502   4.375   3.603   7.846 -1.5947  0.3430 -0.8768
 2956SOL     OW20503   1.716   1.916   9.679 -0.1364  0.2341  0.0195
 2956SOL    HW120504   1.809   1.892   9.683  0.0581  0.9981  0.1932
 2956SOL    HW220505   1.715   2.004   9.717 -1.0966 -0.0389  0.6304
 2957SOL     OW20506   1.594   2.583   4.844  0.3506  0.2060  0.1508
 2957SOL    HW120507   1.525   2.637   4.883  0.7956  0.3307  0.7645
 2957SOL    HW220508   1.618   2.642   4.772 -1.6207  0.7205 -0.0828
 2958SOL     OW20509   4.289   4.662   3.704 -0.3125  0.0401  0.0907
 2958SOL    HW120510   4.298   4.679   3.610  0.5100  0.2752  0.2167
 2958SOL    HW220511   4.199   4.689   3.725  0.2731  1.1771  1.1541
 2959SOL     OW20512   1.718   0.855   5.589  0.0878 -0.2384 -0.2608
 2959SOL    HW120513   1.660   0.787   5.622  0.3058  0.0549  0.7024
 2959SOL    HW220514   1.678   0.858   5.502  0.5267 -0.0976 -0.4592
 2960SOL     OW20515   0.074   3.739  17.285 -0.0949  0.6271 -0.3408
 2960SOL    HW120516   0.028   3.668  17.332 -0.7181  0.2134 -1.5824
 2960SOL    HW220517   0.100   3.701  17.201  0.0052  2.4140 -1.1084
 2961SOL     OW20518   0.962   2.543   9.338  0.4797 -0.2166 -0.2079
 2961SOL    HW120519   0.961   2.450   9.315 -0.4463  0.4320 -2.8087
 2961SOL    HW220520   0.877   2.577   9.311  0.0863  0.8083  2.3573
 2962SOL     OW20521   1.834   1.944   5.833  0.6618 -0.2908  0.5272
 2962SOL    HW120522   1.917   1.918   5.792 -0.0468 -1.4938 -0.1673
 2962SOL    HW220523   1.781   1.864   5.839 -1.6710  1.0729 -2.0332
 2963SOL     OW20524   1.416   4.605   6.722  0.2994  0.1787  0.1701
 2963SOL    HW120525   1.361   4.527   6.728  1.7787 -1.0377 -2.1206
 2963SOL    HW220526   1.507   4.576   6.723  0.4596  0.6850  0.6338
 2964SOL     OW20527   1.886   2.264   4.514 -0.5221  0.5823  0.2866
 2964SOL    HW120528   1.835   2.190   4.546  0.7630 -0.1199  0.6851
 2964SOL    HW220529   1.837   2.268   4.432  0.6671 -1.5879 -0.5309
 2965SOL     OW20530   3.430   0.353  15.038  0.2965 -0.2361  0.1426
 2965SOL    HW120531   3.355   0.408  15.017  0.9363  0.3799 -0.5227
 2965SOL    HW220532   3.385   0.307  15.109  0.7887  0.8891  1.1756
 2966SOL     OW20533   4.245   1.125  14.583 -0.3605  0.0358  0.1239
 2966SOL    HW120534   4.179   1.056  14.579 -1.1192  0.8122 -0.8000
 2966SOL    HW220535   4.291   1.106  14.665 -0.3339  0.3099  0.1739
 2967SOL     OW20536   3.777   4.229  17.187 -0.1611  0.3408  0.2215
 2967SOL    HW120537   3.840   4.161  17.161  1.0400  1.0846  1.1873
 2967SOL    HW220538   3.718   4.223  17.112  1.6239 -2.7711 -0.9145
 2968SOL     OW20539   0.803   3.574   6.945  0.2422  0.2661  0.1046
 2968SOL    HW120540   0.749   3.519   7.002 -0.4217 -1.1183 -1.8291
 2968SOL    HW220541   0.888   3.533   6.957  0.4030  0.4377 -0.4315
 2969SOL     OW20542   4.621   2.506  16.570  0.0703 -0.1538 -0.1945
 2969SOL    HW120543   4.538   2.551  16.587 -0.2306 -1.2665  1.3249
 2969SOL    HW220544   4.591   2.449  16.500  1.5896 -1.4961  0.2523
 2970SOL     OW20545   2.587   0.931   8.917  0.1350  0.1015 -0.2149
 2970SOL    HW120546   2.676   0.904   8.939 -0.3250 -0.9640  0.3613
 2970SOL    HW220547   2.609   1.023   8.901  0.0162  0.3116  0.8100
 2971SOL     OW20548   0.473   3.348   0.499 -0.0993  0.1380 -0.3433
 2971SOL    HW120549   0.408   3.292   0.457  0.2051 -0.3873 -0.1093
 2971SOL    HW220550   0.557   3.302   0.494 -0.2948 -0.3061  0.4468
 2972SOL     OW20551   0.375   1.534   8.563 -0.3604 -0.3906 -0.2334
 2972SOL    HW120552   0.377   1.615   8.614  1.4072 -0.6991  0.1756
 2972SOL    HW220553   0.324   1.478   8.621  0.2281 -0.0259  0.6326
 2973SOL     OW20554   4.651   0.213   3.203 -0.1392  0.3750  0.0471
 2973SOL    HW120555   4.701   0.198   3.283 -0.1486  0.4103  0.0593
 2973SOL    HW220556   4.714   0.259   3.147  1.1490 -1.2987  0.1195
 2974SOL     OW20557   1.948   0.890   2.874 -0.5813  0.2083 -0.0103
 2974SOL    HW120558   1.962   0.973   2.921 -0.7128 -0.5237  1.3040
 2974SOL    HW220559   1.880   0.921   2.814  0.4743 -0.0469 -1.3370
 2975SOL     OW20560   4.443   1.256  10.822 -0.7305 -0.4498  0.6943
 2975SOL    HW120561   4.467   1.270  10.730  0.6462 -1.2861  0.9273
 2975SOL    HW220562   4.475   1.337  10.861 -2.3086 -0.2930  1.6874
 2976SOL     OW20563   4.580   3.746   3.518 -0.2728  0.9144 -0.0707
 2976SOL    HW120564   4.618   3.665   3.552  1.8558  1.5652 -0.8837
 2976SOL    HW220565   4.489   3.750   3.546  0.0263 -0.2621  1.0672
 2977SOL     OW20566   3.712   4.235   1.956  0.6555  0.5576  0.3088
 2977SOL    HW120567   3.630   4.254   1.911 -1.3258 -0.9566  3.2810
 2977SOL    HW220568   3.684   4.170   2.021  3.8320  1.2413  2.3550
 2978SOL     OW20569   1.809   3.300   8.113  0.1645  0.3843  0.2498
 2978SOL    HW120570   1.899   3.329   8.097  1.6506 -3.7071  1.1488
 2978SOL    HW220571   1.776   3.324   8.026  0.4895  0.1835  0.0706
 2979SOL     OW20572   0.851   3.027   4.280 -0.0909  0.1078 -0.1753
 2979SOL    HW120573   0.785   3.041   4.347  2.0992 -0.2286  2.0604
 2979SOL    HW220574   0.895   2.951   4.319 -0.1210  0.2867  0.2038
 2980SOL     OW20575   3.411   1.390   3.467 -0.6668 -0.3302  0.0229
 2980SOL    HW120576   3.497   1.409   3.503 -0.1471 -2.1147 -0.2974
 2980SOL    HW220577   3.374   1.331   3.532 -1.2112 -2.4520 -2.1887
 2981SOL     OW20578   0.897   2.336   3.756 -0.3555  0.7124 -0.1080
 2981SOL    HW120579   0.934   2.261   3.803 -0.6660  1.1714  0.8802
 2981SOL    HW220580   0.934   2.323   3.669 -0.8139 -3.9553  0.3666
 2982SOL     OW20581   3.405   2.890   3.716  0.5288  0.0132  0.6287
 2982SOL    HW120582   3.320   2.856   3.743 -0.3829 -0.0886 -2.3337
 2982SOL    HW220583   3.403   2.969   3.770 -0.2869  1.5653 -1.6624
 2983SOL     OW20584   1.867   1.297   4.469 -0.4179 -0.6537 -0.2021
 2983SOL    HW120585   1.867   1.345   4.386 -0.0167 -1.3999 -0.6325
 2983SOL    HW220586   1.879   1.365   4.536 -0.1551 -2.9455  2.0751
 2984SOL     OW20587   2.073   0.939  11.364 -0.2055  0.3204 -0.1041
 2984SOL    HW120588   2.093   0.924  11.272 -1.3700  0.2352 -0.3539
 2984SOL    HW220589   2.030   0.862  11.401  2.8907 -1.8054 -0.9312
 2985SOL     OW20590   1.048   4.343  15.413 -0.2248 -0.6648 -0.3312
 2985SOL    HW120591   1.068   4.257  15.452 -1.4167  0.2546  2.3382
 2985SOL    HW220592   0.992   4.388  15.477 -0.8195 -2.5904  0.5226
 2986SOL     OW20593   4.581   1.293   8.577 -0.1989 -0.1523  0.8265
 2986SOL    HW120594   4.564   1.208   8.616  0.4114  0.4995  2.4886
 2986SOL    HW220595   4.664   1.316   8.618 -0.5753  1.5595  0.6591
 2987SOL     OW20596   3.428   4.558   3.966 -0.7199 -0.5656 -0.5843
 2987SOL    HW120597   3.357   4.545   3.904 -2.8069  0.3186  1.5894
 2987SOL    HW220598   3.504   4.548   3.909 -0.9947 -1.0948 -0.8529
 2988SOL     OW20599   1.854   4.569   8.180  0.3263  0.5013 -0.0289
 2988SOL    HW120600   1.905   4.609   8.110  0.4793 -0.6503 -0.5778
 2988SOL    HW220601   1.768   4.577   8.138  0.6191  2.2713 -0.3068
 2989SOL     OW20602   3.838   1.759   9.049 -0.5228  0.0388  0.2287
 2989SOL    HW120603   3.810   1.840   9.007 -0.0487  1.9256  3.5512
 2989SOL    HW220604   3.757   1.737   9.097 -0.1751 -0.5084  0.5730
 2990SOL     OW20605   3.073   4.451  12.273 -0.3279 -1.1077  0.2389
 2990SOL    HW120606   3.104   4.527  12.322  2.2000 -0.9528 -1.5545
 2990SOL    HW220607   3.133   4.450  12.198  0.7587  1.6481  1.0817
 2991SOL     OW20608   4.409   0.029   6.963  1.2291  0.0799  0.4926
 2991SOL    HW120609   4.346   4.721   7.016 -0.2379  1.7637  0.2479
 2991SOL    HW220610   4.463   0.073   7.029  0.4641  1.5379  0.1327
 2992SOL     OW20611   4.302   0.376   8.929 -0.2050  0.1049  0.2291
 2992SOL    HW120612   4.284   0.282   8.920 -0.7864  0.0997  1.4314
 2992SOL    HW220613   4.297   0.390   9.023  2.9777  0.7942  0.2878
 2993SOL     OW20614   0.581   2.207   2.589 -0.3619 -0.0017  0.3125
 2993SOL    HW120615   0.664   2.170   2.560  0.0529 -0.7109  2.4179
 2993SOL    HW220616   0.540   2.189   2.505  0.9060 -0.1157 -0.2805
 2994SOL     OW20617   2.216   4.337   3.720  0.2171 -0.3832 -0.2680
 2994SOL    HW120618   2.280   4.407   3.705  0.1936 -0.5163 -0.9816
 2994SOL    HW220619   2.246   4.275   3.653 -0.4833 -0.5121 -0.4610
 2995SOL     OW20620   3.047   0.927   7.084 -0.1671 -0.2225  0.0501
 2995SOL    HW120621   3.007   0.848   7.121  2.3353 -0.8863  1.3530
 2995SOL    HW220622   2.984   0.985   7.043  0.5060  0.7171  0.3466
 2996SOL     OW20623   3.584   1.659  16.990 -0.7359  0.2978  0.2276
 2996SOL    HW120624   3.512   1.652  17.052 -0.5723  0.4667  0.4347
 2996SOL    HW220625   3.617   1.747  17.010 -1.2358  0.0549  2.1049
 2997SOL     OW20626   3.380   1.041   5.494 -0.3599  0.1179 -1.1184
 2997SOL    HW120627   3.343   1.126   5.517 -0.7857 -0.3413 -0.1269
 2997SOL    HW220628   3.301   0.990   5.480 -0.0817 -0.8742  0.9163
 2998SOL     OW20629   0.027   3.797   4.451 -0.1158 -0.0721 -0.3863
 2998SOL    HW120630   0.038   3.857   4.525 -0.0950 -0.4277 -0.0980
 2998SOL    HW220631   0.069   3.850   4.383  0.9500  0.1269  0.4235
 2999SOL     OW20632   4.216   3.251   7.215 -0.0427  0.6140 -0.2827
 2999SOL    HW120633   4.191   3.273   7.125  2.1906 -1.5005 -1.4009
 2999SOL    HW220634   4.224   3.156   7.209  0.4744  0.7452 -1.5424
 3000SOL     OW20635   2.912   4.240   2.123 -0.2301  0.2346  0.2673
 3000SOL    HW120636   2.943   4.323   2.087  0.5543  0.7574  2.1689
 3000SOL    HW220637   2.823   4.234   2.086  0.0270 -2.2245  0.0523
 3001SOL     OW20638   1.712   0.376  16.593  0.2442 -0.1857 -0.2571
 3001SOL    HW120639   1.623   0.406  16.575  1.8639  4.8699  0.2246
 3001SOL    HW220640   1.737   0.339  16.508  2.4137 -1.3140  0.8544
 3002SOL     OW20641   4.409   1.223  16.710 -0.3457  0.1693 -0.1211
 3002SOL    HW120642   4.389   1.303  16.758 -1.0485 -1.7760  2.8367
 3002SOL    HW220643   4.387   1.253  16.621 -0.7144  1.4613  0.4029
 3003SOL     OW20644   2.232   2.394   8.271 -1.0449  0.1295  1.2125
 3003SOL    HW120645   2.177   2.442   8.333 -2.6799 -0.5748  0.3119
 3003SOL    HW220646   2.214   2.439   8.188  0.2778  0.0109  0.8637
 3004SOL     OW20647   3.889   2.067   7.616  0.4367  0.2165 -0.2796
 3004SOL    HW120648   3.949   1.996   7.593  0.1560  0.3766 -1.4818
 3004SOL    HW220649   3.812   2.024   7.653  0.6892  0.3375  0.3887
 3005SOL     OW20650   3.931   0.290  16.539  0.1279 -0.3683 -0.0320
 3005SOL    HW120651   3.995   0.313  16.606  2.2977 -0.0113 -2.2067
 3005SOL    HW220652   3.855   0.328  16.583 -0.6038 -1.3008 -0.5031
 3006SOL     OW20653   3.908   1.286  11.064 -0.7317 -0.5629  0.6313
 3006SOL    HW120654   3.932   1.371  11.027 -0.7618 -0.2744  1.2655
 3006SOL    HW220655   3.904   1.317  11.154 -0.1278 -0.9491  0.7902
 3007SOL     OW20656   1.377   3.021   5.533 -0.5928 -0.1114  0.4269
 3007SOL    HW120657   1.404   3.112   5.538 -2.8143  0.5963 -0.6421
 3007SOL    HW220658   1.372   3.013   5.628 -1.3400 -0.2855  0.3699
 3008SOL     OW20659   1.406   0.716   9.384  0.9639 -0.2170 -0.5878
 3008SOL    HW120660   1.491   0.725   9.343  2.1172 -2.7575  1.1982
 3008SOL    HW220661   1.419   0.773   9.460  1.5737 -2.0643  0.7047
 3009SOL     OW20662   3.780   3.437   6.609 -0.3344  0.2387  0.6073
 3009SOL    HW120663   3.821   3.428   6.695  0.3517 -0.8974  0.1475
 3009SOL    HW220664   3.712   3.372   6.625 -0.9173  1.2675  2.2525
 3010SOL     OW20665   2.876   3.387   6.302  0.1632 -0.1219  0.3113
 3010SOL    HW120666   2.844   3.467   6.342  1.6044  1.1238 -1.0210
 3010SOL    HW220667   2.962   3.419   6.277 -1.2914  0.9016 -3.3497
 3011SOL     OW20668   2.954   0.299   1.424 -0.2408 -0.9459  0.1420
 3011SOL    HW120669   2.935   0.382   1.381  0.2266 -2.3598 -2.8156
 3011SOL    HW220670   2.938   0.326   1.514  0.4200 -2.7326  0.7952
 3012SOL     OW20671   3.731   3.418   2.668  0.3352  0.2507  0.0351
 3012SOL    HW120672   3.648   3.465   2.661  1.3864  1.9859 -0.5725
 3012SOL    HW220673   3.732   3.419   2.763  1.1015 -0.8239  0.0506
 3013SOL     OW20674   4.283   0.419   9.189 -0.5160 -0.3755 -0.5341
 3013SOL    HW120675   4.234   0.475   9.249  1.0754 -0.2123  0.6163
 3013SOL    HW220676   4.312   0.353   9.253  2.7642  0.6380 -0.9795
 3014SOL     OW20677   0.235   1.790   4.599 -0.0319  0.0702 -0.5639
 3014SOL    HW120678   0.216   1.876   4.636 -0.4451  0.0644 -0.7622
 3014SOL    HW220679   0.205   1.803   4.509  0.3240 -1.0279 -0.8412
 3015SOL     OW20680   3.433   3.787  16.273  0.2497 -0.1521 -0.2763
 3015SOL    HW120681   3.391   3.711  16.231  1.3040 -1.2878  0.7217
 3015SOL    HW220682   3.476   3.747  16.349  2.8470 -0.3264 -1.8336
 3016SOL     OW20683   0.959   2.675   2.696  0.1831 -0.1894 -0.4100
 3016SOL    HW120684   0.993   2.648   2.782 -3.8493 -0.7856  0.9963
 3016SOL    HW220685   1.026   2.631   2.644  0.1251 -1.0638  0.2582
 3017SOL     OW20686   3.311   1.312   9.534 -0.0601  0.0452  0.2294
 3017SOL    HW120687   3.402   1.334   9.556 -1.1670  1.3126  3.5808
 3017SOL    HW220688   3.298   1.226   9.574 -1.6042 -0.1868 -0.7852
 3018SOL     OW20689   1.881   2.341   8.369  0.5857 -0.3199 -0.0377
 3018SOL    HW120690   1.921   2.285   8.304  1.8173  0.5779 -0.0563
 3018SOL    HW220691   1.918   2.425   8.342  0.3457 -0.5252 -0.9801
 3019SOL     OW20692   1.729   4.544  11.202 -0.2158 -0.0228  0.3769
 3019SOL    HW120693   1.812   4.521  11.244  0.3567  0.4390 -0.5030
 3019SOL    HW220694   1.766   4.588  11.126  0.5190 -0.8834  0.2443
 3020SOL     OW20695   3.376   2.553   8.441 -0.0739  0.0997 -0.1353
 3020SOL    HW120696   3.320   2.530   8.367 -0.9408 -1.8480  1.1229
 3020SOL    HW220697   3.406   2.638   8.409  1.5564 -0.6760 -0.6365
 3021SOL     OW20698   4.672   3.338   4.518 -0.1582 -0.1946  0.0959
 3021SOL    HW120699   4.683   3.248   4.549  0.5325 -0.1255  0.0413
 3021SOL    HW220700   4.577   3.341   4.503 -0.5575 -1.0675  2.3844
 3022SOL     OW20701   1.422   2.313  16.206  0.3040 -0.3863  0.5129
 3022SOL    HW120702   1.446   2.239  16.150  2.4958  0.1342  0.7415
 3022SOL    HW220703   1.328   2.300  16.212  0.2468 -0.7016 -1.2438
 3023SOL     OW20704   0.033   1.151   4.911 -1.0805  0.0368 -0.1533
 3023SOL    HW120705   0.009   1.078   4.968 -1.2359  1.3811  1.5179
 3023SOL    HW220706   0.012   1.123   4.822  0.0984 -2.8611  0.4845
 3024SOL     OW20707   2.341   0.973   3.712 -0.4354  0.3861  0.4083
 3024SOL    HW120708   2.391   0.987   3.792  0.7604 -1.8204  0.0549
 3024SOL    HW220709   2.405   0.987   3.642 -0.2035  1.5025  0.8406
 3025SOL     OW20710   0.015   4.147   3.413 -0.3820  0.3630 -0.1139
 3025SOL    HW120711   0.000   4.156   3.507 -2.3713 -0.0848 -0.3829
 3025SOL    HW220712   0.056   4.060   3.412 -2.1016 -0.4461  0.4765
 3026SOL     OW20713   3.970   3.853   9.523  0.5657  0.2495  0.2924
 3026SOL    HW120714   3.950   3.883   9.435 -0.8129 -0.5169  0.3409
 3026SOL    HW220715   4.050   3.805   9.503 -0.2800 -1.1636  0.2513
 3027SOL     OW20716   1.372   4.114   3.526  0.0291 -0.1949  0.3280
 3027SOL    HW120717   1.416   4.068   3.598  1.5117 -1.5135 -1.4294
 3027SOL    HW220718   1.328   4.182   3.577 -1.7133 -0.4496 -0.8399
 3028SOL     OW20719   1.921   0.477   3.414 -0.5650 -0.3908  0.5359
 3028SOL    HW120720   1.930   0.407   3.349 -1.5333 -1.4072  1.4941
 3028SOL    HW220721   1.861   0.538   3.372 -0.3334  0.3639  1.3114
 3029SOL     OW20722   0.296   0.705  16.711 -0.0555  0.1970  0.1142
 3029SOL    HW120723   0.267   0.671  16.626  0.7340  2.1997 -0.9663
 3029SOL    HW220724   0.291   0.620  16.754 -0.8253  0.2939  0.2258
 3030SOL     OW20725   3.173   4.006  17.741 -0.1405 -0.3757  0.3273
 3030SOL    HW120726   3.159   4.019  17.647 -0.3414  0.7965  0.5229
 3030SOL    HW220727   3.266   3.982  17.743  0.1524  0.7858  0.6442
 3031SOL     OW20728   4.234   4.060   9.087 -0.0178  0.1455  0.2381
 3031SOL    HW120729   4.298   4.080   9.155 -2.0565  0.1700  2.1407
 3031SOL    HW220730   4.163   4.012   9.129 -0.7999  1.2556  0.1852
 3032SOL     OW20731   1.643   2.043   1.425  0.1785  0.1358 -0.7358
 3032SOL    HW120732   1.576   2.111   1.431 -1.7444 -1.9022  0.8346
 3032SOL    HW220733   1.617   1.986   1.352 -1.2348  0.0487 -0.1747
 3033SOL     OW20734   3.653   3.853   1.699 -0.8786  0.1427 -0.1919
 3033SOL    HW120735   3.628   3.811   1.617  0.7126 -0.9580 -0.1192
 3033SOL    HW220736   3.623   3.797   1.771 -0.0602  0.3031  0.2827
 3034SOL     OW20737   4.567   2.248   4.189 -0.2038 -0.0658  0.3170
 3034SOL    HW120738   4.577   2.154   4.203 -1.7383 -0.0351  1.5969
 3034SOL    HW220739   4.560   2.253   4.093 -0.7837 -3.8189  0.1881
 3035SOL     OW20740   4.411   2.878   3.673 -0.0184 -0.1811 -0.0254
 3035SOL    HW120741   4.321   2.851   3.689  0.6461 -1.8277  0.9058
 3035SOL    HW220742   4.416   2.954   3.731  1.6301 -0.2524 -0.0646
 3036SOL     OW20743   2.779   4.431   6.976  0.2158 -0.0546 -0.3716
 3036SOL    HW120744   2.860   4.468   7.010  0.1393  0.8128 -1.1509
 3036SOL    HW220745   2.725   4.510   6.983  1.4110  0.6861  0.3967
 3037SOL     OW20746   0.046   3.026  12.479 -0.0070  0.3808 -0.0060
 3037SOL    HW120747   0.099   2.993  12.552  1.6276  0.5697 -1.1071
 3037SOL    HW220748   4.701   3.030  12.523 -0.2110  0.0980 -0.3790
 3038SOL     OW20749   3.437   1.318   2.331 -0.5288  0.1048 -0.0296
 3038SOL    HW120750   3.387   1.259   2.276 -1.5674  0.8606  0.1049
 3038SOL    HW220751   3.395   1.400   2.306 -2.1256 -0.5531  0.4778
 3039SOL     OW20752   4.699   4.238   1.946 -0.0163 -0.3579 -0.1010
 3039SOL    HW120753   4.684   4.315   1.891  1.2745 -1.0764 -1.4545
 3039SOL    HW220754   4.673   4.272   2.031  1.0771 -0.9522  0.4639
 3040SOL     OW20755   4.560   4.372   3.668  0.1041  0.1530  0.0755
 3040SOL    HW120756   4.618   4.297   3.656  1.2316  0.9498  0.5033
 3040SOL    HW220757   4.475   4.330   3.653  0.7374 -1.0000 -0.2796
 3041SOL     OW20758   1.297   3.760   5.119 -0.3228 -0.0359  0.6412
 3041SOL    HW120759   1.292   3.702   5.043  0.7627  0.9902 -0.2126
 3041SOL    HW220760   1.333   3.705   5.188 -0.5668 -0.9707  0.0329
 3042SOL     OW20761   4.301   1.553   8.615 -0.4777  0.2601 -0.1283
 3042SOL    HW120762   4.205   1.548   8.615 -0.5336  1.2946  0.5246
 3042SOL    HW220763   4.318   1.520   8.703  1.7260 -0.5429 -0.8675
 3043SOL     OW20764   3.652   0.657   9.024 -0.0802  0.6196 -0.2504
 3043SOL    HW120765   3.563   0.646   9.057  0.0605 -2.1981 -0.8270
 3043SOL    HW220766   3.634   0.717   8.952 -1.8449  0.0517 -0.2817
 3044SOL     OW20767   2.585   2.686   8.817 -0.1710 -0.3178  0.1884
 3044SOL    HW120768   2.500   2.652   8.846  0.5298 -3.0027 -0.9707
 3044SOL    HW220769   2.641   2.649   8.885  0.1341 -0.5314 -0.1833
 3045SOL     OW20770   0.735   4.065   6.442  0.6736  0.8909  0.5139
 3045SOL    HW120771   0.805   4.127   6.458  0.6493  1.2853 -0.8751
 3045SOL    HW220772   0.687   4.107   6.370  0.2208 -0.2382  0.1382
 3046SOL     OW20773   3.617   4.430   6.080 -0.4337 -0.0331  0.3276
 3046SOL    HW120774   3.652   4.512   6.046 -3.9601  0.5658 -1.8491
 3046SOL    HW220775   3.591   4.390   5.997  0.1739  2.8115 -1.2183
 3047SOL     OW20776   2.702   2.914   8.718  0.2639  0.1035 -0.0512
 3047SOL    HW120777   2.641   2.844   8.743 -0.1216  0.2535 -0.5668
 3047SOL    HW220778   2.784   2.873   8.747  0.9761  0.3346 -1.6891
 3048SOL     OW20779   3.122   1.334   7.086 -0.4016 -0.1151  0.3160
 3048SOL    HW120780   3.092   1.424   7.098  2.1702  0.5422  1.7545
 3048SOL    HW220781   3.144   1.325   7.178  0.8380  0.6144  0.0959
 3049SOL     OW20782   1.371   3.973  15.753  0.0140  0.3562  0.7532
 3049SOL    HW120783   1.284   3.936  15.744  1.4937 -3.3699  1.7263
 3049SOL    HW220784   1.393   3.951  15.662 -0.1023  0.0807  0.7944
 3050SOL     OW20785   1.705   4.583  17.483 -0.1685 -0.0222 -0.0690
 3050SOL    HW120786   1.778   4.523  17.472  0.3475  0.4483  0.7698
 3050SOL    HW220787   1.698   4.615  17.393 -0.7535  1.5510  0.5346
 3051SOL     OW20788   3.213   2.199  11.527 -0.3502 -0.0555 -0.4610
 3051SOL    HW120789   3.159   2.275  11.504 -0.1618 -0.2946 -1.7010
 3051SOL    HW220790   3.146   2.145  11.569 -0.3564  0.4091  0.1318
 3052SOL     OW20791   0.179   3.354   4.086  0.3070 -0.1294  0.0087
 3052SOL    HW120792   0.144   3.295   4.019 -2.2835  0.2865  0.9697
 3052SOL    HW220793   0.271   3.336   4.071 -0.1962 -2.8451  0.2480
 3053SOL     OW20794   3.912   4.678   3.927 -0.0830 -1.2730  0.4057
 3053SOL    HW120795   3.854   0.007   3.958  1.6249  0.4225 -0.1736
 3053SOL    HW220796   3.956   4.665   4.011 -0.5343  1.5795  1.0592
 3054SOL     OW20797   0.739   4.697   6.845  0.2176 -0.0804 -0.1115
 3054SOL    HW120798   0.730   4.664   6.755  1.6418  1.3456 -0.7773
 3054SOL    HW220799   0.662   0.015   6.851 -1.3979 -2.2547 -0.0899
 3055SOL     OW20800   4.172   3.936   4.707 -0.0829  0.2584  0.3590
 3055SOL    HW120801   4.248   3.920   4.652 -0.5997 -1.2510  0.0818
 3055SOL    HW220802   4.102   3.898   4.653  2.1707 -1.0808 -1.6081
 3056SOL     OW20803   1.403   3.749   7.770 -0.4848  0.2189 -0.2020
 3056SOL    HW120804   1.479   3.692   7.781  0.8020  2.2666  1.4191
 3056SOL    HW220805   1.436   3.839   7.776 -0.3865  0.2080 -0.5620
 3057SOL     OW20806   1.724   2.068   4.586  0.1941 -0.1705  0.0719
 3057SOL    HW120807   1.752   1.991   4.536 -1.5164 -1.0702  0.4859
 3057SOL    HW220808   1.720   2.036   4.677 -2.3707 -2.2634 -0.7587
 3058SOL     OW20809   0.274   4.399   6.853  0.4501 -0.7387 -0.2581
 3058SOL    HW120810   0.310   4.450   6.925  1.8751 -1.5369 -0.3995
 3058SOL    HW220811   0.292   4.308   6.876  0.8460 -0.4113  0.7428
 3059SOL     OW20812   1.315   0.053  15.185 -0.6898  0.3230  0.2737
 3059SOL    HW120813   1.348   0.143  15.190  0.2021 -0.0034  0.2212
 3059SOL    HW220814   1.357   0.015  15.262 -1.2883 -1.0979 -0.1057
 3060SOL     OW20815   4.281   2.286   2.721 -0.4887  0.2946  0.3487
 3060SOL    HW120816   4.291   2.242   2.805 -2.4354 -1.8348 -0.4948
 3060SOL    HW220817   4.371   2.290   2.690  0.3622  0.5503  2.9266
 3061SOL     OW20818   2.137   2.447  11.394 -0.1006  0.2536  0.0794
 3061SOL    HW120819   2.220   2.484  11.424  0.6152 -0.8564 -0.5279
 3061SOL    HW220820   2.141   2.454  11.299  2.3542  0.4250  0.1864
 3062SOL     OW20821   3.355   3.928  13.800 -0.7033  0.7392 -0.3361
 3062SOL    HW120822   3.266   3.959  13.817 -1.9065 -2.2938 -1.0776
 3062SOL    HW220823   3.334   3.849  13.751 -0.9826  0.7920 -0.3006
 3063SOL     OW20824   2.206   0.595   7.226  0.3129 -0.4071 -0.3664
 3063SOL    HW120825   2.192   0.566   7.316  2.2520  1.4507  0.5268
 3063SOL    HW220826   2.189   0.523   7.166 -1.4606 -0.1183 -0.2023
 3064SOL     OW20827   3.268   1.239   4.410 -0.3371  0.2646 -0.4286
 3064SOL    HW120828   3.253   1.171   4.345  2.0801 -0.3165 -0.3610
 3064SOL    HW220829   3.180   1.277   4.419 -0.0422  1.1117 -1.2118
 3065SOL     OW20830   3.393   1.033   1.577  0.4284 -0.0473  0.0679
 3065SOL    HW120831   3.399   1.127   1.594 -1.4206  0.3402 -1.3158
 3065SOL    HW220832   3.434   0.992   1.652  2.0971 -1.2181 -1.4895
 3066SOL     OW20833   4.453   2.853   6.486 -0.3190 -0.2100 -0.2775
 3066SOL    HW120834   4.537   2.865   6.442 -0.0980  0.3250  0.2960
 3066SOL    HW220835   4.392   2.894   6.424  0.8284 -0.4809 -1.5850
 3067SOL     OW20836   0.170   2.230   3.772 -0.2730  0.3960  0.4111
 3067SOL    HW120837   0.265   2.219   3.782 -0.4384 -1.4390 -0.1404
 3067SOL    HW220838   0.146   2.259   3.860 -0.1782  1.2496  0.1616
 3068SOL     OW20839   0.866   0.589   4.193  0.3852  0.2354  0.5781
 3068SOL    HW120840   0.892   0.663   4.247 -0.9731  1.3791 -0.3251
 3068SOL    HW220841   0.948   0.548   4.165  0.2469  0.6865 -0.4851
 3069SOL     OW20842   4.069   1.366   0.344  0.0188  0.0947  0.2307
 3069SOL    HW120843   4.030   1.292   0.297  1.3906  0.8463 -2.0851
 3069SOL    HW220844   4.034   1.357   0.433 -0.3772 -0.7505 -0.0023
 3070SOL     OW20845   1.431   1.556   2.266 -0.4126 -0.5394 -0.8246
 3070SOL    HW120846   1.382   1.623   2.314 -1.0842  0.3696 -2.7829
 3070SOL    HW220847   1.467   1.617   2.203  1.6966  1.2448  2.1059
 3071SOL     OW20848   0.674   0.558   7.787  0.0414 -0.1272 -0.2724
 3071SOL    HW120849   0.644   0.649   7.796 -0.1208 -0.0781 -1.3256
 3071SOL    HW220850   0.645   0.538   7.698 -2.5098 -0.6228  0.6975
 3072SOL     OW20851   2.679   4.489   5.993 -0.1503 -0.2599 -0.6197
 3072SOL    HW120852   2.597   4.451   6.024  0.3921 -1.2614 -0.4272
 3072SOL    HW220853   2.712   4.437   5.920  0.8676 -0.0143 -0.3324
 3073SOL     OW20854   0.231   0.261   1.947 -0.1978  0.3892  0.3454
 3073SOL    HW120855   0.164   0.319   1.983 -0.4557  0.5638 -0.4138
 3073SOL    HW220856   0.221   0.190   2.011  0.1601  0.4292  0.4492
 3074SOL     OW20857   2.522   1.435   1.565  0.5507 -0.3037  0.0285
 3074SOL    HW120858   2.488   1.459   1.479 -2.0339 -1.1781  0.7939
 3074SOL    HW220859   2.498   1.343   1.577  0.9390 -0.2996  0.8757
 3075SOL     OW20860   1.756   3.034   6.800  0.3463 -0.0940 -0.4383
 3075SOL    HW120861   1.845   3.025   6.766  0.7292  0.2070  0.4827
 3075SOL    HW220862   1.743   3.128   6.783  3.5503  0.6810  1.3681
 3076SOL     OW20863   3.191   1.623  10.352 -0.6267  0.2969 -0.2292
 3076SOL    HW120864   3.196   1.702  10.406  0.2468 -0.9454  1.5216
 3076SOL    HW220865   3.231   1.557  10.407  0.3665 -0.2687 -1.6288
 3077SOL     OW20866   4.097   3.611  17.003  0.3298 -0.3811  0.3255
 3077SOL    HW120867   4.121   3.534  17.056  2.1597 -1.5201 -2.1765
 3077SOL    HW220868   4.167   3.672  17.025  1.5774 -0.4361 -3.4628
 3078SOL     OW20869   3.518   0.195   7.423 -0.1580  0.1950  0.0117
 3078SOL    HW120870   3.510   0.132   7.495 -1.8552  0.4472  0.0257
 3078SOL    HW220871   3.580   0.258   7.460 -0.6574  1.3783 -1.1775
 3079SOL     OW20872   2.417   4.343   6.064  0.0813 -0.3530  0.0944
 3079SOL    HW120873   2.385   4.270   6.117 -1.1937 -0.5756 -0.9817
 3079SOL    HW220874   2.377   4.324   5.980 -0.8537  0.7243  0.2955
 3080SOL     OW20875   2.934   0.333  13.571  0.2053 -0.4221  0.4089
 3080SOL    HW120876   2.857   0.329  13.514  0.6433  0.2373 -0.2357
 3080SOL    HW220877   2.947   0.427  13.588 -2.8333 -0.2223  1.7289
 3081SOL     OW20878   2.600   0.702  16.240  0.3625  0.5565  0.3224
 3081SOL    HW120879   2.665   0.650  16.193  0.2262  0.5011  0.1980
 3081SOL    HW220880   2.557   0.629  16.283 -3.5359  2.5230 -0.2207
 3082SOL     OW20881   0.943   3.833   6.968  0.3903  0.7173  0.3900
 3082SOL    HW120882   0.917   3.858   6.880  0.0313 -1.8928 -0.2422
 3082SOL    HW220883   0.900   3.748   6.966  2.0416 -0.0695 -1.7256
 3083SOL     OW20884   1.916   4.713   4.755  0.5915  0.8400  0.5559
 3083SOL    HW120885   1.869   4.722   4.837 -0.1501  1.8580  0.0174
 3083SOL    HW220886   2.007   4.694   4.777  0.7844 -1.7998 -2.4881
 3084SOL     OW20887   1.719   3.963  12.201  0.0987 -0.0849  0.2161
 3084SOL    HW120888   1.653   4.030  12.183  0.3059 -0.4136 -1.8168
 3084SOL    HW220889   1.780   4.009  12.259  0.4875 -1.1040  0.6169
 3085SOL     OW20890   0.986   3.851   3.082 -0.3255 -0.3410  0.5602
 3085SOL    HW120891   0.951   3.773   3.039  0.9140  0.2990 -1.6215
 3085SOL    HW220892   1.049   3.807   3.139  0.0555 -3.1330 -2.0050
 3086SOL     OW20893   3.426   0.703  11.403  0.2356  0.0475 -0.8269
 3086SOL    HW120894   3.495   0.767  11.385 -0.3503  0.4472 -1.6645
 3086SOL    HW220895   3.475   0.628  11.370  1.8598  0.6808  0.1399
 3087SOL     OW20896   2.619   4.051   2.009  0.0727  0.0621  0.3769
 3087SOL    HW120897   2.614   4.088   2.097  1.5488 -0.2534  0.5936
 3087SOL    HW220898   2.630   4.126   1.951  0.6965 -0.0204  0.3918
 3088SOL     OW20899   3.576   2.950  10.508  1.0629 -0.2076 -0.5231
 3088SOL    HW120900   3.596   2.919  10.596  3.8603 -0.9496 -1.4306
 3088SOL    HW220901   3.578   2.869  10.458 -1.2275 -0.2242 -0.5994
 3089SOL     OW20902   1.573   3.407   5.206 -0.2972 -0.2995  0.2415
 3089SOL    HW120903   1.578   3.376   5.115  2.0106 -4.6376  1.8238
 3089SOL    HW220904   1.621   3.334   5.245  0.1669  0.4921  1.1454
 3090SOL     OW20905   0.626   4.117   1.436 -0.8754  0.7234  0.0131
 3090SOL    HW120906   0.669   4.067   1.366 -0.9097 -0.3631  0.7717
 3090SOL    HW220907   0.664   4.204   1.426 -0.9476  0.5085 -2.1297
 3091SOL     OW20908   4.098   2.699  14.985  0.7262 -0.1590 -0.1235
 3091SOL    HW120909   4.119   2.751  14.907 -0.2452  0.8315  0.2808
 3091SOL    HW220910   4.140   2.622  14.946  1.0858  0.2221 -0.4975
 3092SOL     OW20911   1.153   0.089   2.516 -0.3071 -0.3050  0.1486
 3092SOL    HW120912   1.124   0.032   2.587  0.2293  0.5282  1.0301
 3092SOL    HW220913   1.099   0.167   2.525  0.5852  0.2703  0.5914
 3093SOL     OW20914   3.327   4.643   9.003 -0.4305 -0.3853 -0.1447
 3093SOL    HW120915   3.399   4.579   9.003 -0.4143 -0.3667 -0.2511
 3093SOL    HW220916   3.345   4.699   9.079  0.2376  1.1500 -1.4241
 3094SOL     OW20917   4.395   2.056   8.392 -0.3919 -0.3308 -0.6260
 3094SOL    HW120918   4.313   2.014   8.419 -0.0634  0.5737  1.7870
 3094SOL    HW220919   4.418   1.995   8.321 -1.0728  1.1893 -2.1540
 3095SOL     OW20920   4.669   3.535   1.421 -0.4859 -0.2277  0.2342
 3095SOL    HW120921   4.697   3.494   1.503  0.1221  3.3482  1.8156
 3095SOL    HW220922   4.574   3.533   1.427 -0.4111  2.1598  2.0334
 3096SOL     OW20923   4.678   2.139   5.596  0.2247 -0.4567  0.7135
 3096SOL    HW120924   0.010   2.197   5.572 -1.2124  0.8467 -0.4071
 3096SOL    HW220925   4.707   2.111   5.683 -0.4878 -0.1670  1.0463
 3097SOL     OW20926   0.964   2.153   8.189 -0.5078  0.1455 -0.1607
 3097SOL    HW120927   1.041   2.209   8.197  0.6816 -1.7743  1.9677
 3097SOL    HW220928   0.988   2.072   8.235 -0.9958  0.1504  0.0958
 3098SOL     OW20929   3.731   4.020   6.638 -0.4293 -1.1524 -0.1874
 3098SOL    HW120930   3.756   3.928   6.623  2.6097 -0.7748  2.8154
 3098SOL    HW220931   3.811   4.062   6.606  0.3434 -1.1813  1.7273
 3099SOL     OW20932   3.817   0.085   2.759 -0.2121  0.3367  0.0341
 3099SOL    HW120933   3.825   4.734   2.789  1.4296  0.2658 -0.6157
 3099SOL    HW220934   3.806   0.138   2.838 -1.7400 -0.3476  0.2848
 3100SOL     OW20935   0.833   1.905   6.970 -0.1641 -0.0600  0.3158
 3100SOL    HW120936   0.830   1.861   7.055 -2.8198 -2.6606 -1.1064
 3100SOL    HW220937   0.822   1.832   6.909  0.9831  0.4251 -0.4547
 3101SOL     OW20938   3.289   3.715   5.141  0.2552 -0.2528  0.1375
 3101SOL    HW120939   3.228   3.767   5.090  0.3463  0.0905  0.3793
 3101SOL    HW220940   3.268   3.624   5.120  0.1049 -0.0356 -0.6465
 3102SOL     OW20941   3.533   2.380   6.502  0.5070 -0.2861  0.7378
 3102SOL    HW120942   3.613   2.399   6.551  0.7077  0.6845  0.0424
 3102SOL    HW220943   3.471   2.415   6.566 -1.1097 -3.4418  0.8715
 3103SOL     OW20944   0.321   3.077   8.927 -0.1384  0.2571 -0.3061
 3103SOL    HW120945   0.370   3.052   9.005 -1.9709 -1.8845  0.1587
 3103SOL    HW220946   0.266   3.150   8.956  0.0391 -0.4826  1.8978
 3104SOL     OW20947   3.839   3.847  17.469 -0.2295  0.3779  0.3429
 3104SOL    HW120948   3.752   3.842  17.428 -0.9429  0.6272  1.8258
 3104SOL    HW220949   3.817   3.803  17.551 -0.9000  1.3940  0.7019
 3105SOL     OW20950   1.657   1.108   5.671  0.0349  0.7884  0.7088
 3105SOL    HW120951   1.562   1.118   5.674 -0.2667 -1.4344 -1.5612
 3105SOL    HW220952   1.666   1.013   5.668  0.3578  0.8287  0.3476
 3106SOL     OW20953   0.168   0.812   4.925 -0.1866  0.3425  0.2622
 3106SOL    HW120954   0.152   0.755   5.000 -0.2523 -0.4923 -0.3875
 3106SOL    HW220955   0.086   0.861   4.916 -1.3544 -1.6013  0.5135
 3107SOL     OW20956   4.454   4.134   7.061  0.0526  0.0386 -0.1357
 3107SOL    HW120957   4.469   4.217   7.016  0.9017  0.7754  1.5117
 3107SOL    HW220958   4.546   4.108   7.067 -0.1389 -0.8599 -1.1221
 3108SOL     OW20959   3.641   4.569   2.110 -0.2572 -0.1804  0.5226
 3108SOL    HW120960   3.625   4.648   2.161  1.1606  1.3503 -1.4305
 3108SOL    HW220961   3.725   4.589   2.069 -0.7412  1.1403  0.1965
 3109SOL     OW20962   3.916   2.180   9.677 -0.3318  0.0364 -0.3017
 3109SOL    HW120963   3.953   2.114   9.736 -0.1019 -1.1274 -1.7287
 3109SOL    HW220964   3.824   2.195   9.694 -0.6354  0.6562 -2.4140
 3110SOL     OW20965   2.453   3.179   8.269 -0.2420  0.1708  0.0047
 3110SOL    HW120966   2.372   3.139   8.237 -1.7114  2.1159  1.2655
 3110SOL    HW220967   2.433   3.271   8.252 -2.1517 -0.1462  0.4909
 3111SOL     OW20968   0.536   3.747  14.800  0.3384  0.2045 -0.0648
 3111SOL    HW120969   0.580   3.803  14.735  0.5723  1.2123  0.9475
 3111SOL    HW220970   0.496   3.801  14.868 -1.0195 -1.1547  0.2039
 3112SOL     OW20971   0.865   2.790   0.510  0.2358 -0.1791  0.8744
 3112SOL    HW120972   0.826   2.750   0.587  1.9938  0.6141  2.1679
 3112SOL    HW220973   0.957   2.792   0.536  0.9302  0.5614 -1.5975
 3113SOL     OW20974   3.678   1.199   4.588  0.1906  0.2170  0.3111
 3113SOL    HW120975   3.709   1.275   4.638  1.4017 -1.2629  1.8292
 3113SOL    HW220976   3.613   1.164   4.649 -0.4396  2.0594  0.6874
 3114SOL     OW20977   1.202   0.958   4.587  0.0011  0.3746 -0.3923
 3114SOL    HW120978   1.200   0.919   4.500 -1.9963 -2.4355  0.8795
 3114SOL    HW220979   1.290   0.934   4.616  0.6010  2.3054 -0.6276
 3115SOL     OW20980   3.248   3.525   9.092 -0.0575 -0.4193  0.2911
 3115SOL    HW120981   3.281   3.435   9.092  1.0747  0.0051 -0.2386
 3115SOL    HW220982   3.159   3.516   9.126 -0.0978 -1.5279 -0.1039
 3116SOL     OW20983   3.797   2.270   7.227 -0.0791  0.4971 -0.7766
 3116SOL    HW120984   3.731   2.215   7.268  0.8220 -1.1560 -1.5153
 3116SOL    HW220985   3.802   2.342   7.289 -2.7034 -0.2828  0.3483
 3117SOL     OW20986   3.283   2.182   1.285  0.1419 -0.4802 -0.3187
 3117SOL    HW120987   3.267   2.260   1.338  1.9100 -1.4003  1.5797
 3117SOL    HW220988   3.212   2.129   1.321 -0.2626 -0.0133 -0.4240
 3118SOL     OW20989   3.197   4.419   4.563 -0.3165  0.2727 -0.0087
 3118SOL    HW120990   3.236   4.366   4.633  2.5587  0.6072 -1.3589
 3118SOL    HW220991   3.281   4.460   4.542 -0.2538  0.9336  1.4903
 3119SOL     OW20992   1.699   0.056  10.623  0.0321  0.1051  0.0237
 3119SOL    HW120993   1.621   0.000  10.626  0.4942 -0.5723 -0.6175
 3119SOL    HW220994   1.728   0.033  10.535 -0.2886 -0.4269  0.0582
 3120SOL     OW20995   2.009   1.545   2.413 -0.3481  0.1517 -0.7550
 3120SOL    HW120996   1.992   1.544   2.319  0.3062  0.7132 -0.8817
 3120SOL    HW220997   2.047   1.633   2.423  0.4048 -0.3891  1.1138
 3121SOL     OW20998   0.098   3.670  10.486 -0.0838 -0.1762 -0.3239
 3121SOL    HW120999   0.147   3.733  10.432 -1.9376  0.9839 -0.6439
 3121SOL    HW221000   0.165   3.622  10.536 -2.2627 -1.9166  0.8962
 3122SOL     OW21001   4.685   1.741   6.511 -0.4476  0.5553 -0.3395
 3122SOL    HW121002   4.714   1.810   6.451  1.3155  0.7836  0.7994
 3122SOL    HW221003   4.647   1.788   6.585 -2.5877  1.3761 -1.9571
 3123SOL     OW21004   3.587   2.726  14.969 -0.3064 -0.1942  0.3043
 3123SOL    HW121005   3.612   2.776  14.891 -2.0143  2.6658  1.6244
 3123SOL    HW221006   3.582   2.788  15.041  0.4575  0.1986  0.0245
 3124SOL     OW21007   1.832   1.013  11.603  0.6610  0.4590  0.2338
 3124SOL    HW121008   1.858   0.921  11.612 -1.5760 -0.3435 -1.4780
 3124SOL    HW221009   1.908   1.054  11.643 -0.3745  1.0780  1.5812
 3125SOL     OW21010   4.326   4.306   6.101  0.1460  0.1997 -0.3351
 3125SOL    HW121011   4.379   4.229   6.081 -0.1022  0.4155 -1.8533
 3125SOL    HW221012   4.398   4.366   6.123  0.2414  0.7600 -2.1787
 3126SOL     OW21013   4.618   4.261  15.166 -0.6823 -0.3070  0.1947
 3126SOL    HW121014   4.566   4.183  15.187 -0.4766 -1.1206 -2.3696
 3126SOL    HW221015   4.558   4.296  15.099 -0.6438 -2.5895 -1.0135
 3127SOL     OW21016   1.250   0.984  12.629  0.3780 -0.2969 -0.1019
 3127SOL    HW121017   1.258   1.056  12.567  1.1132  1.0460  1.5506
 3127SOL    HW221018   1.337   0.978  12.670  1.0446 -0.0842 -1.4780
 3128SOL     OW21019   0.383   3.085   4.873 -0.4205  0.5008 -0.1928
 3128SOL    HW121020   0.395   3.180   4.875 -1.8240  0.6510  0.5738
 3128SOL    HW221021   0.336   3.058   4.951  1.8236 -0.9581  0.6572
 3129SOL     OW21022   3.388   4.690   8.044  0.0685  0.2033  0.4270
 3129SOL    HW121023   3.310   4.734   8.010 -0.3613 -0.5455  0.4397
 3129SOL    HW221024   3.456   4.717   7.984  0.2287  2.8224  1.8060
 3130SOL     OW21025   0.854   4.561  14.008  0.1068 -0.1683  0.1686
 3130SOL    HW121026   0.828   4.522  13.925  1.4632 -2.0335  0.6166
 3130SOL    HW221027   0.919   4.619  13.969  0.3722 -1.5383 -1.4013
 3131SOL     OW21028   3.500   0.459   7.216  0.2765 -0.2128  0.1265
 3131SOL    HW121029   3.505   0.457   7.121 -0.4482  0.6071  0.0737
 3131SOL    HW221030   3.571   0.396   7.232  0.0426 -0.4411  0.2641
 3132SOL     OW21031   4.222   1.676   6.467  0.3868 -0.6561  0.5022
 3132SOL    HW121032   4.131   1.672   6.436  1.2229 -1.3100 -1.8655
 3132SOL    HW221033   4.239   1.766   6.440  0.6448 -0.9492 -0.3294
 3133SOL     OW21034   0.976   2.167   9.308  0.6809  0.0685  0.5635
 3133SOL    HW121035   0.886   2.147   9.285  1.2773 -0.4791 -1.2460
 3133SOL    HW221036   0.988   2.117   9.389 -1.1121 -0.7286  0.3244
 3134SOL     OW21037   2.662   3.098   5.396  0.3404  0.1841 -0.0106
 3134SOL    HW121038   2.701   3.183   5.378  0.7554 -0.0722 -0.3141
 3134SOL    HW221039   2.595   3.132   5.455 -1.0188  1.5948 -2.3469
 3135SOL     OW21040   0.670   3.255   5.495 -0.1428  0.6664 -0.1131
 3135SOL    HW121041   0.723   3.327   5.529  0.7132 -0.4637  0.9570
 3135SOL    HW221042   0.578   3.281   5.505  0.0065  1.0962  0.1105
 3136SOL     OW21043   1.397   4.543   7.688  0.2500 -0.6117 -0.1581
 3136SOL    HW121044   1.360   4.486   7.620 -1.7645 -0.3163  0.6803
 3136SOL    HW221045   1.322   4.568   7.742  1.0975  0.6715  0.4265
 3137SOL     OW21046   1.426   1.477   8.558 -0.1548 -0.1347 -0.5333
 3137SOL    HW121047   1.438   1.416   8.630 -4.1523  0.7305  0.8607
 3137SOL    HW221048   1.357   1.536   8.588  0.7707  0.6579  0.0710
 3138SOL     OW21049   0.693   4.190  10.958  0.1252 -0.1267 -0.2504
 3138SOL    HW121050   0.742   4.169  11.037  0.2804  0.0705 -0.2940
 3138SOL    HW221051   0.606   4.182  10.997  1.4372 -0.7502  2.5635
 3139SOL     OW21052   1.584   4.094  10.267 -0.0338  0.7808  0.0576
 3139SOL    HW121053   1.530   4.082  10.189  0.0703  0.1393  0.0820
 3139SOL    HW221054   1.650   4.025  10.269 -1.1444 -0.3477 -1.5936
 3140SOL     OW21055   4.028   1.648  16.160  0.0337  0.0253  0.1715
 3140SOL    HW121056   4.078   1.686  16.088  4.6048 -0.3344  3.1773
 3140SOL    HW221057   3.972   1.583  16.119 -1.5099  0.2515  1.9222
 3141SOL     OW21058   3.785   3.105   9.793  0.2486  0.4692  0.0405
 3141SOL    HW121059   3.847   3.107   9.720  0.7583 -1.0296  0.4442
 3141SOL    HW221060   3.699   3.090   9.752 -0.2597  0.1723  1.2054
 3142SOL     OW21061   1.596   3.325   3.384  0.4248 -0.2085  0.3035
 3142SOL    HW121062   1.661   3.296   3.448 -0.1778 -0.6240  0.7304
 3142SOL    HW221063   1.531   3.354   3.448  0.6810 -0.9505  0.8933
 3143SOL     OW21064   3.433   3.843   8.745  0.2479 -0.2804  0.5511
 3143SOL    HW121065   3.408   3.830   8.653  1.4408 -0.3952  0.2432
 3143SOL    HW221066   3.375   3.784   8.792  0.5577 -1.5829 -0.7063
 3144SOL     OW21067   3.814   2.548   8.687  0.1226 -0.5005 -0.0486
 3144SOL    HW121068   3.751   2.480   8.662 -0.6320  0.4948 -0.8438
 3144SOL    HW221069   3.896   2.506   8.660  0.5618 -1.2974  2.5825
 3145SOL     OW21070   0.022   2.573   9.125 -0.3571  0.0234 -0.3263
 3145SOL    HW121071   0.018   2.571   9.220  0.6461 -2.1690 -0.3436
 3145SOL    HW221072   0.055   2.485   9.106 -0.6605 -0.4444  1.3332
 3146SOL     OW21073   1.803   1.225   6.217  0.1430 -0.1954 -0.3996
 3146SOL    HW121074   1.835   1.140   6.246 -0.5206 -0.1288  0.5433
 3146SOL    HW221075   1.887   1.272   6.223  0.6050 -0.7901 -2.2351
 3147SOL     OW21076   3.896   3.031   5.329  0.1791 -0.0080 -0.3972
 3147SOL    HW121077   3.854   2.975   5.394 -1.9908  2.1811  0.0828
 3147SOL    HW221078   3.820   3.083   5.303  0.5526  0.9701  0.4843
 3148SOL     OW21079   1.720   1.110   8.937  0.1435 -0.1709  0.0059
 3148SOL    HW121080   1.732   1.085   8.845 -0.3958 -3.3493  0.7795
 3148SOL    HW221081   1.766   1.193   8.947 -0.1888  0.2700 -2.0489
 3149SOL     OW21082   3.894   3.741  17.166  0.1522 -0.0325 -0.1983
 3149SOL    HW121083   3.930   3.677  17.104 -1.0980  0.2699 -1.2202
 3149SOL    HW221084   3.881   3.811  17.103 -0.0513  1.8524  1.9488
 3150SOL     OW21085   1.012   3.535   9.279 -0.4665 -0.0688  0.4738
 3150SOL    HW121086   0.979   3.540   9.189 -0.2142 -0.0336  0.3812
 3150SOL    HW221087   0.987   3.618   9.320 -0.7961 -0.2018  0.5424
 3151SOL     OW21088   4.312   4.072   7.505 -0.4769 -0.3925  0.3501
 3151SOL    HW121089   4.323   3.991   7.556 -1.1901 -2.2348 -2.4479
 3151SOL    HW221090   4.256   4.111   7.572 -0.0959  0.3540  0.2322
 3152SOL     OW21091   4.000   2.535  16.080 -0.6411  0.4786  0.4630
 3152SOL    HW121092   3.985   2.441  16.092 -1.9889  0.7493  0.9086
 3152SOL    HW221093   4.010   2.567  16.170 -1.0142 -0.8209  0.9652
 3153SOL     OW21094   3.725   0.812   8.546  0.7635 -0.3586 -0.3251
 3153SOL    HW121095   3.723   0.745   8.615 -2.5720  1.2056  1.0818
 3153SOL    HW221096   3.631   0.828   8.553  0.8329 -0.0172 -0.1564
 3154SOL     OW21097   3.416   2.407  11.506  0.2911  0.5488  0.0276
 3154SOL    HW121098   3.369   2.324  11.520 -0.3143  0.6614 -1.2692
 3154SOL    HW221099   3.489   2.394  11.566  0.0113  0.9143  0.4501
 3155SOL     OW21100   3.114   1.701   7.331  0.8906 -0.1505 -0.3077
 3155SOL    HW121101   3.126   1.632   7.395 -0.1026 -0.3823 -0.3800
 3155SOL    HW221102   3.198   1.748   7.336  0.9984 -0.1024 -2.2201
 3156SOL     OW21103   4.202   1.724   5.926 -0.9707 -0.7746 -0.2471
 3156SOL    HW121104   4.175   1.640   5.964  1.8884 -1.2941  0.6355
 3156SOL    HW221105   4.227   1.762   6.010 -0.6434 -2.9137  0.6458
 3157SOL     OW21106   1.999   2.951   4.122 -0.0013 -0.2813  0.0017
 3157SOL    HW121107   1.993   3.029   4.178 -0.3463 -0.7082  0.5513
 3157SOL    HW221108   1.907   2.934   4.105  0.0764  1.0627 -1.8659
 3158SOL     OW21109   4.421   1.048   4.582 -0.5166 -0.2275 -0.0797
 3158SOL    HW121110   4.379   0.975   4.538 -0.9809 -0.0611  0.0862
 3158SOL    HW221111   4.372   1.061   4.663  0.7920 -0.9218  0.8207
 3159SOL     OW21112   2.900   1.733   4.962 -0.3980 -0.1572 -0.0030
 3159SOL    HW121113   2.931   1.793   5.030 -2.1297 -1.3309  1.8228
 3159SOL    HW221114   2.807   1.744   4.982 -0.6235 -2.6376  0.2507
 3160SOL     OW21115   0.670   4.346  14.426  0.2507 -0.2868  0.0890
 3160SOL    HW121116   0.764   4.326  14.420  0.5379  0.7671  1.2017
 3160SOL    HW221117   0.659   4.434  14.389  3.4789  0.7186  1.5810
 3161SOL     OW21118   2.519   0.551   5.655  0.3217  0.1406  0.1055
 3161SOL    HW121119   2.527   0.457   5.672 -1.3792  0.1586  0.9723
 3161SOL    HW221120   2.516   0.597   5.739  0.2649 -0.4861  0.4446
 3162SOL     OW21121   3.042   3.742  17.550  0.0066  0.4168  0.0390
 3162SOL    HW121122   3.000   3.744  17.465  2.8981  2.2675 -1.3576
 3162SOL    HW221123   2.966   3.772  17.600  1.5143  1.2444  1.8674
 3163SOL     OW21124   3.337   2.675   1.655 -0.2194  0.4518 -0.2684
 3163SOL    HW121125   3.256   2.625   1.666  1.2953 -2.0134 -0.1796
 3163SOL    HW221126   3.319   2.742   1.589  1.0842  1.2906  0.2125
 3164SOL     OW21127   1.666   2.177   5.231  0.3339  0.2139  0.3825
 3164SOL    HW121128   1.601   2.247   5.224 -0.7299 -0.8777 -0.6793
 3164SOL    HW221129   1.743   2.225   5.200  0.8785 -0.7988  0.1619
 3165SOL     OW21130   1.362   1.780   8.728  0.2791  0.5260  0.2331
 3165SOL    HW121131   1.407   1.719   8.787 -1.9748  0.1045  1.4912
 3165SOL    HW221132   1.428   1.849   8.730  0.1971  0.5646  2.3401
 3166SOL     OW21133   1.899   2.961   3.543 -0.1806  0.2616 -0.2573
 3166SOL    HW121134   1.814   2.922   3.564 -1.0697  2.6472  0.6486
 3166SOL    HW221135   1.959   2.918   3.603  0.1260  0.8522 -0.1338
 3167SOL     OW21136   2.592   1.197   8.931  0.3974 -0.0240 -0.2528
 3167SOL    HW121137   2.629   1.266   8.986 -1.6683 -0.0254  1.1552
 3167SOL    HW221138   2.500   1.225   8.932  0.7130  0.9405  1.1233
 3168SOL     OW21139   2.185   3.486   3.729 -0.0929 -0.1930 -0.1099
 3168SOL    HW121140   2.245   3.423   3.690  1.2312  1.2946 -0.4682
 3168SOL    HW221141   2.237   3.563   3.754 -1.5627  0.8618 -0.2392
 3169SOL     OW21142   3.319   2.758   6.484  0.6482 -0.0260 -0.1936
 3169SOL    HW121143   3.326   2.806   6.566  0.9001 -1.7562  0.8024
 3169SOL    HW221144   3.312   2.829   6.421 -0.4355  0.9797  1.0762
 3170SOL     OW21145   2.394   3.067  12.985  0.3329  0.3605 -1.0054
 3170SOL    HW121146   2.311   3.114  12.983  0.0119 -0.2013 -1.0034
 3170SOL    HW221147   2.367   2.987  13.031  1.7645  1.5677  1.9556
 3171SOL     OW21148   4.067   0.986   5.775 -0.3231 -0.0446  0.3322
 3171SOL    HW121149   4.059   0.949   5.863  1.5695 -2.6104 -0.5824
 3171SOL    HW221150   4.141   0.936   5.741 -0.0669  1.3809 -1.1639
 3172SOL     OW21151   2.865   2.503   5.053  0.5059 -0.3007  0.1636
 3172SOL    HW121152   2.919   2.424   5.045  0.4301 -0.1693 -1.5955
 3172SOL    HW221153   2.928   2.574   5.035  0.0867  0.3011  1.0638
 3173SOL     OW21154   1.156   0.946   7.109 -0.0025  0.4363  0.4586
 3173SOL    HW121155   1.127   1.033   7.080 -1.7020 -0.4045 -0.3869
 3173SOL    HW221156   1.172   0.908   7.022 -0.1618 -1.8379  1.4293
 3174SOL     OW21157   1.008   0.318   2.171  0.2295  0.0914 -0.1504
 3174SOL    HW121158   1.075   0.340   2.107 -0.6163  2.1540 -0.3597
 3174SOL    HW221159   0.970   0.401   2.203 -0.1145  0.2941 -1.0802
 3175SOL     OW21160   3.621   3.909   3.588  0.1400  0.6270 -1.1074
 3175SOL    HW121161   3.544   3.857   3.609  0.0790  1.4778  0.7231
 3175SOL    HW221162   3.601   3.989   3.635  1.7806  0.1729  0.3445
 3176SOL     OW21163   1.193   1.256  12.241 -0.3557 -0.1966  0.2449
 3176SOL    HW121164   1.120   1.271  12.181  0.8217 -3.8214 -2.1797
 3176SOL    HW221165   1.149   1.237  12.324 -1.1918 -1.5777 -0.5046
 3177SOL     OW21166   3.910   2.411   5.185 -0.1873 -0.2348  0.4946
 3177SOL    HW121167   3.930   2.353   5.259 -0.5720  2.0752  2.3936
 3177SOL    HW221168   3.971   2.377   5.119 -0.5018 -0.5014  0.3414
 3178SOL     OW21169   3.257   3.906  17.202 -0.2732 -0.1191  1.0631
 3178SOL    HW121170   3.242   3.937  17.113 -0.5593  0.0316  1.1611
 3178SOL    HW221171   3.233   3.813  17.195 -0.4933  0.0350 -0.2378
 3179SOL     OW21172   1.919   2.967   3.265 -0.1582  0.1675 -0.1672
 3179SOL    HW121173   1.973   3.046   3.257  0.5557 -0.4126 -1.0951
 3179SOL    HW221174   1.881   2.979   3.352  0.4220 -1.7295  0.3457
 3180SOL     OW21175   3.436   2.642  14.645  0.1108  0.3955  0.2994
 3180SOL    HW121176   3.377   2.666  14.716  0.4921  1.5813  0.2121
 3180SOL    HW221177   3.488   2.573  14.687 -0.7077  1.1109  2.4818
 3181SOL     OW21178   1.549   3.167   8.856 -0.2375 -0.2082 -0.8505
 3181SOL    HW121179   1.606   3.221   8.911 -0.7137 -0.3900 -0.1715
 3181SOL    HW221180   1.543   3.085   8.905 -1.4408 -0.4800 -1.4452
 3182SOL     OW21181   2.602   1.595   2.400  0.0280 -0.0315  0.5316
 3182SOL    HW121182   2.578   1.661   2.335  2.1974  2.6924  2.4984
 3182SOL    HW221183   2.536   1.528   2.378 -0.1262 -0.5051  2.3927
 3183SOL     OW21184   2.093   4.349   4.647 -0.2934  0.4379  0.0446
 3183SOL    HW121185   2.156   4.420   4.633  1.7210 -1.5795 -1.2861
 3183SOL    HW221186   2.113   4.290   4.573 -1.9119 -0.3469  0.2259
 3184SOL     OW21187   4.294   3.183   7.562 -0.8052  0.6689  0.0408
 3184SOL    HW121188   4.200   3.184   7.578 -1.1530  0.6685 -1.9900
 3184SOL    HW221189   4.309   3.100   7.517  0.2789 -0.6313  2.7900
 3185SOL     OW21190   1.961   0.891   5.211  0.0158  0.2919 -0.1505
 3185SOL    HW121191   1.868   0.914   5.202 -0.4503 -1.0484  1.1755
 3185SOL    HW221192   1.981   0.886   5.118  1.7500  1.3136  0.1766
 3186SOL     OW21193   4.178   1.411   1.680  0.0160  0.5912  0.1794
 3186SOL    HW121194   4.273   1.399   1.685  0.0409  1.9593  2.6724
 3186SOL    HW221195   4.167   1.490   1.626 -0.2631  0.1026 -0.4783
 3187SOL     OW21196   4.305   2.769   4.761 -0.4588 -0.2159  0.2304
 3187SOL    HW121197   4.393   2.761   4.799  0.1807  1.2482 -0.9520
 3187SOL    HW221198   4.245   2.743   4.831  0.7620 -0.7888  1.0730
 3188SOL     OW21199   3.126   2.105   7.283 -0.0116  0.5365 -0.2317
 3188SOL    HW121200   3.088   2.151   7.358 -1.2842 -1.1662  0.1536
 3188SOL    HW221201   3.219   2.107   7.306 -0.2664 -1.2985  0.9459
 3189SOL     OW21202   2.865   0.506   5.024 -0.2446 -0.2695 -0.0941
 3189SOL    HW121203   2.920   0.432   5.049  2.6815  1.2837 -1.8594
 3189SOL    HW221204   2.833   0.546   5.104  0.0113 -0.9179  0.3332
 3190SOL     OW21205   0.352   1.700   9.482 -0.0228  0.4373  0.0160
 3190SOL    HW121206   0.293   1.635   9.442 -1.0725  1.6071 -0.3278
 3190SOL    HW221207   0.433   1.667   9.441  0.6637  0.8915  1.0115
 3191SOL     OW21208   2.883   0.286   3.043  0.0684 -0.1477  0.4004
 3191SOL    HW121209   2.859   0.319   2.956  1.1497  0.7403  0.4365
 3191SOL    HW221210   2.978   0.291   3.034  0.1646 -1.4918  0.7664
 3192SOL     OW21211   3.317   0.920   0.995 -0.4600  0.0655 -0.0013
 3192SOL    HW121212   3.290   0.834   1.027  0.3624  0.5087  1.9040
 3192SOL    HW221213   3.371   0.902   0.918 -0.6097  0.6791 -0.2429
 3193SOL     OW21214   0.928   0.950   3.397  0.5392 -0.7608 -0.3049
 3193SOL    HW121215   0.936   0.940   3.492 -0.6654  0.7305 -0.0225
 3193SOL    HW221216   0.841   0.924   3.366 -0.9725  1.5713  1.9928
 3194SOL     OW21217   1.435   1.410   7.725  0.0961 -0.9958 -0.1382
 3194SOL    HW121218   1.349   1.451   7.726  0.8766  0.5988  2.1051
 3194SOL    HW221219   1.408   1.319   7.721  1.6484 -1.5369  1.5241
 3195SOL     OW21220   0.382   2.775   7.126  0.1215  0.7946 -0.7477
 3195SOL    HW121221   0.323   2.757   7.052  1.9694  2.3728 -2.6165
 3195SOL    HW221222   0.398   2.685   7.154 -1.0288  1.8022  3.1080
 3196SOL     OW21223   1.220   1.012   3.942 -0.3920  0.5408  0.1730
 3196SOL    HW121224   1.251   0.947   3.879 -1.8894  0.3015 -0.3138
 3196SOL    HW221225   1.156   0.953   3.979  0.0137 -0.1596 -0.2435
 3197SOL     OW21226   4.315   1.133  13.898  0.0641  0.0620 -0.4453
 3197SOL    HW121227   4.265   1.084  13.963 -0.0812  0.2709 -0.3989
 3197SOL    HW221228   4.381   1.065  13.902  0.7866  0.8752  1.3586
 3198SOL     OW21229   1.106   0.103  10.080 -0.3125 -0.0403  0.6785
 3198SOL    HW121230   1.199   0.087  10.063 -0.7491 -0.8944 -0.9417
 3198SOL    HW221231   1.090   0.183  10.030 -0.2819 -0.4110  0.0723
 3199SOL     OW21232   1.457   0.687  11.065  0.2720  0.0226  0.0360
 3199SOL    HW121233   1.450   0.606  11.013 -3.9058  0.0675  0.5369
 3199SOL    HW221234   1.374   0.731  11.046 -0.4278 -0.9918  0.7443
 3200SOL     OW21235   3.514   2.386  17.164  0.2508  0.8511 -0.2050
 3200SOL    HW121236   3.549   2.426  17.244 -3.0184  1.9839  0.6493
 3200SOL    HW221237   3.548   2.440  17.092  5.8970 -2.5962 -0.1236
 3201SOL     OW21238   1.208   4.062   2.099 -0.3981 -0.3381 -0.1480
 3201SOL    HW121239   1.219   3.985   2.043 -0.3004  0.0786 -0.7041
 3201SOL    HW221240   1.214   4.029   2.188  0.4130 -0.8084 -0.3739
 3202SOL     OW21241   3.745   3.026   5.900  0.5167  0.2783  0.0149
 3202SOL    HW121242   3.676   3.007   5.836  1.3871  1.0036 -1.1187
 3202SOL    HW221243   3.826   3.012   5.851  1.5884 -0.1266  1.8911
 3203SOL     OW21244   0.641   1.899  10.926  0.5171  0.4365 -0.1760
 3203SOL    HW121245   0.647   1.981  10.976 -0.4188  1.1688 -1.2665
 3203SOL    HW221246   0.715   1.909  10.867  0.4917 -1.2627 -0.5012
 3204SOL     OW21247   0.624   1.999   3.118  0.1722 -0.3158 -0.0590
 3204SOL    HW121248   0.674   2.008   3.199  0.0385 -1.8081  0.1834
 3204SOL    HW221249   0.691   1.970   3.055  0.3346 -0.1697  0.0460
 3205SOL     OW21250   4.042   0.389   8.302 -0.5348 -0.0984 -0.0975
 3205SOL    HW121251   4.097   0.449   8.352  1.3024 -0.7254 -1.3616
 3205SOL    HW221252   3.959   0.437   8.297 -0.5207 -0.0618  0.0218
 3206SOL     OW21253   1.060   1.212  12.479  1.0203 -0.4963 -0.2473
 3206SOL    HW121254   0.970   1.183  12.464  1.2696 -0.4703 -1.7106
 3206SOL    HW221255   1.079   1.180  12.568  0.6642 -2.3635 -0.8431
 3207SOL     OW21256   0.249   0.822  10.944  0.8046  0.2628 -0.0073
 3207SOL    HW121257   0.263   0.756  11.012 -1.6771  0.0320  0.2749
 3207SOL    HW221258   0.177   0.785  10.893  1.4777 -1.0151 -0.0395
 3208SOL     OW21259   2.443   2.428   6.037  0.3707  0.1141 -0.1854
 3208SOL    HW121260   2.462   2.357   6.099  0.2050  2.3782  2.4375
 3208SOL    HW221261   2.382   2.485   6.084 -0.7166  1.3597 -3.0825
 3209SOL     OW21262   4.411   2.358   4.386 -0.0604  0.6151  0.5410
 3209SOL    HW121263   4.446   2.290   4.328 -0.2553  2.3715 -1.6226
 3209SOL    HW221264   4.409   2.436   4.331  0.8221 -1.0093 -1.7639
 3210SOL     OW21265   4.550   3.054   3.065  0.5907  0.0827 -0.3241
 3210SOL    HW121266   4.614   3.000   3.113  0.5441  1.0202  0.7994
 3210SOL    HW221267   4.528   3.004   2.986  1.2130  0.0961 -0.5093
 3211SOL     OW21268   0.509   3.885   7.779  0.2199 -0.3713  0.5969
 3211SOL    HW121269   0.583   3.855   7.833  0.4847 -0.8448 -0.0207
 3211SOL    HW221270   0.543   3.963   7.737  3.7575 -2.3911 -0.2937
 3212SOL     OW21271   3.819   1.601   5.030  0.0537  0.3378  0.2641
 3212SOL    HW121272   3.904   1.637   5.054 -0.0242  1.7532 -1.5559
 3212SOL    HW221273   3.824   1.507   5.044 -0.6162  0.0768 -1.2398
 3213SOL     OW21274   2.842   3.788   4.365  0.0296  0.2944  0.0895
 3213SOL    HW121275   2.868   3.834   4.285  0.2838  0.8498  0.4928
 3213SOL    HW221276   2.861   3.697   4.343  0.2300  0.4925 -0.5494
 3214SOL     OW21277   0.477   3.714   4.221 -0.4059  0.5058  0.4462
 3214SOL    HW121278   0.485   3.739   4.129 -0.2869  2.0145  0.8729
 3214SOL    HW221279   0.487   3.619   4.218 -4.0366  0.1057  1.6982
 3215SOL     OW21280   2.599   3.759   0.251  0.1890 -0.8701  0.3150
 3215SOL    HW121281   2.654   3.704   0.305  1.2015 -1.0400 -0.8909
 3215SOL    HW221282   2.653   3.830   0.217  0.0464 -1.2055 -0.6226
 3216SOL     OW21283   3.455   0.526  16.658 -0.3050  0.1420  0.5096
 3216SOL    HW121284   3.461   0.591  16.588 -0.3577 -0.6992 -0.2654
 3216SOL    HW221285   3.544   0.491  16.655 -0.0681  0.7812  0.0739
 3217SOL     OW21286   3.212   1.337   7.359 -0.7216  0.1277 -0.1763
 3217SOL    HW121287   3.298   1.365   7.390 -1.8563  0.8308  2.2864
 3217SOL    HW221288   3.165   1.351   7.441  1.4950 -1.3685  1.3646
 3218SOL     OW21289   3.782   2.963   7.399 -0.1809 -0.3373 -0.0006
 3218SOL    HW121290   3.835   2.976   7.478 -2.1040 -0.3824  1.3008
 3218SOL    HW221291   3.738   2.881   7.422 -0.5541 -0.5599 -1.5289
 3219SOL     OW21292   0.408   1.560   4.553  0.2428 -0.0645 -0.1011
 3219SOL    HW121293   0.358   1.503   4.611  0.9427  1.5123  2.0689
 3219SOL    HW221294   0.351   1.635   4.571 -0.3110  0.2603 -3.1801
 3220SOL     OW21295   4.331   1.893   7.809 -0.3946 -0.0435  0.4459
 3220SOL    HW121296   4.421   1.921   7.827 -0.3684 -1.0947  1.9982
 3220SOL    HW221297   4.285   1.929   7.884  1.0393  1.2683  0.6881
 3221SOL     OW21298   0.088   3.535   2.283  0.5651  0.0506 -0.3146
 3221SOL    HW121299   0.029   3.585   2.340 -0.0057 -0.5174 -0.4171
 3221SOL    HW221300   0.160   3.597   2.269 -1.1232  1.9226 -0.7331
 3222SOL     OW21301   2.881   3.836   8.713  0.3997 -0.2727 -0.1357
 3222SOL    HW121302   2.950   3.871   8.770  0.1474 -0.9758  0.5976
 3222SOL    HW221303   2.925   3.855   8.630 -0.8358 -3.9373 -1.6096
 3223SOL     OW21304   3.723   4.164   8.003 -0.2336  0.4161  0.0569
 3223SOL    HW121305   3.696   4.187   8.092 -0.4317  0.0516  0.0943
 3223SOL    HW221306   3.654   4.104   7.974  2.3814 -2.9994  0.8153
 3224SOL     OW21307   2.349   4.059   5.829  0.3051 -0.0572 -0.3406
 3224SOL    HW121308   2.308   3.978   5.797  0.5887  0.2258 -1.4273
 3224SOL    HW221309   2.423   4.021   5.876 -1.4601  1.4680  3.6472
 3225SOL     OW21310   0.766   2.917   8.814 -0.2126  0.1333 -0.5367
 3225SOL    HW121311   0.738   2.959   8.896 -2.0675 -2.4623  0.1547
 3225SOL    HW221312   0.739   2.831   8.846 -1.8150 -0.2365 -2.8542
 3226SOL     OW21313   0.218   4.185   8.392  0.0217 -0.4635  0.3437
 3226SOL    HW121314   0.164   4.137   8.455 -0.4078 -1.7618 -1.0264
 3226SOL    HW221315   0.250   4.261   8.440 -1.4203 -0.7675  1.7828
 3227SOL     OW21316   0.385   0.959  11.372 -0.5380  0.3587 -0.0774
 3227SOL    HW121317   0.313   0.911  11.332 -1.1409 -0.0552  1.5305
 3227SOL    HW221318   0.368   0.927  11.460  2.4506 -0.4997  0.1826
 3228SOL     OW21319   4.694   2.456  12.194  0.0096 -0.1186 -0.3639
 3228SOL    HW121320   4.678   2.550  12.186 -1.6162 -0.5175 -1.9476
 3228SOL    HW221321   4.676   2.433  12.102 -0.2407  1.8746 -0.8155
 3229SOL     OW21322   1.340   2.897  16.807  0.1210  0.3117  0.4079
 3229SOL    HW121323   1.260   2.845  16.803  1.8704 -2.4421  1.2522
 3229SOL    HW221324   1.315   2.962  16.741 -1.4496  0.6143  1.3069
 3230SOL     OW21325   3.779   1.497   5.454  0.2072 -0.4368 -0.3108
 3230SOL    HW121326   3.850   1.487   5.392 -0.9934 -1.2382 -1.5560
 3230SOL    HW221327   3.828   1.479   5.534  0.5427  0.2546 -0.3673
 3231SOL     OW21328   4.662   2.956   3.635  0.2007 -0.3648 -0.0542
 3231SOL    HW121329   4.635   3.037   3.590  2.7033 -0.4206 -1.6936
 3231SOL    HW221330   4.576   2.915   3.636 -0.7349  1.6240  0.1071
 3232SOL     OW21331   2.954   3.288  15.435  0.4251  0.3203  1.2690
 3232SOL    HW121332   3.008   3.254  15.364  0.9511  0.1907  1.7269
 3232SOL    HW221333   2.867   3.256  15.412  0.0720  1.2815  1.2792
 3233SOL     OW21334   0.079   1.889   0.912 -0.3472  0.6026  0.3037
 3233SOL    HW121335   0.045   1.811   0.957  0.7886  0.3488  0.7170
 3233SOL    HW221336   0.072   1.959   0.977  1.7364  1.2072 -0.1304
 3234SOL     OW21337   3.559   0.028  16.573  0.5404  0.1644 -0.2068
 3234SOL    HW121338   3.472   0.023  16.614  0.8556 -1.3238  0.3031
 3234SOL    HW221339   3.538   0.062  16.487  0.5372  2.3463  0.6523
 3235SOL     OW21340   1.987   0.464  15.942 -0.7294  0.1426 -0.5811
 3235SOL    HW121341   2.018   0.513  16.018  0.7370 -3.0535  0.9159
 3235SOL    HW221342   2.039   0.383  15.939  2.3756  1.9430  3.5374
 3236SOL     OW21343   0.792   3.231  16.917 -0.0660  0.7683 -0.1192
 3236SOL    HW121344   0.743   3.274  16.987  0.5747  2.8478 -0.9605
 3236SOL    HW221345   0.857   3.297  16.896  1.4368 -0.6174  0.1582
 3237SOL     OW21346   3.330   1.403   5.592 -0.1970 -0.7960  1.0007
 3237SOL    HW121347   3.384   1.388   5.515  0.2455  1.3491  0.9114
 3237SOL    HW221348   3.246   1.370   5.559 -0.4659  3.2423 -2.2649
 3238SOL     OW21349   3.915   0.042   4.549  0.3810  0.0612  0.1695
 3238SOL    HW121350   3.893   0.135   4.537 -0.8963 -0.0496  1.6682
 3238SOL    HW221351   3.979   0.035   4.620  1.1128  1.3097 -0.3588
 3239SOL     OW21352   3.469   3.575  13.931 -0.4420 -1.1508  0.1319
 3239SOL    HW121353   3.401   3.551  13.869 -0.9305  1.6107 -0.3615
 3239SOL    HW221354   3.478   3.490  13.976  0.1536 -1.7156 -1.0574
 3240SOL     OW21355   1.292   3.223  11.182  0.3666  0.8246 -0.1300
 3240SOL    HW121356   1.221   3.221  11.246  0.0726  0.5907 -0.4660
 3240SOL    HW221357   1.286   3.137  11.139  1.8329  1.0718 -0.8288
 3241SOL     OW21358   4.355   0.317   0.930 -0.1472 -0.1421 -0.2702
 3241SOL    HW121359   4.431   0.298   0.876 -0.6102 -0.2024 -0.8924
 3241SOL    HW221360   4.290   0.344   0.866 -0.1291  0.0496 -0.2078
 3242SOL     OW21361   4.440   0.380   2.098  0.5558  0.0010 -0.2600
 3242SOL    HW121362   4.424   0.294   2.138  0.0626  1.3602  2.4607
 3242SOL    HW221363   4.361   0.394   2.046  1.2950  2.5252 -0.6958
 3243SOL     OW21364   1.034   3.278   1.948  0.1442 -0.2044  0.2759
 3243SOL    HW121365   1.010   3.302   1.858 -1.3114 -1.0317  0.4372
 3243SOL    HW221366   1.084   3.198   1.933 -0.5693 -1.0896  2.6421
 3244SOL     OW21367   1.791   1.953   8.082  0.1163 -0.5743 -0.1573
 3244SOL    HW121368   1.696   1.953   8.087  0.0665 -2.7374 -1.1531
 3244SOL    HW221369   1.801   1.865   8.047  0.5160  0.5083 -2.7539
 3245SOL     OW21370   2.955   2.889   8.893  0.3819 -0.1156 -0.1100
 3245SOL    HW121371   3.018   2.868   8.961  0.2917 -0.3608 -0.1030
 3245SOL    HW221372   3.009   2.881   8.814  0.8880  1.0478  0.1113
 3246SOL     OW21373   4.129   2.526   4.328 -0.1153 -0.0636 -0.4149
 3246SOL    HW121374   4.160   2.597   4.384  1.7379  0.1864 -1.7371
 3246SOL    HW221375   4.095   2.463   4.392 -0.9573  0.4874 -0.3256
 3247SOL     OW21376   2.253   2.386   9.503  0.1826  0.4910  0.5497
 3247SOL    HW121377   2.279   2.420   9.417 -0.6794 -0.6782 -0.1735
 3247SOL    HW221378   2.169   2.432   9.509  0.2122  0.3438  1.9954
 3248SOL     OW21379   2.620   3.794  17.012 -0.0919 -0.1579  0.1437
 3248SOL    HW121380   2.577   3.865  17.059  1.7492  1.7052 -0.9852
 3248SOL    HW221381   2.546   3.738  16.989 -2.1067  1.1292  3.5260
 3249SOL     OW21382   0.891   1.671  12.535 -0.3197 -0.2114  0.5203
 3249SOL    HW121383   0.918   1.727  12.462  0.7497  0.2201  1.2447
 3249SOL    HW221384   0.938   1.593  12.507 -1.2259 -1.8409  3.5375
 3250SOL     OW21385   0.621   0.557   6.184 -0.5120 -0.0853  0.1325
 3250SOL    HW121386   0.576   0.541   6.101 -0.8729 -1.5340  0.6235
 3250SOL    HW221387   0.691   0.619   6.162 -0.5663 -0.2396 -0.4598
 3251SOL     OW21388   2.161   1.908   1.081 -0.5164  0.1050  0.3809
 3251SOL    HW121389   2.104   1.943   1.012  0.6003 -0.2473 -0.7333
 3251SOL    HW221390   2.117   1.829   1.110  0.1475  0.2316  1.7198
 3252SOL     OW21391   0.646   2.092   6.061 -0.0925  0.2408 -0.1037
 3252SOL    HW121392   0.617   2.032   6.131 -1.5121  0.1963 -0.7144
 3252SOL    HW221393   0.719   2.043   6.022 -0.2300 -0.8845  1.0421
 3253SOL     OW21394   0.803   1.429   1.645  0.4042 -0.0641  0.1153
 3253SOL    HW121395   0.816   1.416   1.739 -1.8643  0.4135  0.4897
 3253SOL    HW221396   0.709   1.438   1.632  0.8399  1.8228 -1.6966
 3254SOL     OW21397   3.883   0.224   7.349 -0.1685  0.1410  0.2999
 3254SOL    HW121398   3.857   0.192   7.262  2.0475 -0.0742 -0.2741
 3254SOL    HW221399   3.898   0.136   7.383 -0.0825  0.0548  0.0434
 3255SOL     OW21400   3.939   4.171  16.711  0.4537 -0.4782 -0.1061
 3255SOL    HW121401   3.987   4.112  16.768  1.0458  1.3517  1.2808
 3255SOL    HW221402   3.995   4.176  16.634  1.0548 -0.8039  0.3192
 3256SOL     OW21403   2.592   0.449   7.175 -0.0394 -0.1999  0.3667
 3256SOL    HW121404   2.497   0.436   7.178 -0.1593  0.5297 -0.2493
 3256SOL    HW221405   2.617   0.383   7.109  0.4809 -0.1581  0.5225
 3257SOL     OW21406   3.885   3.304   0.843 -0.3126 -0.8853  0.1174
 3257SOL    HW121407   3.879   3.385   0.792 -2.5540  0.0495  1.9027
 3257SOL    HW221408   3.976   3.308   0.873  0.0469 -1.1722 -0.9285
 3258SOL     OW21409   4.654   2.807   1.190  0.3970  0.1707  0.6975
 3258SOL    HW121410   4.720   2.870   1.219  0.4159 -0.1752  1.4105
 3258SOL    HW221411   4.713   2.746   1.145 -0.4955 -0.5412  0.5069
 3259SOL     OW21412   1.698   1.342  15.570 -0.0907 -0.1973 -0.2601
 3259SOL    HW121413   1.713   1.279  15.641  0.3959  1.2693  0.9343
 3259SOL    HW221414   1.739   1.420  15.608 -1.9035  0.4628  0.3213
 3260SOL     OW21415   0.790   1.059   8.468  0.5019  1.0080 -0.4992
 3260SOL    HW121416   0.879   1.033   8.491  0.1380 -0.5760 -0.8823
 3260SOL    HW221417   0.774   0.983   8.412  1.5237 -0.0375  0.6455
 3261SOL     OW21418   3.425   2.340   2.238 -0.7967 -0.6883 -0.5461
 3261SOL    HW121419   3.405   2.387   2.319 -2.6648 -0.5251 -1.0875
 3261SOL    HW221420   3.468   2.409   2.187 -1.2111 -0.0084  0.0166
 3262SOL     OW21421   1.897   3.616   8.259  0.2407  0.1098  0.2952
 3262SOL    HW121422   1.836   3.633   8.331  1.3826  2.0904  0.8063
 3262SOL    HW221423   1.839   3.640   8.187 -2.0884 -3.4414  0.9756
 3263SOL     OW21424   3.488   0.138  15.512 -0.4191 -0.2519 -0.5135
 3263SOL    HW121425   3.529   0.051  15.512 -0.2708 -0.1767  1.1167
 3263SOL    HW221426   3.540   0.193  15.570 -0.0328  1.0375 -2.1137
 3264SOL     OW21427   1.450   4.096  10.032 -0.2200 -0.0548  0.5523
 3264SOL    HW121428   1.371   4.046  10.012 -0.5696  1.5449 -2.0675
 3264SOL    HW221429   1.475   4.140   9.951 -1.5507 -2.0573 -0.9371
 3265SOL     OW21430   0.816   0.104   1.951 -0.5039 -0.1212 -0.6595
 3265SOL    HW121431   0.797   0.198   1.958 -1.5035 -0.4089  0.6781
 3265SOL    HW221432   0.732   0.082   1.992  0.5525 -0.0290  1.5608
 3266SOL     OW21433   1.730   4.144  11.816 -0.4504 -0.2892 -0.3092
 3266SOL    HW121434   1.732   4.060  11.862 -0.3430 -1.4294 -2.3710
 3266SOL    HW221435   1.638   4.168  11.819 -0.6662 -1.0622 -0.6158
 3267SOL     OW21436   4.729   2.532   6.155  0.8135  0.5916 -0.1964
 3267SOL    HW121437   4.690   2.588   6.089 -1.1688 -0.6450 -0.0869
 3267SOL    HW221438   4.688   2.446   6.146  2.6676 -0.0963 -1.9550
 3268SOL     OW21439   0.546   2.092   4.878 -0.6308  0.8854 -0.2877
 3268SOL    HW121440   0.577   2.006   4.849  1.1231  0.9850  1.3353
 3268SOL    HW221441   0.455   2.069   4.897 -0.1877  0.9200  1.8294
 3269SOL     OW21442   1.211   1.428  14.881 -0.0201 -0.4969  0.1430
 3269SOL    HW121443   1.206   1.505  14.825 -1.9063 -0.8801 -0.2172
 3269SOL    HW221444   1.299   1.430  14.917 -0.6981 -0.6606  1.8209
 3270SOL     OW21445   1.831   4.690   4.214 -0.0826 -0.4243 -0.1196
 3270SOL    HW121446   1.886   0.014   4.259 -0.3550 -1.0417  1.0880
 3270SOL    HW221447   1.740   4.721   4.215 -0.2055 -0.7882  0.3978
 3271SOL     OW21448   1.099   3.372   2.188 -0.6508 -0.0866  0.1058
 3271SOL    HW121449   1.155   3.431   2.137 -2.0368  0.0887 -1.2125
 3271SOL    HW221450   1.073   3.329   2.107 -1.0637  1.3136 -0.5206
 3272SOL     OW21451   4.122   1.913   9.006 -0.4568  0.4580 -0.0438
 3272SOL    HW121452   4.107   1.980   9.072 -1.4862 -0.1535  0.3429
 3272SOL    HW221453   4.071   1.838   9.036 -0.3454  0.5279  0.3215
 3273SOL     OW21454   1.971   1.635  13.432  0.3786  0.1040 -0.4448
 3273SOL    HW121455   1.969   1.640  13.528  1.1371  0.7459 -0.4647
 3273SOL    HW221456   2.045   1.575  13.430 -1.4656 -2.1859 -1.3258
 3274SOL     OW21457   3.250   4.534   3.273  0.5902 -0.0033  0.0016
 3274SOL    HW121458   3.189   4.525   3.199 -0.8352  0.8039  1.0827
 3274SOL    HW221459   3.298   4.452   3.257 -1.4471 -0.7701 -2.1970
 3275SOL     OW21460   1.984   1.681   7.680 -0.3764  0.2865  0.4265
 3275SOL    HW121461   1.949   1.759   7.638  1.9597  1.0840 -0.0408
 3275SOL    HW221462   1.913   1.664   7.742 -0.0486 -0.7382  0.5328
 3276SOL     OW21463   3.731   2.078   9.248 -0.2885 -0.0150 -0.4620
 3276SOL    HW121464   3.796   2.042   9.308 -0.2373  0.4646 -0.2233
 3276SOL    HW221465   3.666   2.089   9.318  2.2982 -0.6060  2.0223
 3277SOL     OW21466   0.593   1.185  10.717 -0.0829 -0.0025 -0.5937
 3277SOL    HW121467   0.620   1.149  10.633  0.3064  1.4163 -1.0802
 3277SOL    HW221468   0.524   1.126  10.746 -0.4104 -0.7426 -2.8977
 3278SOL     OW21469   0.782   0.933  13.958 -0.3089 -0.0593  0.3246
 3278SOL    HW121470   0.874   0.922  13.981 -1.0692 -1.1961  2.8688
 3278SOL    HW221471   0.760   1.025  13.978 -0.6539  0.1629 -1.0959
 3279SOL     OW21472   3.108   4.316   7.317 -0.7667 -0.6141 -0.8843
 3279SOL    HW121473   3.178   4.290   7.377 -0.0594 -0.7719 -1.7853
 3279SOL    HW221474   3.095   4.235   7.269 -2.6528 -1.0058  0.2891
 3280SOL     OW21475   2.071   3.329   7.267 -0.2817  0.0270  0.4229
 3280SOL    HW121476   2.124   3.253   7.243  1.1197  0.8638  0.8439
 3280SOL    HW221477   1.981   3.299   7.278  0.2099 -1.4224  0.4786
 3281SOL     OW21478   1.627   3.697   2.696 -1.0606  0.4870 -0.2932
 3281SOL    HW121479   1.599   3.751   2.770 -1.1920  0.1045 -0.0648
 3281SOL    HW221480   1.681   3.623   2.724 -0.4428  0.6558 -1.0390
 3282SOL     OW21481   1.895   1.527  15.685 -0.4900 -0.3370  0.0513
 3282SOL    HW121482   1.966   1.503  15.625 -0.6872 -0.5450 -0.0962
 3282SOL    HW221483   1.917   1.482  15.767  0.4565  0.8846  0.4766
 3283SOL     OW21484   0.697   1.511   6.247 -0.0571 -0.1334 -0.1327
 3283SOL    HW121485   0.640   1.491   6.172 -0.2313  0.4766 -0.1675
 3283SOL    HW221486   0.753   1.434   6.250 -0.9313 -0.7379  0.6141
 3284SOL     OW21487   3.035   2.309   4.990  0.0041 -0.4248  0.3463
 3284SOL    HW121488   3.126   2.298   4.962 -0.3009 -1.6074 -0.1924
 3284SOL    HW221489   3.004   2.218   4.996 -0.0373 -0.4161  0.2578
 3285SOL     OW21490   3.429   4.514  14.586 -0.5064  0.1662 -0.0808
 3285SOL    HW121491   3.374   4.482  14.657 -1.0720  1.9948  0.3071
 3285SOL    HW221492   3.382   4.585  14.541  0.1666 -1.4384 -3.3268
 3286SOL     OW21493   1.856   3.885  12.630 -0.1044  0.2425  0.5357
 3286SOL    HW121494   1.809   3.965  12.608  0.1142  0.3135  0.3398
 3286SOL    HW221495   1.857   3.839  12.546  0.0936  0.3723  0.4680
 3287SOL     OW21496   4.249   0.254  12.486 -0.6029 -0.0355  0.5146
 3287SOL    HW121497   4.275   0.208  12.406  0.4745  0.1016  0.7893
 3287SOL    HW221498   4.154   0.249  12.471 -0.4840  0.4236 -0.4094
 3288SOL     OW21499   0.498   3.714   0.580 -0.2661  0.1128 -0.1535
 3288SOL    HW121500   0.407   3.697   0.556 -1.0153  0.4291  2.4771
 3288SOL    HW221501   0.521   3.651   0.649 -0.0713 -0.0099 -0.3314
 3289SOL     OW21502   2.409   1.625   9.955 -0.4099 -0.5067  0.0380
 3289SOL    HW121503   2.354   1.577  10.018 -0.1413  1.3951  1.7111
 3289SOL    HW221504   2.495   1.601   9.990  1.0463  2.4074 -1.5937
 3290SOL     OW21505   2.964   1.579   2.205  0.0097  0.2910 -0.3676
 3290SOL    HW121506   2.901   1.535   2.263 -0.2385  1.0679 -0.0536
 3290SOL    HW221507   3.021   1.615   2.273 -0.4651 -0.4558  0.4397
 3291SOL     OW21508   3.346   1.788   1.902  0.0739 -0.5633  0.0161
 3291SOL    HW121509   3.273   1.743   1.859  0.4558  0.0239 -1.2558
 3291SOL    HW221510   3.378   1.717   1.957 -1.8051 -2.4277 -1.3237
 3292SOL     OW21511   0.791   4.129   9.116  0.0387 -0.3297 -0.0253
 3292SOL    HW121512   0.761   4.105   9.029 -0.2144 -1.6962  0.4368
 3292SOL    HW221513   0.802   4.040   9.149  0.4475 -1.0020 -2.0019
 3293SOL     OW21514   4.374   2.777  14.839 -0.4212 -0.3175  0.0937
 3293SOL    HW121515   4.324   2.701  14.810 -0.0879 -0.3119 -0.5031
 3293SOL    HW221516   4.420   2.801  14.758 -1.1487 -1.2495 -0.5945
 3294SOL     OW21517   3.391   1.822   3.342  0.6604 -0.5614  0.1180
 3294SOL    HW121518   3.401   1.747   3.283 -1.1016 -0.2890 -0.5146
 3294SOL    HW221519   3.435   1.895   3.300 -2.1944  1.4157  0.5712
 3295SOL     OW21520   4.074   2.841   3.503 -0.2297 -0.3334 -0.0673
 3295SOL    HW121521   4.117   2.892   3.435  1.3397 -1.2407  0.2353
 3295SOL    HW221522   3.995   2.891   3.525  0.3836  0.8172 -0.4848
 3296SOL     OW21523   4.394   3.597  12.927 -0.0147  0.0094 -0.1836
 3296SOL    HW121524   4.324   3.570  12.986 -0.6670 -0.2740 -1.0924
 3296SOL    HW221525   4.413   3.526  12.866 -1.4377  0.4476 -1.1339
 3297SOL     OW21526   0.927   1.154  11.180 -0.5293 -0.2631  0.1363
 3297SOL    HW121527   0.855   1.212  11.203 -0.0538  0.4001 -0.0579
 3297SOL    HW221528   0.998   1.197  11.227  0.0128 -0.5847 -0.3796
 3298SOL     OW21529   4.592   4.725  17.583 -0.1643 -0.5253  0.0379
 3298SOL    HW121530   4.667   0.041  17.606  0.5086 -2.0299  1.4565
 3298SOL    HW221531   4.527   0.047  17.617 -0.1174  0.3053 -1.3757
 3299SOL     OW21532   1.133   2.552   1.007  0.4479  0.0820 -0.2429
 3299SOL    HW121533   1.228   2.548   0.995  0.3049  1.5052 -1.8761
 3299SOL    HW221534   1.098   2.551   0.918 -0.1434 -0.1745 -0.0102
 3300SOL     OW21535   0.089   3.541   4.433 -0.3819 -0.4314 -0.1207
 3300SOL    HW121536   0.026   3.476   4.462 -0.1627 -1.3750 -1.7875
 3300SOL    HW221537   0.046   3.627   4.432  3.1115  1.3265 -0.6561
 3301SOL     OW21538   3.945   3.431  17.606  0.0199 -0.1220 -0.4135
 3301SOL    HW121539   3.959   3.350  17.558 -0.9753 -2.4409  3.2476
 3301SOL    HW221540   3.950   3.492  17.533 -0.9957  0.6551  0.1597
 3302SOL     OW21541   0.610   1.759   9.717 -0.0313 -0.2654 -0.0916
 3302SOL    HW121542   0.669   1.684   9.715 -0.3574 -0.5326  0.2995
 3302SOL    HW221543   0.564   1.741   9.634  0.8032  0.8446 -0.7964
 3303SOL     OW21544   3.155   2.583   3.686 -0.7227  0.1237 -0.1369
 3303SOL    HW121545   3.219   2.546   3.747 -0.4938 -0.5488 -0.7704
 3303SOL    HW221546   3.137   2.671   3.719  0.2163  0.2766 -0.0268
 3304SOL     OW21547   3.052   1.208   7.611 -0.2331 -0.8170  0.0036
 3304SOL    HW121548   3.059   1.115   7.635 -0.7008 -0.9538 -0.4180
 3304SOL    HW221549   3.012   1.188   7.527 -0.5616  0.4110 -0.1195
 3305SOL     OW21550   0.378   2.062   5.295 -0.1205 -0.1170 -0.0575
 3305SOL    HW121551   0.382   2.042   5.388  0.6232  1.4821  0.2619
 3305SOL    HW221552   0.289   2.097   5.288  0.5322  2.0528  2.3541
 3306SOL     OW21553   0.608   0.840  10.276 -0.6571  0.1526  0.3942
 3306SOL    HW121554   0.601   0.808  10.186  0.3277 -1.6831  0.9833
 3306SOL    HW221555   0.689   0.797  10.300 -0.5779 -0.3326 -0.7449
 3307SOL     OW21556   0.564   3.498   2.094  0.0365  0.2425 -0.5197
 3307SOL    HW121557   0.481   3.452   2.088 -0.2943  0.8523 -0.6203
 3307SOL    HW221558   0.619   3.421   2.078  0.5450  0.4896  0.0046
 3308SOL     OW21559   1.748   1.564   8.772  0.2720 -0.4464 -0.1599
 3308SOL    HW121560   1.659   1.588   8.798  0.6306 -0.9427  1.5754
 3308SOL    HW221561   1.785   1.640   8.728 -0.5067 -0.6798 -1.2104
 3309SOL     OW21562   3.454   2.811   1.360  0.4873  0.2399 -0.5444
 3309SOL    HW121563   3.364   2.836   1.381 -0.7217 -3.1442 -1.6001
 3309SOL    HW221564   3.440   2.736   1.302  0.5341 -0.5768  0.5111
 3310SOL     OW21565   0.828   1.575   4.947  0.1212 -0.1981 -0.0143
 3310SOL    HW121566   0.879   1.507   4.903 -2.0474 -0.5771 -1.9292
 3310SOL    HW221567   0.782   1.526   5.014  1.9067 -0.9912  0.6306
 3311SOL     OW21568   3.319   4.218   7.861  0.6251 -0.5433  0.5247
 3311SOL    HW121569   3.371   4.299   7.855 -0.0449  0.0035  2.2056
 3311SOL    HW221570   3.237   4.256   7.893  0.6375 -1.6290  1.8361
 3312SOL     OW21571   1.551   2.162   3.541  0.3222 -0.0623  0.3887
 3312SOL    HW121572   1.635   2.207   3.549 -1.0651  2.8726 -1.2493
 3312SOL    HW221573   1.587   2.083   3.501 -0.3764 -0.8145  1.2317
 3313SOL     OW21574   3.233   4.314  12.588 -0.0081 -0.8035  0.2196
 3313SOL    HW121575   3.302   4.366  12.629  1.0788 -0.3740 -2.1849
 3313SOL    HW221576   3.253   4.318  12.495  0.3015  1.1473  0.3759
 3314SOL     OW21577   0.091   3.494   6.572  0.0269  0.1312  0.5120
 3314SOL    HW121578   0.053   3.415   6.611  0.2496  0.8211  2.1390
 3314SOL    HW221579   0.165   3.513   6.630  0.8231  1.2754 -0.8982
 3315SOL     OW21580   0.011   2.471  17.277  0.2977  0.0951  0.1987
 3315SOL    HW121581   0.063   2.547  17.302  0.3044  0.4695 -0.9431
 3315SOL    HW221582   4.709   2.500  17.195 -2.0715 -0.4074  1.2098
 3316SOL     OW21583   2.922   0.785   3.353 -0.1739  0.2610 -0.4136
 3316SOL    HW121584   3.005   0.759   3.394  0.7552  1.5714 -1.4617
 3316SOL    HW221585   2.896   0.699   3.321  1.0384 -0.8885  1.7281
 3317SOL     OW21586   0.988   2.155  14.639 -0.3965 -0.1808  0.2784
 3317SOL    HW121587   1.017   2.242  14.667  1.8862 -0.7865 -0.1621
 3317SOL    HW221588   0.985   2.104  14.719  2.9515  0.0264  0.5281
 3318SOL     OW21589   1.671   0.213   5.832 -0.2020  0.0661 -0.4688
 3318SOL    HW121590   1.626   0.250   5.908 -0.3846 -0.7098 -0.1956
 3318SOL    HW221591   1.671   0.290   5.775 -0.3118  0.3862 -0.0436
 3319SOL     OW21592   3.286   2.982   7.358 -0.0611  0.3901 -0.6864
 3319SOL    HW121593   3.193   2.992   7.341 -0.0610  0.8793 -0.4077
 3319SOL    HW221594   3.281   3.053   7.423  1.0788  1.9752 -2.3166
 3320SOL     OW21595   2.051   3.852   1.635  0.4918 -0.0046 -0.4196
 3320SOL    HW121596   2.096   3.787   1.689 -0.7818 -0.9091 -0.4595
 3320SOL    HW221597   2.066   3.924   1.697 -1.4773 -0.2636  0.3721
 3321SOL     OW21598   3.489   0.851   7.959 -0.3722 -0.5370 -0.1123
 3321SOL    HW121599   3.414   0.900   7.927 -0.3673  0.4341  1.3530
 3321SOL    HW221600   3.517   0.907   8.032  0.1390  0.3527 -0.9825
 3322SOL     OW21601   0.766   1.715   9.343  0.0203  0.2681  0.4568
 3322SOL    HW121602   0.841   1.655   9.340 -0.6143 -0.5131  0.2762
 3322SOL    HW221603   0.728   1.704   9.256 -1.9871 -0.2052  1.4006
 3323SOL     OW21604   1.797   3.886   5.344 -0.1121  0.4301 -0.2516
 3323SOL    HW121605   1.728   3.933   5.296 -1.3758 -1.0839  0.0700
 3323SOL    HW221606   1.803   3.814   5.281 -0.7793  0.0208  0.1521
 3324SOL     OW21607   3.774   4.652   9.047  0.3623 -0.2070  0.4751
 3324SOL    HW121608   3.811   4.705   8.977  1.2245 -0.9601  0.3706
 3324SOL    HW221609   3.773   4.712   9.121 -0.5921 -0.5039  0.7040
 3325SOL     OW21610   3.248   2.030  12.202 -0.0935 -0.0223  0.6720
 3325SOL    HW121611   3.207   2.058  12.120  0.1422 -2.3454 -0.2634
 3325SOL    HW221612   3.208   2.093  12.261  1.3684  0.4963  1.0968
 3326SOL     OW21613   3.392   0.274  17.648  0.0920  0.2868 -0.1385
 3326SOL    HW121614   3.345   0.269  17.564 -1.2487  1.1153  0.5607
 3326SOL    HW221615   3.317   0.301  17.700 -0.8247 -1.1193 -0.7130
 3327SOL     OW21616   0.196   1.371   2.338 -0.0494  0.1942  0.3398
 3327SOL    HW121617   0.287   1.358   2.365 -0.0145  2.0666  1.1014
 3327SOL    HW221618   0.189   1.340   2.248 -0.8477 -0.5835  0.6702
 3328SOL     OW21619   4.484   4.015  15.133  0.6659 -0.1493 -0.2417
 3328SOL    HW121620   4.395   3.981  15.139  1.1113 -1.2370  0.1431
 3328SOL    HW221621   4.490   4.039  15.040 -0.1570 -1.1690 -0.5552
 3329SOL     OW21622   3.537   3.929  14.276 -0.5042  0.1463 -0.0225
 3329SOL    HW121623   3.500   3.899  14.193  0.8049  1.0496 -0.9389
 3329SOL    HW221624   3.529   4.023  14.261  0.2915  0.8027  3.7714
 3330SOL     OW21625   0.354   3.963   3.214 -0.5945  0.0597  0.5282
 3330SOL    HW121626   0.268   3.995   3.188  0.1062 -1.6857 -3.8846
 3330SOL    HW221627   0.319   3.914   3.289 -1.5094  0.3618  0.2939
 3331SOL     OW21628   1.394   4.311   5.333  0.1121 -0.5053  0.4646
 3331SOL    HW121629   1.423   4.300   5.423 -0.4301  1.6644  0.9058
 3331SOL    HW221630   1.445   4.246   5.285 -0.8178 -0.1782 -0.9615
 3332SOL     OW21631   0.309   2.415  14.107 -0.9149  0.1139  0.2692
 3332SOL    HW121632   0.295   2.493  14.054 -0.5279 -1.3598 -2.0213
 3332SOL    HW221633   0.276   2.446  14.191 -0.8118  0.1226  0.3072
 3333SOL     OW21634   3.889   3.305   4.588  0.4862  0.0427  0.1608
 3333SOL    HW121635   3.943   3.306   4.509 -0.8953  1.9473 -0.7510
 3333SOL    HW221636   3.923   3.386   4.626 -0.3580  0.2824  0.4081
 3334SOL     OW21637   3.196   0.920   5.995 -0.2356  0.1149 -0.4024
 3334SOL    HW121638   3.179   0.827   6.014 -0.8887  0.3260  0.0288
 3334SOL    HW221639   3.138   0.962   6.058 -2.3631 -2.6262 -0.5454
 3335SOL     OW21640   3.284   0.097   4.631 -0.5692  0.1429  0.6729
 3335SOL    HW121641   3.232   0.161   4.680  2.4991  0.8887  2.9856
 3335SOL    HW221642   3.218   0.056   4.576  2.6419 -1.8777 -1.6462
 3336SOL     OW21643   0.081   4.361   4.391 -0.2155  0.3548 -0.7744
 3336SOL    HW121644   0.076   4.454   4.413  2.7228  0.1952  0.5134
 3336SOL    HW221645   0.171   4.346   4.362 -1.1610 -0.0703 -3.5338
 3337SOL     OW21646   4.632   0.864   4.897  0.4167 -0.4577  0.1100
 3337SOL    HW121647   4.611   0.787   4.844 -1.5421  0.2941 -0.2110
 3337SOL    HW221648   4.548   0.885   4.938 -2.4824 -5.0617 -3.3881
 3338SOL     OW21649   0.873   4.642  12.792 -0.6869 -0.2260 -0.2286
 3338SOL    HW121650   0.795   4.696  12.780 -1.0161 -0.3811  1.1657
 3338SOL    HW221651   0.929   4.663  12.718 -0.0451 -0.0349  0.3161
 3339SOL     OW21652   3.028   2.920   2.506 -0.5833 -0.5171  0.8290
 3339SOL    HW121653   2.965   2.991   2.492 -0.9681 -0.9340  0.4500
 3339SOL    HW221654   3.004   2.873   2.585 -2.4927  0.3917  0.7905
 3340SOL     OW21655   0.123   4.338  16.622  0.0742  0.4817 -0.0362
 3340SOL    HW121656   0.093   4.429  16.613  1.7508  0.8918 -1.6147
 3340SOL    HW221657   0.077   4.288  16.556  1.6821 -0.0580 -0.7580
 3341SOL     OW21658   4.479   2.582   9.396 -0.1012 -0.4478  0.5499
 3341SOL    HW121659   4.507   2.492   9.415 -2.6547 -1.2617  0.4916
 3341SOL    HW221660   4.384   2.582   9.389  0.1023 -1.0635 -2.1308
 3342SOL     OW21661   0.827   4.401   2.684 -0.0847 -0.2686  0.3927
 3342SOL    HW121662   0.792   4.380   2.598 -2.1486  0.1174  1.1560
 3342SOL    HW221663   0.744   4.402   2.731  0.8930  1.2431  2.1641
 3343SOL     OW21664   0.961   0.959   8.003  0.1153  0.5751 -0.3108
 3343SOL    HW121665   0.952   0.954   7.908 -0.3801  1.0837 -0.2928
 3343SOL    HW221666   0.984   1.050   8.022 -0.1898  0.6113 -0.1109
 3344SOL     OW21667   3.526   3.049   9.701  0.0152 -0.0105 -0.2045
 3344SOL    HW121668   3.504   3.133   9.662 -0.6750  0.1361  0.4971
 3344SOL    HW221669   3.435   3.022   9.714 -0.3365  1.3599  0.1356
 3345SOL     OW21670   3.008   4.100   9.251  0.2046  0.4401  0.9570
 3345SOL    HW121671   2.977   4.187   9.227 -0.6805 -0.1487 -0.0435
 3345SOL    HW221672   3.100   4.123   9.269  0.5853 -0.7793  0.5744
 3346SOL     OW21673   2.208   2.468   9.232  0.6024  0.1238 -0.2041
 3346SOL    HW121674   2.144   2.425   9.176 -0.2212  1.1563 -0.0599
 3346SOL    HW221675   2.153   2.525   9.287  1.2151  1.6142 -1.1390
 3347SOL     OW21676   4.296   4.271   6.494  0.3023  0.2576 -0.4820
 3347SOL    HW121677   4.304   4.354   6.542  1.1289 -1.2402  1.9656
 3347SOL    HW221678   4.380   4.227   6.506  0.7418  0.8660 -1.2664
 3348SOL     OW21679   0.461   2.529   7.170  0.5028  0.6545  0.7911
 3348SOL    HW121680   0.472   2.448   7.121 -3.3477  0.8732 -0.3865
 3348SOL    HW221681   0.401   2.489   7.233  0.0312  0.6010  0.3069
 3349SOL     OW21682   0.983   3.811   7.229  0.4274  0.3999 -0.0979
 3349SOL    HW121683   0.976   3.812   7.133  0.9530  1.8574 -0.1168
 3349SOL    HW221684   1.075   3.838   7.231  0.6797 -0.3331 -1.5019
 3350SOL     OW21685   0.078   1.585   7.802 -0.0250  0.0543 -0.3253
 3350SOL    HW121686   0.049   1.600   7.892 -2.8529  1.2336 -1.4147
 3350SOL    HW221687   0.053   1.494   7.785  1.2845 -0.3226 -0.1863
 3351SOL     OW21688   4.213   3.654  12.611 -0.7046  0.2081 -0.0450
 3351SOL    HW121689   4.228   3.560  12.620  2.4604  0.6158 -1.1543
 3351SOL    HW221690   4.166   3.664  12.528 -0.2900 -0.1763 -0.3263
 3352SOL     OW21691   0.049   1.299   6.468 -0.5397 -0.7502 -0.3581
 3352SOL    HW121692   4.718   1.268   6.526 -2.6236 -0.3398 -2.6607
 3352SOL    HW221693   0.083   1.374   6.515  1.4659  0.0666 -3.1104
 3353SOL     OW21694   0.318   1.036   9.113  0.6017 -0.6411 -0.3517
 3353SOL    HW121695   0.311   1.003   9.203  0.2411 -1.1173 -0.5577
 3353SOL    HW221696   0.231   1.008   9.086 -0.5426  1.6151  1.0137
 3354SOL     OW21697   1.426   0.815  11.663 -0.2095  0.4747  0.2744
 3354SOL    HW121698   1.485   0.852  11.596 -4.6288  1.8224 -2.8977
 3354SOL    HW221699   1.382   0.895  11.692  0.7716  0.6021  1.4018
 3355SOL     OW21700   2.546   2.193  15.039 -0.2502  0.1451 -0.0078
 3355SOL    HW121701   2.463   2.149  15.018  0.8613  0.9511 -6.1773
 3355SOL    HW221702   2.533   2.284  15.011 -0.9543  0.6032  1.8042
 3356SOL     OW21703   0.617   2.607   9.465 -0.3201  0.2437  0.5777
 3356SOL    HW121704   0.650   2.560   9.388  1.9868  1.0573  1.0428
 3356SOL    HW221705   0.645   2.698   9.457 -0.1435 -0.0315 -1.9961
 3357SOL     OW21706   4.327   0.013  10.056  0.0666 -0.1075 -0.1057
 3357SOL    HW121707   4.280   0.029  10.138  0.2743 -0.8564  0.1653
 3357SOL    HW221708   4.247   4.720  10.015 -0.4296  1.1009 -0.0902
 3358SOL     OW21709   3.114   1.278   5.445 -0.0140  0.1301 -0.0810
 3358SOL    HW121710   3.063   1.197   5.440 -0.2433  0.3685 -1.4126
 3358SOL    HW221711   3.148   1.286   5.356  1.6904 -1.9600  0.3732
 3359SOL     OW21712   1.891   0.868   2.554 -0.1758 -0.1365 -0.4063
 3359SOL    HW121713   1.936   0.816   2.488 -0.5870 -0.5117 -0.3904
 3359SOL    HW221714   1.918   0.951   2.514  0.8684 -0.6445 -0.7476
 3360SOL     OW21715   0.891   1.616  17.059  0.2437 -0.4151 -0.1880
 3360SOL    HW121716   0.901   1.700  17.105  0.5201 -0.1603 -0.7141
 3360SOL    HW221717   0.847   1.646  16.979  1.3069  2.1494  0.1894
 3361SOL     OW21718   2.051   0.734   3.052  0.6507  0.1660 -0.7830
 3361SOL    HW121719   2.131   0.786   3.057 -0.1219  1.4040 -1.5317
 3361SOL    HW221720   2.008   0.790   2.988  0.0683 -1.8907 -2.1787
 3362SOL     OW21721   4.246   2.275   5.252  0.1639 -0.1387  0.3475
 3362SOL    HW121722   4.215   2.206   5.193 -0.6280  1.1277 -0.7113
 3362SOL    HW221723   4.336   2.281   5.219 -0.3885 -1.0918 -1.3547
 3363SOL     OW21724   0.159   1.110   4.418  0.2238 -0.2503  0.9350
 3363SOL    HW121725   0.168   1.204   4.433 -4.2554  0.2662  0.3630
 3363SOL    HW221726   0.109   1.081   4.494  0.9684 -1.1237  1.1041
 3364SOL     OW21727   0.923   2.855  16.615  0.2488 -0.2538  0.0470
 3364SOL    HW121728   0.857   2.917  16.643 -0.5896 -0.8904 -0.5186
 3364SOL    HW221729   0.865   2.810  16.554  1.0938 -0.7370 -0.4037
 3365SOL     OW21730   2.874   4.000   2.310  0.6306 -0.2476 -0.3959
 3365SOL    HW121731   2.860   4.092   2.286 -0.4267  0.2187  2.0858
 3365SOL    HW221732   2.886   3.962   2.223  1.8033 -1.2348  0.2009
 3366SOL     OW21733   1.840   1.371   4.010 -0.0301 -0.5308 -0.1548
 3366SOL    HW121734   1.774   1.367   3.941  0.0070 -0.3635 -0.2009
 3366SOL    HW221735   1.893   1.293   3.995  0.6420 -0.3772  1.3914
 3367SOL     OW21736   0.886   2.294  15.017 -0.4131 -0.7028 -0.2877
 3367SOL    HW121737   0.826   2.330  14.952  1.9858  0.2058 -2.0319
 3367SOL    HW221738   0.859   2.336  15.099 -1.5884 -0.6648 -0.6936
 3368SOL     OW21739   1.201   3.168   5.982  0.1577 -0.0143 -0.7692
 3368SOL    HW121740   1.231   3.243   5.932  2.1292 -0.2746 -0.0139
 3368SOL    HW221741   1.236   3.106   5.918 -1.3751 -1.9534  0.2762
 3369SOL     OW21742   3.712   4.411   7.628 -0.2024  0.0452  0.0642
 3369SOL    HW121743   3.707   4.318   7.651 -0.1382  0.0409  0.0613
 3369SOL    HW221744   3.774   4.416   7.555 -0.9707 -0.5075 -0.6151
 3370SOL     OW21745   3.066   2.262  12.284  0.6360 -0.4895 -0.6841
 3370SOL    HW121746   2.977   2.242  12.312  1.4102 -2.3716  0.4887
 3370SOL    HW221747   3.051   2.323  12.213 -0.6153 -0.2222 -0.1774
 3371SOL     OW21748   2.576   0.072  16.156  0.5208  0.4652 -0.0787
 3371SOL    HW121749   2.613   4.727  16.182 -1.0025  0.0342  0.7134
 3371SOL    HW221750   2.596   0.129  16.230 -0.3679  0.9596 -0.2132
 3372SOL     OW21751   2.482   1.371   2.344  0.3836 -0.3386 -0.3507
 3372SOL    HW121752   2.534   1.296   2.373 -0.8786 -0.1103  2.4682
 3372SOL    HW221753   2.392   1.338   2.339  0.3348 -0.3059  0.3063
 3373SOL     OW21754   2.762   0.562   8.736  0.5837 -0.4591 -0.5833
 3373SOL    HW121755   2.746   0.474   8.701  0.0256 -0.8384  0.6566
 3373SOL    HW221756   2.854   0.588   8.732  0.2519  0.6767 -0.8738
 3374SOL     OW21757   4.448   0.556   5.955 -0.0013  0.6781  0.6200
 3374SOL    HW121758   4.519   0.620   5.966  0.3238  0.2855  0.7978
 3374SOL    HW221759   4.506   0.480   5.951  0.0848  0.4888  5.2736
 3375SOL     OW21760   0.947   1.186   7.445 -0.3154  0.8319 -0.0946
 3375SOL    HW121761   1.041   1.172   7.436 -0.1398  1.8372  0.1868
 3375SOL    HW221762   0.913   1.145   7.366  1.3264 -1.6770  0.4966
 3376SOL     OW21763   4.353   0.979  11.820 -0.0584 -0.0617 -0.1198
 3376SOL    HW121764   4.356   0.892  11.860 -1.6440  0.4261  1.0146
 3376SOL    HW221765   4.363   1.033  11.898  1.2731 -1.3828  0.6509
 3377SOL     OW21766   2.698   4.490  13.729  0.1251 -0.4200 -0.5597
 3377SOL    HW121767   2.623   4.433  13.715  0.3396 -0.5772 -1.0927
 3377SOL    HW221768   2.668   4.571  13.688 -0.6823 -0.7631 -0.6312
 3378SOL     OW21769   0.854   1.512   0.497 -0.2001 -0.0552 -0.3774
 3378SOL    HW121770   0.836   1.432   0.547 -0.7375 -0.1029 -0.6507
 3378SOL    HW221771   0.771   1.556   0.478 -1.1680 -0.7417  2.1188
 3379SOL     OW21772   0.569   3.393   9.214  0.6697  0.4257  0.3790
 3379SOL    HW121773   0.549   3.364   9.125  1.4543  0.9741  0.0329
 3379SOL    HW221774   0.659   3.362   9.209  0.2324 -0.7217 -0.6873
 3380SOL     OW21775   1.733   0.552   9.027  0.0540  0.0054  0.5398
 3380SOL    HW121776   1.787   0.554   9.106  1.1471 -0.3909 -0.2002
 3380SOL    HW221777   1.680   0.473   9.038  0.4354 -0.6620 -2.4899
 3381SOL     OW21778   4.682   4.506   9.276 -0.4110  0.4126 -0.1667
 3381SOL    HW121779   4.671   4.558   9.356  0.8131  1.6226 -0.7924
 3381SOL    HW221780   0.030   4.534   9.247  0.7200 -1.6917  1.2079
 3382SOL     OW21781   2.996   4.619   6.270 -0.0759 -1.0872 -0.3349
 3382SOL    HW121782   2.908   4.587   6.292 -0.7861  0.1870 -1.3031
 3382SOL    HW221783   2.988   4.700   6.321 -0.3224 -1.0730 -0.3958
 3383SOL     OW21784   1.669   1.962  10.937 -0.1375 -0.1814  0.0630
 3383SOL    HW121785   1.670   1.866  10.946 -2.0637 -0.0798  1.2248
 3383SOL    HW221786   1.749   1.979  10.985  1.3139 -1.7673 -1.7596
 3384SOL     OW21787   2.597   0.422   3.879  0.3798  0.6170  0.1231
 3384SOL    HW121788   2.628   0.336   3.908  1.7243  1.3811  0.9253
 3384SOL    HW221789   2.645   0.437   3.797  0.3138 -0.5904 -0.1335
 3385SOL     OW21790   4.025   0.679  15.157  0.0698 -0.2587  0.1387
 3385SOL    HW121791   4.055   0.709  15.242  3.1489 -2.9262  0.0089
 3385SOL    HW221792   3.948   0.624  15.169  1.1183 -1.9969 -1.0070
 3386SOL     OW21793   0.277   0.547   0.213  0.2014 -0.3638 -0.2137
 3386SOL    HW121794   0.186   0.543   0.183  0.0081 -1.0469  0.4627
 3386SOL    HW221795   0.332   0.540   0.135 -1.7642 -0.8921 -1.5438
 3387SOL     OW21796   1.076   0.071  16.826  0.4473  0.3027 -0.7497
 3387SOL    HW121797   1.090   0.103  16.737  1.6573  0.7833 -0.3851
 3387SOL    HW221798   0.991   0.113  16.840  0.4202 -0.2900  0.9248
 3388SOL     OW21799   2.242   2.984   5.665  0.1167  0.2597 -0.7973
 3388SOL    HW121800   2.180   2.973   5.594  0.4264 -0.2578 -0.9840
 3388SOL    HW221801   2.206   2.940   5.741  3.1525 -3.7305 -1.6938
 3389SOL     OW21802   2.075   2.781   8.033 -0.0842  0.3948  0.5447
 3389SOL    HW121803   2.084   2.862   7.983 -0.1810  0.6495  0.9389
 3389SOL    HW221804   2.029   2.725   7.971  0.5874  1.0420 -0.5400
 3390SOL     OW21805   2.828   3.302   0.674  0.1088  0.1424  0.1630
 3390SOL    HW121806   2.865   3.216   0.654  1.5533  0.9858 -0.7756
 3390SOL    HW221807   2.735   3.290   0.694 -0.9196  2.1817 -3.3172
 3391SOL     OW21808   4.210   0.574   7.606  0.1962 -0.6265 -0.3467
 3391SOL    HW121809   4.188   0.549   7.696  1.4998  0.3016  0.2229
 3391SOL    HW221810   4.213   0.486   7.568  0.6436 -0.8492  0.2036
 3392SOL     OW21811   1.908   0.443   2.306  0.2569 -0.5962  0.2136
 3392SOL    HW121812   1.917   0.440   2.401 -1.2523 -1.2151  0.3343
 3392SOL    HW221813   1.864   0.527   2.302  2.8894  0.6912 -1.7741
 3393SOL     OW21814   0.700   2.477   2.638 -0.5218 -0.4002 -0.0655
 3393SOL    HW121815   0.626   2.533   2.615 -0.9381 -1.4932 -1.3879
 3393SOL    HW221816   0.653   2.394   2.628  0.5067 -0.7433 -1.9218
 3394SOL     OW21817   4.484   1.550   5.969 -0.4794  0.4609  0.2161
 3394SOL    HW121818   4.405   1.498   5.982 -0.1785  0.3712  1.7133
 3394SOL    HW221819   4.458   1.639   5.946  0.5494  0.8336  0.5040
 3395SOL     OW21820   3.128   4.480   5.272 -0.8332 -0.3604 -0.0682
 3395SOL    HW121821   3.220   4.456   5.257 -0.5532  1.2110 -0.8852
 3395SOL    HW221822   3.117   4.522   5.357  1.6032 -1.7664  0.9474
 3396SOL     OW21823   1.720   1.188   5.081 -0.1864  0.4192 -0.5514
 3396SOL    HW121824   1.768   1.210   5.161  0.8631  0.4519 -1.1847
 3396SOL    HW221825   1.796   1.175   5.024  1.3824 -0.6071  1.7238
 3397SOL     OW21826   4.322   2.889   2.989  0.2850 -0.2086  0.5931
 3397SOL    HW121827   4.383   2.843   2.932  0.0900  2.0188 -1.3998
 3397SOL    HW221828   4.362   2.878   3.076  0.7044 -0.1585  0.4068
 3398SOL     OW21829   2.680   2.621  11.228 -0.1679  0.4781 -0.1937
 3398SOL    HW121830   2.595   2.578  11.219 -0.0291  0.4185 -1.2411
 3398SOL    HW221831   2.659   2.707  11.264  1.5997  1.0392 -0.5264
 3399SOL     OW21832   3.508   3.315   3.775  0.8407  0.1246  0.2916
 3399SOL    HW121833   3.420   3.337   3.746 -0.7077 -3.8105  1.9413
 3399SOL    HW221834   3.536   3.394   3.821 -1.1779  1.0752 -0.0975
 3400SOL     OW21835   4.293   3.279  12.884  0.0792 -0.4508  0.0598
 3400SOL    HW121836   4.281   3.330  12.964 -2.9630  1.7356 -1.7749
 3400SOL    HW221837   4.256   3.198  12.919 -0.8738 -0.4924 -1.0512
 3401SOL     OW21838   2.855   1.247   9.666 -0.2339 -0.0177 -0.5434
 3401SOL    HW121839   2.909   1.295   9.603  0.3405 -1.9858 -1.5547
 3401SOL    HW221840   2.918   1.216   9.730  1.6009  2.7635 -0.9794
 3402SOL     OW21841   3.810   0.532   8.231 -0.1168 -0.2219 -0.1982
 3402SOL    HW121842   3.865   0.610   8.225 -0.9112  0.3328 -0.3001
 3402SOL    HW221843   3.723   0.569   8.217 -0.6873 -1.0511  1.1402
 3403SOL     OW21844   4.579   3.997  14.363  0.3424 -0.0031  0.5653
 3403SOL    HW121845   4.510   3.975  14.301 -0.4350  1.9964  0.7002
 3403SOL    HW221846   4.600   4.083  14.327  0.2713  0.5539  1.8257
 3404SOL     OW21847   0.437   2.595   6.717  0.2236 -0.2262 -0.0165
 3404SOL    HW121848   0.350   2.556   6.710  0.7915 -1.1027 -2.3314
 3404SOL    HW221849   0.444   2.613   6.623  1.8649 -1.9069 -0.2191
 3405SOL     OW21850   2.061   0.675   4.121  0.0009  0.0537  0.1426
 3405SOL    HW121851   2.049   0.585   4.090 -2.8558 -0.0278  1.5073
 3405SOL    HW221852   2.143   0.674   4.171  0.5843  2.3654 -0.7640
 3406SOL     OW21853   1.963   1.587   2.138 -0.9718  0.1872  0.0777
 3406SOL    HW121854   2.026   1.632   2.082  1.7363 -2.2044  1.1909
 3406SOL    HW221855   1.929   1.534   2.066 -0.2949  0.0296 -0.1327
 3407SOL     OW21856   3.072   3.388   8.497 -0.4215  0.5869  0.8525
 3407SOL    HW121857   3.130   3.373   8.571 -1.0348 -2.9291  0.5928
 3407SOL    HW221858   3.092   3.322   8.431 -0.7370  2.1014 -0.7603
 3408SOL     OW21859   2.041   2.540  12.213 -0.0607 -0.4959 -0.3727
 3408SOL    HW121860   2.096   2.497  12.279 -1.2560  1.1634  1.7252
 3408SOL    HW221861   2.072   2.629  12.195  0.9678 -0.7145  0.3051
 3409SOL     OW21862   4.203   0.719  15.571 -0.5370 -0.5680 -0.5047
 3409SOL    HW121863   4.111   0.714  15.597 -0.0221 -0.1697  1.3778
 3409SOL    HW221864   4.203   0.761  15.484  2.0340  0.3440 -0.0645
 3410SOL     OW21865   3.583   3.435  15.096  0.1813  0.2442  0.2818
 3410SOL    HW121866   3.601   3.425  15.189  0.7421 -3.8769 -0.2340
 3410SOL    HW221867   3.490   3.454  15.090 -0.0374 -0.8463  0.2297
 3411SOL     OW21868   0.891   4.606   0.269  0.5714 -0.0109 -0.0693
 3411SOL    HW121869   0.974   4.613   0.317  0.4406 -3.8367  0.7155
 3411SOL    HW221870   0.830   4.648   0.330 -0.8582 -1.6829 -0.3458
 3412SOL     OW21871   4.662   0.345  16.714  0.6027  0.6698 -0.0690
 3412SOL    HW121872   4.703   0.430  16.729 -3.5833  2.5561  0.6793
 3412SOL    HW221873   4.653   0.348  16.619 -1.7524 -0.5419  0.1232
 3413SOL     OW21874   2.353   0.095   1.020  0.2089  0.5552  0.1397
 3413SOL    HW121875   2.446   0.084   1.040  0.6718 -0.2769 -2.4233
 3413SOL    HW221876   2.343   0.187   0.997 -0.2998  0.1149 -1.4202
 3414SOL     OW21877   0.475   0.820   1.014 -0.0753 -0.1227 -0.0031
 3414SOL    HW121878   0.493   0.912   0.996  0.6741 -0.2319  0.1991
 3414SOL    HW221879   0.450   0.791   0.926  1.5748  0.7085 -0.7342
 3415SOL     OW21880   2.371   1.775   0.519  0.1531 -0.3332  0.1853
 3415SOL    HW121881   2.325   1.730   0.590 -1.3948  1.3116  0.2257
 3415SOL    HW221882   2.457   1.772   0.562  0.4595  0.1454 -0.3940
 3416SOL     OW21883   0.548   1.351  17.065 -0.3610 -0.0423 -0.0837
 3416SOL    HW121884   0.483   1.395  17.011  1.6782 -0.0944 -2.5737
 3416SOL    HW221885   0.500   1.341  17.148  1.4198 -1.4688  0.7748
 3417SOL     OW21886   3.164   1.824  11.891 -0.1711  0.0371  0.4541
 3417SOL    HW121887   3.209   1.890  11.837 -1.6704 -0.1358 -1.0143
 3417SOL    HW221888   3.097   1.868  11.943 -0.7599  1.7985 -1.7794
 3418SOL     OW21889   1.154   2.985   9.156  0.2828  0.5731 -0.0731
 3418SOL    HW121890   1.240   2.959   9.188 -0.3456 -2.9214 -1.2497
 3418SOL    HW221891   1.161   3.019   9.066 -4.5561  0.8481 -0.3602
 3419SOL     OW21892   0.358   3.742   1.267 -0.1377 -0.0470  0.2707
 3419SOL    HW121893   0.360   3.806   1.195 -1.7701  1.3084  1.4257
 3419SOL    HW221894   0.272   3.755   1.308 -0.8591 -0.2696 -1.1615
 3420SOL     OW21895   2.933   3.153   4.634  0.9692  0.2323 -0.3158
 3420SOL    HW121896   2.925   3.058   4.623  1.9753  0.2193 -0.8717
 3420SOL    HW221897   2.912   3.174   4.725 -1.0111  1.6595 -1.1017
 3421SOL     OW21898   2.360   4.659   0.173  0.3754  0.1999 -0.0326
 3421SOL    HW121899   2.277   4.685   0.134  1.3208  1.9737 -0.8681
 3421SOL    HW221900   2.334   4.649   0.265  3.0168 -0.1562  0.6682
 3422SOL     OW21901   1.235   1.351  13.018 -0.0637 -0.2626  0.1415
 3422SOL    HW121902   1.220   1.437  12.978  0.2098 -0.6320 -0.7606
 3422SOL    HW221903   1.169   1.339  13.085  0.1361 -0.2938  0.3328
 3423SOL     OW21904   1.487   1.029   1.250 -0.0012 -0.0876  0.3440
 3423SOL    HW121905   1.416   0.999   1.193  1.7854 -1.2996 -1.2649
 3423SOL    HW221906   1.470   1.118   1.280  1.9885  1.1104 -2.1435
 3424SOL     OW21907   3.145   0.850   3.157  0.0081 -0.5302  0.3862
 3424SOL    HW121908   3.081   0.882   3.221  1.2939 -0.9798  1.9064
 3424SOL    HW221909   3.092   0.795   3.099 -1.5096 -0.0032  1.2720
 3425SOL     OW21910   1.282   0.088   1.643  0.8543  0.5257  0.1079
 3425SOL    HW121911   1.198   0.114   1.681  1.3211  1.4976  0.4894
 3425SOL    HW221912   1.340   0.144   1.694  0.4712  0.4199  0.6558
 3426SOL     OW21913   3.300   2.810  15.185 -0.5153  0.2101  0.5667
 3426SOL    HW121914   3.318   2.716  15.176 -1.8598 -0.0256  0.3772
 3426SOL    HW221915   3.386   2.851  15.179  1.2203 -3.3116  1.8058
 3427SOL     OW21916   2.161   2.022   5.866 -0.6731 -0.3789  0.4521
 3427SOL    HW121917   2.212   2.030   5.785 -0.9118  1.7653  0.5298
 3427SOL    HW221918   2.158   2.112   5.897 -1.3473 -1.1171  2.5481
 3428SOL     OW21919   4.625   2.950   3.982  0.3113 -0.7298  0.1416
 3428SOL    HW121920   4.614   3.005   4.060 -0.7252  1.6896 -1.6836
 3428SOL    HW221921   4.686   3.007   3.933  0.8853 -1.5697 -0.1218
 3429SOL     OW21922   1.521   4.531   2.851  0.3682  0.7145 -0.6866
 3429SOL    HW121923   1.510   4.625   2.836 -1.8697  0.4006 -1.0828
 3429SOL    HW221924   1.450   4.493   2.799  0.5267 -0.4240 -0.0784
 3430SOL     OW21925   3.080   0.938   7.690  0.3467 -0.4946  0.2348
 3430SOL    HW121926   3.105   0.867   7.749 -0.3431 -0.3847  0.6560
 3430SOL    HW221927   3.018   0.883   7.643  0.5093  0.6332 -1.3111
 3431SOL     OW21928   0.975   1.647   5.655 -0.3799  0.4227  0.0684
 3431SOL    HW121929   1.051   1.706   5.657 -1.1908  1.4835 -0.5722
 3431SOL    HW221930   1.003   1.594   5.580 -0.8774  1.0725 -0.5710
 3432SOL     OW21931   1.465   0.262   1.774 -0.3751  0.1834 -0.2009
 3432SOL    HW121932   1.472   0.214   1.856 -1.1191 -0.0046 -0.2506
 3432SOL    HW221933   1.432   0.343   1.812  0.4096  0.7418 -0.7040
 3433SOL     OW21934   1.483   2.934   2.473 -0.1307  0.1219  0.9096
 3433SOL    HW121935   1.550   2.939   2.541 -0.1763 -0.8411  1.0319
 3433SOL    HW221936   1.509   2.853   2.428 -0.0275  0.6861 -0.0362
 3434SOL     OW21937   4.655   0.624   4.005  0.2281  0.4818 -0.0860
 3434SOL    HW121938   4.628   0.594   4.092 -0.9152  0.0353 -0.6002
 3434SOL    HW221939   4.729   0.676   4.036  0.9929  0.0196 -1.1578
 3435SOL     OW21940   2.829   1.227   6.402  0.2320  0.0425  0.1289
 3435SOL    HW121941   2.853   1.291   6.335  0.4259 -1.2127 -1.0178
 3435SOL    HW221942   2.867   1.266   6.481  1.9548  1.5905 -1.4590
 3436SOL     OW21943   1.510   2.953   2.058 -0.2481  0.5661  0.5252
 3436SOL    HW121944   1.575   2.965   1.988  1.4638  2.8026  2.5075
 3436SOL    HW221945   1.569   2.950   2.133 -0.7445  0.4564  0.9055
 3437SOL     OW21946   3.109   2.158   2.525 -0.0768 -0.3273  0.6116
 3437SOL    HW121947   3.079   2.115   2.445 -0.0483  1.2709 -0.2564
 3437SOL    HW221948   3.025   2.192   2.555  1.3199  2.5026  1.3710
 3438SOL     OW21949   1.654   3.382  13.622  0.2757 -0.3112 -0.3172
 3438SOL    HW121950   1.744   3.351  13.609  0.3351  0.2254 -1.2361
 3438SOL    HW221951   1.613   3.298  13.639 -1.0034  0.5328  0.7283
 3439SOL     OW21952   1.260   1.571   9.243  0.1581  0.3109  0.0544
 3439SOL    HW121953   1.172   1.540   9.266  0.4999 -1.1805 -0.6704
 3439SOL    HW221954   1.289   1.611   9.325 -0.2097 -1.1727  0.9076
 3440SOL     OW21955   3.349   1.161   5.929  0.1480 -0.7340 -0.2002
 3440SOL    HW121956   3.289   1.093   5.960  0.0107  0.3336  1.9321
 3440SOL    HW221957   3.386   1.175   6.016  0.4755 -1.3943 -0.2298
 3441SOL     OW21958   1.890   3.415   9.095  0.0246 -0.0582 -0.2586
 3441SOL    HW121959   1.795   3.414   9.102  0.1360  0.9653  1.4621
 3441SOL    HW221960   1.886   3.353   9.023 -0.5236  1.2213 -1.3313
 3442SOL     OW21961   3.685   1.488   8.704 -0.1076  0.3152 -0.2731
 3442SOL    HW121962   3.604   1.483   8.754  0.8167 -0.1856  1.1632
 3442SOL    HW221963   3.753   1.513   8.766 -2.9914  0.3936  2.8469
 3443SOL     OW21964   3.825   3.360   8.647 -0.3782  0.4994  0.1528
 3443SOL    HW121965   3.908   3.395   8.614  0.8071 -0.3804  2.2186
 3443SOL    HW221966   3.854   3.273   8.675  0.7257 -0.0488 -2.6932
 3444SOL     OW21967   2.028   1.120  11.744 -0.3026 -0.7274 -0.1561
 3444SOL    HW121968   2.066   1.055  11.803 -1.1672 -0.8509  0.2651
 3444SOL    HW221969   1.996   1.194  11.796 -0.7432 -0.1775 -1.1975
 3445SOL     OW21970   3.788   0.965   9.794 -0.1090 -0.2621  0.0669
 3445SOL    HW121971   3.742   1.015   9.862  0.0819 -0.0500  0.0407
 3445SOL    HW221972   3.778   0.877   9.831 -0.7413  0.2651  1.1736
 3446SOL     OW21973   4.562   1.085  11.695  0.2057 -0.8235  0.0973
 3446SOL    HW121974   4.480   1.053  11.732  0.1635 -0.7659  0.0531
 3446SOL    HW221975   4.549   1.177  11.715  0.0245 -0.3912 -2.0705
 3447SOL     OW21976   0.863   0.461   0.141  0.6687 -0.1699  0.3564
 3447SOL    HW121977   0.828   0.499   0.060  0.3647  0.1909  0.6547
 3447SOL    HW221978   0.934   0.406   0.107  1.5197 -0.4762  2.6523
 3448SOL     OW21979   1.986   0.413   2.780 -0.6733 -0.0631  0.1669
 3448SOL    HW121980   1.927   0.479   2.743 -2.5647 -0.2640  2.8118
 3448SOL    HW221981   1.960   0.430   2.871  1.1280  2.5708  0.1991
 3449SOL     OW21982   3.249   0.982   0.149  0.1481  0.6560  0.0755
 3449SOL    HW121983   3.321   1.017   0.201  1.2135 -0.3760 -0.7105
 3449SOL    HW221984   3.252   1.041   0.074  0.6754  0.0774 -0.3641
 3450SOL     OW21985   2.770   3.316   5.140 -0.0809 -0.0946 -0.7256
 3450SOL    HW121986   2.681   3.338   5.165 -0.4052 -0.1151 -1.8569
 3450SOL    HW221987   2.816   3.322   5.224  0.5680 -0.4009 -1.0516
 3451SOL     OW21988   0.330   2.546   3.958  0.2086  0.8877  0.3236
 3451SOL    HW121989   0.258   2.609   3.959  0.2584  0.9926 -2.6762
 3451SOL    HW221990   0.377   2.562   4.040  1.7878 -1.9300 -0.0370
 3452SOL     OW21991   4.711   0.913   2.589 -0.0483 -0.1602 -0.3238
 3452SOL    HW121992   4.651   0.987   2.592  0.4197  0.2947 -2.2227
 3452SOL    HW221993   4.706   0.893   2.495  3.1622 -1.7688 -0.1608
 3453SOL     OW21994   1.408   2.583   8.726  0.7062 -0.1546  0.0538
 3453SOL    HW121995   1.459   2.641   8.669 -1.0547  2.6194  1.2893
 3453SOL    HW221996   1.345   2.640   8.771  1.0185 -1.1552  1.7628
 3454SOL     OW21997   0.858   1.945   5.542 -0.4865 -0.2488 -0.4365
 3454SOL    HW121998   0.894   1.863   5.510  0.7922  0.7796 -1.6300
 3454SOL    HW221999   0.907   2.007   5.487 -1.8268  0.7700 -0.5082
 3455SOL     OW22000   0.043   4.287   0.321 -0.3004  0.2937  0.2332
 3455SOL    HW122001   0.064   4.262   0.231  0.7346 -2.0892  1.1425
 3455SOL    HW222002   0.104   4.231   0.368 -1.2367 -0.8397  0.1147
 3456SOL     OW22003   1.996   0.116  17.120 -0.4417 -0.6493  0.0389
 3456SOL    HW122004   2.012   0.042  17.061 -0.5579 -0.7898  0.1841
 3456SOL    HW222005   2.078   0.127  17.169 -1.1891  1.0105  0.9262
 3457SOL     OW22006   1.465   2.230   9.166 -0.1571  0.4513 -0.3291
 3457SOL    HW122007   1.482   2.323   9.149  0.5731  0.1260 -1.3482
 3457SOL    HW222008   1.371   2.231   9.147 -0.3764 -1.5551  0.7188
 3458SOL     OW22009   1.245   3.084  10.641 -0.2137  0.2441  0.0310
 3458SOL    HW122010   1.257   3.147  10.570 -1.1112  2.0229  1.4630
 3458SOL    HW222011   1.237   3.144  10.714 -0.0070  1.9314 -1.3373
 3459SOL     OW22012   3.831   0.621   5.252 -0.0517 -0.5767 -0.5810
 3459SOL    HW122013   3.859   0.711   5.238  0.4427 -0.6758 -0.2257
 3459SOL    HW222014   3.914   0.576   5.268 -0.6758 -1.0040  1.5026
 3460SOL     OW22015   1.794   2.407   4.747 -0.0754 -0.3345  0.1779
 3460SOL    HW122016   1.810   2.369   4.661 -0.8156  1.2082 -0.6489
 3460SOL    HW222017   1.699   2.418   4.741 -0.1167 -1.2194 -0.8553
 3461SOL     OW22018   3.084   2.194   5.934  0.2683 -0.3466 -0.5579
 3461SOL    HW122019   3.039   2.172   5.852 -0.0101  0.3219 -0.5839
 3461SOL    HW222020   3.133   2.113   5.941  0.4364  0.0898  3.1743
 3462SOL     OW22021   3.199   0.709  17.366  0.8186 -0.3089 -0.2326
 3462SOL    HW122022   3.205   0.730  17.273 -0.6151  0.8241 -0.0680
 3462SOL    HW222023   3.284   0.728  17.405  2.1308  1.2311 -3.8451
 3463SOL     OW22024   3.416   2.832   4.718 -0.1366  0.0391  0.4547
 3463SOL    HW122025   3.442   2.912   4.763 -1.1226  1.4690 -1.5436
 3463SOL    HW222026   3.484   2.767   4.736 -1.2004 -1.2519 -0.1661
 3464SOL     OW22027   3.154   3.929   7.613 -0.1392  0.8131 -0.5227
 3464SOL    HW122028   3.087   3.962   7.674  0.0408  1.0149 -0.4331
 3464SOL    HW222029   3.101   3.887   7.546 -4.0254  1.3188  2.1791
 3465SOL     OW22030   2.510   2.396   9.601  0.3655  0.6139  0.2791
 3465SOL    HW122031   2.416   2.417   9.609  0.1497  0.0980 -0.8552
 3465SOL    HW222032   2.543   2.478   9.638  1.5889 -0.0797  0.6934
 3466SOL     OW22033   1.501   1.864   7.107  0.3725  0.3323 -0.2219
 3466SOL    HW122034   1.479   1.940   7.053  0.6169  0.3672 -0.2744
 3466SOL    HW222035   1.591   1.856   7.074 -0.5716 -1.4687 -2.3159
 3467SOL     OW22036   0.409   1.952   2.709 -0.3172 -0.3518 -0.0425
 3467SOL    HW122037   0.450   1.963   2.623 -0.3151  1.4843  0.1906
 3467SOL    HW222038   0.362   1.871   2.692 -1.2983  0.5702 -1.7487
 3468SOL     OW22039   1.394   3.566  10.942  0.2557 -0.0281 -0.2605
 3468SOL    HW122040   1.413   3.660  10.943 -0.0227 -0.0089  1.9825
 3468SOL    HW222041   1.394   3.555  10.846 -0.9220  0.5758 -0.3381
 3469SOL     OW22042   2.151   2.561   0.207  0.3942 -0.2737  0.3555
 3469SOL    HW122043   2.168   2.601   0.292 -0.5692  0.0137  0.4109
 3469SOL    HW222044   2.241   2.536   0.186 -0.7076 -1.3341 -3.2165
 3470SOL     OW22045   1.386   3.390   2.054 -0.5095 -0.3947  0.6042
 3470SOL    HW122046   1.328   3.461   2.082 -0.4566 -0.1808  0.1639
 3470SOL    HW222047   1.366   3.394   1.961 -0.6382  0.0423  0.6489
 3471SOL     OW22048   2.169   1.560   8.903  0.4740 -0.2876  0.1414
 3471SOL    HW122049   2.195   1.553   8.995 -1.0714  0.3785  0.6379
 3471SOL    HW222050   2.091   1.616   8.903  1.0124  0.4484 -0.8803
 3472SOL     OW22051   1.074   4.725   5.769  0.2609  0.4294 -0.2773
 3472SOL    HW122052   1.093   4.696   5.680 -1.8402  1.4982 -1.0735
 3472SOL    HW222053   1.158   4.706   5.811  1.1314 -0.1460 -2.3040
 3473SOL     OW22054   1.002   1.461   7.432  0.4411  0.9028 -0.1032
 3473SOL    HW122055   0.990   1.368   7.451  1.1979  0.8841  0.3170
 3473SOL    HW222056   1.089   1.483   7.467  0.8339 -0.2979 -0.3157
 3474SOL     OW22057   3.147   0.073   3.804 -0.4915  0.5874  0.1038
 3474SOL    HW122058   3.096   0.044   3.880 -0.4700  0.4897  0.0806
 3474SOL    HW222059   3.104   0.029   3.731  0.2090 -1.0675  0.6931
 3475SOL     OW22060   4.127   0.233   3.467 -0.4648 -0.0689  0.2962
 3475SOL    HW122061   4.179   0.285   3.405 -1.5343  0.8249  0.1566
 3475SOL    HW222062   4.108   0.149   3.425  1.1745 -0.4570  0.3184
 3476SOL     OW22063   0.265   3.362   8.342 -0.1449 -0.0894  0.1068
 3476SOL    HW122064   0.274   3.452   8.374  2.7923 -0.3772  0.1248
 3476SOL    HW222065   0.219   3.321   8.415 -0.9814  0.4535 -0.1242
 3477SOL     OW22066   1.660   1.455   6.165 -0.0465  0.0130  0.4782
 3477SOL    HW122067   1.719   1.484   6.235 -0.5297 -2.0790  1.7531
 3477SOL    HW222068   1.697   1.367   6.154  0.7716  0.4402 -0.1298
 3478SOL     OW22069   3.740   1.078   9.530 -0.0982 -0.1258 -0.6136
 3478SOL    HW122070   3.696   0.993   9.535 -0.1326 -0.1094 -0.6357
 3478SOL    HW222071   3.830   1.067   9.560  0.7106 -0.1610 -3.0483
 3479SOL     OW22072   0.635   3.838   4.805 -0.3377  0.3186  0.4262
 3479SOL    HW122073   0.665   3.892   4.732 -1.2860 -0.4360 -0.5028
 3479SOL    HW222074   0.712   3.783   4.822  0.8633  1.3793 -1.6011
 3480SOL     OW22075   0.520   1.448   3.566  0.4398 -0.1584  0.2177
 3480SOL    HW122076   0.540   1.390   3.639 -1.3076 -0.4056  0.4963
 3480SOL    HW222077   0.592   1.429   3.505 -1.5489 -0.6282 -1.9762
 3481SOL     OW22078   1.314   2.529  11.217 -0.1105  0.4600  0.0795
 3481SOL    HW122079   1.339   2.586  11.289  0.0810  0.8607 -0.2999
 3481SOL    HW222080   1.399   2.507  11.178  1.2739  1.3041  2.6407
 3482SOL     OW22081   2.271   3.689   7.837  0.1602 -0.6222  0.0525
 3482SOL    HW122082   2.210   3.742   7.785  2.3440  1.4135 -0.4383
 3482SOL    HW222083   2.267   3.725   7.925 -2.3878  2.5162 -1.3204
 3483SOL     OW22084   2.459   3.728   2.054 -0.1133 -0.1486  0.1445
 3483SOL    HW122085   2.496   3.643   2.029 -0.3561 -0.0096 -0.6905
 3483SOL    HW222086   2.473   3.725   2.149 -0.7072  0.7198  0.2546
 3484SOL     OW22087   4.514   1.484   5.695  0.3674  0.2948 -0.2939
 3484SOL    HW122088   4.585   1.421   5.710 -1.3793 -1.4242  0.7027
 3484SOL    HW222089   4.483   1.524   5.776 -0.2966 -1.4338  0.3215
 3485SOL     OW22090   1.250   3.921   2.349  0.2661  0.0987  0.5118
 3485SOL    HW122091   1.322   3.860   2.366  0.1004 -0.1682  0.2532
 3485SOL    HW222092   1.271   3.976   2.424  0.4936 -0.3205  0.7544
 3486SOL     OW22093   2.449   2.789   4.681  0.2967 -0.5306 -0.1806
 3486SOL    HW122094   2.489   2.706   4.652  0.5649 -0.7718  0.8748
 3486SOL    HW222095   2.412   2.833   4.605  0.2953 -0.7406 -0.3031
 3487SOL     OW22096   2.952   0.688   4.102  0.1566 -0.4679  0.2443
 3487SOL    HW122097   2.995   0.698   4.187 -0.7038  0.1752  0.6121
 3487SOL    HW222098   2.979   0.598   4.082  1.3853  0.0569 -0.4798
 3488SOL     OW22099   0.718   0.139   6.055 -0.2048 -0.2434 -0.3538
 3488SOL    HW122100   0.812   0.142   6.071 -0.3063  0.3066  0.1297
 3488SOL    HW222101   0.710   0.226   6.017  2.7516 -0.0422 -0.4810
 3489SOL     OW22102   3.523   2.935   5.780 -0.0864  0.0185  0.3039
 3489SOL    HW122103   3.451   2.934   5.844 -1.4036  0.5558 -1.1686
 3489SOL    HW222104   3.484   2.911   5.696 -0.9082 -0.2158  0.7482
 3490SOL     OW22105   4.193   2.433   8.316  0.0409  0.5108 -0.5263
 3490SOL    HW122106   4.240   2.510   8.347  1.4329 -0.5105 -0.0985
 3490SOL    HW222107   4.249   2.368   8.358 -0.6605  1.5210  1.9581
 3491SOL     OW22108   3.429   0.905   1.818  0.2213 -0.3529 -0.4702
 3491SOL    HW122109   3.489   0.922   1.891 -0.5571  0.3451  0.0206
 3491SOL    HW222110   3.358   0.872   1.874  1.5770  0.4013  1.6989
 3492SOL     OW22111   4.346   1.808  11.935 -0.4171 -0.4561  0.4742
 3492SOL    HW122112   4.294   1.758  11.873 -0.1565 -0.8307  0.5615
 3492SOL    HW222113   4.344   1.757  12.016 -2.2715  0.3263  0.9220
 3493SOL     OW22114   1.121   1.815   3.918  0.0139  0.3303 -0.2316
 3493SOL    HW122115   1.202   1.775   3.888  0.2158 -0.1018  0.8966
 3493SOL    HW222116   1.083   1.837   3.833  0.4377 -2.4898 -1.1257
 3494SOL     OW22117   3.090   0.471  17.127  0.0081  0.0336 -0.3509
 3494SOL    HW122118   3.082   0.387  17.082 -1.8800 -0.3256  0.6376
 3494SOL    HW222119   3.186   0.472  17.127  0.0231 -0.7445 -1.3085
 3495SOL     OW22120   1.341   4.571   6.383 -0.3700 -0.6258  0.2117
 3495SOL    HW122121   1.371   4.492   6.427 -0.0550 -0.3089  0.5758
 3495SOL    HW222122   1.255   4.595   6.417  1.1423  4.0453  0.8895
 3496SOL     OW22123   0.659   3.282   6.546  0.3428  0.5671  0.5380
 3496SOL    HW122124   0.710   3.267   6.466  1.0041  1.0253  0.8720
 3496SOL    HW222125   0.633   3.192   6.563  0.2038 -0.0836 -2.9742
 3497SOL     OW22126   3.909   0.380  17.429  0.0571 -0.2989 -0.2670
 3497SOL    HW122127   3.991   0.336  17.451 -0.9048 -1.5038  0.8958
 3497SOL    HW222128   3.860   0.355  17.507 -1.0331 -0.1645 -0.8990
 3498SOL     OW22129   0.310   1.710   6.791  0.3487 -0.1636  0.0659
 3498SOL    HW122130   0.325   1.796   6.751 -2.1347  0.3560  0.3007
 3498SOL    HW222131   0.314   1.718   6.887 -2.3225 -1.0779  0.2368
 3499SOL     OW22132   3.903   4.464   4.307 -0.2320 -0.0256 -0.4743
 3499SOL    HW122133   3.850   4.507   4.373 -0.5499  0.0068 -0.7512
 3499SOL    HW222134   3.914   4.381   4.354 -0.3653 -1.1716 -2.4272
 3500SOL     OW22135   4.707   1.752   6.135  0.1558  0.0307  0.0889
 3500SOL    HW122136   0.009   1.679   6.090  0.0299  0.0709 -0.0900
 3500SOL    HW222137   4.615   1.745   6.110  0.8494  1.5121 -2.8421
 3501SOL     OW22138   1.911   0.931   0.547 -0.1890  0.5001  0.2104
 3501SOL    HW122139   1.909   0.929   0.451  2.1576 -0.4164  0.1941
 3501SOL    HW222140   1.827   0.889   0.569  0.8529 -2.8898 -2.2305
 3502SOL     OW22141   1.457   4.701  10.553  0.0400 -0.5282 -0.4637
 3502SOL    HW122142   1.461   4.633  10.486 -3.3561 -0.8977 -0.2994
 3502SOL    HW222143   1.419   0.034  10.503  0.4717 -0.8430 -1.2467
 3503SOL     OW22144   4.585   4.417   1.681 -0.4435  0.7636 -0.3301
 3503SOL    HW122145   4.505   4.457   1.645 -0.8060 -2.0909 -2.7437
 3503SOL    HW222146   4.592   4.334   1.632 -0.6864  1.6251 -1.8377
 3504SOL     OW22147   0.423   0.380   7.671  0.2706 -0.3833 -0.0362
 3504SOL    HW122148   0.470   0.378   7.588  0.1864  2.5750 -0.1362
 3504SOL    HW222149   0.447   0.469   7.697  1.5251 -0.0144 -2.5264
 3505SOL     OW22150   3.109   1.162   9.854 -0.0476 -0.5890 -0.2031
 3505SOL    HW122151   3.160   1.097   9.807 -0.0544  0.5892 -1.8383
 3505SOL    HW222152   3.115   1.120   9.940 -2.6126 -2.1234 -0.7891
 3506SOL     OW22153   2.949   4.509   0.067 -0.6269 -0.1413  0.6234
 3506SOL    HW122154   2.947   4.423   0.026 -1.0353 -0.4546  1.2995
 3506SOL    HW222155   3.038   4.536   0.042  0.3384 -3.0934  0.8117
 3507SOL     OW22156   0.257   1.140   3.707 -0.0954  0.2593  0.3928
 3507SOL    HW122157   0.228   1.231   3.695 -0.9108 -0.3886 -2.6098
 3507SOL    HW222158   0.212   1.089   3.640  2.7466  2.1653 -3.0088
 3508SOL     OW22159   2.083   1.424   7.525 -0.7787 -0.4676  0.0150
 3508SOL    HW122160   2.112   1.334   7.538 -0.6034 -0.3337  0.5190
 3508SOL    HW222161   2.057   1.457   7.611 -2.0434  2.5519 -1.5355
 3509SOL     OW22162   4.494   0.336  15.010  0.4039 -0.4011  0.2175
 3509SOL    HW122163   4.428   0.331  15.080 -1.2588 -0.8042 -1.3836
 3509SOL    HW222164   4.463   0.269  14.949  0.6298  1.1721 -1.6180
 3510SOL     OW22165   1.832   3.864   7.290 -0.3831 -0.1301  0.1437
 3510SOL    HW122166   1.883   3.879   7.370 -1.3007 -1.2077  0.9359
 3510SOL    HW222167   1.905   3.850   7.230 -1.4402 -4.4785 -0.1676
 3511SOL     OW22168   0.860   2.766   8.609 -1.0969  0.2870  0.4871
 3511SOL    HW122169   0.815   2.816   8.678  0.9018  0.2668  1.8039
 3511SOL    HW222170   0.937   2.731   8.655 -0.1052  3.2172  1.0216
 3512SOL     OW22171   4.062   3.619   7.129  0.6797 -0.6749 -0.5625
 3512SOL    HW122172   4.096   3.622   7.218 -1.7108 -1.3815  0.3742
 3512SOL    HW222173   3.973   3.597   7.157  0.1293  3.9251  1.2962
 3513SOL     OW22174   2.268   1.571  13.778 -0.9548  0.0505 -0.8976
 3513SOL    HW122175   2.302   1.483  13.764  1.9935  0.8480  1.2100
 3513SOL    HW222176   2.187   1.550  13.824  0.0162  1.6609  1.5743
 3514SOL     OW22177   2.277   3.764   6.186  0.0536  0.2472 -0.3168
 3514SOL    HW122178   2.256   3.696   6.250 -1.1069  1.0427  0.1431
 3514SOL    HW222179   2.343   3.715   6.138 -0.6883 -1.4633  0.4060
 3515SOL     OW22180   3.627   1.772   2.842 -0.5586 -0.5765  0.6317
 3515SOL    HW122181   3.545   1.730   2.817 -1.5431  0.5613  1.9776
 3515SOL    HW222182   3.636   1.825   2.763  1.2945  1.0229  1.9073
 3516SOL     OW22183   2.572   0.048   6.815 -0.0259 -0.4064 -0.1887
 3516SOL    HW122184   2.659   0.012   6.798  0.1341 -0.3025  0.4168
 3516SOL    HW222185   2.551   0.005   6.898  0.4903  1.3712  0.8549
 3517SOL     OW22186   1.446   3.700  10.621  0.5616  0.2545 -0.1853
 3517SOL    HW122187   1.396   3.622  10.642  0.3372  0.9655  1.8771
 3517SOL    HW222188   1.525   3.690  10.675 -0.5432  0.8032  1.5347
 3518SOL     OW22189   4.716   1.403  16.809 -0.0537  0.8419  0.3088
 3518SOL    HW122190   0.020   1.385  16.725  0.2103  1.7298  0.2540
 3518SOL    HW222191   4.668   1.322  16.823  0.0702  0.8019  0.4998
 3519SOL     OW22192   2.880   2.031   3.151  0.4595 -0.3336 -0.5298
 3519SOL    HW122193   2.929   2.092   3.095  0.4810 -0.8021 -1.0167
 3519SOL    HW222194   2.949   1.997   3.209 -1.1435  1.1272  2.2069
 3520SOL     OW22195   0.755   2.769  16.407 -0.4712  0.3670  0.1107
 3520SOL    HW122196   0.778   2.677  16.397 -1.8622 -0.0858  1.1200
 3520SOL    HW222197   0.705   2.788  16.327  0.3922  2.6281  0.1171
 3521SOL     OW22198   4.454   2.909  10.669 -0.4256  0.0309  0.2319
 3521SOL    HW122199   4.461   2.990  10.620 -2.1947  0.0280 -0.0405
 3521SOL    HW222200   4.544   2.880  10.683 -0.5472 -0.5618 -0.1988
 3522SOL     OW22201   2.099   1.625   9.909 -0.4138  0.1173  0.5790
 3522SOL    HW122202   2.142   1.548   9.873 -1.0274  0.1231 -0.1554
 3522SOL    HW222203   2.162   1.697   9.911  0.2408 -0.4343 -0.5709
 3523SOL     OW22204   1.320   3.586   6.742 -0.1024 -0.2181 -0.2434
 3523SOL    HW122205   1.406   3.614   6.709 -0.1931  0.1668 -0.1484
 3523SOL    HW222206   1.275   3.669   6.758  1.8460  0.5076  1.5244
 3524SOL     OW22207   0.635   3.003   5.999  0.0111  0.3465 -0.9750
 3524SOL    HW122208   0.652   3.097   5.998 -0.1999  0.3860 -0.6886
 3524SOL    HW222209   0.726   2.972   5.989 -0.0511 -0.7042  1.6659
 3525SOL     OW22210   1.139   3.667   2.498  0.2550 -0.5563  0.4336
 3525SOL    HW122211   1.229   3.680   2.468 -0.1734  0.5849 -0.3457
 3525SOL    HW222212   1.099   3.618   2.426  0.2486 -1.2697  0.9191
 3526SOL     OW22213   3.970   1.052   4.747  0.1281 -0.6600  0.2493
 3526SOL    HW122214   4.031   0.979   4.738  0.4750 -0.4070  0.5804
 3526SOL    HW222215   3.994   1.096   4.666 -2.6763  0.4027  0.0053
 3527SOL     OW22216   3.106   3.696  16.736 -0.6122 -0.0555 -0.3366
 3527SOL    HW122217   3.135   3.649  16.658  0.4921  0.5018 -0.2686
 3527SOL    HW222218   3.030   3.749  16.713 -1.9760 -1.6394  0.5312
 3528SOL     OW22219   4.119   1.064   6.970 -0.1553  0.2467 -0.3577
 3528SOL    HW122220   4.142   1.146   6.926  0.2936  1.3047  1.8165
 3528SOL    HW222221   4.025   1.077   6.976 -0.4302 -1.8581 -0.0657
 3529SOL     OW22222   1.171   2.093   3.247  0.3566 -0.7884 -0.2341
 3529SOL    HW122223   1.175   2.167   3.187 -0.0901 -1.2342 -0.8147
 3529SOL    HW222224   1.082   2.098   3.282  0.3879  1.5134 -0.4864
 3530SOL     OW22225   1.961   2.231   7.225  0.5943 -0.1434 -0.1098
 3530SOL    HW122226   1.972   2.285   7.147 -1.9125 -0.2069 -0.5248
 3530SOL    HW222227   1.871   2.201   7.214  0.2749  1.2870 -1.2883
 3531SOL     OW22228   4.258   4.317  16.578 -0.4478 -0.1150  0.4589
 3531SOL    HW122229   4.276   4.352  16.666 -0.6140 -0.0593  0.4694
 3531SOL    HW222230   4.210   4.389  16.538 -0.3205 -0.1249  0.2871
 3532SOL     OW22231   0.901   2.617   6.734  0.2993 -0.5661  0.1509
 3532SOL    HW122232   0.906   2.528   6.700 -0.9191 -0.7941  0.5789
 3532SOL    HW222233   0.930   2.602   6.824 -3.0710 -0.6329  1.1975
 3533SOL     OW22234   1.541   4.225   9.779  0.9295 -0.4161  0.0595
 3533SOL    HW122235   1.513   4.314   9.759  0.3551 -0.8673 -1.1085
 3533SOL    HW222236   1.632   4.239   9.806  0.7588  0.1912  0.3264
 3534SOL     OW22237   0.174   4.279   3.953 -0.3305  0.0030 -0.1692
 3534SOL    HW122238   0.100   4.340   3.958 -1.1210 -1.0382  0.8169
 3534SOL    HW222239   0.137   4.191   3.958  2.0243 -0.7646  3.5969
 3535SOL     OW22240   3.218   4.705  13.792 -1.0698 -0.4406 -0.7807
 3535SOL    HW122241   3.187   4.662  13.712 -0.8587 -3.4618  0.7396
 3535SOL    HW222242   3.139   4.703  13.846 -1.0736 -0.2427 -0.7785
 3536SOL     OW22243   0.216   3.052   4.359  0.2178  0.9951  0.1334
 3536SOL    HW122244   0.216   3.040   4.454  0.1164  2.5409  0.3343
 3536SOL    HW222245   0.195   3.146   4.359 -0.6675  0.7919 -0.6067
 3537SOL     OW22246   4.719   1.017   4.588  0.0354 -0.2305 -0.2129
 3537SOL    HW122247   4.631   1.053   4.581  0.1985  0.0547 -0.7658
 3537SOL    HW222248   4.701   0.929   4.556  1.4786 -1.2106  1.6522
 3538SOL     OW22249   4.277   1.925   1.631  0.1979  0.1323  0.1275
 3538SOL    HW122250   4.200   1.937   1.687  0.8271  0.4849  0.9047
 3538SOL    HW222251   4.240   1.929   1.543  0.0108 -0.6555  0.1689
 3539SOL     OW22252   1.755   1.468  14.577 -0.3013 -0.2078  0.3697
 3539SOL    HW122253   1.716   1.529  14.639 -1.2622 -2.4572  1.9901
 3539SOL    HW222254   1.746   1.378  14.608 -2.4884  0.6422  2.2305
 3540SOL     OW22255   1.692   4.634   0.054 -0.5228  0.3435  0.1455
 3540SOL    HW122256   1.710   4.625  17.716 -1.6266  1.8285 -0.2096
 3540SOL    HW222257   1.670   4.727   0.051 -0.0169  0.4525 -0.1517
 3541SOL     OW22258   2.679   4.150  10.053  0.1797 -0.2432 -0.0701
 3541SOL    HW122259   2.738   4.075  10.060  0.6624  0.1965  0.5846
 3541SOL    HW222260   2.717   4.178   9.970  1.5514  1.2816  1.0701
 3542SOL     OW22261   1.165   3.472   8.692 -0.3960 -0.2178 -0.0904
 3542SOL    HW122262   1.195   3.383   8.673  0.5893 -0.0671  0.7373
 3542SOL    HW222263   1.118   3.466   8.775 -0.9937  1.5110 -0.3029
 3543SOL     OW22264   1.787   3.783   1.563  0.2824  0.1457  0.1499
 3543SOL    HW122265   1.877   3.789   1.595  0.3448 -3.7018  0.7664
 3543SOL    HW222266   1.795   3.833   1.482 -0.8007  1.2440  0.7238
 3544SOL     OW22267   1.010   4.611   9.830  0.1608  0.5287 -0.3054
 3544SOL    HW122268   0.968   4.695   9.813  1.2277  0.8931 -1.0905
 3544SOL    HW222269   1.100   4.637   9.847  0.1373  1.2312 -1.2999
 3545SOL     OW22270   0.094   4.321  12.378  0.3760  0.3738  0.2059
 3545SOL    HW122271   0.067   4.262  12.449  1.7251  1.2362  1.4320
 3545SOL    HW222272   0.184   4.288  12.374  0.3002  0.3425 -1.4787
 3546SOL     OW22273   2.724   3.118   8.545 -0.0567  0.2888  0.0019
 3546SOL    HW122274   2.641   3.160   8.567  0.7344  1.4627  0.7443
 3546SOL    HW222275   2.735   3.051   8.612 -2.2505 -0.2862 -0.2102
 3547SOL     OW22276   2.053   2.090   9.480  0.7496  0.1752 -0.0151
 3547SOL    HW122277   2.019   2.115   9.395  0.0367 -1.4621 -0.2109
 3547SOL    HW222278   2.017   2.160   9.535  0.0608 -0.8914  0.8933
 3548SOL     OW22279   1.589   0.913  11.480 -0.3047  0.1842 -0.0546
 3548SOL    HW122280   1.668   0.966  11.491 -0.9257  0.9782  0.5044
 3548SOL    HW222281   1.590   0.893  11.386 -1.3889 -0.4785  0.0735
 3549SOL     OW22282   2.486   0.562   4.773 -0.1233 -0.4437 -0.2628
 3549SOL    HW122283   2.566   0.605   4.744 -1.4452  2.2714  0.1771
 3549SOL    HW222284   2.421   0.632   4.777 -0.5851 -0.8446 -0.7632
 3550SOL     OW22285   0.490   3.878  13.438 -0.4167 -0.0028 -0.0273
 3550SOL    HW122286   0.405   3.902  13.475 -0.1960 -0.8706  1.0688
 3550SOL    HW222287   0.491   3.930  13.358  0.9439  0.7832  0.5042
 3551SOL     OW22288   2.862   2.279   1.685  0.3244  0.5122 -0.1818
 3551SOL    HW122289   2.807   2.223   1.631  1.2070  1.0423 -1.6535
 3551SOL    HW222290   2.802   2.292   1.758  0.6265 -1.3567  0.4157
 3552SOL     OW22291   3.376   4.094   6.091 -0.8115  0.0429  0.4313
 3552SOL    HW122292   3.397   4.036   6.017  1.6467  1.7912 -0.2522
 3552SOL    HW222293   3.338   4.171   6.049 -3.0129 -1.0372  0.4686
 3553SOL     OW22294   0.578   3.290   3.072  0.5087  0.6400  0.1461
 3553SOL    HW122295   0.566   3.330   3.157  0.5254 -0.4188  0.6476
 3553SOL    HW222296   0.592   3.369   3.019 -1.0040 -1.5164 -3.4647
 3554SOL     OW22297   3.439   3.808   4.287 -0.2105 -0.5483  0.0624
 3554SOL    HW122298   3.530   3.803   4.315  0.3208 -1.6375 -1.8580
 3554SOL    HW222299   3.394   3.859   4.354  2.1890  0.4686  0.8726
 3555SOL     OW22300   2.974   4.478   7.531  0.3336  0.9532  0.1142
 3555SOL    HW122301   2.991   4.410   7.466 -0.4726  1.7046 -0.8910
 3555SOL    HW222302   3.064   4.497   7.558  0.6357  1.2607 -1.0969
 3556SOL     OW22303   3.087   2.156  11.984 -0.6427 -0.4272 -0.1587
 3556SOL    HW122304   3.005   2.137  12.029  0.5121 -0.9019  1.7493
 3556SOL    HW222305   3.104   2.249  11.999  0.8459 -1.0463  1.9394
 3557SOL     OW22306   0.350   3.089  13.071 -0.0380  0.2667  0.6150
 3557SOL    HW122307   0.291   3.136  13.012 -0.2987  2.9439  2.9790
 3557SOL    HW222308   0.390   3.162  13.118  1.5045 -1.0414  1.3199
 3558SOL     OW22309   3.035   4.719   6.642 -0.0429  0.6640  0.1869
 3558SOL    HW122310   3.121   4.713   6.601 -0.6881 -0.1577 -1.0742
 3558SOL    HW222311   3.046   0.070   6.670 -2.0287  1.1617 -0.6543
 3559SOL     OW22312   2.078   0.265   3.772  0.0344 -0.6582 -0.5666
 3559SOL    HW122313   2.112   0.178   3.751  2.8557  0.9607 -2.6971
 3559SOL    HW222314   2.126   0.317   3.708 -0.0526 -2.2951 -1.9531
 3560SOL     OW22315   2.946   0.983   4.919 -0.2944  0.2920 -0.1030
 3560SOL    HW122316   2.855   0.953   4.928 -0.1287 -0.2553 -0.2662
 3560SOL    HW222317   2.995   0.901   4.915  2.5693  2.1398 -2.3117
 3561SOL     OW22318   3.593   1.238  11.244 -0.5423 -0.0983  0.3480
 3561SOL    HW122319   3.678   1.282  11.253 -1.9383  2.6223  0.1441
 3561SOL    HW222320   3.621   1.162  11.194 -0.6414  0.1862 -0.1416
 3562SOL     OW22321   3.426   4.185  13.723 -0.1668  0.0058 -0.0990
 3562SOL    HW122322   3.473   4.210  13.803  0.0435  0.6230 -0.4187
 3562SOL    HW222323   3.405   4.094  13.743  0.3139 -0.1693 -0.3974
 3563SOL     OW22324   1.484   1.546   3.551 -0.1290 -0.1141 -0.4596
 3563SOL    HW122325   1.568   1.558   3.595 -0.3873 -0.6969  0.1940
 3563SOL    HW222326   1.461   1.457   3.579  3.5128 -0.1341  2.4958
 3564SOL     OW22327   2.129   2.940   2.379 -0.0370  0.1970 -0.0405
 3564SOL    HW122328   2.062   2.999   2.412  0.8605  1.4449 -0.4703
 3564SOL    HW222329   2.130   2.865   2.439  0.0115  0.4293  0.2438
 3565SOL     OW22330   1.473   4.154   5.889 -0.3930  0.3622 -0.1952
 3565SOL    HW122331   1.393   4.167   5.939  0.3092 -0.4208  1.1401
 3565SOL    HW222332   1.492   4.246   5.869  0.0344  0.5747  1.2090
 3566SOL     OW22333   3.927   4.253   5.969  0.6652 -0.4380  0.7421
 3566SOL    HW122334   3.869   4.286   5.900  1.0230  2.8059  2.0047
 3566SOL    HW222335   3.903   4.324   6.028  0.0186  1.1507 -1.4085
 3567SOL     OW22336   2.925   2.506   5.863  0.0548  0.1569  0.4215
 3567SOL    HW122337   2.953   2.533   5.775  1.1351 -1.2129  0.3495
 3567SOL    HW222338   3.007   2.518   5.911 -0.3697 -1.0136  1.4149
 3568SOL     OW22339   4.322   4.583  11.916 -0.4531  0.5411  0.3262
 3568SOL    HW122340   4.264   4.636  11.862 -0.6229  0.6042  0.5716
 3568SOL    HW222341   4.265   4.572  11.992  1.2817  2.2647  1.8867
 3569SOL     OW22342   0.674   3.798   5.363 -0.4047  0.1010  0.4415
 3569SOL    HW122343   0.725   3.856   5.420  1.3926 -0.1594 -0.8862
 3569SOL    HW222344   0.664   3.844   5.280 -0.7919 -0.4106  0.2012
 3570SOL     OW22345   2.620   0.825  13.273 -0.1186 -0.3922  0.4604
 3570SOL    HW122346   2.598   0.868  13.356  1.0148  0.5283  0.2922
 3570SOL    HW222347   2.716   0.827  13.283 -0.0083 -1.3417 -0.3800
 3571SOL     OW22348   3.544   0.742   5.810 -0.2019 -0.0151 -0.3313
 3571SOL    HW122349   3.547   0.760   5.904  0.1829 -2.5007  0.1143
 3571SOL    HW222350   3.575   0.825   5.774 -0.0390  0.6317  1.3357
 3572SOL     OW22351   1.964   4.115  16.885 -0.2330  0.5400  0.3296
 3572SOL    HW122352   1.880   4.096  16.844 -0.9770  1.1923  1.5316
 3572SOL    HW222353   2.017   4.049  16.841  2.0244  0.9958  2.3694
 3573SOL     OW22354   0.488   4.471  14.724 -0.1915  0.1176  0.3013
 3573SOL    HW122355   0.435   4.402  14.763  0.6805 -0.9769 -0.4783
 3573SOL    HW222356   0.465   4.478  14.631  0.8721  0.9777  0.1017
 3574SOL     OW22357   0.447   0.830   4.060  0.6028 -0.1795 -0.8354
 3574SOL    HW122358   0.367   0.847   4.012  0.2992 -0.6925 -0.5112
 3574SOL    HW222359   0.455   0.735   4.052 -1.2663 -0.3345 -0.6708
 3575SOL     OW22360   0.307   2.841   4.792 -0.4085 -0.6611 -0.3939
 3575SOL    HW122361   0.327   2.925   4.834  0.8796 -2.6793  3.0245
 3575SOL    HW222362   0.392   2.798   4.778  1.7071  3.2680  0.2596
 3576SOL     OW22363   3.306   2.088   6.229 -0.5660 -0.4248  0.2327
 3576SOL    HW122364   3.358   2.026   6.179  0.1273 -1.1099  1.8273
 3576SOL    HW222365   3.242   2.042   6.283 -2.8349  1.6963 -0.6057
 3577SOL     OW22366   4.250   2.187  11.964 -0.3214 -0.2794 -0.2620
 3577SOL    HW122367   4.171   2.230  11.933  0.7165  0.9658 -1.1497
 3577SOL    HW222368   4.268   2.130  11.889 -0.0417  0.2048 -0.5573
 3578SOL     OW22369   2.961   1.080   7.344  0.2832  0.3940  0.7087
 3578SOL    HW122370   2.908   1.123   7.277 -0.5785 -1.9547 -0.1184
 3578SOL    HW222371   2.929   0.991   7.334  1.4259  0.2259 -1.4114
 3579SOL     OW22372   1.624   1.944  17.623  0.1980  0.2735  0.0820
 3579SOL    HW122373   1.680   2.021  17.615  1.0875 -0.2550  1.1554
 3579SOL    HW222374   1.689   1.879  17.596 -0.2015 -0.6142  1.2418
 3580SOL     OW22375   3.942   1.970  16.631  0.4322 -0.3836  0.6046
 3580SOL    HW122376   3.948   1.915  16.709 -1.3779 -1.8954 -0.3254
 3580SOL    HW222377   4.026   1.953  16.590  0.1214  1.1836 -0.6750
 3581SOL     OW22378   0.320   2.054   9.403 -0.5206  0.1582  0.2804
 3581SOL    HW122379   0.289   1.986   9.463 -0.8756 -0.5340 -0.6888
 3581SOL    HW222380   0.411   2.028   9.397 -0.7691 -0.8232  0.7895
 3582SOL     OW22381   3.303   0.031   6.296 -0.1718  0.5874  0.1873
 3582SOL    HW122382   3.271   0.007   6.382  1.7882 -0.4685  0.6144
 3582SOL    HW222383   3.373   0.090   6.322  1.4145 -0.3834 -1.8753
 3583SOL     OW22384   1.465   2.136   4.298 -0.1736 -0.0093 -0.4637
 3583SOL    HW122385   1.395   2.193   4.330 -0.8241 -0.5000 -1.0064
 3583SOL    HW222386   1.415   2.058   4.273  0.5920 -0.5379 -0.3304
 3584SOL     OW22387   2.538   3.044   4.473  0.2020  0.0561 -0.2295
 3584SOL    HW122388   2.499   2.997   4.399  1.3071  0.7077 -1.2431
 3584SOL    HW222389   2.464   3.097   4.501  0.2040 -0.6211  1.0366
 3585SOL     OW22390   4.047   0.644   5.715  0.4412 -0.2369  0.2024
 3585SOL    HW122391   4.020   0.690   5.794 -0.3234 -0.7758  0.2539
 3585SOL    HW222392   4.136   0.675   5.695 -1.0571  3.6491 -0.4358
 3586SOL     OW22393   3.071   4.384   3.848  0.0432 -0.0386  0.9010
 3586SOL    HW122394   3.065   4.300   3.803 -0.2503  0.3907  0.1411
 3586SOL    HW222395   3.143   4.420   3.797 -0.7236  2.1858  1.3705
 3587SOL     OW22396   1.687   4.229   1.867  0.1417  0.7838 -0.0644
 3587SOL    HW122397   1.745   4.299   1.838  0.0960  0.0213 -2.0157
 3587SOL    HW222398   1.652   4.210   1.779 -0.4641  0.4306  0.2522
 3588SOL     OW22399   0.440   2.459   1.119  0.3751  0.4702  0.0292
 3588SOL    HW122400   0.517   2.497   1.162  1.5133 -1.6075 -0.2024
 3588SOL    HW222401   0.477   2.466   1.031  1.6205  2.3313  0.6944
 3589SOL     OW22402   3.282   1.222   3.631 -0.3396  0.2700 -0.1318
 3589SOL    HW122403   3.272   1.244   3.723  1.1471 -2.3062  0.6538
 3589SOL    HW222404   3.197   1.179   3.622 -0.4499  0.3794  0.3846
 3590SOL     OW22405   3.175   2.169   6.641  0.0900 -0.0776  0.1470
 3590SOL    HW122406   3.138   2.216   6.566  0.3621 -1.5649 -0.9226
 3590SOL    HW222407   3.211   2.228   6.707 -1.3231 -1.2900  2.0268
 3591SOL     OW22408   4.431   2.324  13.313  0.0040 -0.0683 -0.0213
 3591SOL    HW122409   4.352   2.320  13.366  0.3303  0.5358  0.5076
 3591SOL    HW222410   4.501   2.293  13.371  0.1311 -0.0602 -0.1668
 3592SOL     OW22411   2.546   2.299  14.442  0.2166 -0.4629  0.0362
 3592SOL    HW122412   2.562   2.315  14.535 -4.0413 -0.3413  0.7427
 3592SOL    HW222413   2.617   2.352  14.406 -1.7950  1.3191 -1.3329
 3593SOL     OW22414   3.052   4.278   7.950 -0.2505 -0.1654 -0.2242
 3593SOL    HW122415   3.061   4.194   7.905 -0.9480 -0.7899  0.8112
 3593SOL    HW222416   2.956   4.282   7.946 -0.0616  3.2547 -1.1919
 3594SOL     OW22417   1.913   3.511   3.557 -0.5979 -0.5558  0.1877
 3594SOL    HW122418   1.876   3.423   3.547 -0.0648 -0.9684  1.7938
 3594SOL    HW222419   1.976   3.503   3.628  1.0816  1.4301 -1.0822
 3595SOL     OW22420   4.001   3.253   7.529  0.1961  0.0325 -0.0167
 3595SOL    HW122421   3.948   3.324   7.565 -1.2141 -0.0910 -1.8585
 3595SOL    HW222422   3.993   3.262   7.434  0.5241 -1.4510 -0.1768
 3596SOL     OW22423   3.516   3.362   6.081  0.1932 -0.2643  0.7677
 3596SOL    HW122424   3.577   3.372   6.154  0.3905 -3.0904  0.9928
 3596SOL    HW222425   3.569   3.326   6.010 -0.8513  0.6550 -0.4831
 3597SOL     OW22426   0.481   1.723   7.321 -0.0172 -0.0257 -0.1795
 3597SOL    HW122427   0.577   1.724   7.323 -0.0009 -0.6030 -0.5981
 3597SOL    HW222428   0.465   1.764   7.406  0.6601 -0.3083  0.0834
 3598SOL     OW22429   0.424   0.227   2.913  0.2327  0.8129 -0.1602
 3598SOL    HW122430   0.376   0.310   2.903  1.7472  1.8116  0.8658
 3598SOL    HW222431   0.422   0.204   2.820 -0.7178 -0.7041  0.2407
 3599SOL     OW22432   1.454   2.449   8.384  0.3456 -0.2989  0.7992
 3599SOL    HW122433   1.407   2.408   8.456 -0.9526 -0.5079 -0.1739
 3599SOL    HW222434   1.386   2.515   8.368  0.8567  0.3080  1.1246
 3600SOL     OW22435   0.160   1.102  12.135 -0.3982 -0.8493 -0.6426
 3600SOL    HW122436   0.209   1.180  12.162 -0.9031 -0.9689  0.6411
 3600SOL    HW222437   0.117   1.132  12.055 -0.8496  1.4471  0.4775
 3601SOL     OW22438   2.268   3.038   8.996 -0.1274  0.1315 -0.2821
 3601SOL    HW122439   2.293   3.086   9.075 -0.9386 -0.0585  0.0909
 3601SOL    HW222440   2.253   2.955   9.041 -3.2845  1.3528  0.9151
 3602SOL     OW22441   0.521   1.546  10.174 -0.2038 -0.2803 -0.0839
 3602SOL    HW122442   0.436   1.546  10.217 -0.5231  1.6588 -0.7443
 3602SOL    HW222443   0.503   1.603  10.099 -1.0481  1.4517  1.4534
 3603SOL     OW22444   2.959   0.598   2.700 -0.0812  0.0193  0.0819
 3603SOL    HW122445   2.997   0.608   2.613  1.5542  1.4701  0.9513
 3603SOL    HW222446   2.890   0.535   2.680 -0.0164 -0.7319  2.2271
 3604SOL     OW22447   2.065   1.854  15.847 -0.2685 -0.2942  0.0331
 3604SOL    HW122448   2.020   1.780  15.804 -0.9314  0.9279 -1.4047
 3604SOL    HW222449   2.031   1.928  15.796  0.1351 -0.5669 -0.6386
 3605SOL     OW22450   0.501   3.496   0.743 -0.0896  0.1193 -0.1023
 3605SOL    HW122451   0.486   3.425   0.682 -0.2515 -1.2717  1.5507
 3605SOL    HW222452   0.415   3.514   0.781 -0.4115 -2.0479  0.1765
 3606SOL     OW22453   2.721   1.373  16.832 -0.0242 -0.9646  0.5912
 3606SOL    HW122454   2.678   1.331  16.758 -1.5723 -1.4240  1.7657
 3606SOL    HW222455   2.670   1.453  16.844  1.4453 -0.0462  0.7891
 3607SOL     OW22456   4.166   2.513  11.324 -0.0772 -0.1496  0.2309
 3607SOL    HW122457   4.176   2.465  11.407  0.6809  0.3302  0.4154
 3607SOL    HW222458   4.088   2.563  11.347  0.0457  0.2709 -0.2782
 3608SOL     OW22459   2.266   1.581  14.674 -0.8212 -0.6985 -0.0589
 3608SOL    HW122460   2.297   1.491  14.684  2.3779  0.5676  1.5275
 3608SOL    HW222461   2.324   1.622  14.609  0.5407 -2.0960  0.2854
 3609SOL     OW22462   4.511   0.805  14.537  0.3782  0.3825 -0.6476
 3609SOL    HW122463   4.488   0.715  14.559 -1.7730  0.9288 -0.7505
 3609SOL    HW222464   4.558   0.836  14.614 -0.7529  1.2554 -0.3127
 3610SOL     OW22465   2.544   2.026  11.761 -0.0584 -0.3924 -0.0064
 3610SOL    HW122466   2.462   2.057  11.722  0.4500  1.8134  0.6549
 3610SOL    HW222467   2.511   1.973  11.833  0.5818 -1.6338 -0.6177
 3611SOL     OW22468   0.133   4.610   5.526  0.1890 -0.1940 -0.2530
 3611SOL    HW122469   0.182   4.637   5.448  1.1374 -0.8459  0.1131
 3611SOL    HW222470   0.133   4.514   5.521  0.9356 -0.1258 -1.4820
 3612SOL     OW22471   3.410   1.895  17.615 -0.4822  0.2074  0.4094
 3612SOL    HW122472   3.495   1.852  17.617  0.1579  1.4401 -0.1448
 3612SOL    HW222473   3.427   1.980  17.655  0.1534  1.2217 -2.0162
 3613SOL     OW22474   4.011   2.291   3.917 -0.0491 -0.6495 -0.4953
 3613SOL    HW122475   4.088   2.312   3.969  0.6928 -1.4382 -1.2804
 3613SOL    HW222476   3.961   2.372   3.931  1.8114  0.2876  0.6627
 3614SOL     OW22477   2.287   2.113   1.225  0.0649  0.1331 -0.2859
 3614SOL    HW122478   2.247   2.067   1.299 -3.6063 -0.8000 -2.8813
 3614SOL    HW222479   2.240   2.070   1.153  0.4553 -1.1320  0.2115
 3615SOL     OW22480   2.184   1.877   5.439  0.0561 -0.1525 -0.3572
 3615SOL    HW122481   2.232   1.909   5.515 -1.8004  0.7336  0.4360
 3615SOL    HW222482   2.225   1.792   5.418  2.5436  1.4169 -1.8344
 3616SOL     OW22483   4.224   2.703   4.519  0.0255 -0.5396 -0.5976
 3616SOL    HW122484   4.289   2.639   4.547  3.0529  3.3081  1.1008
 3616SOL    HW222485   4.214   2.739   4.607 -1.8110 -0.8923 -0.6668
 3617SOL     OW22486   3.689   4.247   9.422 -0.3552 -0.7590  0.0571
 3617SOL    HW122487   3.712   4.329   9.377 -2.1048 -0.1225  0.3220
 3617SOL    HW222488   3.764   4.238   9.480 -0.5190 -2.0737  0.0597
 3618SOL     OW22489   3.094   4.461   8.171 -0.0646  0.0424  0.6665
 3618SOL    HW122490   3.081   4.403   8.096  0.2913  1.8038 -0.7557
 3618SOL    HW222491   3.189   4.450   8.181  0.1070  2.3222  1.5442
 3619SOL     OW22492   3.205   3.300   6.936 -0.7155 -0.5486  0.5496
 3619SOL    HW122493   3.139   3.277   7.001 -3.6322  0.7842 -1.9913
 3619SOL    HW222494   3.239   3.375   6.986 -1.2075  0.3574 -0.4710
 3620SOL     OW22495   1.546   4.328   5.558 -0.0495 -0.2087 -0.7423
 3620SOL    HW122496   1.555   4.423   5.557 -3.0917  0.0643 -2.2767
 3620SOL    HW222497   1.621   4.314   5.500  0.7638 -0.2140  0.3112
 3621SOL     OW22498   2.765   4.040   3.483 -0.2323  0.2762 -0.0617
 3621SOL    HW122499   2.706   4.030   3.558 -0.7561 -0.4225 -0.5637
 3621SOL    HW222500   2.702   4.014   3.416  1.2170 -0.6823 -1.0668
 3622SOL     OW22501   3.873   3.477   5.329  0.1094 -0.2054  0.0139
 3622SOL    HW122502   3.890   3.481   5.235 -0.9350  0.2398 -0.1567
 3622SOL    HW222503   3.943   3.426   5.370 -1.4293 -1.0560  1.6244
 3623SOL     OW22504   1.428   3.668  15.967 -0.6624 -0.2717  0.0544
 3623SOL    HW122505   1.365   3.690  15.899 -1.6072 -0.4247  0.8721
 3623SOL    HW222506   1.364   3.666  16.038  0.3420  0.4220  0.9950
 3624SOL     OW22507   0.514   3.295   8.956  0.9248 -0.2518  0.6305
 3624SOL    HW122508   0.554   3.346   8.885 -1.1850  1.8867  0.9668
 3624SOL    HW222509   0.448   3.242   8.913  0.8091 -0.7537  1.4278
 3625SOL     OW22510   2.073   4.164  14.915  0.4405 -0.5069 -0.4035
 3625SOL    HW122511   2.080   4.192  14.824  0.4859 -1.6331 -0.7452
 3625SOL    HW222512   2.151   4.207  14.950  0.4715 -1.8531  1.2027
 3626SOL     OW22513   0.026   3.110  13.855 -0.0594  0.1768  0.4869
 3626SOL    HW122514   0.099   3.121  13.794 -1.0802 -0.2968 -0.8121
 3626SOL    HW222515   0.074   3.125  13.936  1.7316 -0.8183 -0.3761
 3627SOL     OW22516   1.111   0.631   3.628 -0.1970  0.2245 -0.0592
 3627SOL    HW122517   1.064   0.699   3.676  0.4959  0.3908  0.3734
 3627SOL    HW222518   1.034   0.574   3.630 -0.4150  0.5180 -0.1319
 3628SOL     OW22519   3.328   1.575   6.906 -0.2027 -0.1645 -0.0250
 3628SOL    HW122520   3.375   1.656   6.887 -1.8746  0.0483 -3.2962
 3628SOL    HW222521   3.234   1.593   6.902 -0.0801  0.1524 -1.8852
 3629SOL     OW22522   0.466   4.026   5.771 -0.1335  0.4098  0.2143
 3629SOL    HW122523   0.449   4.001   5.861  2.2889  0.1013  0.5860
 3629SOL    HW222524   0.557   4.053   5.780  0.4106 -1.1171 -0.6580
 3630SOL     OW22525   1.213   2.720   5.699 -0.1831 -0.0981 -0.5568
 3630SOL    HW122526   1.119   2.740   5.699 -0.4432 -1.2951 -0.4484
 3630SOL    HW222527   1.218   2.625   5.686 -0.6081  0.0404 -1.7491
 3631SOL     OW22528   3.351   3.223   6.349  0.5162  0.1725 -0.1740
 3631SOL    HW122529   3.355   3.312   6.384  1.3302 -0.0910  0.3969
 3631SOL    HW222530   3.328   3.174   6.427  3.6379 -1.0363  0.0033
 3632SOL     OW22531   0.416   2.456   3.710 -0.5087 -0.3766 -0.2779
 3632SOL    HW122532   0.382   2.477   3.797  1.1956  0.1020  0.2603
 3632SOL    HW222533   0.480   2.526   3.703 -0.7276 -0.2233 -0.7115
 3633SOL     OW22534   2.669   2.857   6.190  0.1388 -0.1655  0.3543
 3633SOL    HW122535   2.692   2.779   6.140  0.5990 -0.5561  1.1722
 3633SOL    HW222536   2.602   2.821   6.248 -0.2801  1.6104  0.9902
 3634SOL     OW22537   2.474   2.977  16.541  0.5113 -0.1658 -0.0675
 3634SOL    HW122538   2.494   2.902  16.486 -0.0916 -0.3630 -0.0188
 3634SOL    HW222539   2.425   3.022  16.472 -0.9351  0.2830  1.2646
 3635SOL     OW22540   4.602   1.700  13.688 -0.0051  0.0236  0.1645
 3635SOL    HW122541   4.598   1.639  13.614 -1.8305 -1.8657  1.7912
 3635SOL    HW222542   4.533   1.761  13.663  1.0278  1.1177  0.0123
 3636SOL     OW22543   3.567   2.649   0.079 -0.1805  0.3244  0.6892
 3636SOL    HW122544   3.561   2.618  17.744 -2.0515 -2.2958  1.6958
 3636SOL    HW222545   3.599   2.737   0.065 -0.6913  0.2354 -1.0268
 3637SOL     OW22546   3.213   3.922   4.434 -0.3648  0.3882  0.0564
 3637SOL    HW122547   3.189   4.014   4.418  0.1750  0.7164  1.1422
 3637SOL    HW222548   3.124   3.887   4.443 -0.2892 -0.0893 -1.1307
 3638SOL     OW22549   2.612   3.826   8.271 -0.8375 -0.7646 -0.2753
 3638SOL    HW122550   2.674   3.757   8.294 -1.3510 -0.3358  2.3807
 3638SOL    HW222551   2.634   3.830   8.178  0.8805 -0.9010  0.1269
 3639SOL     OW22552   4.370   1.577  10.584 -0.2326  0.8283 -0.0969
 3639SOL    HW122553   4.323   1.566  10.666 -0.0497 -1.3311 -0.2584
 3639SOL    HW222554   4.388   1.670  10.596  3.9151 -0.0298  0.6042
 3640SOL     OW22555   0.096   0.008   2.364 -0.2851  0.3351  0.3930
 3640SOL    HW122556   0.024   4.700   2.322 -0.7152  0.5498  0.8831
 3640SOL    HW222557   0.055   0.094   2.373 -0.7631  0.2501 -0.9903
 3641SOL     OW22558   2.222   4.009   0.765 -0.3075  0.2392  0.4309
 3641SOL    HW122559   2.276   4.055   0.830 -0.9832  1.0008  0.4572
 3641SOL    HW222560   2.264   3.924   0.774 -0.2791  0.1895 -0.2307
 3642SOL     OW22561   0.524   2.831   7.541  0.1824 -0.1526 -0.3659
 3642SOL    HW122562   0.582   2.831   7.617 -0.0158 -0.8868 -0.2175
 3642SOL    HW222563   0.469   2.906   7.564 -0.2092 -0.9936  1.4632
 3643SOL     OW22564   2.369   0.943   0.476  0.0109 -0.0150 -0.0407
 3643SOL    HW122565   2.432   0.892   0.426  0.2013 -0.5555  0.7514
 3643SOL    HW222566   2.297   0.944   0.413 -0.8459  2.1508  0.9785
 3644SOL     OW22567   3.405   2.672   2.317 -0.8892 -0.6221 -0.5132
 3644SOL    HW122568   3.414   2.661   2.412  5.5112  0.4227 -0.9815
 3644SOL    HW222569   3.500   2.678   2.304 -1.1382  2.1839 -1.1649
 3645SOL     OW22570   4.373   2.921   6.244 -0.2645 -0.2126  0.6097
 3645SOL    HW122571   4.421   2.992   6.201 -0.8805  0.7877  1.5842
 3645SOL    HW222572   4.362   2.864   6.167  2.7321  1.0154 -0.7671
 3646SOL     OW22573   2.045   4.476   6.979 -0.5880  0.9907  0.5350
 3646SOL    HW122574   2.007   4.501   7.063 -0.0062 -0.9715  1.3856
 3646SOL    HW222575   2.128   4.452   7.021  0.0546 -0.0167 -1.3190
 3647SOL     OW22576   0.047   2.409   3.316  0.4195  0.5943  0.3371
 3647SOL    HW122577   0.130   2.441   3.281 -0.3796  1.1476 -1.0509
 3647SOL    HW222578   0.077   2.409   3.407  0.5332  0.3229  0.3014
 3648SOL     OW22579   4.725   1.265   6.925  0.4875 -0.7189 -0.3446
 3648SOL    HW122580   0.076   1.276   6.893  0.8063 -0.2061  0.7484
 3648SOL    HW222581   4.715   1.346   6.974  0.5436 -0.2150 -1.1574
 3649SOL     OW22582   4.234   4.310  11.197  0.5309 -0.4991  0.5244
 3649SOL    HW122583   4.303   4.301  11.263  0.2810  1.5367  1.0656
 3649SOL    HW222584   4.252   4.239  11.135  0.3691  1.2362 -1.5047
 3650SOL     OW22585   2.884   0.092   7.139  0.1484 -0.2025  0.2022
 3650SOL    HW122586   2.932   0.170   7.167 -0.3290  0.7062 -1.5242
 3650SOL    HW222587   2.905   0.034   7.212  2.5524 -0.4496 -0.6545
 3651SOL     OW22588   1.855   4.735  12.307  0.4574 -0.3813 -0.7703
 3651SOL    HW122589   1.934   0.041  12.277  0.9272 -0.2091  0.7365
 3651SOL    HW222590   1.831   4.669  12.243 -2.6248 -0.6075  0.6330
 3652SOL     OW22591   1.541   2.432  12.266  0.2911  0.6473 -0.1982
 3652SOL    HW122592   1.516   2.342  12.289  0.9222 -0.3393 -3.3476
 3652SOL    HW222593   1.636   2.431  12.283 -0.2580  1.4190  2.8180
 3653SOL     OW22594   4.559   0.322   6.222  0.2738  0.1639 -0.4304
 3653SOL    HW122595   4.607   0.400   6.195  1.2207 -0.3624 -0.2590
 3653SOL    HW222596   4.560   0.331   6.318 -1.0374  0.6555 -0.4608
 3654SOL     OW22597   0.955   1.744   2.123  0.3981  0.3505 -0.0493
 3654SOL    HW122598   1.023   1.759   2.057 -0.5553  0.5065 -0.9888
 3654SOL    HW222599   0.890   1.695   2.072  0.9444 -0.8432  0.3985
 3655SOL     OW22600   3.410   2.078   7.383 -0.2059 -0.3090 -0.0533
 3655SOL    HW122601   3.505   2.069   7.386  0.2032  3.7201 -1.2682
 3655SOL    HW222602   3.397   2.156   7.330  0.3691 -1.1985 -1.4973
 3656SOL     OW22603   3.386   3.532   4.203  0.1714 -0.2764 -0.4933
 3656SOL    HW122604   3.421   3.596   4.265 -0.8996  0.7841 -0.9895
 3656SOL    HW222605   3.407   3.450   4.249 -2.3611  1.1231  3.2169
 3657SOL     OW22606   3.612   1.965   5.767 -0.0466  0.3060 -0.0231
 3657SOL    HW122607   3.517   1.957   5.772 -0.1735  0.6007 -1.8927
 3657SOL    HW222608   3.617   2.043   5.823  0.1512  1.5854 -1.8148
 3658SOL     OW22609   3.931   1.627   7.734 -0.0339  0.0416 -0.9416
 3658SOL    HW122610   3.923   1.686   7.809  1.5818 -2.2913  1.0736
 3658SOL    HW222611   4.009   1.582   7.764  0.2794  1.7731  0.8483
 3659SOL     OW22612   1.148   2.972   2.244 -0.1536  0.2412 -0.5727
 3659SOL    HW122613   1.083   3.037   2.271  1.1340  2.0174 -1.6788
 3659SOL    HW222614   1.226   3.024   2.264 -0.1543  0.4128 -1.0185
 3660SOL     OW22615   0.104   1.642   4.897 -0.4594 -0.2823 -0.2775
 3660SOL    HW122616   0.032   1.620   4.956  0.9208 -0.8231  1.2117
 3660SOL    HW222617   0.109   1.568   4.835  0.9331 -0.9977  0.6874
 3661SOL     OW22618   2.288   1.779   6.488 -0.6938 -0.6047  0.7973
 3661SOL    HW122619   2.384   1.782   6.498 -0.7714  3.0212  0.5974
 3661SOL    HW222620   2.267   1.706   6.429  1.7437  1.3542 -2.5713
 3662SOL     OW22621   4.655   3.555  17.048  0.3122  0.5300  0.7075
 3662SOL    HW122622   4.709   3.634  17.042  3.2289 -1.4310  1.1228
 3662SOL    HW222623   4.571   3.597  17.063  0.1738  1.3919 -2.5971
 3663SOL     OW22624   1.341   0.343   6.129 -0.7996  0.1181 -0.4534
 3663SOL    HW122625   1.268   0.367   6.186 -0.6049  0.6442 -0.4182
 3663SOL    HW222626   1.352   0.254   6.163  0.0768  2.0917  4.4851
 3664SOL     OW22627   0.488   2.688  14.965 -0.1783 -0.0882  0.2200
 3664SOL    HW122628   0.474   2.594  14.956 -3.6762  0.6796 -2.4678
 3664SOL    HW222629   0.415   2.727  14.918 -0.0284 -1.5189 -1.1880
 3665SOL     OW22630   3.037   1.788  10.573  0.5464 -0.1015 -0.0223
 3665SOL    HW122631   2.981   1.775  10.649  0.2120 -0.5071 -0.3359
 3665SOL    HW222632   3.053   1.882  10.577  1.0591 -0.1835 -0.1208
 3666SOL     OW22633   2.012   1.968   8.869 -0.4754  0.4644 -0.2156
 3666SOL    HW122634   2.072   1.986   8.941 -1.4650 -1.7792  1.1498
 3666SOL    HW222635   2.065   1.958   8.790  0.0926  1.8625 -0.0171
 3667SOL     OW22636   3.925   0.527   7.189  0.2607 -0.3019 -0.0486
 3667SOL    HW122637   4.015   0.558   7.180  0.3397 -0.5985 -0.2976
 3667SOL    HW222638   3.932   0.545   7.283  2.1833 -1.5757  0.0627
 3668SOL     OW22639   3.976   0.651   9.178  1.2512 -0.0218  0.2040
 3668SOL    HW122640   4.061   0.650   9.222  1.4863  1.3151 -0.2214
 3668SOL    HW222641   3.965   0.564   9.141  0.1464 -0.4092  1.4170
 3669SOL     OW22642   3.069   3.038   4.346 -0.3128  0.1022 -0.0437
 3669SOL    HW122643   3.025   3.121   4.324 -0.4600  0.7393  2.6695
 3669SOL    HW222644   3.127   3.070   4.414 -0.8601 -2.8582  1.8038
 3670SOL     OW22645   2.046   4.536  14.243  0.3445  0.2712 -0.4381
 3670SOL    HW122646   2.051   4.464  14.306 -1.0452  0.1886 -0.4286
 3670SOL    HW222647   1.959   4.569  14.266 -1.4338 -2.8279 -2.7878
 3671SOL     OW22648   3.765   3.938   4.146 -0.1015 -0.0457 -0.6258
 3671SOL    HW122649   3.755   3.868   4.210  1.4214  1.2120  0.9747
 3671SOL    HW222650   3.715   4.009   4.187  1.3704  0.2001  0.7103
 3672SOL     OW22651   0.988   0.671   6.735  0.0993 -0.3622 -0.4067
 3672SOL    HW122652   0.904   0.655   6.777 -0.6038 -1.9816 -2.4021
 3672SOL    HW222653   1.037   0.593   6.760  0.0788  0.1416  1.1676
 3673SOL     OW22654   2.956   4.033   6.947  0.7167  0.6387 -0.0923
 3673SOL    HW122655   3.033   3.977   6.943  0.7214  0.7550 -1.7952
 3673SOL    HW222656   2.991   4.109   6.900 -1.7061  1.5127 -0.4758
 3674SOL     OW22657   1.693   3.858  11.868 -0.2907 -0.0145  0.1319
 3674SOL    HW122658   1.763   3.802  11.902  0.5042  0.3033 -0.9804
 3674SOL    HW222659   1.703   3.858  11.773 -0.5886 -0.3832  0.0986
 3675SOL     OW22660   0.067   2.673   5.306  0.2766  0.0936 -0.3092
 3675SOL    HW122661   0.017   2.737   5.255 -0.5376 -1.1429 -1.0509
 3675SOL    HW222662   0.025   2.693   5.390  0.4781 -0.6616 -0.0288
 3676SOL     OW22663   3.060   2.668   8.131 -0.0879  0.0578 -0.3204
 3676SOL    HW122664   2.971   2.647   8.158  0.4595 -3.1803 -1.0581
 3676SOL    HW222665   3.056   2.677   8.036 -0.0422  1.1903 -0.2110
 3677SOL     OW22666   3.321   3.142   1.619  0.3816  0.0617 -0.6010
 3677SOL    HW122667   3.239   3.102   1.646  1.5989 -1.9771  0.0312
 3677SOL    HW222668   3.287   3.216   1.568 -1.2675 -0.1591  0.1885
 3678SOL     OW22669   0.470   1.539   4.289 -0.3233 -0.3857 -0.2941
 3678SOL    HW122670   0.483   1.519   4.382  2.8057 -1.3931 -0.9427
 3678SOL    HW222671   0.551   1.587   4.272 -0.4880 -0.4793 -1.3253
 3679SOL     OW22672   2.025   4.333  14.411 -0.2928 -0.0583 -0.1881
 3679SOL    HW122673   2.056   4.328  14.502  0.0491  0.8099 -0.2578
 3679SOL    HW222674   1.965   4.258  14.420 -1.7985  1.0909 -0.7026
 3680SOL     OW22675   4.697   0.649  16.458  0.4785  0.0592 -0.3953
 3680SOL    HW122676   4.727   0.629  16.547  1.3586  2.6586 -0.1010
 3680SOL    HW222677   4.624   0.588  16.468  1.0763 -0.3584  1.4410
 3681SOL     OW22678   3.275   4.018   4.908 -0.2361 -0.1551  0.1102
 3681SOL    HW122679   3.312   4.076   4.975 -0.6877 -0.2893  0.4802
 3681SOL    HW222680   3.233   4.089   4.859  1.0411 -0.0405 -0.8135
 3682SOL     OW22681   2.297   0.357   7.012 -0.2405  0.2337  0.6267
 3682SOL    HW122682   2.265   0.268   7.028 -0.2040  0.1196  0.0509
 3682SOL    HW222683   2.361   0.346   6.943  0.1534  0.3050  0.9787
 3683SOL     OW22684   0.797   1.579   1.983  0.2304 -0.3676  0.9213
 3683SOL    HW122685   0.834   1.493   1.963  1.0816  0.0200  0.8205
 3683SOL    HW222686   0.714   1.547   2.018 -0.6347  0.1506 -0.6724
 3684SOL     OW22687   4.500   2.321   9.443  0.0026  0.6473 -0.2506
 3684SOL    HW122688   4.555   2.253   9.481 -1.8768  0.1204  1.5210
 3684SOL    HW222689   4.420   2.269   9.430  2.5564 -3.2398 -0.2911
 3685SOL     OW22690   2.469   1.923   6.211  0.6595 -0.2930  0.2865
 3685SOL    HW122691   2.394   1.886   6.165 -0.6168  0.9056  1.4109
 3685SOL    HW222692   2.538   1.915   6.145  1.2356  1.8353  0.6344
 3686SOL     OW22693   3.602   4.563   3.775  0.1421  0.0022 -0.0731
 3686SOL    HW122694   3.656   4.512   3.714 -0.1528 -0.0728 -0.2709
 3686SOL    HW222695   3.644   4.649   3.768 -0.4831  0.4827  1.9577
 3687SOL     OW22696   0.667   1.572  10.758 -0.1155  0.5360 -0.3383
 3687SOL    HW122697   0.625   1.542  10.677  1.7006 -1.1948 -0.6272
 3687SOL    HW222698   0.735   1.631  10.725  0.5975 -0.1453 -0.0781
 3688SOL     OW22699   1.302   4.531   1.764 -0.0706  0.0396 -0.5372
 3688SOL    HW122700   1.344   4.617   1.755  1.6684 -0.4266  2.8621
 3688SOL    HW222701   1.259   4.522   1.679 -1.1837 -1.2885  0.1777
 3689SOL     OW22702   1.998   4.499   3.421  0.1804 -0.1114  0.5873
 3689SOL    HW122703   1.922   4.455   3.384  0.2394  0.7360 -0.5548
 3689SOL    HW222704   1.965   4.558   3.489 -1.9474 -2.2648  1.3855
 3690SOL     OW22705   0.211   2.280   4.042  0.0820 -0.3938 -0.0975
 3690SOL    HW122706   0.262   2.345   3.995 -0.1103  1.1254  1.8023
 3690SOL    HW222707   0.244   2.280   4.132  0.9205  0.1748 -0.4107
 3691SOL     OW22708   4.688   4.204  13.570  0.5830 -0.0557 -0.0968
 3691SOL    HW122709   4.702   4.298  13.560 -1.8080  0.1691 -1.4300
 3691SOL    HW222710   4.594   4.203  13.588 -0.1240  2.2138 -3.6662
 3692SOL     OW22711   3.463   0.024   8.760 -0.0569  0.6679 -0.1549
 3692SOL    HW122712   3.494   0.096   8.815  0.2532 -0.2521  0.8700
 3692SOL    HW222713   3.429   4.703   8.826  1.9292  0.1854  0.4248
 3693SOL     OW22714   0.429   2.026   1.421 -0.0724 -0.2889 -0.2869
 3693SOL    HW122715   0.475   2.046   1.502 -1.0405 -1.4014  0.5276
 3693SOL    HW222716   0.344   2.069   1.434  0.3542  0.9168 -1.5322
 3694SOL     OW22717   4.549   3.872   2.492 -0.2177 -0.4072  0.6833
 3694SOL    HW122718   4.579   3.790   2.531 -1.1601 -1.2410 -0.3620
 3694SOL    HW222719   4.455   3.876   2.506 -0.3087  0.1466 -0.0588
 3695SOL     OW22720   1.237   4.605   4.900 -0.6539  0.1982 -0.3619
 3695SOL    HW122721   1.229   4.523   4.851 -0.3876 -0.9453  1.4939
 3695SOL    HW222722   1.307   4.639   4.845  0.1754 -1.9562 -0.6392
 3696SOL     OW22723   4.400   0.852  13.578 -0.2858 -0.3090  1.1450
 3696SOL    HW122724   4.319   0.840  13.528 -0.6374 -1.5864  2.0370
 3696SOL    HW222725   4.387   0.947  13.584 -2.7385 -0.4903 -0.9712
 3697SOL     OW22726   2.852   4.470   5.258  0.6182  0.0832  0.1654
 3697SOL    HW122727   2.857   4.461   5.162  0.9374 -1.5466  0.3317
 3697SOL    HW222728   2.946   4.460   5.267  0.3613 -2.3637  0.1309
 3698SOL     OW22729   4.478   2.473   5.774  0.0561  0.0499 -0.1264
 3698SOL    HW122730   4.383   2.483   5.776 -0.1429 -1.9870  0.4080
 3698SOL    HW222731   4.497   2.485   5.681  1.5649  1.2294  0.3341
 3699SOL     OW22732   0.282   4.273   5.784 -0.5572 -0.6820  0.0192
 3699SOL    HW122733   0.349   4.206   5.770  0.4933  0.4857 -0.4653
 3699SOL    HW222734   0.228   4.257   5.706 -1.8545  1.4143  0.4929
 3700SOL     OW22735   2.060   1.462  13.939  0.2921 -0.3706  0.3965
 3700SOL    HW122736   1.992   1.395  13.934 -0.0304 -0.1738  2.0620
 3700SOL    HW222737   2.051   1.502  14.026 -1.5323 -1.6491  0.8034
 3701SOL     OW22738   0.859   3.978   7.429 -0.6450 -0.2728 -0.2728
 3701SOL    HW122739   0.764   3.970   7.431 -0.2325 -4.7937  1.1402
 3701SOL    HW222740   0.884   3.949   7.341 -1.3391 -0.0496 -0.5435
 3702SOL     OW22741   1.396   2.804   6.756  0.2857 -0.3673  0.2344
 3702SOL    HW122742   1.355   2.724   6.723 -0.0376 -0.3784  0.6659
 3702SOL    HW222743   1.479   2.760   6.776  1.2326  1.5699  0.5074
 3703SOL     OW22744   4.333   4.687   5.994  0.1008  0.2976  0.5780
 3703SOL    HW122745   4.356   0.038   5.973 -0.5603  0.6130  1.2185
 3703SOL    HW222746   4.422   4.653   5.984 -1.1080 -2.6671  0.0209
 3704SOL     OW22747   0.446   3.518   3.849  0.0957  0.7067 -0.7296
 3704SOL    HW122748   0.452   3.483   3.938 -2.6764 -0.3065 -0.9419
 3704SOL    HW222749   0.536   3.543   3.827  0.0402  1.4085 -0.1627
 3705SOL     OW22750   2.755   4.112   4.300  0.0453  0.5457  0.4962
 3705SOL    HW122751   2.791   4.184   4.352 -1.2761  1.7843 -0.2744
 3705SOL    HW222752   2.835   4.061   4.296 -1.7890 -2.2067 -0.9503
 3706SOL     OW22753   3.931   4.730   7.443 -0.1203 -0.0255  0.3226
 3706SOL    HW122754   3.990   4.666   7.402 -1.6613 -1.0373 -0.2942
 3706SOL    HW222755   3.917   4.700   7.533  1.6865  0.8977  0.9143
 3707SOL     OW22756   1.777   0.121   4.597 -0.0287  0.1273  0.4685
 3707SOL    HW122757   1.827   0.055   4.645  1.5025  0.6845 -0.3394
 3707SOL    HW222758   1.788   0.092   4.507 -0.4988  0.2442  0.3741
 3708SOL     OW22759   3.347   2.397   0.676 -0.2511 -0.6819  0.0477
 3708SOL    HW122760   3.276   2.457   0.698  0.7450  1.0459 -1.4422
 3708SOL    HW222761   3.403   2.442   0.613 -1.2046 -0.7759 -0.8581
 3709SOL     OW22762   2.170   4.487   5.041  0.0617 -0.3577 -0.3231
 3709SOL    HW122763   2.204   4.540   5.114  2.2878 -2.2829  0.0028
 3709SOL    HW222764   2.216   4.405   5.055 -0.0522 -0.3676  0.0007
 3710SOL     OW22765   2.492   2.118   3.156 -0.0075  0.2325 -0.2141
 3710SOL    HW122766   2.430   2.146   3.223  0.8248  1.1025  0.2090
 3710SOL    HW222767   2.527   2.195   3.111  1.6081 -0.5569 -0.3051
 3711SOL     OW22768   2.313   0.040   1.353 -0.6801  0.1115 -0.2700
 3711SOL    HW122769   2.363   0.091   1.417 -1.5580  2.2013 -1.2388
 3711SOL    HW222770   2.248   0.102   1.320 -0.4467  0.4501 -0.0967
 3712SOL     OW22771   1.488   3.151   8.127  0.3605 -0.1189 -0.1265
 3712SOL    HW122772   1.534   3.205   8.192 -2.6907  1.9323  0.2730
 3712SOL    HW222773   1.445   3.214   8.071  0.0313 -0.1260  0.1177
 3713SOL     OW22774   4.499   2.771  15.734 -0.6056  0.2069 -0.5549
 3713SOL    HW122775   4.433   2.830  15.768 -0.2885  0.3075 -0.1189
 3713SOL    HW222776   4.533   2.737  15.817 -0.6703  3.5238  0.8089
 3714SOL     OW22777   2.338   2.841   7.770 -0.0741  0.4993 -0.0012
 3714SOL    HW122778   2.376   2.905   7.709  0.5623  1.2132  1.1375
 3714SOL    HW222779   2.272   2.904   7.798 -2.0179 -1.3499 -0.4233
 3715SOL     OW22780   2.342   0.495   8.342  0.2733 -0.1321 -0.4138
 3715SOL    HW122781   2.353   0.433   8.414  1.4987  1.7028  0.9649
 3715SOL    HW222782   2.373   0.579   8.374  1.1278 -0.6277  0.0508
 3716SOL     OW22783   3.699   4.268   2.651  0.2902  0.7309  0.4910
 3716SOL    HW122784   3.693   4.206   2.723  0.8566 -2.9339 -2.6337
 3716SOL    HW222785   3.655   4.347   2.684 -0.6452  0.4859 -0.1786
 3717SOL     OW22786   3.462   3.541   2.681 -0.2603  0.3356  0.0366
 3717SOL    HW122787   3.383   3.565   2.729  0.3117  2.0624  0.1136
 3717SOL    HW222788   3.429   3.508   2.597 -0.4430  0.2969  0.1239
 3718SOL     OW22789   4.622   0.770   5.477  0.0755 -0.2900  0.0392
 3718SOL    HW122790   4.531   0.795   5.495  0.0520 -0.5177  0.2414
 3718SOL    HW222791   4.619   0.674   5.473  1.1454 -0.2253 -2.4400
 3719SOL     OW22792   1.089   2.041   7.399  0.1841  0.5745  0.6751
 3719SOL    HW122793   0.997   2.037   7.426  0.3437  2.2303  1.4818
 3719SOL    HW222794   1.110   1.951   7.375  0.0506  0.7142  0.0054
 3720SOL     OW22795   1.276   1.515   3.041  0.7271  0.1349  0.0651
 3720SOL    HW122796   1.301   1.462   2.965 -1.8983 -0.1375 -0.6183
 3720SOL    HW222797   1.344   1.583   3.042  2.1621 -1.3281  0.8692
 3721SOL     OW22798   1.433   0.176   3.304  0.6687 -0.2101  0.6616
 3721SOL    HW122799   1.408   0.087   3.279 -3.0424  1.2666 -0.9543
 3721SOL    HW222800   1.367   0.230   3.262  2.3303 -0.6066 -2.4460
 3722SOL     OW22801   4.291   4.650   6.497  0.2871 -0.3445  0.4765
 3722SOL    HW122802   4.263   4.724   6.445 -2.0933 -0.5094  1.5215
 3722SOL    HW222803   4.211   4.598   6.493  1.0447 -1.5806  1.1991
 3723SOL     OW22804   1.388   4.469   4.186  0.1547  0.3286 -0.1589
 3723SOL    HW122805   1.316   4.529   4.166 -0.2405 -0.2208 -0.3781
 3723SOL    HW222806   1.464   4.519   4.155  0.2980 -0.6639 -1.4168
 3724SOL     OW22807   2.680   4.539   1.093  0.0733 -0.3325 -0.1149
 3724SOL    HW122808   2.629   4.546   1.173 -0.9430  0.6814 -0.8616
 3724SOL    HW222809   2.672   4.621   1.045  0.0143 -0.2850 -0.0236
 3725SOL     OW22810   3.577   1.971  15.344  0.3093 -0.0325 -0.4529
 3725SOL    HW122811   3.530   1.906  15.291  0.8208  0.1787 -1.1736
 3725SOL    HW222812   3.582   1.925  15.428  0.7091 -1.8879 -1.4821
 3726SOL     OW22813   1.040   1.191   8.741  0.2923  0.5497  0.4118
 3726SOL    HW122814   1.025   1.213   8.833  0.2244  1.2264  0.2422
 3726SOL    HW222815   0.952   1.170   8.710  0.1980  0.4148  0.7676
 3727SOL     OW22816   1.265   0.327   0.247  1.0809  0.5077  0.0305
 3727SOL    HW122817   1.277   0.346   0.340  0.3391 -1.6495  0.5548
 3727SOL    HW222818   1.330   0.257   0.239  0.2948 -0.4295  2.0825
 3728SOL     OW22819   0.421   1.066   7.661  0.0634 -0.1001 -0.0058
 3728SOL    HW122820   0.436   1.096   7.750  1.2476  0.4954 -0.3994
 3728SOL    HW222821   0.400   1.146   7.613 -1.4471  0.7037  2.0019
 3729SOL     OW22822   4.177   3.195  12.428  0.2178  0.4454  0.2702
 3729SOL    HW122823   4.228   3.114  12.436  1.9063  1.3309 -1.6584
 3729SOL    HW222824   4.223   3.244  12.360  1.3610 -2.7161 -1.2731
 3730SOL     OW22825   3.697   0.115  17.226  0.1787  0.0822  0.0443
 3730SOL    HW122826   3.688   0.028  17.189  1.3549 -0.4965  1.1211
 3730SOL    HW222827   3.674   0.094  17.317 -2.3638  0.3387 -0.5279
 3731SOL     OW22828   2.832   1.979  14.906  0.4943  0.0761 -0.0480
 3731SOL    HW122829   2.902   1.981  14.841  0.5710 -1.7188 -0.0281
 3731SOL    HW222830   2.779   2.056  14.887  0.6366  0.0338 -0.6170
 3732SOL     OW22831   3.438   3.321   9.633  0.2766  0.2502 -0.5430
 3732SOL    HW122832   3.422   3.405   9.590  0.2381  0.6336  0.2130
 3732SOL    HW222833   3.348   3.290   9.641  0.6337  0.1610  2.9336
 3733SOL     OW22834   2.201   0.580   6.781 -0.4380  0.1056 -0.0848
 3733SOL    HW122835   2.151   0.550   6.705  1.5447 -0.7670 -1.0576
 3733SOL    HW222836   2.162   0.517   6.843  2.2427 -0.4406  1.0382
 3734SOL     OW22837   2.360   1.647  17.541 -0.0540  0.1381 -0.2007
 3734SOL    HW122838   2.410   1.569  17.565  2.1914  1.2073 -1.5063
 3734SOL    HW222839   2.331   1.671  17.629  2.5650  2.8936 -0.1064
 3735SOL     OW22840   3.228   2.294   3.208  0.1036  0.3839 -0.1978
 3735SOL    HW122841   3.297   2.342   3.162  0.3702  2.8926  2.8521
 3735SOL    HW222842   3.161   2.356   3.237  0.2485  0.2712  0.3824
 3736SOL     OW22843   0.466   0.163   8.358 -0.6762  0.4982  0.4273
 3736SOL    HW122844   0.528   0.095   8.383  0.9080  1.8046  0.0638
 3736SOL    HW222845   0.387   0.139   8.406 -0.5144 -1.9148 -0.5429
 3737SOL     OW22846   0.566   2.278   6.767 -0.2992  0.1872 -0.3944
 3737SOL    HW122847   0.528   2.330   6.696  0.1797  1.4921  0.3046
 3737SOL    HW222848   0.659   2.296   6.749 -0.2445  1.1755  0.8714
 3738SOL     OW22849   2.551   1.669   1.679 -0.6008  0.1216 -0.2992
 3738SOL    HW122850   2.638   1.635   1.658  0.2898  2.6422 -0.6620
 3738SOL    HW222851   2.497   1.598   1.644 -1.5951  1.0195 -0.5922
 3739SOL     OW22852   2.660   1.386  15.616  0.0420  0.1391  0.2780
 3739SOL    HW122853   2.661   1.298  15.580  3.0097  0.8890 -1.4863
 3739SOL    HW222854   2.747   1.392  15.655 -0.5867  1.3190  1.5023
 3740SOL     OW22855   3.977   4.197   7.572 -0.2318  0.3605 -0.4858
 3740SOL    HW122856   3.955   4.273   7.518 -1.4522  0.6215  0.3894
 3740SOL    HW222857   3.961   4.129   7.507 -0.5220  0.4378 -0.4935
 3741SOL     OW22858   4.338   2.122   2.271 -0.0494  0.2017  0.5567
 3741SOL    HW122859   4.289   2.084   2.198 -3.7438  1.1693  2.5368
 3741SOL    HW222860   4.420   2.145   2.227  0.6766 -1.1137  1.1958
 3742SOL     OW22861   4.111   4.039   8.473  0.0752  0.0497 -0.2174
 3742SOL    HW122862   4.074   4.046   8.385  1.5570 -2.5260 -1.0291
 3742SOL    HW222863   4.117   4.133   8.488 -1.2485 -0.0717  0.9556
 3743SOL     OW22864   4.645   3.925   5.623  0.8568  0.3092  0.2370
 3743SOL    HW122865   4.706   3.945   5.694  1.4718  0.9313 -0.4740
 3743SOL    HW222866   4.641   4.005   5.571 -0.7146 -0.5981 -1.0336
 3744SOL     OW22867   0.145   1.116  11.172  0.3169  0.1515 -0.5934
 3744SOL    HW122868   0.113   1.156  11.091  2.4095  1.3672 -0.8298
 3744SOL    HW222869   0.236   1.144  11.177 -0.0350  1.5017 -1.9093
 3745SOL     OW22870   2.118   3.173   3.456 -0.6166  0.0861  0.2270
 3745SOL    HW122871   2.131   3.163   3.362 -0.8906  0.4701  0.1505
 3745SOL    HW222872   2.028   3.142   3.465 -1.6784  3.0635 -0.3612
 3746SOL     OW22873   2.450   2.374   7.724  0.2887 -0.3457  0.4057
 3746SOL    HW122874   2.477   2.411   7.640 -2.9253 -0.5367 -0.7019
 3746SOL    HW222875   2.390   2.438   7.764  0.3910 -0.2132  0.3491
 3747SOL     OW22876   1.131   0.127   9.353 -0.5874 -0.1308  0.4285
 3747SOL    HW122877   1.194   0.110   9.284 -0.9488  2.0305 -0.4285
 3747SOL    HW222878   1.072   0.051   9.344  0.5265 -0.6662 -2.2468
 3748SOL     OW22879   3.628   4.190  10.392  0.3479 -0.2449 -0.1260
 3748SOL    HW122880   3.540   4.207  10.359  0.0911 -0.0561  0.6568
 3748SOL    HW222881   3.650   4.278  10.422 -0.9765 -0.1670  0.6289
 3749SOL     OW22882   2.131   3.576   4.858  0.3562 -0.2498  0.0905
 3749SOL    HW122883   2.151   3.644   4.794 -1.3024 -1.1919 -1.4461
 3749SOL    HW222884   2.181   3.500   4.825 -0.3838 -0.5702 -0.2895
 3750SOL     OW22885   4.593   0.639  12.107  0.2029 -0.0376 -0.0777
 3750SOL    HW122886   4.609   0.549  12.137  1.0030  0.0167 -0.3504
 3750SOL    HW222887   4.548   0.667  12.187  0.0747  0.9111 -0.4880
 3751SOL     OW22888   2.710   1.996   8.350 -0.2920  0.7675 -0.9696
 3751SOL    HW122889   2.751   2.077   8.319  4.1431 -1.9814 -2.2578
 3751SOL    HW222890   2.702   1.941   8.272  2.1831  1.6342 -1.8221
 3752SOL     OW22891   4.100   1.456   5.610  0.4970 -0.0049  0.1344
 3752SOL    HW122892   4.153   1.378   5.593  1.6022  1.3879 -2.7669
 3752SOL    HW222893   4.026   1.415   5.655 -0.8722  0.5557 -1.5823
 3753SOL     OW22894   2.489   3.721  14.489 -0.2384  0.1211 -0.3283
 3753SOL    HW122895   2.551   3.698  14.419  0.0092  1.2759 -0.4770
 3753SOL    HW222896   2.490   3.641  14.542  3.0033  2.3394  3.0113
 3754SOL     OW22897   3.470   4.167   4.574  0.2243  0.7962 -0.8731
 3754SOL    HW122898   3.443   4.206   4.657 -0.5529  1.3128 -1.3749
 3754SOL    HW222899   3.444   4.076   4.589  1.3459  0.7019  0.5017
 3755SOL     OW22900   4.406   0.878   5.112  0.1586 -0.0744  0.4105
 3755SOL    HW122901   4.427   0.786   5.126  1.9988  0.0534 -1.4349
 3755SOL    HW222902   4.312   0.859   5.111  0.2683 -0.6096  0.6390
 3756SOL     OW22903   2.918   2.086   4.995  0.1518 -0.7006  0.3428
 3756SOL    HW122904   2.823   2.090   5.007  0.2640 -2.8929  1.9510
 3756SOL    HW222905   2.937   2.045   5.080 -1.7951 -1.7836  0.2493
 3757SOL     OW22906   1.178   2.520   9.749  0.2249 -0.6122  0.6095
 3757SOL    HW122907   1.273   2.517   9.763  0.5504 -0.2458 -1.4229
 3757SOL    HW222908   1.174   2.610   9.719  0.7108 -0.9324 -0.4485
 3758SOL     OW22909   3.551   4.203  12.701  0.3672 -0.3902  0.0344
 3758SOL    HW122910   3.604   4.139  12.750 -1.0215 -0.3017  1.6551
 3758SOL    HW222911   3.466   4.161  12.708 -0.3165  0.7828 -1.2127
 3759SOL     OW22912   0.928   1.965   2.282 -0.7431 -0.2107 -0.4457
 3759SOL    HW122913   0.933   1.889   2.225 -0.9941  0.2545 -1.0923
 3759SOL    HW222914   0.898   2.027   2.215 -0.4604  0.2103 -0.1815
 3760SOL     OW22915   3.501   3.375   9.948 -0.3719  0.0507  0.3158
 3760SOL    HW122916   3.481   3.317   9.875 -1.0604 -2.0523  2.1656
 3760SOL    HW222917   3.458   3.455   9.919 -0.7364 -0.3640 -0.2844
 3761SOL     OW22918   4.062   3.545   9.853  0.1911 -0.6632 -0.2356
 3761SOL    HW122919   4.141   3.561   9.905 -0.5202 -1.8922  1.2454
 3761SOL    HW222920   4.005   3.615   9.884  1.1712 -0.5339  1.2734
 3762SOL     OW22921   4.207   1.494   8.919  0.8757  0.2863 -0.0626
 3762SOL    HW122922   4.296   1.459   8.913  0.4927 -0.5212 -1.0910
 3762SOL    HW222923   4.170   1.454   8.998  2.3413  1.4234  1.2189
 3763SOL     OW22924   1.059   3.791   1.994  0.8577  0.3710  0.1010
 3763SOL    HW122925   1.076   3.815   1.903 -0.2182  4.4676  1.0085
 3763SOL    HW222926   0.969   3.822   2.005  0.3066 -1.7154  1.5943
 3764SOL     OW22927   1.713   4.066   3.482 -0.3920  0.1259 -0.5647
 3764SOL    HW122928   1.804   4.085   3.503 -1.1672  0.8397  2.1580
 3764SOL    HW222929   1.700   3.974   3.505 -1.4002  1.2228  3.2307
 3765SOL     OW22930   0.836   2.389   7.938 -0.1697  0.4118 -0.3567
 3765SOL    HW122931   0.870   2.302   7.915  1.4086  0.3140  2.3999
 3765SOL    HW222932   0.744   2.362   7.941 -0.3266  0.7810 -1.6526
 3766SOL     OW22933   0.301   3.982  13.248  0.1126 -0.1968 -0.1281
 3766SOL    HW122934   0.225   3.992  13.305  0.1339 -1.2705  0.0710
 3766SOL    HW222935   0.304   3.887  13.254  0.2245 -0.0242  2.3942
 3767SOL     OW22936   1.634   2.233   8.369  0.5421 -0.1954 -0.3066
 3767SOL    HW122937   1.707   2.295   8.370 -0.0426  0.4302  2.2889
 3767SOL    HW222938   1.565   2.297   8.384 -0.6783 -0.9674 -2.6512
 3768SOL     OW22939   1.636   3.926   5.883 -0.6210  0.6563 -0.5528
 3768SOL    HW122940   1.699   3.934   5.955  0.4843 -0.3747 -1.3797
 3768SOL    HW222941   1.592   4.010   5.873  0.2976  1.0949 -0.9206
 3769SOL     OW22942   1.705   2.255   4.294  0.1512  0.1396  0.2896
 3769SOL    HW122943   1.686   2.349   4.290  2.1569  0.5132 -0.3683
 3769SOL    HW222944   1.615   2.221   4.297 -0.3056  1.3053 -0.2980
 3770SOL     OW22945   1.846   3.589   2.225 -0.3280  0.4795  0.5796
 3770SOL    HW122946   1.892   3.611   2.306  1.1418 -1.5769  0.3014
 3770SOL    HW222947   1.894   3.642   2.160  1.2764  0.9520  2.1388
 3771SOL     OW22948   4.275   0.937   8.373  0.0878  0.3220  0.0463
 3771SOL    HW122949   4.191   0.972   8.403 -0.3232 -0.3360 -0.3400
 3771SOL    HW222950   4.240   0.885   8.300 -0.4288  1.1007 -0.2614
 3772SOL     OW22951   1.288   2.600   7.457 -0.0209  0.0497  0.1418
 3772SOL    HW122952   1.357   2.653   7.497  0.3587 -1.0713  0.9958
 3772SOL    HW222953   1.227   2.580   7.529 -1.0810 -2.4125 -1.4476
 3773SOL     OW22954   0.828   0.345   5.879 -0.7067  0.1270 -0.0150
 3773SOL    HW122955   0.852   0.357   5.787 -1.5717 -1.8397 -0.4958
 3773SOL    HW222956   0.754   0.405   5.888 -0.0862  0.8892  0.0406
 3774SOL     OW22957   0.938   3.401   4.128  0.2821 -0.6479 -0.6053
 3774SOL    HW122958   1.010   3.446   4.084 -0.7066 -0.5932 -2.1947
 3774SOL    HW222959   0.866   3.461   4.109  1.2902  0.5334 -0.6677
 3775SOL     OW22960   3.393   4.311   3.096 -0.1514  0.2560  0.0862
 3775SOL    HW122961   3.358   4.295   3.009  0.4400  1.7569 -0.4416
 3775SOL    HW222962   3.484   4.334   3.075 -0.0088  0.4360  0.9080
 3776SOL     OW22963   4.356   1.972  15.230  1.1478  0.4696 -0.4811
 3776SOL    HW122964   4.336   1.879  15.230  0.7818  0.5506 -0.3015
 3776SOL    HW222965   4.436   1.979  15.178  2.4947  0.9239  1.6382
 3777SOL     OW22966   4.426   3.437   5.549 -0.0649  0.3568 -0.2684
 3777SOL    HW122967   4.394   3.431   5.639 -0.8917  0.5088 -0.5572
 3777SOL    HW222968   4.484   3.360   5.549 -0.5564 -0.0177  2.5256
 3778SOL     OW22969   2.100   1.396  16.430  0.1091 -0.6368 -0.0669
 3778SOL    HW122970   2.190   1.427  16.443 -0.0565  1.2488 -3.4736
 3778SOL    HW222971   2.071   1.350  16.508  2.3424  0.2094  1.2719
 3779SOL     OW22972   0.317   3.371   0.001  0.4608 -0.3785 -0.4096
 3779SOL    HW122973   0.236   3.344  17.713 -0.1004  0.0789  0.3433
 3779SOL    HW222974   0.368   3.405  17.683 -2.0091  1.3185 -1.3734
 3780SOL     OW22975   2.348   3.011   6.862  0.2365  0.1588 -0.2983
 3780SOL    HW122976   2.305   2.926   6.856  0.8156 -0.1585  0.1076
 3780SOL    HW222977   2.389   2.990   6.946 -0.0464 -0.6425 -0.3615
 3781SOL     OW22978   1.721   1.723   1.920 -0.1169  0.7403 -0.0523
 3781SOL    HW122979   1.757   1.804   1.956  0.4631 -0.8599  3.0019
 3781SOL    HW222980   1.782   1.652   1.942 -0.2820 -0.5736 -3.7972
 3782SOL     OW22981   3.683   0.837  16.946  0.1946 -0.2694 -0.5110
 3782SOL    HW122982   3.712   0.759  16.993  1.3820  2.0354  2.6065
 3782SOL    HW222983   3.714   0.904  17.008 -0.8828  0.8285 -1.1672
 3783SOL     OW22984   1.326   0.769   6.027  0.0731  0.2904  0.4113
 3783SOL    HW122985   1.314   0.747   6.119  0.8301 -0.5280  0.3069
 3783SOL    HW222986   1.417   0.796   6.016 -0.2090  0.3310 -1.8034
 3784SOL     OW22987   0.075   2.712   2.788 -0.2230 -0.3933 -0.1591
 3784SOL    HW122988   0.156   2.762   2.793 -1.0025  0.7462  1.3837
 3784SOL    HW222989   0.074   2.684   2.697  4.0745  0.7177 -0.5605
 3785SOL     OW22990   2.682   1.212   4.766  0.0737 -0.7589 -0.2004
 3785SOL    HW122991   2.635   1.295   4.774  0.9927 -0.2121 -0.4836
 3785SOL    HW222992   2.701   1.210   4.860 -0.6521  1.9276 -0.0103
 3786SOL     OW22993   1.886   1.810  12.330  0.0692 -0.6907 -0.4616
 3786SOL    HW122994   1.817   1.869  12.361  0.2836  1.1610 -3.4376
 3786SOL    HW222995   1.851   1.722  12.342  0.6184 -0.7655  0.6079
 3787SOL     OW22996   3.335   3.304   5.488  0.8880 -0.3466  0.2970
 3787SOL    HW122997   3.356   3.345   5.572  1.4339 -1.4339  0.6899
 3787SOL    HW222998   3.280   3.371   5.447  1.4045  0.9250  1.6619
 3788SOL     OW22999   2.975   3.770   1.398 -0.4668  0.1506  0.4706
 3788SOL    HW123000   2.886   3.743   1.419 -1.2901  2.1718 -0.4301
 3788SOL    HW223001   2.985   3.843   1.459  2.9583  0.7292 -0.7466
 3789SOL     OW23002   1.853   0.020  11.967 -0.3135 -0.1146  0.1585
 3789SOL    HW123003   1.858   0.106  11.925  3.6824 -2.1420 -3.4708
 3789SOL    HW223004   1.759   0.001  11.961 -0.4078  1.1790 -2.3608
 3790SOL     OW23005   0.212   4.556   2.028  0.4720 -0.3273 -0.0298
 3790SOL    HW123006   0.193   4.550   1.934  1.0172 -1.8008 -0.0506
 3790SOL    HW223007   0.133   4.530   2.077  1.4191 -2.5707  0.3222
 3791SOL     OW23008   2.040   1.504   8.609 -0.0291 -0.0179  0.2734
 3791SOL    HW123009   2.071   1.523   8.521 -2.4747  0.0057 -0.5990
 3791SOL    HW223010   2.015   1.592   8.635  0.4669  0.5519 -1.2141
 3792SOL     OW23011   4.356   3.775   8.233 -0.1640 -0.6291  0.3774
 3792SOL    HW123012   4.414   3.746   8.162  1.5309  0.7764  1.1938
 3792SOL    HW223013   4.306   3.842   8.188  0.1690 -0.7381 -0.1527
 3793SOL     OW23014   1.835   3.116   5.582  0.2369  0.4813 -0.3750
 3793SOL    HW123015   1.748   3.100   5.618 -0.1223  1.1148 -0.9622
 3793SOL    HW223016   1.864   3.189   5.638 -0.0702  0.2611  0.0769
 3794SOL     OW23017   4.268   3.809   2.477 -0.1699 -0.0714 -0.1714
 3794SOL    HW123018   4.202   3.754   2.518  1.4971 -1.9849 -0.1115
 3794SOL    HW223019   4.276   3.778   2.387 -1.9511 -0.6731 -0.1354
 3795SOL     OW23020   3.763   0.455  16.818 -0.2061  0.0288 -0.4351
 3795SOL    HW123021   3.735   0.486  16.904 -1.9820 -0.9124 -0.6688
 3795SOL    HW223022   3.740   0.364  16.837  0.1011 -0.3710 -1.9984
 3796SOL     OW23023   1.340   0.338   3.771 -0.0327  0.8698  0.2895
 3796SOL    HW123024   1.352   0.339   3.676 -2.1711  2.8477  0.0396
 3796SOL    HW223025   1.253   0.300   3.758  0.5242  0.2982 -1.8600
 3797SOL     OW23026   4.041   2.572   6.041 -0.9803 -0.0601  0.4979
 3797SOL    HW123027   3.992   2.498   6.004 -1.9326  1.1498 -0.6312
 3797SOL    HW223028   3.974   2.639   6.041 -0.1054  0.8144  1.0241
 3798SOL     OW23029   2.051   1.166   2.999  0.3689 -0.1500  0.1791
 3798SOL    HW123030   2.147   1.167   2.997  0.4131 -1.2980  1.7508
 3798SOL    HW223031   2.034   1.256   2.970  0.7568 -0.0009  0.4147
 3799SOL     OW23032   1.929   4.101   5.490  0.5186 -0.1929 -0.2136
 3799SOL    HW123033   1.914   4.007   5.486  1.0507 -0.2501 -0.8353
 3799SOL    HW223034   1.950   4.105   5.583 -0.6802  1.7987 -0.0181
 3800SOL     OW23035   2.285   4.140   7.811 -0.5602 -0.4290  0.3194
 3800SOL    HW123036   2.345   4.214   7.803  1.2393 -1.6802  2.0447
 3800SOL    HW223037   2.262   4.144   7.904 -0.6317 -3.8068  0.4609
 3801SOL     OW23038   1.309   3.017   3.404  0.0378 -0.9281  0.3108
 3801SOL    HW123039   1.259   3.098   3.413  1.5674  0.2252 -1.4015
 3801SOL    HW223040   1.386   3.035   3.350 -0.7705 -1.4194 -1.0065
 3802SOL     OW23041   0.573   1.009  16.295 -0.4198  0.1937  0.2173
 3802SOL    HW123042   0.524   0.950  16.236  1.8679  0.0063 -1.5290
 3802SOL    HW223043   0.626   1.046  16.224 -0.7643 -0.9258 -0.6399
 3803SOL     OW23044   3.728   1.898   7.039 -0.2111 -0.0765  0.0518
 3803SOL    HW123045   3.661   1.848   7.086 -0.1187 -0.7882 -0.5658
 3803SOL    HW223046   3.804   1.885   7.096 -1.3686 -1.2462  1.3571
 3804SOL     OW23047   2.107   0.723   6.021  0.5873  0.1779 -0.1172
 3804SOL    HW123048   2.180   0.662   6.014 -0.9116 -1.4602 -1.3689
 3804SOL    HW223049   2.037   0.666   6.053 -0.2503  0.5517 -1.3050
 3805SOL     OW23050   1.099   1.553   6.926 -0.1293  0.6730  0.1393
 3805SOL    HW123051   1.103   1.638   6.970  1.6488  1.2093 -1.0392
 3805SOL    HW223052   1.063   1.502   6.999 -1.6866  0.5838 -0.6919
 3806SOL     OW23053   3.591   3.279   0.735 -0.3508  0.2024 -0.1922
 3806SOL    HW123054   3.684   3.282   0.756 -0.3810  0.6786 -0.1232
 3806SOL    HW223055   3.600   3.260   0.642 -0.2494 -1.5380  0.1793
 3807SOL     OW23056   4.071   0.848   6.008 -0.6615 -1.2433 -0.3035
 3807SOL    HW123057   4.077   0.762   6.049  1.4797 -1.2227 -0.5980
 3807SOL    HW223058   4.130   0.902   6.062 -0.8514 -1.8208  0.4767
 3808SOL     OW23059   3.686   2.082   7.389  0.4609 -0.5769 -0.0415
 3808SOL    HW123060   3.753   2.099   7.455  2.9197  0.9070 -2.8733
 3808SOL    HW223061   3.709   1.989   7.385 -0.7970 -0.8418 -1.2430
 3809SOL     OW23062   4.493   1.224  12.546  0.1139  0.4739  0.6384
 3809SOL    HW123063   4.577   1.180  12.536  0.2119  0.7327  0.3365
 3809SOL    HW223064   4.520   1.309  12.581  1.9382 -0.4552  1.4821
 3810SOL     OW23065   3.131   4.352   1.840  0.4445  0.2992  0.0164
 3810SOL    HW123066   3.183   4.414   1.790  3.9019 -1.6396  1.2566
 3810SOL    HW223067   3.151   4.371   1.932 -0.4113 -1.0249  0.4862
 3811SOL     OW23068   0.012   4.009   2.353 -0.0728  0.5839 -0.1029
 3811SOL    HW123069   4.703   4.064   2.291 -1.3470 -0.9372 -0.4678
 3811SOL    HW223070   4.683   3.972   2.408 -0.1543 -0.8081 -1.1526
 3812SOL     OW23071   1.745   0.106   9.198 -0.1948 -0.7345  0.1057
 3812SOL    HW123072   1.787   0.024   9.172  2.2058  0.8849 -1.0597
 3812SOL    HW223073   1.719   0.088   9.289 -2.5880  0.9262 -0.2652
 3813SOL     OW23074   1.935   3.981   4.064 -0.4177 -0.2859 -0.4657
 3813SOL    HW123075   1.873   3.944   4.127 -1.0809  0.5500 -0.6351
 3813SOL    HW223076   1.893   4.059   4.030  0.3335  0.6467  0.7618
 3814SOL     OW23077   1.474   0.043   2.757  0.2873 -0.2559  0.5532
 3814SOL    HW123078   1.467   0.009   2.668 -1.3674  1.4784  0.0094
 3814SOL    HW223079   1.500   0.133   2.739 -1.2685  0.0014 -0.4380
 3815SOL     OW23080   2.036   4.375  16.858  0.2810  0.1099  0.0157
 3815SOL    HW123081   2.131   4.374  16.852  0.4029  1.0747  1.8461
 3815SOL    HW223082   2.006   4.284  16.866 -3.0495  1.3270  1.4190
 3816SOL     OW23083   3.278   1.336  17.505  0.1299  0.2146  0.7442
 3816SOL    HW123084   3.214   1.407  17.501  0.0418  0.2017  1.8588
 3816SOL    HW223085   3.355   1.376  17.464  1.1735 -3.2336 -0.7164
 3817SOL     OW23086   4.595   3.169  12.785 -0.3953  0.2683  0.2365
 3817SOL    HW123087   4.580   3.263  12.791  0.3165  0.2719  2.1265
 3817SOL    HW223088   4.558   3.151  12.699  0.2345  1.9419 -0.3973
 3818SOL     OW23089   3.524   4.649  13.542  0.2300 -0.5786  0.0509
 3818SOL    HW123090   3.599   4.702  13.514  0.0408 -1.2322 -1.6591
 3818SOL    HW223091   3.523   4.596  13.463 -0.9598  1.0099 -0.9944
 3819SOL     OW23092   1.937   4.573   0.731  0.3167  0.5776  0.4820
 3819SOL    HW123093   2.022   4.548   0.766  0.3230 -1.6348 -1.1415
 3819SOL    HW223094   1.895   4.488   0.720  1.2503  0.1119  0.5432
 3820SOL     OW23095   3.768   0.776  14.879 -0.3505 -0.1726 -0.1767
 3820SOL    HW123096   3.739   0.816  14.797  3.1751  0.6255 -1.0201
 3820SOL    HW223097   3.705   0.828  14.930 -0.1244  1.2378 -1.3578
 3821SOL     OW23098   1.191   1.243   1.887  0.1417  0.2720 -0.5141
 3821SOL    HW123099   1.245   1.296   1.945 -0.6859 -0.0340  0.5426
 3821SOL    HW223100   1.222   1.268   1.800  0.9566  0.0979 -0.2735
 3822SOL     OW23101   4.151   2.312   7.236  0.3215 -0.1537  0.1616
 3822SOL    HW123102   4.130   2.222   7.261  0.3166 -0.1409  0.2045
 3822SOL    HW223103   4.184   2.349   7.318  0.1115  2.9537 -1.1614
 3823SOL     OW23104   0.249   1.521   9.308  0.1024  0.3644  0.1686
 3823SOL    HW123105   0.155   1.515   9.292  0.5323 -1.3120 -1.7521
 3823SOL    HW223106   0.265   1.429   9.326  0.0498  0.1345 -0.9696
 3824SOL     OW23107   4.702   1.284   5.636 -0.0253  0.2408  0.1978
 3824SOL    HW123108   4.736   1.334   5.562 -1.5187  2.1523  0.7930
 3824SOL    HW223109   4.717   1.192   5.615 -2.4449 -0.1853  0.3970
 3825SOL     OW23110   3.698   4.205   5.162  0.2004 -0.2911  0.2838
 3825SOL    HW123111   3.756   4.252   5.221  0.8100  0.1130 -0.6404
 3825SOL    HW223112   3.740   4.243   5.085 -2.3058  1.4911 -0.2049
 3826SOL     OW23113   3.439   2.734   8.195 -0.3157 -0.1359  0.5485
 3826SOL    HW123114   3.471   2.644   8.208  0.3763  0.3044  1.8485
 3826SOL    HW223115   3.521   2.773   8.166 -0.7115 -0.3818 -0.9001
 3827SOL     OW23116   2.502   0.577   2.625 -0.5180  0.5834  0.7123
 3827SOL    HW123117   2.462   0.645   2.572 -1.5270  0.3062  1.1269
 3827SOL    HW223118   2.427   0.531   2.662 -0.3845  0.9105  1.3917
 3828SOL     OW23119   1.000   2.189   8.507  0.4729  0.1779 -0.1058
 3828SOL    HW123120   1.069   2.132   8.541  0.8088 -0.1638 -1.3965
 3828SOL    HW223121   1.021   2.276   8.542  1.0685 -0.1824  0.4388
 3829SOL     OW23122   2.931   1.186  11.698  0.0884 -0.4260  0.2116
 3829SOL    HW123123   2.943   1.279  11.681  0.3610 -0.5463 -0.2535
 3829SOL    HW223124   3.007   1.148  11.653 -0.0329  2.0822 -2.0834
 3830SOL     OW23125   3.829   1.034   3.288 -0.4527 -0.2755  0.0321
 3830SOL    HW123126   3.844   1.127   3.300 -0.1437 -0.3816  0.4774
 3830SOL    HW223127   3.876   1.014   3.208 -0.8465  3.4732 -1.1024
 3831SOL     OW23128   2.285   4.514   4.591  0.0869 -0.1823 -0.5919
 3831SOL    HW123129   2.379   4.518   4.603 -0.2234 -3.2255  2.8246
 3831SOL    HW223130   2.267   4.585   4.530 -2.2592 -1.2527 -1.1567
 3832SOL     OW23131   0.320   0.418   9.816  0.0588  0.1840 -0.3374
 3832SOL    HW123132   0.330   0.332   9.776  1.7214 -1.1740  2.9772
 3832SOL    HW223133   0.354   0.402   9.904  0.0638  0.3006 -0.3181
 3833SOL     OW23134   3.165   0.927   0.412 -0.5495  0.3055  0.6074
 3833SOL    HW123135   3.177   0.912   0.319  0.0598  1.6825  0.4631
 3833SOL    HW223136   3.213   0.850   0.443 -0.7924  1.0010  2.7417
 3834SOL     OW23137   1.342   4.029   7.043 -0.0248 -1.3350  0.5381
 3834SOL    HW123138   1.434   4.013   7.062  1.0593  1.5599 -2.2439
 3834SOL    HW223139   1.351   4.027   6.948  0.9145 -0.3165  0.6031
 3835SOL     OW23140   4.011   3.927   3.028  0.2334 -0.0358 -0.5133
 3835SOL    HW123141   3.984   3.911   2.938 -0.5371  0.9419 -0.4496
 3835SOL    HW223142   4.089   3.981   3.015 -0.6799  1.1844 -0.7965
 3836SOL     OW23143   4.709   4.017  17.255 -0.1232 -0.4925 -0.5215
 3836SOL    HW123144   0.042   4.047  17.201  1.3990 -2.2902  0.5381
 3836SOL    HW223145   4.729   3.924  17.260 -3.3053 -1.1856 -0.8946
 3837SOL     OW23146   2.497   0.267   5.715  0.0620 -0.4698  0.7099
 3837SOL    HW123147   2.421   0.215   5.692 -0.3949  0.8039 -0.6361
 3837SOL    HW223148   2.564   0.239   5.652  0.8550  0.9494  0.9024
 3838SOL     OW23149   0.308   2.040   7.140 -0.4763 -0.3919 -0.4027
 3838SOL    HW123150   0.281   2.094   7.214  1.8757  0.7638 -0.3589
 3838SOL    HW223151   0.402   2.059   7.140 -0.9417  2.0071  1.5863
 3839SOL     OW23152   3.394   3.992   2.639  0.5221 -0.3953  0.5200
 3839SOL    HW123153   3.457   4.001   2.567  1.1676  1.8263  1.3585
 3839SOL    HW223154   3.323   4.051   2.612  1.1460 -0.4846 -1.3704
 3840SOL     OW23155   4.395   2.700   2.043 -0.1177 -0.2540 -0.0304
 3840SOL    HW123156   4.463   2.745   1.992  1.2302 -1.9948  0.2273
 3840SOL    HW223157   4.345   2.776   2.072 -1.7811 -1.3290 -0.1230
 3841SOL     OW23158   0.487   3.646   8.048  0.6067  0.2648 -0.0413
 3841SOL    HW123159   0.434   3.724   8.060  1.2492  0.6524  0.3097
 3841SOL    HW223160   0.517   3.626   8.136  0.0617 -1.8991 -0.3547
 3842SOL     OW23161   2.354   1.926  12.072  0.1067 -0.0464 -0.2702
 3842SOL    HW123162   2.433   1.885  12.035  0.8826  0.1490  1.1685
 3842SOL    HW223163   2.284   1.881  12.024 -1.0609  0.4195  1.0112
 3843SOL     OW23164   2.832   4.405   0.286 -1.1317  0.1521  0.0677
 3843SOL    HW123165   2.908   4.353   0.311 -1.9034 -0.6822  0.6619
 3843SOL    HW223166   2.873   4.449   0.211  2.2765 -0.0913  1.8014
 3844SOL     OW23167   0.993   4.169   7.166  0.2928  0.4495 -0.6352
 3844SOL    HW123168   1.011   4.149   7.074 -0.0421 -1.5191 -0.2813
 3844SOL    HW223169   0.898   4.181   7.162  0.0111 -1.3653  0.6033
 3845SOL     OW23170   4.209   0.550   2.349 -0.6251 -0.0481  0.0295
 3845SOL    HW123171   4.281   0.609   2.326 -0.6008 -0.5377 -1.1411
 3845SOL    HW223172   4.157   0.535   2.270 -0.9719  2.1136 -0.1599
 3846SOL     OW23173   4.573   4.732   4.825  0.1977  0.2208 -0.1202
 3846SOL    HW123174   4.656   4.689   4.844  0.0335  0.1373  0.4126
 3846SOL    HW223175   4.534   4.680   4.755  0.2106 -1.1746  0.9043
 3847SOL     OW23176   2.723   3.972   9.519  0.1444  0.1610  0.4468
 3847SOL    HW123177   2.641   3.954   9.472  1.3282  1.6968 -2.1666
 3847SOL    HW223178   2.692   3.979   9.610  1.2937  2.4616  0.6541
 3848SOL     OW23179   4.530   4.151   2.246 -0.3130 -0.0163 -0.0800
 3848SOL    HW123180   4.438   4.165   2.271 -1.1400 -0.9531 -2.5730
 3848SOL    HW223181   4.570   4.181   2.327  0.1018  0.0916 -0.3245
 3849SOL     OW23182   4.337   4.561  11.470  0.6123 -0.2497  0.0269
 3849SOL    HW123183   4.364   4.487  11.415  0.5689  0.4217 -0.8942
 3849SOL    HW223184   4.397   4.567  11.545  2.0058  1.6455 -1.2434
 3850SOL     OW23185   2.205   0.156  17.336 -0.1869 -1.1033 -0.2317
 3850SOL    HW123186   2.120   0.189  17.365 -0.3097 -0.7497 -0.9962
 3850SOL    HW223187   2.254   0.235  17.314 -1.6062  0.2620  1.5262
 3851SOL     OW23188   3.865   3.917  11.791 -0.4707  0.4006 -0.4023
 3851SOL    HW123189   3.831   3.864  11.719 -2.4177 -0.1144  0.9228
 3851SOL    HW223190   3.831   4.005  11.774  1.0315  0.8047 -1.3587
 3852SOL     OW23191   1.099   0.272   4.339 -0.6072 -0.0009  0.2900
 3852SOL    HW123192   1.048   0.195   4.315 -0.3754  0.2368 -1.0193
 3852SOL    HW223193   1.041   0.311   4.404  0.9464  3.8861 -0.6400
 3853SOL     OW23194   2.914   0.445  10.221 -0.2701 -0.1930 -0.0099
 3853SOL    HW123195   2.955   0.518  10.267 -0.4313  0.3745 -0.7487
 3853SOL    HW223196   2.895   0.386  10.294 -0.2711 -2.6397 -1.9906
 3854SOL     OW23197   0.506   4.688   8.729 -0.2109 -0.0159  0.2801
 3854SOL    HW123198   0.527   0.003   8.805  1.9018 -1.7116  0.9363
 3854SOL    HW223199   0.493   4.602   8.768 -0.6327  0.1649  0.5299
 3855SOL     OW23200   0.458   1.217  11.528  0.4622 -0.6951  0.2188
 3855SOL    HW123201   0.368   1.193  11.548 -0.5071  1.5306 -1.4735
 3855SOL    HW223202   0.476   1.157  11.456 -1.1750 -2.3525  1.1932
 3856SOL     OW23203   4.607   2.812  15.501  0.3829  0.3285  0.3961
 3856SOL    HW123204   4.597   2.786  15.592  3.0573  2.5453  1.3181
 3856SOL    HW223205   4.511   2.816  15.494  0.5078  0.7357 -1.2079
 3857SOL     OW23206   1.101   2.668   7.244  0.1128  0.4116 -0.4230
 3857SOL    HW123207   1.173   2.654   7.305 -0.2275  1.4469  0.2219
 3857SOL    HW223208   1.030   2.707   7.296  1.7236  0.1521  1.9828
 3858SOL     OW23209   2.656   0.912  15.453  0.5067 -0.6244  0.1919
 3858SOL    HW123210   2.628   0.999  15.483 -2.3627 -1.0669 -1.1921
 3858SOL    HW223211   2.730   0.896  15.512  1.9087  0.6109 -1.1985
 3859SOL     OW23212   3.422   2.567  10.003  0.4202  0.2268 -0.0352
 3859SOL    HW123213   3.445   2.539  10.092 -1.5833 -0.2435  0.3382
 3859SOL    HW223214   3.374   2.644  10.033 -0.0191 -1.0390  2.5715
 3860SOL     OW23215   3.105   2.425  15.294  0.1014  0.2378  0.0611
 3860SOL    HW123216   3.085   2.365  15.366 -1.0494  1.1551  0.5038
 3860SOL    HW223217   3.073   2.374  15.220 -0.4173  1.3040 -0.4467
 3861SOL     OW23218   2.698   0.717   7.915  0.0918  0.2724  0.1585
 3861SOL    HW123219   2.761   0.664   7.867 -0.5686 -2.7296  2.5607
 3861SOL    HW223220   2.754   0.741   7.989 -0.4812  1.2179  0.2820
 3862SOL     OW23221   2.594   2.330   3.036 -0.1393 -0.3315 -0.0589
 3862SOL    HW123222   2.553   2.410   3.002  2.2502  0.5612 -0.8495
 3862SOL    HW223223   2.655   2.370   3.097  0.4624 -1.4660  0.0729
 3863SOL     OW23224   3.649   3.380   9.215 -0.2762  0.8059  0.0712
 3863SOL    HW123225   3.730   3.401   9.169 -0.2815  0.3060 -0.1669
 3863SOL    HW223226   3.619   3.315   9.152  0.1732 -0.2729  0.9637
 3864SOL     OW23227   0.264   1.258  10.406 -0.3448  0.0489 -0.2637
 3864SOL    HW123228   0.300   1.222  10.325 -0.9318  1.4966 -1.1755
 3864SOL    HW223229   0.279   1.187  10.468  0.9526  0.5842  0.0298
 3865SOL     OW23230   3.459   0.859   8.569 -0.3215 -0.0612  0.1255
 3865SOL    HW123231   3.404   0.828   8.497  0.6123 -0.3180 -0.4717
 3865SOL    HW223232   3.388   0.873   8.632  0.4301  1.6720  0.5861
 3866SOL     OW23233   2.971   1.786   4.715  0.2352  0.3406  0.5474
 3866SOL    HW123234   3.062   1.764   4.735  0.8599  1.5319 -1.0740
 3866SOL    HW223235   2.938   1.764   4.802 -2.1687 -0.0094 -0.4707
 3867SOL     OW23236   2.669   2.247   2.795 -0.0566 -0.5203 -0.4109
 3867SOL    HW123237   2.602   2.296   2.746 -0.1511 -2.4500 -2.2093
 3867SOL    HW223238   2.650   2.267   2.886  1.9363  1.5342 -0.4483
 3868SOL     OW23239   3.285   0.449   6.234 -0.1994  0.1172 -0.4894
 3868SOL    HW123240   3.291   0.376   6.172 -2.2657  0.0156 -0.5511
 3868SOL    HW223241   3.225   0.504   6.184 -1.3815  2.9133  4.0991
 3869SOL     OW23242   4.523   3.505   0.417 -0.6188 -0.0652  0.2488
 3869SOL    HW123243   4.610   3.475   0.445  0.4630  0.2604 -2.6810
 3869SOL    HW223244   4.526   3.600   0.418  1.6680 -0.1098 -0.6970
 3870SOL     OW23245   1.812   0.275   3.808  0.4431  0.4721  0.3757
 3870SOL    HW123246   1.905   0.254   3.802 -0.0821 -1.4221 -1.1293
 3870SOL    HW223247   1.788   0.293   3.717 -1.8746  4.2921  1.7639
 3871SOL     OW23248   4.235   0.745   2.062 -0.5799  0.4716  0.7739
 3871SOL    HW123249   4.168   0.711   2.122 -0.8233  0.2013  0.3519
 3871SOL    HW223250   4.190   0.818   2.019 -0.0471  0.9840  1.0826
 3872SOL     OW23251   4.453   1.193   7.013 -0.1058 -0.0966 -0.1532
 3872SOL    HW123252   4.399   1.211   6.936 -1.8395 -1.9693  0.6188
 3872SOL    HW223253   4.519   1.262   7.006  0.3188 -0.7462 -2.4501
 3873SOL     OW23254   1.330   0.769   3.109 -0.3575 -0.2800  0.1549
 3873SOL    HW123255   1.239   0.773   3.140 -0.9796  1.8750 -1.8941
 3873SOL    HW223256   1.339   0.845   3.052  0.4894 -0.7364 -0.3071
 3874SOL     OW23257   3.404   3.226   8.162 -0.0360 -0.7104 -0.3247
 3874SOL    HW123258   3.492   3.187   8.161  0.3401  0.0913  0.6681
 3874SOL    HW223259   3.403   3.268   8.249  1.0814 -1.6939  0.1622
 3875SOL     OW23260   2.377   0.121   4.210 -0.6601 -0.2530  0.4608
 3875SOL    HW123261   2.419   0.206   4.195  0.8644 -1.3400 -1.4824
 3875SOL    HW223262   2.319   0.115   4.134 -1.3731 -0.8440  1.0661
 3876SOL     OW23263   3.579   2.871  15.523  0.0841 -0.0100  0.3193
 3876SOL    HW123264   3.660   2.854  15.571 -0.3216 -0.9825  0.6659
 3876SOL    HW223265   3.594   2.963  15.502  0.5301 -0.1818 -0.0952
 3877SOL     OW23266   1.032   2.257  12.049  0.3069  0.9002 -0.0974
 3877SOL    HW123267   1.088   2.238  12.124 -1.0643  0.8560  0.9156
 3877SOL    HW223268   1.019   2.352  12.057 -0.5187  0.9737 -2.4730
 3878SOL     OW23269   0.203   2.674   6.945 -0.2620 -0.1849 -0.4034
 3878SOL    HW123270   0.166   2.653   6.859 -1.6067 -1.3265  0.4584
 3878SOL    HW223271   0.127   2.661   7.002 -0.5801  0.0290 -0.7794
 3879SOL     OW23272   0.575   2.036   7.849 -0.3920 -0.2586 -0.6626
 3879SOL    HW123273   0.490   2.079   7.859  0.3101  0.8615  0.5117
 3879SOL    HW223274   0.606   2.094   7.779  0.8329  0.8763  0.8069
 3880SOL     OW23275   0.952   1.767   5.346 -0.5713 -0.1217  0.4376
 3880SOL    HW123276   1.030   1.712   5.340 -2.8380 -2.9569 -3.1429
 3880SOL    HW223277   0.945   1.800   5.257 -0.1707 -1.7874 -0.2126
 3881SOL     OW23278   1.740   2.986   9.559  0.2590  0.3978  0.1155
 3881SOL    HW123279   1.647   3.002   9.544  0.1525  0.1288  0.4934
 3881SOL    HW223280   1.774   3.073   9.537 -0.2454  0.6494  0.3286
 3882SOL     OW23281   0.509   4.327   4.909  0.1371 -0.3838  0.1576
 3882SOL    HW123282   0.518   4.240   4.947 -0.0672 -2.0240 -3.4976
 3882SOL    HW223283   0.599   4.348   4.885  0.6158 -2.5709  0.0556
 3883SOL     OW23284   1.506   4.607   2.222  0.5613  0.0356 -0.7152
 3883SOL    HW123285   1.424   4.612   2.174 -0.6041 -2.8532  1.0050
 3883SOL    HW223286   1.542   4.521   2.198 -2.6419 -1.5665  0.3007
 3884SOL     OW23287   2.144   2.616  11.126 -0.4162  0.2550 -0.4663
 3884SOL    HW123288   2.089   2.604  11.049 -1.5670  1.7556  0.1161
 3884SOL    HW223289   2.088   2.668  11.184  1.3158  1.0811  0.4880
 3885SOL     OW23290   2.949   2.198   9.055  0.2527 -0.1766 -0.5895
 3885SOL    HW123291   3.041   2.179   9.072  0.7619  0.2537 -2.8599
 3885SOL    HW223292   2.913   2.110   9.068 -1.3308  0.5955  0.3311
 3886SOL     OW23293   1.680   3.493   1.621  0.0431 -0.0219  0.2022
 3886SOL    HW123294   1.709   3.580   1.593 -2.1257  1.3372  2.1400
 3886SOL    HW223295   1.616   3.513   1.689 -3.1492 -0.9318 -2.5034
 3887SOL     OW23296   3.658   2.452   1.601 -0.2149 -0.6853 -0.0707
 3887SOL    HW123297   3.728   2.452   1.536 -1.3767  0.1327 -1.3010
 3887SOL    HW223298   3.584   2.479   1.548 -0.6413 -0.7322  0.4910
 3888SOL     OW23299   0.608   2.037   7.091 -0.2276  0.1181 -0.1146
 3888SOL    HW123300   0.692   2.027   7.045 -0.1301 -2.0806  0.5535
 3888SOL    HW223301   0.639   2.022   7.180  0.9008  2.0514 -0.1862
 3889SOL     OW23302   2.988   1.040   8.716 -0.7516 -0.4632  0.5509
 3889SOL    HW123303   3.072   1.065   8.754 -1.8754  1.8273  1.5110
 3889SOL    HW223304   2.964   1.117   8.664  0.9898 -1.3000 -1.5133
 3890SOL     OW23305   4.174   3.819  12.348  0.5700  0.3290  0.0156
 3890SOL    HW123306   4.098   3.871  12.376  0.9148  0.8754 -0.0665
 3890SOL    HW223307   4.241   3.887  12.350  1.7858 -0.8665 -0.1654
 3891SOL     OW23308   3.280   2.122  14.388  0.2850 -0.1192 -0.1737
 3891SOL    HW123309   3.322   2.086  14.467 -1.9873 -0.3367  0.9201
 3891SOL    HW223310   3.190   2.099  14.409  0.8072  0.8069  3.1669
 3892SOL     OW23311   1.599   3.715   8.920  0.2053  0.5956 -0.5578
 3892SOL    HW123312   1.553   3.665   8.853 -1.6344  1.6559 -0.0914
 3892SOL    HW223313   1.690   3.700   8.893  0.1480  1.0390 -0.9924
 3893SOL     OW23314   0.719   2.787   2.646  0.3524  0.1960 -0.0829
 3893SOL    HW123315   0.676   2.709   2.612 -1.5872  1.8402 -1.4105
 3893SOL    HW223316   0.803   2.760   2.682  0.4824 -0.5010 -0.9147
 3894SOL     OW23317   1.559   0.888  11.200 -0.0633 -0.2359 -0.2215
 3894SOL    HW123318   1.506   0.909  11.123 -0.0193  2.5837  0.5421
 3894SOL    HW223319   1.568   0.794  11.184 -0.8037 -0.8156  2.8343
 3895SOL     OW23320   0.824   1.800  13.273 -0.7966  0.2995 -0.0186
 3895SOL    HW123321   0.738   1.839  13.287 -0.0309  1.1507  2.4348
 3895SOL    HW223322   0.877   1.864  13.226  0.5641 -0.1926  0.8111
 3896SOL     OW23323   2.337   4.639   6.143  0.4774  0.2750  0.1882
 3896SOL    HW123324   2.408   4.662   6.084  0.3111  0.0675 -0.0952
 3896SOL    HW223325   2.369   4.566   6.197  1.3738 -0.4029 -1.2438
 3897SOL     OW23326   2.781   1.125   6.059 -0.5811  0.5251  0.0128
 3897SOL    HW123327   2.779   1.202   6.116 -1.2931  1.5256 -1.3658
 3897SOL    HW223328   2.711   1.155   6.001 -0.7023  1.1374  0.4781
 3898SOL     OW23329   2.222   4.632  17.361 -0.3618  0.1996 -0.0037
 3898SOL    HW123330   2.192   4.721  17.345  1.2677  0.9191  0.9353
 3898SOL    HW223331   2.302   4.653  17.410  0.7115 -1.4133 -1.0515
 3899SOL     OW23332   2.743   1.183   4.026 -0.1593 -0.0057 -0.4552
 3899SOL    HW123333   2.773   1.260   3.978 -0.3637  2.0838  2.7620
 3899SOL    HW223334   2.817   1.125   4.009 -0.2546 -0.6124  1.1679
 3900SOL     OW23335   3.847   4.632   5.431 -0.1056 -0.3786  0.0141
 3900SOL    HW123336   3.893   4.650   5.349  2.5727 -3.8473  0.7506
 3900SOL    HW223337   3.916   4.593   5.485 -1.1160  0.1316  1.6896
 3901SOL     OW23338   1.006   1.686   4.305  0.2316 -0.1480 -0.2532
 3901SOL    HW123339   1.068   1.641   4.248  0.7626 -0.3908  0.5016
 3901SOL    HW223340   1.032   1.774   4.277 -1.7321  0.3393 -0.4964
 3902SOL     OW23341   4.033   2.713   3.755  0.3684  0.1810 -0.1383
 3902SOL    HW123342   4.082   2.741   3.678  0.5592 -0.2619 -0.1793
 3902SOL    HW223343   3.947   2.694   3.718 -0.9820  0.7976  2.6572
 3903SOL     OW23344   1.766   0.549   7.753  0.0885  0.3009 -0.0371
 3903SOL    HW123345   1.824   0.623   7.735 -0.2359  0.9906  1.7158
 3903SOL    HW223346   1.680   0.590   7.740 -0.2367 -0.4325 -0.1731
 3904SOL     OW23347   1.839   2.395   5.799 -0.9577 -0.2053  0.3688
 3904SOL    HW123348   1.787   2.354   5.868  0.4902  0.0300  1.6214
 3904SOL    HW223349   1.837   2.321   5.738 -1.2449 -1.4885  1.9328
 3905SOL     OW23350   4.573   3.286   7.671  0.1546 -0.3553 -0.1916
 3905SOL    HW123351   4.629   3.334   7.610 -0.7328  0.9167 -0.0049
 3905SOL    HW223352   4.643   3.245   7.721  0.0766  0.4808  0.6054
 3906SOL     OW23353   3.596   4.361   2.321  0.0520 -0.3707  0.0672
 3906SOL    HW123354   3.594   4.275   2.363  1.9582 -1.5673 -2.3258
 3906SOL    HW223355   3.516   4.352   2.268  0.1603  1.2006 -0.3737
 3907SOL     OW23356   0.707   3.683   9.578 -0.4129  0.2445  0.8360
 3907SOL    HW123357   0.681   3.768   9.612 -0.8780  0.9586 -1.3021
 3907SOL    HW223358   0.669   3.698   9.491 -0.3121  1.2023  0.9638
 3908SOL     OW23359   0.951   3.763   3.687  0.4663 -0.0133 -0.1916
 3908SOL    HW123360   0.927   3.722   3.603  1.5999 -1.6698  0.2865
 3908SOL    HW223361   0.969   3.852   3.657 -1.8107  0.8480  0.9903
 3909SOL     OW23362   0.260   4.662   4.110 -0.4053 -0.3411 -0.5415
 3909SOL    HW123363   0.326   4.603   4.071  0.2372 -0.0465  0.0981
 3909SOL    HW223364   0.280   0.004   4.063  2.1046  0.5945  2.1633
 3910SOL     OW23365   3.645   1.705   4.634 -0.1642  0.6020 -0.6763
 3910SOL    HW123366   3.732   1.712   4.672 -0.1518 -1.8705 -0.2302
 3910SOL    HW223367   3.604   1.671   4.714 -1.4877  1.8530 -0.8344
 3911SOL     OW23368   3.361   4.678   5.390  0.0105 -0.0036  0.1732
 3911SOL    HW123369   3.438   4.623   5.380  1.0700  1.6103 -0.5366
 3911SOL    HW223370   3.345   4.712   5.302 -0.3994 -1.8579 -0.4664
 3912SOL     OW23371   1.728   1.622   3.784  0.4294  0.3536  0.5403
 3912SOL    HW123372   1.764   1.612   3.872  0.2615 -2.3476  0.3108
 3912SOL    HW223373   1.747   1.715   3.772  2.0068  0.0046  0.2874
 3913SOL     OW23374   3.278   4.500   2.653  0.5784  0.4002 -0.2154
 3913SOL    HW123375   3.342   4.438   2.687  0.4334  1.1132  1.3728
 3913SOL    HW223376   3.338   4.574   2.641 -0.9547  1.1221 -3.3539
 3914SOL     OW23377   0.818   2.350  12.927 -0.2043  0.2730  0.0589
 3914SOL    HW123378   0.757   2.276  12.922  1.7526 -1.2824 -0.9725
 3914SOL    HW223379   0.789   2.409  12.996  1.0065  0.0728  0.7357
 3915SOL     OW23380   3.568   0.098   5.002 -0.0311  0.4407  0.9511
 3915SOL    HW123381   3.509   0.166   4.967 -0.1602 -0.2350 -0.1418
 3915SOL    HW223382   3.628   0.085   4.929  1.4839 -1.7815  2.6125
 3916SOL     OW23383   2.778   2.676   4.018  0.0936 -0.0529  0.0860
 3916SOL    HW123384   2.840   2.623   4.068  0.1371 -2.2171 -2.2524
 3916SOL    HW223385   2.726   2.605   3.979  1.8977 -1.3450  0.0311
 3917SOL     OW23386   4.062   1.087   2.628  0.1595  0.1199 -0.0919
 3917SOL    HW123387   4.044   1.140   2.551 -1.3702 -1.9028 -1.1024
 3917SOL    HW223388   4.049   1.000   2.590  0.7959  0.0404 -0.1285
 3918SOL     OW23389   3.806   2.818   2.856 -0.0307  0.2069  0.0822
 3918SOL    HW123390   3.892   2.799   2.893 -0.4391 -0.2233  0.7936
 3918SOL    HW223391   3.808   2.911   2.880 -1.2049  0.1287  0.5087
 3919SOL     OW23392   1.314   2.317  12.462  0.0770  0.2844  0.2723
 3919SOL    HW123393   1.308   2.407  12.494  3.3053  0.8285 -0.6553
 3919SOL    HW223394   1.405   2.295  12.482 -0.1121 -0.8395 -0.0661
 3920SOL     OW23395   1.925   0.158  10.723  1.1111  0.1771 -0.1771
 3920SOL    HW123396   1.849   0.108  10.693  1.5135 -1.4300  1.4837
 3920SOL    HW223397   1.885   0.194  10.803  0.5382  0.9714 -0.8138
 3921SOL     OW23398   3.784   0.434   4.931  0.1429 -0.7306  0.8260
 3921SOL    HW123399   3.735   0.458   5.010  1.8538  0.2160  1.6064
 3921SOL    HW223400   3.724   0.439   4.857  3.9003 -2.6085 -2.3216
 3922SOL     OW23401   1.961   0.504   6.085  0.3089 -0.3356 -0.0098
 3922SOL    HW123402   2.052   0.477   6.084  0.5446  0.4937 -0.7194
 3922SOL    HW223403   1.903   0.430   6.066  1.8686 -1.3271 -0.8544
 3923SOL     OW23404   1.596   3.513  14.969  0.3442 -0.1935 -0.1508
 3923SOL    HW123405   1.549   3.587  15.007 -1.2574 -1.0033 -0.5556
 3923SOL    HW223406   1.530   3.445  14.980  2.4766 -2.4254 -1.2368
 3924SOL     OW23407   4.435   3.643   8.891  0.0072  0.3734  0.3600
 3924SOL    HW123408   4.416   3.672   8.980  0.3753 -1.4790  1.0443
 3924SOL    HW223409   4.530   3.650   8.885  0.0369  0.3787  0.8808
 3925SOL     OW23410   4.156   2.352   0.217 -0.1200  0.1378  0.0753
 3925SOL    HW123411   4.138   2.373   0.125 -1.0415 -1.9997 -0.2387
 3925SOL    HW223412   4.151   2.256   0.214  1.5081 -0.0288  2.4992
 3926SOL     OW23413   0.744   1.023   8.942  0.0702 -0.4140  0.4555
 3926SOL    HW123414   0.760   1.062   8.856  1.9922 -0.1620  0.9291
 3926SOL    HW223415   0.780   0.935   8.928  1.0639 -0.1477  1.3219
 3927SOL     OW23416   1.241   2.007   8.284  0.3705  0.2999 -0.3963
 3927SOL    HW123417   1.332   2.003   8.315 -0.2296  0.0016  1.3019
 3927SOL    HW223418   1.212   1.924   8.321  1.7564  0.1844  0.4309
 3928SOL     OW23419   2.249   4.090  11.139  0.4371  0.1333  0.6629
 3928SOL    HW123420   2.254   4.172  11.188 -2.0810  0.2649  0.7076
 3928SOL    HW223421   2.342   4.069  11.133  0.1933 -0.0554 -2.6331
 3929SOL     OW23422   2.414   3.337   3.055 -0.2243 -0.2837 -0.3030
 3929SOL    HW123423   2.382   3.258   3.099  1.9014 -1.1126 -0.2686
 3929SOL    HW223424   2.446   3.386   3.131 -3.0443  1.6008 -0.3069
 3930SOL     OW23425   4.458   0.438  10.726 -0.0881 -0.0068  0.0763
 3930SOL    HW123426   4.533   0.393  10.763  1.2533  2.1556 -0.0323
 3930SOL    HW223427   4.497   0.520  10.695  2.0687 -0.8330  0.6195
 3931SOL     OW23428   2.960   1.116  15.749  0.0495  0.7346  0.8392
 3931SOL    HW123429   2.910   1.041  15.716 -0.0995  2.1877 -2.2481
 3931SOL    HW223430   2.978   1.172  15.673 -1.8031  0.6113  0.3149
 3932SOL     OW23431   3.349   4.205  10.298 -0.1097 -0.1464 -0.0964
 3932SOL    HW123432   3.277   4.144  10.284  0.9589 -1.6014  0.6745
 3932SOL    HW223433   3.328   4.245  10.382  1.9653 -0.8240  0.7586
 3933SOL     OW23434   1.622   1.724  12.594 -0.2729  0.2163  0.1450
 3933SOL    HW123435   1.564   1.750  12.665  1.0457  0.7864  0.9923
 3933SOL    HW223436   1.659   1.808  12.566  0.1567 -0.2650 -0.7232
 3934SOL     OW23437   3.679   2.353   3.337 -0.5329  0.1811  0.6931
 3934SOL    HW123438   3.702   2.328   3.248  1.2347  0.5237  1.0577
 3934SOL    HW223439   3.623   2.429   3.316  0.1514  0.5612  0.2568
 3935SOL     OW23440   1.668   0.329   8.184  0.1181  0.2246 -1.0635
 3935SOL    HW123441   1.671   0.326   8.089 -0.4498  0.9813 -1.1039
 3935SOL    HW223442   1.601   0.395   8.204  0.2915 -0.3057  1.3294
 3936SOL     OW23443   4.383   3.831   5.377  0.5590 -0.6226  0.1223
 3936SOL    HW123444   4.434   3.756   5.346 -0.9634 -1.4842 -0.3454
 3936SOL    HW223445   4.344   3.842   5.291  2.5205 -2.1773 -0.9701
 3937SOL     OW23446   3.656   3.239   3.465  0.4815  0.2109  0.2089
 3937SOL    HW123447   3.633   3.222   3.557  0.4256 -0.6062  0.0390
 3937SOL    HW223448   3.733   3.295   3.482  0.7000 -0.1058  0.2642
 3938SOL     OW23449   0.030   1.683  15.228  0.2578  0.0820  1.2007
 3938SOL    HW123450   0.068   1.691  15.140 -0.9089  0.1225  0.7062
 3938SOL    HW223451   0.076   1.602  15.252 -1.2763 -0.5879  1.8569
 3939SOL     OW23452   4.625   2.595   8.102 -0.8099 -0.0850  0.5937
 3939SOL    HW123453   4.680   2.626   8.174 -0.6389  1.8846 -0.3735
 3939SOL    HW223454   4.667   2.636   8.027  0.5363 -2.5918 -0.0172
 3940SOL     OW23455   3.396   1.750   8.039 -0.3327 -0.4717  0.1777
 3940SOL    HW123456   3.365   1.772   8.127 -1.8113  0.4548 -0.5778
 3940SOL    HW223457   3.318   1.731   7.987  0.1964  1.5612 -1.3276
 3941SOL     OW23458   1.939   2.747   0.163 -0.0312  0.2853 -0.0289
 3941SOL    HW123459   2.011   2.684   0.162 -0.1332  0.1220  3.3593
 3941SOL    HW223460   1.878   2.693   0.113  0.9459 -0.3309 -0.5781
 3942SOL     OW23461   4.188   2.251   6.049  0.2954  0.1916 -0.6302
 3942SOL    HW123462   4.098   2.265   6.021  0.3031  1.1250 -0.2081
 3942SOL    HW223463   4.237   2.284   5.974 -0.3620 -1.2179 -1.6716
 3943SOL     OW23464   0.432   1.628  14.617 -0.1072 -0.7749  0.5370
 3943SOL    HW123465   0.428   1.697  14.551 -2.3532 -1.0821  0.3534
 3943SOL    HW223466   0.370   1.565  14.582 -1.1557  1.2016 -1.1589
 3944SOL     OW23467   4.406   2.885   1.290 -0.2292  0.2836  0.4510
 3944SOL    HW123468   4.499   2.873   1.272 -0.6160 -0.6743 -0.8962
 3944SOL    HW223469   4.397   2.978   1.269  0.8863  0.5077  0.9221
 3945SOL     OW23470   3.034   4.707   7.337  0.4122  0.4657 -0.1302
 3945SOL    HW123471   3.123   4.671   7.343 -0.9652 -3.0026 -0.1667
 3945SOL    HW223472   3.020   4.725   7.430 -2.8616  2.2444 -0.9953
 3946SOL     OW23473   0.162   2.301   5.492  0.2610  0.4079 -0.2335
 3946SOL    HW123474   0.143   2.347   5.410  0.8693 -1.2476 -1.3036
 3946SOL    HW223475   0.257   2.313   5.500  0.1797 -0.1810  1.6632
 3947SOL     OW23476   1.017   0.616   7.789 -0.0201  0.6073  0.0475
 3947SOL    HW123477   1.084   0.598   7.723  1.2606  1.0025  1.2374
 3947SOL    HW223478   1.070   0.633   7.867 -0.5797 -1.5380  0.9046
 3948SOL     OW23479   0.755   3.396   1.170 -0.3069  0.0700 -0.0830
 3948SOL    HW123480   0.809   3.318   1.183 -0.7226 -0.2258 -0.1136
 3948SOL    HW223481   0.733   3.410   1.262 -0.8854 -0.6950 -0.0992
 3949SOL     OW23482   1.887   0.599  12.598  0.6807 -0.2738  0.0968
 3949SOL    HW123483   1.852   0.511  12.583  0.2348  0.2566 -1.8532
 3949SOL    HW223484   1.977   0.586  12.570  1.1035 -1.3674  1.9186
 3950SOL     OW23485   0.838   1.988  10.762 -0.2828  0.3966  0.2654
 3950SOL    HW123486   0.770   2.017  10.700 -3.3763  0.3424  3.6063
 3950SOL    HW223487   0.901   2.060  10.766  1.6292 -1.3064  0.3277
 3951SOL     OW23488   4.248   1.396   5.958  0.1130 -0.0642 -0.1359
 3951SOL    HW123489   4.178   1.433   5.904  1.3250  1.5820 -0.5933
 3951SOL    HW223490   4.204   1.382   6.042 -0.4071 -0.1550 -0.4256
 3952SOL     OW23491   1.557   1.792   0.623 -0.1683 -0.2817  0.3972
 3952SOL    HW123492   1.462   1.803   0.623 -0.0008  1.1194  2.3302
 3952SOL    HW223493   1.575   1.761   0.534  1.1324  0.0355  0.5527
 3953SOL     OW23494   1.204   3.284   5.655  0.5953  0.4809  0.0756
 3953SOL    HW123495   1.170   3.303   5.742 -1.7302 -0.4965 -0.6198
 3953SOL    HW223496   1.248   3.367   5.637  1.1597  0.0761 -0.3985
 3954SOL     OW23497   3.747   1.757  11.712 -0.1678  0.2577  0.1730
 3954SOL    HW123498   3.695   1.775  11.789 -1.6659 -0.1392 -0.7540
 3954SOL    HW223499   3.824   1.806  11.743  0.1787  0.4239 -0.9202
 3955SOL     OW23500   3.155   2.224   0.535  0.0019  0.2179 -0.1519
 3955SOL    HW123501   3.222   2.290   0.548 -0.5024  0.2925  2.0966
 3955SOL    HW223502   3.142   2.232   0.440  0.3572 -2.9143 -0.4637
 3956SOL     OW23503   0.966   4.405  16.776 -0.1781  0.1203  0.0507
 3956SOL    HW123504   0.919   4.458  16.711 -0.6806 -0.9094 -0.4388
 3956SOL    HW223505   0.960   4.323  16.727  0.0754 -0.4599  0.9933
 3957SOL     OW23506   4.330   4.236   9.616 -0.0180  0.5362  0.5815
 3957SOL    HW123507   4.360   4.306   9.558  0.8719 -2.5565 -2.7107
 3957SOL    HW223508   4.236   4.228   9.598  0.2717 -0.9247 -0.3230
 3958SOL     OW23509   3.700   0.008   3.537  0.1297  0.0848  0.1717
 3958SOL    HW123510   3.773   0.067   3.520  1.7435 -1.7002  0.9094
 3958SOL    HW223511   3.667   4.722   3.451 -0.1775 -1.2385  0.6796
 3959SOL     OW23512   1.986   2.367   4.178 -0.0270 -0.1146 -0.3035
 3959SOL    HW123513   1.938   2.286   4.188  0.4348 -0.7312 -2.8504
 3959SOL    HW223514   2.056   2.351   4.242 -1.5393 -0.6736  1.1877
 3960SOL     OW23515   3.132   1.909   7.896 -0.2355  0.1694  0.0841
 3960SOL    HW123516   3.108   1.927   7.805 -3.1259  1.4284  1.1005
 3960SOL    HW223517   3.115   1.815   7.897 -0.3920  0.1937 -0.4423
 3961SOL     OW23518   0.183   2.301   6.898  0.0786 -0.8519 -0.1178
 3961SOL    HW123519   0.268   2.343   6.892 -0.4468  0.1135 -0.8506
 3961SOL    HW223520   0.162   2.275   6.808 -1.3900  0.6356 -0.2064
 3962SOL     OW23521   2.906   2.173   8.078  0.0068  0.4808  0.0906
 3962SOL    HW123522   2.877   2.085   8.102  0.7466 -0.0297 -0.9152
 3962SOL    HW223523   2.829   2.223   8.107  0.1036  0.9690 -0.4817
 3963SOL     OW23524   2.251   1.817   6.843 -0.1616 -0.8187  0.0644
 3963SOL    HW123525   2.253   1.802   6.748  1.1996  0.2160 -0.0739
 3963SOL    HW223526   2.346   1.813   6.856 -0.2222 -0.1571  0.7257
 3964SOL     OW23527   2.982   2.078   4.723  0.2508  0.2791 -0.2579
 3964SOL    HW123528   2.985   1.984   4.738  1.1377  0.2561 -0.5805
 3964SOL    HW223529   2.970   2.095   4.817  0.5426  0.1771 -0.2037
 3965SOL     OW23530   3.480   0.715   5.462  0.4987 -0.2658 -0.3080
 3965SOL    HW123531   3.429   0.640   5.435  0.4124 -0.4603  0.3816
 3965SOL    HW223532   3.570   0.683   5.473  0.3475 -0.3684  0.6572
 3966SOL     OW23533   4.254   4.418   7.036  0.6499 -0.4991  0.4369
 3966SOL    HW123534   4.268   4.493   7.093  1.2293 -0.7736  0.6600
 3966SOL    HW223535   4.193   4.444   6.968  0.3244 -0.1558  0.8628
 3967SOL     OW23536   4.272   0.110   3.133 -0.6574  0.0363 -0.0061
 3967SOL    HW123537   4.283   0.037   3.072  0.2030  0.2149 -0.0687
 3967SOL    HW223538   4.183   0.138   3.111 -0.8407  0.0380  0.7518
 3968SOL     OW23539   1.376   1.396   2.051  0.1255 -0.2962 -0.0507
 3968SOL    HW123540   1.379   1.480   2.004 -1.7807 -1.0566 -1.5390
 3968SOL    HW223541   1.411   1.429   2.133  0.9309  1.7183 -1.2175
 3969SOL     OW23542   3.358   4.056   3.820  0.2133  1.3287 -0.3663
 3969SOL    HW123543   3.433   4.001   3.844  0.6449  2.2106  0.2948
 3969SOL    HW223544   3.393   4.138   3.856 -1.7894  0.3998  3.7269
 3970SOL     OW23545   3.243   1.223   5.184 -0.2277  0.6510  0.0848
 3970SOL    HW123546   3.212   1.184   5.103 -1.9975  3.3855 -0.5346
 3970SOL    HW223547   3.290   1.147   5.219  0.1917  1.0466  0.3867
 3971SOL     OW23548   0.248   3.571   3.375 -0.1075  0.6338 -0.2730
 3971SOL    HW123549   0.254   3.553   3.281  0.4893 -1.3764  0.1556
 3971SOL    HW223550   0.334   3.610   3.391 -0.4562  1.3977 -0.2590
 3972SOL     OW23551   2.728   3.603   7.541 -0.1076 -0.6613  0.3237
 3972SOL    HW123552   2.645   3.557   7.558  0.3788 -2.1126 -1.1844
 3972SOL    HW223553   2.795   3.569   7.600  1.6937  0.7939 -0.8942
 3973SOL     OW23554   1.603   3.326   8.355 -0.2194 -0.3663 -0.4429
 3973SOL    HW123555   1.619   3.335   8.449 -1.2501  2.1588 -0.5134
 3973SOL    HW223556   1.689   3.330   8.312  0.0623 -1.5101  0.0200
 3974SOL     OW23557   1.445   4.736   7.465 -0.5752 -0.2490 -0.4465
 3974SOL    HW123558   1.448   0.093   7.466  2.2493 -0.3318 -2.5254
 3974SOL    HW223559   1.408   4.714   7.551 -1.7523 -0.5073 -1.0131
 3975SOL     OW23560   2.146   1.341   6.978  0.2462  0.3337  0.3388
 3975SOL    HW123561   2.210   1.411   6.969  0.2107 -0.0604 -2.8495
 3975SOL    HW223562   2.194   1.275   7.029 -0.0293 -0.8489 -0.9551
 3976SOL     OW23563   1.865   0.281   3.101  0.0692  0.1862 -0.1972
 3976SOL    HW123564   1.771   0.266   3.108 -0.3007  2.6733  0.0557
 3976SOL    HW223565   1.875   0.369   3.065  1.1298 -0.0331 -0.4341
 3977SOL     OW23566   3.124   2.723   2.368  0.8291 -0.1775  0.6603
 3977SOL    HW123567   3.090   2.791   2.427 -1.3328 -0.5580 -0.1329
 3977SOL    HW223568   3.216   2.731   2.394  1.2443 -1.1271 -0.5229
 3978SOL     OW23569   4.294   1.555   4.692  0.4571 -0.0730 -0.1281
 3978SOL    HW123570   4.367   1.613   4.715  0.4288  0.8516 -2.3266
 3978SOL    HW223571   4.260   1.591   4.610  1.6215  0.6182 -0.3068
 3979SOL     OW23572   1.211   4.387   5.684 -0.1264  0.3635 -0.4799
 3979SOL    HW123573   1.300   4.415   5.705  0.2098 -1.4335  0.4347
 3979SOL    HW223574   1.180   4.446   5.615  0.1737 -1.4720 -2.1585
 3980SOL     OW23575   2.001   4.509  12.632  0.1728  0.1729  0.1921
 3980SOL    HW123576   1.937   4.580  12.630 -1.8510 -1.6754 -0.3563
 3980SOL    HW223577   1.999   4.485  12.539 -1.9459 -0.6800  0.4561
 3981SOL     OW23578   3.297   2.552  12.802  0.3595  1.0569  0.2712
 3981SOL    HW123579   3.250   2.610  12.862 -1.2237  0.2898 -0.2115
 3981SOL    HW223580   3.259   2.568  12.716  1.3344  2.4993  0.1196
 3982SOL     OW23581   2.703   1.748   4.579  0.4555 -0.6661  0.4172
 3982SOL    HW123582   2.765   1.764   4.651 -3.2223  0.9226  3.2210
 3982SOL    HW223583   2.694   1.653   4.586 -0.8698 -0.7020 -1.8728
 3983SOL     OW23584   3.278   3.734   0.472 -0.0485 -0.5602  0.2956
 3983SOL    HW123585   3.203   3.711   0.527 -0.9101  3.6276  0.9138
 3983SOL    HW223586   3.236   3.704   0.391  1.0556  0.9619 -0.8443
 3984SOL     OW23587   3.728   3.666   6.111  1.1246 -1.0350  0.0570
 3984SOL    HW123588   3.780   3.594   6.076 -0.2085 -1.8518 -0.2229
 3984SOL    HW223589   3.736   3.732   6.042 -3.9487 -0.2169  0.2335
 3985SOL     OW23590   0.833   3.305  12.268 -0.3448 -0.0655  0.3853
 3985SOL    HW123591   0.849   3.333  12.177  0.9443 -3.1692 -0.3377
 3985SOL    HW223592   0.844   3.210  12.263 -2.0807 -0.3309  1.8861
 3986SOL     OW23593   3.594   0.662   8.153  0.1028  0.1812  0.3687
 3986SOL    HW123594   3.543   0.740   8.134  0.9993  0.2683 -1.7400
 3986SOL    HW223595   3.526   0.604   8.188  0.8749 -0.7031  0.4128
 3987SOL     OW23596   2.333   1.750   9.730 -0.8797  0.1227  0.0432
 3987SOL    HW123597   2.368   1.715   9.812 -1.4772 -2.5558 -0.8444
 3987SOL    HW223598   2.368   1.838   9.739  1.6360 -0.7549 -1.2648
 3988SOL     OW23599   3.993   3.428   0.622  0.0001 -0.2270  0.4518
 3988SOL    HW123600   3.943   3.378   0.558  1.1571 -0.4527 -0.2936
 3988SOL    HW223601   3.989   3.523   0.614 -1.3777 -0.4126 -0.8802
 3989SOL     OW23602   2.234   0.657  14.338 -0.2059  0.4218  0.1269
 3989SOL    HW123603   2.175   0.690  14.406 -1.1136  1.9475 -1.4298
 3989SOL    HW223604   2.176   0.609  14.279  2.3826 -0.9076 -1.3555
 3990SOL     OW23605   3.660   3.778   8.001 -0.9419  0.2750  0.0104
 3990SOL    HW123606   3.647   3.683   7.998  0.7131 -0.0079  2.0623
 3990SOL    HW223607   3.705   3.786   8.085 -0.2018 -2.5244 -0.1200
 3991SOL     OW23608   2.172   0.361   8.785 -0.0154 -0.2326  0.3117
 3991SOL    HW123609   2.125   0.319   8.713  1.5412 -0.7223 -0.4267
 3991SOL    HW223610   2.162   0.289   8.847  0.4551 -1.0697 -0.5809
 3992SOL     OW23611   4.496   0.715   4.272 -0.3612  0.3839 -0.3216
 3992SOL    HW123612   4.574   0.761   4.241  0.4714 -1.4211 -0.8817
 3992SOL    HW223613   4.504   0.721   4.367  1.3498 -0.3796 -0.4239
 3993SOL     OW23614   2.208   3.814   4.724 -0.1773 -0.2045  0.4976
 3993SOL    HW123615   2.206   3.834   4.630 -0.7703 -2.4960  0.0352
 3993SOL    HW223616   2.294   3.774   4.733  1.3896  2.8152 -0.9801
 3994SOL     OW23617   2.252   3.174   5.365 -0.0881  0.0402 -1.0630
 3994SOL    HW123618   2.166   3.138   5.342 -0.6472  0.8188 -0.2229
 3994SOL    HW223619   2.306   3.118   5.310  2.0248 -0.6473  1.7032
 3995SOL     OW23620   0.814   4.296   8.198  0.0239 -0.5001 -0.0845
 3995SOL    HW123621   0.886   4.250   8.155 -0.2690 -0.1401 -0.9402
 3995SOL    HW223622   0.789   4.358   8.129  4.3714 -1.9423 -2.9481
 3996SOL     OW23623   2.191   4.461  12.223 -0.2239 -0.1219  0.1080
 3996SOL    HW123624   2.250   4.488  12.293 -1.0045  0.7645  0.4304
 3996SOL    HW223625   2.106   4.458  12.268  0.4960  1.9822  1.6223
 3997SOL     OW23626   1.893   2.476   1.587 -0.3645  0.1718  0.3572
 3997SOL    HW123627   1.849   2.545   1.637 -0.3721  0.1883  0.3279
 3997SOL    HW223628   1.982   2.477   1.621  0.5266  1.8536 -2.0537
 3998SOL     OW23629   3.888   4.662   8.382 -0.1490 -0.0678 -0.4457
 3998SOL    HW123630   3.940   4.693   8.455 -0.4437  0.1794 -0.3411
 3998SOL    HW223631   3.850   0.007   8.358  1.2189  0.9203  0.8791
 3999SOL     OW23632   3.172   0.986   5.729 -0.2756 -0.1148 -0.2094
 3999SOL    HW123633   3.181   0.952   5.818  0.0997 -0.6258 -0.4395
 3999SOL    HW223634   3.172   0.908   5.672  0.0616  0.1234 -0.5346
 4000SOL     OW23635   2.794   1.533   1.643 -0.0947  0.2884 -0.0245
 4000SOL    HW123636   2.769   1.452   1.599 -1.8142  0.4718  0.6095
 4000SOL    HW223637   2.862   1.500   1.701 -0.6342  0.0509  0.4757
 4001SOL     OW23638   2.241   0.092   5.065  0.2680 -0.5997 -0.1726
 4001SOL    HW123639   2.300   0.111   4.992 -0.7222 -0.1082 -0.8455
 4001SOL    HW223640   2.160   0.117   5.021  0.6809 -0.9083 -1.1055
 4002SOL     OW23641   4.200   0.627   8.399  0.0864  0.0411 -0.2978
 4002SOL    HW123642   4.271   0.628   8.334  2.0742 -1.2810  1.8717
 4002SOL    HW223643   4.258   0.647   8.473 -2.2096  1.6665  1.0531
 4003SOL     OW23644   0.022   0.514  11.000 -0.2295  0.5528  0.0055
 4003SOL    HW123645   0.030   0.451  10.929 -0.7816  1.2753 -0.6986
 4003SOL    HW223646   0.009   0.599  10.958 -1.4550  1.1265  1.5143
 4004SOL     OW23647   2.902   3.472  13.592  0.0499  0.4898  0.0789
 4004SOL    HW123648   2.871   3.383  13.576  2.7712 -0.4662  0.1181
 4004SOL    HW223649   2.991   3.479  13.556  1.0301  1.7710  2.7797
 4005SOL     OW23650   4.437   2.640   6.830  0.0053  0.0663 -0.8827
 4005SOL    HW123651   4.371   2.607   6.770  1.8622 -1.5966 -2.0286
 4005SOL    HW223652   4.482   2.559   6.856  2.0031  1.1564 -0.9512
 4006SOL     OW23653   2.817   1.333   1.405 -0.1558 -0.2348 -0.3327
 4006SOL    HW123654   2.738   1.306   1.358  0.2016  1.5697 -2.0196
 4006SOL    HW223655   2.836   1.246   1.440  3.3573  0.9155  0.6442
 4007SOL     OW23656   1.793   2.287   9.377 -0.1126  0.7314 -0.1003
 4007SOL    HW123657   1.772   2.243   9.295 -3.7966  1.6090  0.3822
 4007SOL    HW223658   1.730   2.359   9.384 -0.5019  0.3757  0.0963
 4008SOL     OW23659   0.698   1.215   1.208  0.7736 -0.2902 -0.0563
 4008SOL    HW123660   0.753   1.260   1.144  0.6612 -1.4136 -0.9451
 4008SOL    HW223661   0.749   1.238   1.286  1.5051 -0.3589 -0.5188
 4009SOL     OW23662   1.596   0.763   6.054 -0.2187 -0.2968 -0.0302
 4009SOL    HW123663   1.598   0.782   6.148 -3.5975  0.3743 -0.1159
 4009SOL    HW223664   1.617   0.846   6.011  0.8372 -0.0964  0.8464
 4010SOL     OW23665   1.463   3.350   6.028 -0.0750  0.7428  0.3522
 4010SOL    HW123666   1.481   3.442   6.051 -1.0948  1.1068 -0.3445
 4010SOL    HW223667   1.409   3.314   6.098  0.4226  1.1763  0.9585
 4011SOL     OW23668   2.914   0.201  13.811 -1.1124  0.4060 -0.3777
 4011SOL    HW123669   2.839   0.244  13.852 -0.6018  0.8101  0.1360
 4011SOL    HW223670   2.939   0.258  13.738 -0.6944  1.8038  0.8404
 4012SOL     OW23671   2.024   3.354   3.070 -0.2404 -0.4010 -0.3229
 4012SOL    HW123672   1.940   3.312   3.053 -1.2638  0.4120  2.6450
 4012SOL    HW223673   2.014   3.449   3.074  2.4445 -0.1457  0.3676
 4013SOL     OW23674   2.592   0.140  17.200 -0.3611  0.0745  0.2017
 4013SOL    HW123675   2.529   0.210  17.187 -0.5479 -0.5996 -2.4460
 4013SOL    HW223676   2.600   0.137  17.296 -0.4383 -4.2494  0.0749
 4014SOL     OW23677   2.284   2.856  17.268  0.1265  0.3561  0.1475
 4014SOL    HW123678   2.212   2.792  17.273  1.7171 -1.2697  2.0564
 4014SOL    HW223679   2.274   2.866  17.173 -0.1267  0.1542  0.1511
 4015SOL     OW23680   0.910   2.045  11.097 -0.0902  0.1219 -0.0450
 4015SOL    HW123681   0.854   2.012  11.166 -0.0428  0.4792  0.1636
 4015SOL    HW223682   0.857   2.115  11.058 -0.1836 -1.1895 -2.2764
 4016SOL     OW23683   3.012   3.022   7.379  0.0897  0.2424  0.1851
 4016SOL    HW123684   2.948   3.094   7.376  1.0023  0.9607 -1.5567
 4016SOL    HW223685   3.012   3.002   7.473 -1.1493  0.5866  0.2606
 4017SOL     OW23686   0.065   3.576   4.980 -0.1031  0.9770 -0.2907
 4017SOL    HW123687   0.010   3.556   4.904 -0.7541  0.6256  0.2672
 4017SOL    HW223688   0.141   3.586   4.924  0.3990  1.3030  0.4389
 4018SOL     OW23689   4.314   3.459   2.127 -0.1255  0.3861 -0.7063
 4018SOL    HW123690   4.348   3.450   2.038  1.1533  0.5964 -0.2404
 4018SOL    HW223691   4.381   3.412   2.176 -0.0453  0.8665 -0.3610
 4019SOL     OW23692   1.802   1.897   6.178 -0.0637 -0.7408 -0.6840
 4019SOL    HW123693   1.857   1.972   6.154 -1.5005  1.5553  3.1488
 4019SOL    HW223694   1.867   1.827   6.181  0.2958 -0.3285  1.0391
 4020SOL     OW23695   0.228   1.067   8.254 -0.4640  0.1774  0.2057
 4020SOL    HW123696   0.322   1.063   8.241 -0.6913 -1.7164 -0.8140
 4020SOL    HW223697   0.196   1.121   8.182 -0.2130  0.5395  0.3657
 4021SOL     OW23698   1.311   1.000  11.365 -0.2412  0.3266  0.1375
 4021SOL    HW123699   1.250   0.931  11.389  1.9074 -1.8705 -0.7280
 4021SOL    HW223700   1.383   0.980  11.425 -1.0765 -0.5248  0.8415
 4022SOL     OW23701   0.703   3.252   6.859 -0.0305 -0.1912  0.7627
 4022SOL    HW123702   0.656   3.175   6.826  1.3115 -1.3978  1.6925
 4022SOL    HW223703   0.793   3.233   6.834 -0.7009 -2.4432 -0.0225
 4023SOL     OW23704   0.737   3.459  15.641 -0.0292 -0.2680 -0.0613
 4023SOL    HW123705   0.707   3.415  15.562  0.1257 -2.6766  1.2237
 4023SOL    HW223706   0.665   3.522  15.650 -0.4134 -0.7187 -0.0275
 4024SOL     OW23707   0.141   2.385   5.239 -0.0790 -0.1945  0.6652
 4024SOL    HW123708   0.222   2.412   5.195 -1.0564 -1.6182 -1.9907
 4024SOL    HW223709   0.104   2.472   5.255 -2.4910 -1.2691  1.0226
 4025SOL     OW23710   1.621   1.546   9.327  0.3831 -0.1059 -0.4520
 4025SOL    HW123711   1.585   1.457   9.331 -1.0182  0.5069  0.4968
 4025SOL    HW223712   1.595   1.595   9.405  0.4610  0.5429 -0.8295
 4026SOL     OW23713   3.861   3.384   3.528 -0.0618  0.1668  0.0783
 4026SOL    HW123714   3.920   3.432   3.470 -0.0744  0.1830  0.0789
 4026SOL    HW223715   3.919   3.308   3.535 -2.5361 -1.7565 -0.3363
 4027SOL     OW23716   2.154   2.190   6.646  0.2047  0.2399  0.6530
 4027SOL    HW123717   2.210   2.122   6.683 -1.4839 -0.8967  1.0864
 4027SOL    HW223718   2.090   2.141   6.596  1.4649  1.4081 -2.1074
 4028SOL     OW23719   0.330   3.479   7.580 -0.0195  0.1820 -0.0923
 4028SOL    HW123720   0.358   3.528   7.657  1.1158  1.3169 -1.2311
 4028SOL    HW223721   0.353   3.543   7.512 -1.2320  0.1226 -0.5576
 4029SOL     OW23722   3.396   1.785   2.321 -0.2774  0.2066  0.2176
 4029SOL    HW123723   3.445   1.822   2.248 -1.3779  1.2441 -0.0027
 4029SOL    HW223724   3.369   1.868   2.360 -0.5167  0.7719 -1.1396
 4030SOL     OW23725   0.599   4.017   9.875 -0.1497 -0.0676  0.1326
 4030SOL    HW123726   0.694   4.010   9.873 -0.1208  0.2818  0.2409
 4030SOL    HW223727   0.574   3.975   9.793  0.1343 -0.5963  0.3150
 4031SOL     OW23728   0.990   1.178   4.751  0.4194 -0.4224  0.3122
 4031SOL    HW123729   0.974   1.180   4.846  0.9659  0.2754  0.3983
 4031SOL    HW223730   1.075   1.134   4.752  0.9207  0.5296 -0.1199
 4032SOL     OW23731   4.479   4.355   6.881 -0.1611 -0.4541  0.4845
 4032SOL    HW123732   4.499   4.409   6.804  1.4201 -0.3369  0.9658
 4032SOL    HW223733   4.389   4.363   6.912 -0.6737 -2.3070 -0.5635
 4033SOL     OW23734   2.955   3.347   8.874  0.6880 -0.4143 -1.1992
 4033SOL    HW123735   2.894   3.421   8.876  1.0726 -0.1570  0.8503
 4033SOL    HW223736   2.906   3.281   8.923  0.6465 -1.2915 -2.3987
 4034SOL     OW23737   4.317   3.729   3.606 -0.0142  0.3374  0.4186
 4034SOL    HW123738   4.254   3.745   3.536 -0.2047 -1.3302  0.2258
 4034SOL    HW223739   4.257   3.750   3.677  0.6556  2.1249  0.4570
 4035SOL     OW23740   2.074   1.678   1.213 -0.0207  0.0066  0.1202
 4035SOL    HW123741   1.998   1.634   1.251 -1.7085  0.5606 -2.6487
 4035SOL    HW223742   2.119   1.599   1.181  1.2339  0.3317  1.0586
 4036SOL     OW23743   3.099   4.348   4.868  0.0299  0.2370 -0.7618
 4036SOL    HW123744   3.062   4.412   4.928 -2.5844 -0.7098 -1.3427
 4036SOL    HW223745   3.016   4.324   4.826 -0.6232  0.9485  0.1264
 4037SOL     OW23746   1.209   4.611   1.511 -0.1240  0.4179  0.3534
 4037SOL    HW123747   1.263   4.595   1.434  0.1486 -1.4825  0.9627
 4037SOL    HW223748   1.244   4.697   1.536  0.0798  0.6263 -0.6732
 4038SOL     OW23749   1.103   0.566   0.613 -0.4500  0.1549  0.0761
 4038SOL    HW123750   1.077   0.491   0.666  1.4821 -1.1282 -0.7809
 4038SOL    HW223751   1.059   0.543   0.531  1.6967  0.5527 -1.1906
 4039SOL     OW23752   2.814   3.670   3.483  0.4284  0.2326 -0.4362
 4039SOL    HW123753   2.852   3.661   3.570 -2.1754 -0.1995  0.6428
 4039SOL    HW223754   2.722   3.672   3.508  0.2546 -0.5052 -1.0131
 4040SOL     OW23755   0.459   2.403   5.581  0.2533  0.0407  0.3203
 4040SOL    HW123756   0.445   2.472   5.647 -0.0833  1.4535 -1.2196
 4040SOL    HW223757   0.437   2.328   5.636 -0.0808  1.1105  1.6509
 4041SOL     OW23758   1.497   2.489   7.089 -0.3616  0.5353  0.2528
 4041SOL    HW123759   1.477   2.575   7.127  3.5441 -0.0632  3.7587
 4041SOL    HW223760   1.422   2.484   7.030  0.8161 -0.3178 -1.1682
 4042SOL     OW23761   0.989   2.361   5.241 -1.0753 -0.0495  0.5165
 4042SOL    HW123762   0.904   2.385   5.277 -1.9471 -0.6316 -1.2080
 4042SOL    HW223763   0.967   2.304   5.168 -2.9833  0.3680  0.7673
 4043SOL     OW23764   1.455   0.238  16.828  0.5442  0.2109 -0.4461
 4043SOL    HW123765   1.551   0.238  16.820  0.6922  1.9706  1.0065
 4043SOL    HW223766   1.426   0.230  16.919 -0.5970  1.2944 -0.7097
 4044SOL     OW23767   1.138   0.395   7.143  0.7849  0.0751 -0.4296
 4044SOL    HW123768   1.230   0.373   7.131  0.5713 -0.6564 -0.7046
 4044SOL    HW223769   1.109   0.402   7.053  0.9795  2.0303 -0.3340
 4045SOL     OW23770   0.379   3.007   2.897 -0.1870  0.1189 -0.0795
 4045SOL    HW123771   0.382   3.024   2.991  0.4073 -1.3879  0.1734
 4045SOL    HW223772   0.298   3.055   2.879  0.6908  2.4655  2.1161
 4046SOL     OW23773   4.112   3.554   6.864 -1.0880  0.4626 -0.2048
 4046SOL    HW123774   4.021   3.583   6.862 -0.8583  1.1626 -0.2832
 4046SOL    HW223775   4.132   3.571   6.956 -1.9841 -0.0665  0.0801
 4047SOL     OW23776   2.112   1.581  14.402  0.0685  0.0326 -0.2889
 4047SOL    HW123777   2.175   1.542  14.341  2.1808  1.3471  1.0584
 4047SOL    HW223778   2.099   1.515  14.470  0.7067  2.4410  2.1701
 4048SOL     OW23779   1.808   3.861   4.537 -0.2773  0.4110  0.2521
 4048SOL    HW123780   1.763   3.837   4.456 -2.5696  0.9898  1.3551
 4048SOL    HW223781   1.816   3.956   4.525  1.7767  0.2038 -0.0438
 4049SOL     OW23782   0.139   2.372   9.452 -0.0962 -0.2036  0.4070
 4049SOL    HW123783   0.227   2.397   9.483 -1.2292  1.9490  1.9081
 4049SOL    HW223784   0.103   2.460   9.438 -0.7235 -0.7353 -1.1836
 4050SOL     OW23785   2.617   2.991   3.849 -0.0898 -0.4127 -0.4568
 4050SOL    HW123786   2.572   3.075   3.848 -0.5171 -0.6512 -0.9108
 4050SOL    HW223787   2.561   2.933   3.900 -1.3658 -2.1783 -3.8468
 4051SOL     OW23788   2.027   0.437  10.928 -0.4090  0.0032 -0.1732
 4051SOL    HW123789   2.020   0.516  10.874 -0.0179 -0.9043 -1.5512
 4051SOL    HW223790   2.054   0.486  11.005  0.6500  0.3718 -0.7834
 4052SOL     OW23791   0.835   3.806   5.947 -0.1860 -0.3176  0.3375
 4052SOL    HW123792   0.791   3.735   5.994 -2.2693  1.9251  1.7735
 4052SOL    HW223793   0.759   3.863   5.936  0.4098  0.0614 -1.9090
 4053SOL     OW23794   1.592   2.736   8.550  0.0055 -0.1183 -0.6111
 4053SOL    HW123795   1.635   2.813   8.511  2.3830 -0.4896  1.2203
 4053SOL    HW223796   1.587   2.688   8.468 -1.8785  1.4654 -1.4325
 4054SOL     OW23797   1.425   2.382   3.980  0.0156 -0.7454 -0.3289
 4054SOL    HW123798   1.348   2.402   4.033  1.2699 -1.1375  1.6379
 4054SOL    HW223799   1.408   2.297   3.940 -0.6695 -0.0204 -1.5991
 4055SOL     OW23800   1.190   3.907   9.540 -0.0603 -1.1724 -0.3406
 4055SOL    HW123801   1.168   3.983   9.593  0.2639 -2.1893  1.2613
 4055SOL    HW223802   1.285   3.898   9.542 -0.0496 -1.1920 -0.8818
 4056SOL     OW23803   1.069   0.376   6.249  0.1409 -0.1862 -0.0118
 4056SOL    HW123804   1.087   0.420   6.166  1.3462  2.4555  1.6512
 4056SOL    HW223805   0.976   0.354   6.238  0.3230 -0.1143 -1.7097
 4057SOL     OW23806   1.422   1.148   8.440 -0.2212 -0.1477  0.2813
 4057SOL    HW123807   1.455   1.116   8.524 -1.6550  0.4717  1.0869
 4057SOL    HW223808   1.351   1.197   8.483 -1.1043 -1.5130  0.3634
 4058SOL     OW23809   2.638   2.115   4.615  0.8236  0.2313 -0.2261
 4058SOL    HW123810   2.694   2.193   4.618 -2.0526  2.2579  0.6427
 4058SOL    HW223811   2.559   2.168   4.624  0.0588 -1.0758  0.7787
 4059SOL     OW23812   3.235   3.148  13.491  0.1365 -0.0644  0.4734
 4059SOL    HW123813   3.161   3.177  13.543  0.2969  0.1115  0.6042
 4059SOL    HW223814   3.298   3.216  13.514 -0.7536  1.3595 -1.3149
 4060SOL     OW23815   3.322   1.186   4.698 -0.0003  0.4478 -0.1004
 4060SOL    HW123816   3.370   1.268   4.687  0.1365  0.2845 -0.7294
 4060SOL    HW223817   3.276   1.181   4.614  0.5750  1.7230 -0.4927
 4061SOL     OW23818   0.119   3.690   0.025 -0.0749 -0.3784 -0.8083
 4061SOL    HW123819   0.092   3.775   0.060  0.4615 -1.1405  1.3978
 4061SOL    HW223820   0.172   3.729  17.711  2.0361 -0.0055  1.0455
 4062SOL     OW23821   2.827   3.108   8.929 -0.0663  0.0409 -0.0816
 4062SOL    HW123822   2.741   3.080   8.959  0.2910 -1.3817 -0.3801
 4062SOL    HW223823   2.878   3.027   8.922 -1.2884 -0.6921 -0.3924
 4063SOL     OW23824   4.266   1.834   4.414 -0.0722 -0.1257 -0.1000
 4063SOL    HW123825   4.318   1.851   4.335 -0.3390 -0.7606 -0.4138
 4063SOL    HW223826   4.180   1.845   4.376 -0.4189  1.9786  1.2871
 4064SOL     OW23827   0.351   1.706   3.823  0.1463  0.1766  0.3658
 4064SOL    HW123828   0.380   1.646   3.891  0.8211  0.0240 -0.0546
 4064SOL    HW223829   0.271   1.657   3.802  0.9148 -1.5009  1.3980
 4065SOL     OW23830   1.608   0.423   2.909  0.1833 -0.6538 -0.4458
 4065SOL    HW123831   1.551   0.421   2.986 -1.3915  3.2337 -1.5289
 4065SOL    HW223832   1.595   0.512   2.879 -0.6283 -0.5043  0.3421
 4066SOL     OW23833   0.225   3.742  12.662  0.3430  0.1510 -0.7392
 4066SOL    HW123834   0.307   3.692  12.664  0.0247 -0.3753 -0.9543
 4066SOL    HW223835   0.166   3.697  12.722  2.6252  1.2199  2.2905
 4067SOL     OW23836   2.435   2.410   5.756  0.3186 -0.2405 -0.0745
 4067SOL    HW123837   2.395   2.434   5.839  0.4368  0.3531 -0.1834
 4067SOL    HW223838   2.524   2.395   5.789 -0.9104 -0.4913  3.0252
 4068SOL     OW23839   2.549   4.577   2.591 -0.5879  0.0036  0.1316
 4068SOL    HW123840   2.578   4.574   2.682  0.7523 -1.5304 -0.3514
 4068SOL    HW223841   2.612   4.511   2.562  1.0463  1.5245  0.2281
 4069SOL     OW23842   2.339   3.730  12.405 -0.4592  0.0182  0.3075
 4069SOL    HW123843   2.293   3.688  12.333  2.0701  1.9022 -2.4554
 4069SOL    HW223844   2.430   3.709  12.385 -0.3750 -0.8506  1.5889
 4070SOL     OW23845   1.585   1.705   9.603 -0.5813 -0.1709  0.2978
 4070SOL    HW123846   1.649   1.765   9.639  0.3407 -1.2180  0.4108
 4070SOL    HW223847   1.596   1.634   9.666  1.1445 -0.1199  0.0436
 4071SOL     OW23848   2.773   2.290   9.273  0.0531 -0.4843  0.1668
 4071SOL    HW123849   2.827   2.301   9.195  0.1998  1.3505  0.5140
 4071SOL    HW223850   2.730   2.209   9.248  0.8428 -1.1319  0.9091
 4072SOL     OW23851   1.853   1.480   1.920  0.3918 -0.3054  0.2358
 4072SOL    HW123852   1.908   1.402   1.914  0.1149 -0.5154  0.3643
 4072SOL    HW223853   1.766   1.447   1.895  0.1879 -0.2380  0.8478
 4073SOL     OW23854   0.028   1.757   9.337  0.1312 -0.5501  0.4926
 4073SOL    HW123855   0.003   1.667   9.318 -0.1292 -0.5032  0.6124
 4073SOL    HW223856   0.101   1.756   9.275 -1.1954 -1.1121 -1.0712
 4074SOL     OW23857   3.458   4.350   5.879 -0.3312 -0.7330 -0.2405
 4074SOL    HW123858   3.432   4.423   5.823 -0.8969 -2.1145 -1.7766
 4074SOL    HW223859   3.388   4.360   5.944  0.7561 -0.0974  0.8163
 4075SOL     OW23860   1.456   0.345   4.228  0.3573 -0.9843  0.5051
 4075SOL    HW123861   1.407   0.275   4.271 -1.4495  0.8574  1.4116
 4075SOL    HW223862   1.487   0.305   4.147 -0.6437 -1.5809  0.4224
 4076SOL     OW23863   4.490   1.444  17.094  0.4590 -0.3062  0.2045
 4076SOL    HW123864   4.438   1.395  17.157 -0.2066  1.2722  0.8860
 4076SOL    HW223865   4.492   1.530  17.137  0.1793 -1.1007  1.8165
 4077SOL     OW23866   0.237   1.735   2.670  0.1375 -0.1463 -0.4317
 4077SOL    HW123867   0.255   1.703   2.581  1.2909  0.9966 -0.6012
 4077SOL    HW223868   0.148   1.769   2.672  0.1067 -0.3344  1.6601
 4078SOL     OW23869   0.135   1.052   8.712  0.6273  0.2575  0.1901
 4078SOL    HW123870   0.220   1.079   8.677  2.8691 -4.0911  2.2798
 4078SOL    HW223871   0.145   1.066   8.807  2.7108  2.5444 -0.3666
 4079SOL     OW23872   1.946   3.957   2.193  0.0360 -0.5463  0.0927
 4079SOL    HW123873   1.919   3.951   2.102 -1.4948  0.1277  0.4946
 4079SOL    HW223874   1.888   4.021   2.236  0.6439 -0.8099  1.3200
 4080SOL     OW23875   1.007   0.316   2.668  0.1071  0.4361  0.0255
 4080SOL    HW123876   0.981   0.255   2.737 -0.4640  1.3067  0.5717
 4080SOL    HW223877   0.921   0.337   2.633 -1.1312  0.7232  3.2361
 4081SOL     OW23878   3.463   1.012   6.978  0.1992 -0.3482  0.0823
 4081SOL    HW123879   3.497   0.924   6.993  1.2044 -0.3347 -2.0908
 4081SOL    HW223880   3.376   1.003   6.939 -0.4697  0.5996  1.3727
 4082SOL     OW23881   3.012   2.342   7.720  0.2935  0.4693 -0.3490
 4082SOL    HW123882   3.009   2.438   7.724  1.3934  0.4817  0.0748
 4082SOL    HW223883   3.097   2.324   7.759 -0.1344 -0.3989  0.1703
 4083SOL     OW23884   2.002   1.413  15.234  0.4620  0.1917 -0.5267
 4083SOL    HW123885   1.910   1.389  15.232  0.3295  0.6656  0.0014
 4083SOL    HW223886   2.032   1.334  15.189 -0.6726  0.1330 -1.1646
 4084SOL     OW23887   3.757   0.174   3.997 -0.1914  0.2748  0.0829
 4084SOL    HW123888   3.697   0.194   4.068  1.2671  1.1158  1.0570
 4084SOL    HW223889   3.697   0.169   3.922  0.4446 -0.7903 -0.3660
 4085SOL     OW23890   3.632   0.190   5.724 -0.0884  0.6530  0.2558
 4085SOL    HW123891   3.575   0.203   5.648  1.3539  0.6643 -0.8342
 4085SOL    HW223892   3.705   0.247   5.701 -0.5952  0.6743 -1.3110
 4086SOL     OW23893   3.458   1.226   3.117  0.2018 -0.4221  0.2134
 4086SOL    HW123894   3.424   1.293   3.177 -1.0975 -0.5822 -0.3467
 4086SOL    HW223895   3.459   1.150   3.176 -2.9038 -1.1944 -0.7466
 4087SOL     OW23896   0.199   2.724   8.952  0.1030 -0.0529 -0.6395
 4087SOL    HW123897   0.145   2.668   9.009  1.0740 -0.9932 -0.6487
 4087SOL    HW223898   0.149   2.805   8.965 -0.5895 -0.4934 -0.5795
 4088SOL     OW23899   1.615   0.369   7.890 -0.5716 -0.1687 -0.0444
 4088SOL    HW123900   1.687   0.413   7.846 -2.1343  2.1777 -0.2496
 4088SOL    HW223901   1.563   0.443   7.920  0.5712  0.8893 -0.6865
 4089SOL     OW23902   3.206   0.488  16.542  0.1899 -0.7517 -0.1901
 4089SOL    HW123903   3.281   0.495  16.600 -1.3240  1.2634  1.5408
 4089SOL    HW223904   3.150   0.559  16.572  1.1330  0.0919 -0.4258
 4090SOL     OW23905   1.669   4.391   8.453  0.2893  0.0029 -0.4829
 4090SOL    HW123906   1.582   4.374   8.417  0.0404  1.3056 -0.5131
 4090SOL    HW223907   1.651   4.466   8.510  1.3046 -1.3657  1.6555
 4091SOL     OW23908   4.333   2.487  15.170  0.0426 -0.2186  0.2535
 4091SOL    HW123909   4.280   2.522  15.241 -0.4217 -2.0572  0.8235
 4091SOL    HW223910   4.269   2.479  15.100  1.3291  2.3281 -1.2255
 4092SOL     OW23911   0.391   1.523  13.797  0.0922 -0.1145  0.2325
 4092SOL    HW123912   0.444   1.560  13.868  2.6898 -1.2141 -1.1398
 4092SOL    HW223913   0.407   1.429  13.800  0.4453 -0.0356  0.7377
 4093SOL     OW23914   2.005   0.459  11.698  0.8900  0.1176 -0.0146
 4093SOL    HW123915   2.076   0.507  11.742  0.7920 -0.5642  0.8927
 4093SOL    HW223916   2.037   0.428  11.613 -0.7880 -0.9952 -0.2500
 4094SOL     OW23917   3.067   4.710   8.921 -0.0147  0.3887 -0.3909
 4094SOL    HW123918   3.149   4.675   8.958 -0.4585 -1.3813 -1.0788
 4094SOL    HW223919   3.068   4.667   8.835 -1.6012  0.5362 -0.4715
 4095SOL     OW23920   0.473   0.804   8.884  1.2456 -0.3358  0.1521
 4095SOL    HW123921   0.568   0.803   8.883  1.2308 -1.1874 -0.9111
 4095SOL    HW223922   0.453   0.798   8.977  0.8799 -0.1878  0.0838
 4096SOL     OW23923   2.685   1.652   6.944  0.6670 -0.4949 -0.2453
 4096SOL    HW123924   2.628   1.723   6.916  1.7200  0.5412  0.2447
 4096SOL    HW223925   2.705   1.608   6.861  1.3170  0.7419 -0.7418
 4097SOL     OW23926   0.210   1.887  16.660 -0.1078 -0.3534 -0.4097
 4097SOL    HW123927   0.229   1.850  16.574 -1.3851 -1.0722 -0.3851
 4097SOL    HW223928   0.198   1.977  16.633 -1.9483  0.0915  1.9073
 4098SOL     OW23929   2.604   0.277  16.351  0.3688  0.2058  0.2179
 4098SOL    HW123930   2.637   0.260  16.439  0.3460  0.4891  0.2820
 4098SOL    HW223931   2.675   0.331  16.315 -0.2171  0.3507 -0.7237
 4099SOL     OW23932   0.144   0.316  10.143 -0.2131 -0.1002  0.1424
 4099SOL    HW123933   0.050   0.312  10.164 -1.0152  0.6937 -3.2592
 4099SOL    HW223934   0.169   0.392  10.195  0.0347  0.8822 -1.4080
 4100SOL     OW23935   0.401   0.328   0.609 -0.2126 -0.0327  0.1452
 4100SOL    HW123936   0.361   0.412   0.584 -1.9648 -0.8695  0.1222
 4100SOL    HW223937   0.325   0.291   0.653  0.8386  0.0600  2.0338
 4101SOL     OW23938   1.392   4.637  15.382 -0.0435  0.1178  0.3310
 4101SOL    HW123939   1.297   4.627  15.385  0.2460 -2.4775  1.1796
 4101SOL    HW223940   1.412   4.583  15.459  0.8473  0.0956  0.0880
 4102SOL     OW23941   3.932   2.518   2.481 -0.3757 -0.8099  0.2295
 4102SOL    HW123942   3.935   2.609   2.511  1.2614 -1.2416  1.3949
 4102SOL    HW223943   3.865   2.483   2.540 -1.1373 -3.1848 -2.0990
 4103SOL     OW23944   2.178   3.147  11.882 -0.7265  0.1060  0.7807
 4103SOL    HW123945   2.262   3.142  11.836  0.1431 -2.5849  2.6026
 4103SOL    HW223946   2.126   3.141  11.802 -2.4093  0.5836  1.8380
 4104SOL     OW23947   3.641   1.145   6.397 -0.1695 -0.3758  0.0895
 4104SOL    HW123948   3.611   1.063   6.436 -0.0045 -0.0681  0.8763
 4104SOL    HW223949   3.718   1.168   6.448 -1.6693  1.9418  1.3076
 4105SOL     OW23950   3.659   1.645  16.714  0.2584 -0.3031 -0.1821
 4105SOL    HW123951   3.744   1.605  16.695  0.5089 -1.3427  3.1062
 4105SOL    HW223952   3.656   1.622  16.807 -1.3130 -0.1050 -0.1950
 4106SOL     OW23953   4.594   3.433  12.620  0.2651  0.0075  0.1234
 4106SOL    HW123954   4.610   3.387  12.538  2.8411  0.6160  0.3013
 4106SOL    HW223955   4.499   3.424  12.624 -0.0053  2.3451 -0.8099
 4107SOL     OW23956   3.658   3.404   6.878 -0.1213  0.2102  0.4084
 4107SOL    HW123957   3.596   3.442   6.940  0.5238 -0.2971  1.3574
 4107SOL    HW223958   3.618   3.318   6.860  0.4356  0.4679 -2.0933
 4108SOL     OW23959   2.428   3.912  13.275  0.3303 -0.2868 -0.2718
 4108SOL    HW123960   2.388   3.920  13.361  1.1470  0.3912  0.0487
 4108SOL    HW223961   2.352   3.900  13.218 -0.0454 -0.0985  0.1918
 4109SOL     OW23962   2.432   2.462   6.564 -0.1775  0.6235 -0.2498
 4109SOL    HW123963   2.497   2.533   6.563  0.8266 -0.2795  0.3542
 4109SOL    HW223964   2.353   2.499   6.526  0.3416  0.8537 -1.1107
 4110SOL     OW23965   1.133   1.483  12.476  0.1390  0.6049 -0.3697
 4110SOL    HW123966   1.131   1.389  12.495 -1.5048  0.7098 -0.0278
 4110SOL    HW223967   1.190   1.503  12.401  1.4142  2.8335  1.2116
 4111SOL     OW23968   1.419   1.474   5.580 -0.0596 -0.5171 -0.2935
 4111SOL    HW123969   1.478   1.431   5.518  0.3392  0.2790 -0.4641
 4111SOL    HW223970   1.475   1.531   5.633  0.3895 -1.3283  0.1228
 4112SOL     OW23971   1.640   4.170   9.420  0.0600  0.6608  0.0916
 4112SOL    HW123972   1.556   4.139   9.386  1.5183 -1.4708 -1.5289
 4112SOL    HW223973   1.698   4.147   9.348  1.0201  2.2218  0.3914
 4113SOL     OW23974   2.424   1.309   4.550 -0.3224  0.0202  0.1590
 4113SOL    HW123975   2.362   1.375   4.520 -0.6477  0.3097  1.4812
 4113SOL    HW223976   2.386   1.235   4.503 -1.2486  1.2104 -0.9687
 4114SOL     OW23977   4.170   0.481   4.091  0.6356  0.1731 -0.6874
 4114SOL    HW123978   4.111   0.428   4.037  1.6783 -1.2664 -0.4309
 4114SOL    HW223979   4.122   0.563   4.087  1.3019  0.6042  0.1093
 4115SOL     OW23980   2.075   3.379   8.053 -0.1524  0.1438 -0.0339
 4115SOL    HW123981   2.128   3.394   7.975  0.2121  1.2375  0.4281
 4115SOL    HW223982   2.062   3.467   8.090  0.4653 -0.2778  1.1776
 4116SOL     OW23983   2.225   2.113   8.171 -0.3139 -0.0181 -0.0287
 4116SOL    HW123984   2.148   2.143   8.123 -1.1443 -0.1173  1.2466
 4116SOL    HW223985   2.264   2.195   8.202 -0.1898 -0.0451 -0.1135
 4117SOL     OW23986   1.827   4.181  13.734  0.0715 -0.5911  0.1623
 4117SOL    HW123987   1.916   4.207  13.709  0.1295 -2.1730 -1.2789
 4117SOL    HW223988   1.805   4.099  13.690 -1.6613 -1.4356  2.6007
 4118SOL     OW23989   0.183   2.946   7.783 -0.5708  0.0458 -0.3503
 4118SOL    HW123990   0.208   2.880   7.848  0.6201 -1.3383 -2.2042
 4118SOL    HW223991   0.269   2.982   7.761 -0.8549  0.1935 -1.1869
 4119SOL     OW23992   2.979   3.599   5.118 -0.5821  0.5759 -0.2724
 4119SOL    HW123993   2.900   3.549   5.100 -0.2747 -0.3831  1.0385
 4119SOL    HW223994   2.998   3.640   5.033  0.4171  1.2801  0.2831
 4120SOL     OW23995   2.550   3.464   7.341  0.5938 -0.4565 -0.0773
 4120SOL    HW123996   2.474   3.423   7.298 -0.0086  0.1261  0.4366
 4120SOL    HW223997   2.586   3.518   7.272  0.8344 -0.4918  0.0221
 4121SOL     OW23998   0.579   2.743  11.348 -0.0254 -0.5849  0.2628
 4121SOL    HW123999   0.550   2.781  11.265 -2.1324  0.6042  1.5407
 4121SOL    HW224000   0.665   2.705  11.327  0.3985  0.5032  0.0619
 4122SOL     OW24001   4.717   3.273   3.129 -0.4099 -0.6736  0.0065
 4122SOL    HW124002   4.692   3.362   3.103  1.3610  0.2323  1.3716
 4122SOL    HW224003   4.642   3.219   3.107 -2.5829  1.4587  2.1749
 4123SOL     OW24004   2.519   3.352   5.207  0.6585 -0.0430 -0.3480
 4123SOL    HW124005   2.503   3.434   5.253 -0.7018 -0.4737 -0.0585
 4123SOL    HW224006   2.431   3.315   5.200  0.6372 -0.0497 -0.0388
 4124SOL     OW24007   3.165   3.160  12.746  0.2089  0.1762 -0.7399
 4124SOL    HW124008   3.090   3.218  12.730  1.1464  1.5019 -0.3133
 4124SOL    HW224009   3.113   3.082  12.766  0.8411 -0.2316 -0.6941
 4125SOL     OW24010   2.146   1.553   1.892 -0.2796 -0.4265 -0.0188
 4125SOL    HW124011   2.062   1.551   1.846 -0.3251  0.5325  0.0103
 4125SOL    HW224012   2.139   1.471   1.940 -0.6202  1.2151  2.7083
 4126SOL     OW24013   0.689   3.148   2.329  0.0454 -0.5277  0.5068
 4126SOL    HW124014   0.784   3.146   2.319  0.3419 -1.9985  3.4817
 4126SOL    HW224015   0.679   3.192   2.245 -2.6459  0.9762  1.6066
 4127SOL     OW24016   0.362   1.695   5.043  0.1831  0.8610  0.1431
 4127SOL    HW124017   0.272   1.676   5.019  0.2243  0.7827  0.0526
 4127SOL    HW224018   0.413   1.649   4.976 -0.3059 -0.6500  0.8203
 4128SOL     OW24019   1.313   2.016   1.622 -0.2086 -0.1109  0.3406
 4128SOL    HW124020   1.354   2.064   1.550 -1.3014  1.8537  1.0189
 4128SOL    HW224021   1.286   2.094   1.671 -0.7075  1.8108 -2.9836
 4129SOL     OW24022   1.448   1.780   3.425  0.6245  0.0458  0.2009
 4129SOL    HW124023   1.377   1.771   3.362 -0.3651 -1.4265  1.5037
 4129SOL    HW224024   1.446   1.692   3.464  0.6502 -0.9912 -2.1428
 4130SOL     OW24025   0.413   3.048  10.769 -0.3017 -0.2103  0.2508
 4130SOL    HW124026   0.501   3.053  10.805 -0.9512  0.0581  1.8235
 4130SOL    HW224027   0.416   2.966  10.721 -0.6641  0.4335 -0.8938
 4131SOL     OW24028   3.083   3.657   8.426 -0.3186  0.1506 -0.6459
 4131SOL    HW124029   3.115   3.572   8.454 -4.0493 -0.4516  1.7259
 4131SOL    HW224030   3.096   3.654   8.331 -1.6131  0.3726 -0.8338
 4132SOL     OW24031   1.466   1.140   2.026 -0.3798  0.3773  0.0310
 4132SOL    HW124032   1.445   1.117   1.936  2.3990  0.7117 -0.7065
 4132SOL    HW224033   1.471   1.235   2.023 -1.1643  0.4378  0.5210
 4133SOL     OW24034   1.143   4.520   0.058 -0.0368 -0.0485  0.1060
 4133SOL    HW124035   1.206   4.525  17.742 -1.0883 -0.3987 -0.8443
 4133SOL    HW224036   1.079   4.456   0.027 -1.5973  1.6344 -0.1685
 4134SOL     OW24037   3.323   1.959   5.675 -0.6251  0.1710  0.8381
 4134SOL    HW124038   3.333   1.888   5.613 -0.2888  0.5139  0.5001
 4134SOL    HW224039   3.296   2.028   5.615 -1.0593 -0.1857  0.6299
 4135SOL     OW24040   3.156   4.233   0.202 -1.1796 -0.5151  0.1204
 4135SOL    HW124041   3.227   4.268   0.148 -1.6684  2.8374  1.6170
 4135SOL    HW224042   3.133   4.161   0.143 -2.0514  1.2144 -1.6476
 4136SOL     OW24043   1.623   1.308   3.402  0.0057  0.1346  0.1416
 4136SOL    HW124044   1.550   1.299   3.463 -1.2028  2.5644 -0.9617
 4136SOL    HW224045   1.693   1.293   3.465 -1.1558 -0.0542  1.3781
 4137SOL     OW24046   1.330   4.591   5.305  0.3830  0.0105  0.4522
 4137SOL    HW124047   1.340   4.496   5.304  0.9590  0.0578  1.4352
 4137SOL    HW224048   1.411   4.630   5.270  0.4072 -0.2342  0.2356
 4138SOL     OW24049   1.749   2.678   8.771  0.0880 -0.9013 -0.1511
 4138SOL    HW124050   1.793   2.600   8.739  0.5295 -1.6846  2.3694
 4138SOL    HW224051   1.695   2.696   8.694  1.6013  1.2454 -0.7003
 4139SOL     OW24052   1.384   2.345   7.312 -0.1226  0.1110  0.4964
 4139SOL    HW124053   1.373   2.420   7.370 -1.5278 -1.0852  1.7676
 4139SOL    HW224054   1.439   2.381   7.243 -1.5088 -0.0313 -0.6728
 4140SOL     OW24055   3.309   0.059  16.695  0.7574 -0.6431  0.1732
 4140SOL    HW124056   3.248   4.725  16.702  1.8666 -1.6293 -0.6079
 4140SOL    HW224057   3.238   0.123  16.691  1.3804  0.0518  0.2119
 4141SOL     OW24058   1.362   1.593   0.362  0.1441 -0.3090 -0.3948
 4141SOL    HW124059   1.284   1.539   0.347 -1.0238  0.6150  2.2408
 4141SOL    HW224060   1.356   1.646   0.283 -1.2140  0.9493  0.5517
 4142SOL     OW24061   0.344   3.768  16.328 -0.2641 -0.6560 -0.5392
 4142SOL    HW124062   0.393   3.708  16.384  0.1222 -1.1657 -1.4195
 4142SOL    HW224063   0.278   3.715  16.282  1.1640 -2.0675 -0.9707
 4143SOL     OW24064   4.669   2.912   4.934  0.0587  0.2706 -0.0610
 4143SOL    HW124065   4.643   2.896   5.025  0.8626  1.1986  0.3369
 4143SOL    HW224066   0.024   2.925   4.934 -0.1382  1.7830 -1.5823
 4144SOL     OW24067   3.679   0.494   6.732 -0.7991 -0.0109  0.4808
 4144SOL    HW124068   3.742   0.541   6.786  1.5818 -1.2584 -1.1838
 4144SOL    HW224069   3.727   0.513   6.651  0.7143  0.0861  1.4145
 4145SOL     OW24070   1.058   2.780   3.737  0.3426  0.2714 -0.2650
 4145SOL    HW124071   1.010   2.820   3.810 -1.6022  0.0671 -1.4489
 4145SOL    HW224072   1.086   2.701   3.784  2.0970  0.0441 -1.7102
 4146SOL     OW24073   2.689   2.918   7.334 -0.3770 -0.0549  0.7815
 4146SOL    HW124074   2.733   2.994   7.372 -0.8771 -0.9954  3.2411
 4146SOL    HW224075   2.699   2.935   7.240 -0.6765  2.9337  1.2968
 4147SOL     OW24076   2.404   3.827  11.020  0.0439 -0.3347 -0.0588
 4147SOL    HW124077   2.349   3.892  10.976  0.2594 -0.2300 -0.1725
 4147SOL    HW224078   2.456   3.881  11.079  1.9238 -1.1100 -1.0074
 4148SOL     OW24079   2.060   1.226   8.663  0.2480 -0.1768 -0.0046
 4148SOL    HW124080   1.975   1.204   8.700  0.5638 -0.8988  0.3041
 4148SOL    HW224081   2.051   1.317   8.636 -0.1616 -0.0340  0.6322
 4149SOL     OW24082   3.272   2.691   4.547  0.1650 -0.0147 -0.1299
 4149SOL    HW124083   3.236   2.618   4.598 -1.7366  0.6372 -0.5441
 4149SOL    HW224084   3.326   2.730   4.616 -0.3802  0.0295  0.2681
 4150SOL     OW24085   3.245   0.699   4.738  0.4304 -0.2962  0.4380
 4150SOL    HW124086   3.339   0.705   4.756 -0.2209  2.0124  3.0130
 4150SOL    HW224087   3.229   0.779   4.687  2.1691  1.0941  2.0450
 4151SOL     OW24088   0.352   4.204   7.204  0.0078 -0.1895 -0.6747
 4151SOL    HW124089   0.311   4.149   7.271 -0.0399  0.5212 -0.1134
 4151SOL    HW224090   0.277   4.257   7.178 -0.6927 -0.2043  1.3130
 4152SOL     OW24091   2.058   1.069   4.409  0.0701  0.5361 -0.6879
 4152SOL    HW124092   2.139   1.116   4.427 -1.1181  2.6279 -0.7434
 4152SOL    HW224093   1.999   1.130   4.455  0.3540  0.2771  0.0294
 4153SOL     OW24094   2.580   0.400   2.349  0.0823  0.0346 -0.2087
 4153SOL    HW124095   2.498   0.379   2.393 -0.0743 -2.2332 -1.6219
 4153SOL    HW224096   2.550   0.467   2.287 -1.4007  0.0774  0.5714
 4154SOL     OW24097   2.622   4.173  14.818 -0.3274 -0.1010 -0.1136
 4154SOL    HW124098   2.552   4.225  14.780 -1.0187 -1.6842 -1.0364
 4154SOL    HW224099   2.601   4.086  14.784 -0.4868 -0.3035  0.4938
 4155SOL     OW24100   0.202   0.064   8.435  0.1994  0.0427 -0.2973
 4155SOL    HW124101   0.207   0.028   8.346  1.4824  0.7222 -0.5043
 4155SOL    HW224102   0.135   0.132   8.423 -1.3671 -1.4176  0.1530
 4156SOL     OW24103   3.449   3.104   4.781  0.0781 -0.6446  0.5212
 4156SOL    HW124104   3.447   3.198   4.763  0.6522  0.0704  4.0932
 4156SOL    HW224105   3.408   3.087   4.866 -0.8529  1.2942  0.4435
 4157SOL     OW24106   0.195   2.129  16.553  0.2466  0.9405 -0.2554
 4157SOL    HW124107   0.153   2.167  16.630  2.0558 -0.4557  1.4368
 4157SOL    HW224108   0.138   2.156  16.482  0.1564  1.7051  0.1150
 4158SOL     OW24109   3.627   2.694  10.443  0.2274 -0.0604  0.2027
 4158SOL    HW124110   3.610   2.645  10.362  0.2407  2.1673 -1.1519
 4158SOL    HW224111   3.602   2.628  10.507 -0.9424 -0.6159 -0.8215
 4159SOL     OW24112   0.103   1.665   7.210 -0.2028 -0.1403 -0.6536
 4159SOL    HW124113   0.036   1.708   7.158 -0.8847  0.2098  0.5172
 4159SOL    HW224114   0.176   1.697   7.157  2.2958 -2.6207  1.2761
 4160SOL     OW24115   4.095   0.612   8.654  0.4859  0.1785  0.2307
 4160SOL    HW124116   4.086   0.609   8.559  1.0440 -1.4181  0.2213
 4160SOL    HW224117   4.183   0.648   8.653 -0.9060  3.5035 -2.0695
 4161SOL     OW24118   2.166   4.640   4.802  0.1035 -0.0915 -0.1598
 4161SOL    HW124119   2.199   4.585   4.731 -1.3141 -2.0399  0.6818
 4161SOL    HW224120   2.164   4.581   4.877 -1.5562  1.2862  0.8792
 4162SOL     OW24121   4.430   4.198  13.871  0.9166  0.4746  0.4360
 4162SOL    HW124122   4.413   4.237  13.957 -0.8754 -0.2606  0.3969
 4162SOL    HW224123   4.518   4.234  13.861  0.7154  0.8929  0.1891
 4163SOL     OW24124   1.963   3.045   5.305  0.0938 -0.1252 -0.0516
 4163SOL    HW124125   1.914   3.047   5.223  0.9028 -0.4645 -0.5442
 4163SOL    HW224126   1.909   3.111   5.348  2.2996  2.4127 -1.1909
 4164SOL     OW24127   0.649   4.000   1.674  0.2822 -0.1348 -0.3373
 4164SOL    HW124128   0.671   3.916   1.633 -0.5433  0.0144 -1.0943
 4164SOL    HW224129   0.633   4.050   1.594  0.3022  0.1010 -0.1916
 4165SOL     OW24130   2.188   0.360   4.385 -0.0569 -0.4540 -0.1381
 4165SOL    HW124131   2.238   0.386   4.462 -0.3742 -1.3597  0.3681
 4165SOL    HW224132   2.229   0.398   4.306  0.6947 -0.6214  0.1731
 4166SOL     OW24133   0.118   2.638   8.345 -0.7417  0.9132 -0.0970
 4166SOL    HW124134   0.138   2.698   8.416 -1.9030  1.5559 -0.3147
 4166SOL    HW224135   0.201   2.663   8.304  0.1118  0.5839  1.4558
 4167SOL     OW24136   0.065   3.106  10.764 -0.5983  0.1743  0.0800
 4167SOL    HW124137   0.026   3.070  10.683 -0.0452  0.5397 -0.3479
 4167SOL    HW224138   0.023   3.191  10.774 -2.0556 -0.1953 -2.7599
 4168SOL     OW24139   0.886   2.489   3.148  0.1703 -0.4581 -0.1678
 4168SOL    HW124140   0.832   2.521   3.075  1.7852 -0.9962 -1.5931
 4168SOL    HW224141   0.893   2.569   3.201 -1.2990  0.4895 -1.3977
 4169SOL     OW24142   1.125   0.128   3.028 -0.2530 -0.0914 -0.2609
 4169SOL    HW124143   1.116   0.047   3.077  1.4232 -0.3211 -0.3145
 4169SOL    HW224144   1.045   0.121   2.977  0.3008  1.0995 -1.2896
 4170SOL     OW24145   2.140   0.572   6.411 -0.3185  0.2376 -0.4210
 4170SOL    HW124146   2.186   0.639   6.361  2.7687 -0.3728  1.6307
 4170SOL    HW224147   2.205   0.504   6.427 -0.7059  0.5118  2.4651
 4171SOL     OW24148   1.664   4.490   2.414  0.0813  0.7374  0.2710
 4171SOL    HW124149   1.714   4.565   2.447  0.6136  0.4864  0.0530
 4171SOL    HW224150   1.604   4.535   2.356  0.4939  0.3726 -0.4454
 4172SOL     OW24151   1.983   1.348  16.664  0.4233 -0.1350  0.1864
 4172SOL    HW124152   1.890   1.348  16.686  0.6007  0.7713  0.9484
 4172SOL    HW224153   2.011   1.398  16.740  1.8670  0.1366 -0.5271
 4173SOL     OW24154   3.240   2.329   5.271 -0.1411 -0.3817  0.3791
 4173SOL    HW124155   3.272   2.405   5.223  0.2758 -2.1504 -2.1610
 4173SOL    HW224156   3.320   2.276   5.280 -0.0388 -0.3897 -0.5990
 4174SOL     OW24157   2.964   1.778   8.795  0.0955 -0.5767 -0.0729
 4174SOL    HW124158   2.912   1.838   8.742  1.5624 -0.6463 -1.6000
 4174SOL    HW224159   2.899   1.746   8.858 -0.4290 -0.6898 -0.6674
 4175SOL     OW24160   3.184   2.363  14.707  0.2560  0.2261 -0.0498
 4175SOL    HW124161   3.206   2.408  14.788  0.8362  0.6061 -0.4253
 4175SOL    HW224162   3.269   2.369  14.665  0.4008  0.7194  0.3201
 4176SOL     OW24163   2.642   0.108  11.529  0.6602  0.1703 -0.1935
 4176SOL    HW124164   2.583   0.101  11.603 -1.2624 -1.0446 -1.8418
 4176SOL    HW224165   2.689   0.026  11.539  0.2537 -0.2539 -1.7363
 4177SOL     OW24166   4.031   3.905  10.450 -0.6923  0.3219  0.0559
 4177SOL    HW124167   3.961   3.957  10.489 -1.7939 -0.2911 -1.0969
 4177SOL    HW224168   4.039   3.930  10.358  2.2478 -0.2343  0.1719
 4178SOL     OW24169   3.304   4.710   6.556 -1.1527 -0.1128  0.1013
 4178SOL    HW124170   3.367   4.734   6.624  1.0474 -0.6620 -1.7547
 4178SOL    HW224171   3.299   4.616   6.571 -1.3974  0.1780  1.8959
 4179SOL     OW24172   1.258   4.432   7.490  0.3098  0.3740 -0.8173
 4179SOL    HW124173   1.303   4.366   7.438 -1.6149 -1.6720  0.1117
 4179SOL    HW224174   1.173   4.427   7.445  0.6862 -1.9250 -1.2969
 4180SOL     OW24175   0.198   1.962   6.912  0.0025  0.1348  0.8485
 4180SOL    HW124176   0.226   1.998   6.827  0.5561 -1.4201  0.3756
 4180SOL    HW224177   0.242   2.024   6.970  0.3472  0.6732  0.0176
 4181SOL     OW24178   0.311   3.057   2.600 -0.4588  0.2075 -0.3915
 4181SOL    HW124179   0.401   3.025   2.594 -0.3918 -0.0764  2.3023
 4181SOL    HW224180   0.328   3.103   2.682  0.1469 -0.5068 -0.1179
 4182SOL     OW24181   2.890   1.616   7.686  0.2161 -0.5066  0.4137
 4182SOL    HW124182   2.812   1.568   7.715 -0.9312  1.6050  0.8990
 4182SOL    HW224183   2.853   1.702   7.665  2.3223  0.1566 -0.5680
 4183SOL     OW24184   4.508   0.230   6.488 -0.2210  0.2411  0.0146
 4183SOL    HW124185   4.420   0.256   6.516  0.1585 -0.5322  1.9693
 4183SOL    HW224186   4.504   0.146   6.533  0.4184  1.7211  2.8538
 4184SOL     OW24187   4.102   0.383   9.650  0.0104  0.3860 -0.0791
 4184SOL    HW124188   4.026   0.399   9.594  0.3088 -0.1955 -0.6486
 4184SOL    HW224189   4.103   0.464   9.702  1.5162 -0.7105  1.5772
 4185SOL     OW24190   3.201   4.682   4.136  0.1969  0.0998  0.0871
 4185SOL    HW124191   3.266   4.686   4.206 -0.0151 -0.0529  0.2908
 4185SOL    HW224192   3.138   0.013   4.150 -0.0013  0.3260 -1.9602
 4186SOL     OW24193   3.311   3.182   6.066 -0.3521  0.0356 -0.1696
 4186SOL    HW124194   3.377   3.245   6.037 -1.1821  1.5534  1.2372
 4186SOL    HW224195   3.334   3.177   6.159 -1.3199 -1.6594 -0.0239
 4187SOL     OW24196   0.756   0.361   6.312 -0.3257 -0.5633 -0.2080
 4187SOL    HW124197   0.706   0.426   6.264  1.0336 -1.8283 -3.2989
 4187SOL    HW224198   0.767   0.400   6.399 -0.9900 -1.3357  0.2236
 4188SOL     OW24199   1.672   3.379   2.006  0.2344  0.6780 -0.2603
 4188SOL    HW124200   1.579   3.375   1.984  0.3982  1.2529 -1.0278
 4188SOL    HW224201   1.669   3.423   2.091  0.8283 -1.1947  0.7333
 4189SOL     OW24202   1.384   1.183   6.029 -0.1896  0.0721 -0.0043
 4189SOL    HW124203   1.476   1.160   6.041 -0.9358 -2.4026  0.8380
 4189SOL    HW224204   1.338   1.104   6.058  0.3372 -0.4738 -0.6629
 4190SOL     OW24205   4.071   0.833   3.230  0.6027  0.0796 -0.6390
 4190SOL    HW124206   4.020   0.850   3.151 -0.1010  0.0732 -0.1772
 4190SOL    HW224207   4.031   0.895   3.290  1.5537  0.9432 -0.8940
 4191SOL     OW24208   2.223   3.527  12.242  0.0645 -0.2521  0.3869
 4191SOL    HW124209   2.172   3.497  12.317 -4.2695 -0.2579 -2.5587
 4191SOL    HW224210   2.238   3.449  12.188 -1.3534  1.8245 -3.0467
 4192SOL     OW24211   2.420   0.707   8.481  0.2460  0.2316 -0.2432
 4192SOL    HW124212   2.463   0.719   8.565 -0.9905  0.3723  0.3649
 4192SOL    HW224213   2.350   0.772   8.479 -1.4425 -1.6279 -3.2476
 4193SOL     OW24214   2.633   3.896   1.547  0.8561 -0.1952  0.1877
 4193SOL    HW124215   2.634   3.862   1.637  1.3445 -2.6210 -0.7353
 4193SOL    HW224216   2.541   3.920   1.536  1.6251  2.0053 -1.3692
 4194SOL     OW24217   1.420   0.681   7.325 -0.0048 -0.3537 -0.6699
 4194SOL    HW124218   1.331   0.713   7.339  0.4041  0.0217  1.0365
 4194SOL    HW224219   1.475   0.759   7.327  0.7291 -0.8868 -0.1812
 4195SOL     OW24220   4.719   1.040  12.523  0.2577 -0.0094  0.1043
 4195SOL    HW124221   4.738   0.977  12.453 -2.9375  0.6657 -1.3905
 4195SOL    HW224222   4.638   1.001  12.558 -1.0093  2.1108 -0.4956
 4196SOL     OW24223   1.653   2.657  12.607 -0.0449 -0.1529 -0.7864
 4196SOL    HW124224   1.687   2.590  12.547 -2.2761  0.7344 -3.0267
 4196SOL    HW224225   1.725   2.657  12.671 -2.8339 -0.3900  2.3286
 4197SOL     OW24226   1.526   4.143   3.306 -0.1746 -0.3650 -0.0143
 4197SOL    HW124227   1.451   4.117   3.360  1.0783 -3.2862  0.3094
 4197SOL    HW224228   1.600   4.128   3.365  0.8800 -0.2376 -1.2883
 4198SOL     OW24229   2.512   0.990   5.888 -0.0163  0.1059 -0.0650
 4198SOL    HW124230   2.505   1.086   5.885  2.2768  0.2423 -0.7902
 4198SOL    HW224231   2.532   0.976   5.980 -1.6122 -0.0147  0.2689
 4199SOL     OW24232   3.198   2.459  14.399 -0.0111 -0.2925  0.2914
 4199SOL    HW124233   3.242   2.400  14.459 -0.1645 -0.6941  0.0146
 4199SOL    HW224234   3.152   2.397  14.341  0.7898 -0.5414 -0.0679
 4200SOL     OW24235   2.350   2.416  12.427 -0.8946 -0.7760 -0.3290
 4200SOL    HW124236   2.282   2.349  12.418 -0.7246 -0.7583 -1.7841
 4200SOL    HW224237   2.309   2.499  12.448 -0.6530 -0.9272  0.7801
 4201SOL     OW24238   3.625   1.255   8.025  0.2955  0.3120  0.3783
 4201SOL    HW124239   3.559   1.324   8.034 -0.2543  0.0800 -1.7095
 4201SOL    HW224240   3.593   1.173   8.062  1.4783 -0.4720 -0.3328
 4202SOL     OW24241   0.846   4.188   7.855 -0.4912  0.1370  0.8092
 4202SOL    HW124242   0.899   4.177   7.934 -0.2747  0.6900  0.7389
 4202SOL    HW224243   0.908   4.158   7.790  1.8062  1.0492  2.5971
 4203SOL     OW24244   2.962   4.135   5.516  0.6066 -0.4896  0.2319
 4203SOL    HW124245   3.020   4.083   5.462 -0.9841 -1.8046 -0.2133
 4203SOL    HW224246   3.019   4.210   5.533 -1.3276  0.9432  0.3816
 4204SOL     OW24247   0.861   2.144  16.961 -0.5286  0.0105 -0.3878
 4204SOL    HW124248   0.793   2.151  16.894  0.8717  1.0598 -1.7088
 4204SOL    HW224249   0.818   2.197  17.028  2.9122  0.8497  1.1379
 4205SOL     OW24250   1.409   2.508   6.522  0.7910  0.1506 -0.5639
 4205SOL    HW124251   1.349   2.518   6.596  0.4353 -0.0026 -0.8344
 4205SOL    HW224252   1.385   2.589   6.476  2.4822  1.1198  0.2341
 4206SOL     OW24253   1.344   0.295   5.008 -0.0763  0.3239 -0.1792
 4206SOL    HW124254   1.269   0.237   5.020  1.3767 -1.8626 -1.5304
 4206SOL    HW224255   1.312   0.377   5.045 -0.6984  0.2219 -0.5018
 4207SOL     OW24256   1.571   4.593   8.620 -0.7153  0.1706 -0.3386
 4207SOL    HW124257   1.534   4.598   8.708 -0.3463 -2.0705 -0.0678
 4207SOL    HW224258   1.552   4.679   8.583  1.8806 -0.1102 -2.3209
 4208SOL     OW24259   1.733   0.178  15.731  0.0194 -0.2021  0.0128
 4208SOL    HW124260   1.784   0.210  15.657 -1.2498 -0.7901 -1.1083
 4208SOL    HW224261   1.789   0.105  15.758  0.2291  0.4140  1.2790
 4209SOL     OW24262   4.706   4.047   7.553  0.2608  0.3532  0.5935
 4209SOL    HW124263   4.653   3.971   7.528 -0.0588  0.6943  0.2366
 4209SOL    HW224264   4.670   4.084   7.634  0.6536 -0.1073  0.9758
 4210SOL     OW24265   0.529   1.938   4.482 -0.2547  0.5988 -0.2037
 4210SOL    HW124266   0.591   1.941   4.409  0.2857  0.4586  0.2482
 4210SOL    HW224267   0.468   1.873   4.447 -1.2702  1.5546 -0.1770
 4211SOL     OW24268   1.020   2.979   4.965  0.3909  0.4545 -0.5092
 4211SOL    HW124269   1.051   2.929   5.040 -1.1703  0.3203  0.0488
 4211SOL    HW224270   1.105   2.984   4.923  0.7112  2.3205  0.3679
 4212SOL     OW24271   0.692   0.787   4.439  0.0226  0.1424 -0.0990
 4212SOL    HW124272   0.767   0.756   4.490 -0.4210 -0.2897  0.2916
 4212SOL    HW224273   0.643   0.835   4.506  2.9088  2.0155  0.6395
 4213SOL     OW24274   4.102   3.088  15.613 -0.4719  1.1716 -0.0983
 4213SOL    HW124275   4.195   3.071  15.598 -0.3233  1.1586  0.8236
 4213SOL    HW224276   4.067   3.087  15.524 -3.3957  1.4482  1.0231
 4214SOL     OW24277   2.439   3.798   0.817 -0.4115 -0.1266  0.3365
 4214SOL    HW124278   2.493   3.722   0.794  0.0759  0.3418 -0.0574
 4214SOL    HW224279   2.390   3.756   0.888 -3.0881  0.1612 -1.3516
 4215SOL     OW24280   1.572   2.946   5.362 -0.0905  1.0849  1.0785
 4215SOL    HW124281   1.560   2.851   5.366  2.1717  0.7658  0.4113
 4215SOL    HW224282   1.491   2.973   5.404 -0.8032  0.9785 -0.2105
 4216SOL     OW24283   3.064   0.994   5.197 -0.1733 -0.0834 -0.1126
 4216SOL    HW124284   3.008   1.070   5.215  0.5801  0.4206  0.0837
 4216SOL    HW224285   3.043   0.982   5.105  0.0667 -1.1727 -0.0213
 4217SOL     OW24286   0.647   4.292   4.314  0.3663 -0.0513 -0.1816
 4217SOL    HW124287   0.731   4.307   4.356  0.0135 -1.1431  0.9351
 4217SOL    HW224288   0.591   4.266   4.388  1.3800  0.4318  0.7624
 4218SOL     OW24289   2.752   2.881  13.829 -0.6028  0.3436  0.1232
 4218SOL    HW124290   2.814   2.929  13.885  2.3440 -1.0392 -1.9583
 4218SOL    HW224291   2.788   2.902  13.743  0.0654  0.0631  0.3310
 4219SOL     OW24292   2.344   2.874   6.105  0.0660 -0.1544 -0.3429
 4219SOL    HW124293   2.352   2.827   6.189 -3.3361 -0.2470 -0.0323
 4219SOL    HW224294   2.388   2.954   6.133  1.1658 -0.9903  0.3431
 4220SOL     OW24295   2.648   1.641   8.279 -0.1403  0.1036  0.1234
 4220SOL    HW124296   2.720   1.614   8.222  0.3819 -1.9054  1.7300
 4220SOL    HW224297   2.663   1.597   8.363 -0.2092 -2.3332 -1.1347
 4221SOL     OW24298   0.183   4.057  17.087  0.8281 -0.6866  0.1827
 4221SOL    HW124299   0.245   3.989  17.061  1.6650  0.1306  0.0846
 4221SOL    HW224300   0.192   4.103  17.004 -0.3473 -1.4101 -0.3516
 4222SOL     OW24301   0.204   1.608  12.704 -0.0120 -0.1715  0.5481
 4222SOL    HW124302   0.292   1.646  12.706  0.4192 -1.0638 -0.7569
 4222SOL    HW224303   0.166   1.614  12.791 -0.6933  2.9391  0.0271
 4223SOL     OW24304   3.206   0.526  12.047 -0.3251 -0.9421  0.5817
 4223SOL    HW124305   3.141   0.511  11.979  1.7887 -0.4407 -1.5590
 4223SOL    HW224306   3.201   0.622  12.051 -1.7802 -1.1410  3.4732
 4224SOL     OW24307   3.504   0.956  12.089 -0.3359  0.0603 -0.2143
 4224SOL    HW124308   3.577   0.959  12.150  0.3126 -1.0915 -0.9271
 4224SOL    HW224309   3.545   0.899  12.023  0.4622  1.0783 -0.5909
 4225SOL     OW24310   0.645   4.177   8.707  0.2039  0.2527  0.1711
 4225SOL    HW124311   0.672   4.239   8.639  0.0025 -0.0580 -0.1882
 4225SOL    HW224312   0.721   4.197   8.762  1.8560 -0.5826 -1.7939
 4226SOL     OW24313   4.227   1.118   3.998 -0.6868  0.4672  0.2553
 4226SOL    HW124314   4.290   1.190   4.005 -1.4172  0.9520  1.9142
 4226SOL    HW224315   4.250   1.074   3.917 -2.2953 -1.3239  0.7578
 4227SOL     OW24316   3.962   3.554   4.874  0.2178  0.7208  0.3136
 4227SOL    HW124317   3.906   3.478   4.860 -0.7333  1.3458  0.7032
 4227SOL    HW224318   3.919   3.594   4.950 -2.9104  0.0865 -1.1508
 4228SOL     OW24319   3.102   1.013   1.848 -0.1146 -0.5335 -0.2480
 4228SOL    HW124320   3.153   1.008   1.768  1.5435 -0.3048  0.8118
 4228SOL    HW224321   3.011   1.009   1.816 -0.3963 -0.5660  0.5516
 4229SOL     OW24322   0.039   1.658   1.092  0.1625  0.6444 -0.5794
 4229SOL    HW124323   0.060   1.572   1.056  0.7077  1.2079 -1.5911
 4229SOL    HW224324   0.107   1.656   1.160 -0.1798  3.0483 -0.1636
 4230SOL     OW24325   3.053   0.303   5.396 -0.1858  0.5190 -0.5572
 4230SOL    HW124326   2.966   0.314   5.433 -0.6044 -0.9142 -1.1037
 4230SOL    HW224327   3.080   0.233   5.456 -1.1046  0.3865 -0.2978
 4231SOL     OW24328   0.918   0.586  13.950  0.1383  0.3357 -0.2427
 4231SOL    HW124329   0.846   0.611  14.008  1.8573  1.0392  1.5783
 4231SOL    HW224330   0.872   0.608  13.869  0.1803 -1.0526 -0.6441
 4232SOL     OW24331   3.774   1.140   2.817 -0.3695 -0.1682  0.3046
 4232SOL    HW124332   3.853   1.179   2.855 -1.0957  1.5858  0.0331
 4232SOL    HW224333   3.710   1.205   2.846 -0.5830 -0.4263  0.4124
 4233SOL     OW24334   2.818   1.500  12.788  0.7997  0.9084 -0.6479
 4233SOL    HW124335   2.733   1.531  12.819  0.9569 -0.2605  0.9603
 4233SOL    HW224336   2.793   1.409  12.769  2.0251  0.1026  1.5409
 4234SOL     OW24337   0.127   0.350   9.533  0.3151 -0.1319 -0.7226
 4234SOL    HW124338   0.203   0.402   9.560  1.2449 -1.3231 -1.0772
 4234SOL    HW224339   0.050   0.374   9.585  0.9962  1.5795 -0.4912
 4235SOL     OW24340   1.949   1.821  13.647 -0.0307  0.7022 -0.2206
 4235SOL    HW124341   1.877   1.882  13.663 -0.3925  0.0523  0.6353
 4235SOL    HW224342   1.975   1.814  13.739 -1.6783 -1.0387  0.1124
 4236SOL     OW24343   3.870   3.783  17.731  0.1878 -0.3731  0.1327
 4236SOL    HW124344   3.857   3.694   0.008  0.0112 -0.3961 -0.0005
 4236SOL    HW224345   3.866   3.831   0.058  0.2956 -0.1451  0.0037
 4237SOL     OW24346   4.213   2.162  15.000  0.3626 -0.8285 -1.0356
 4237SOL    HW124347   4.149   2.091  15.000 -1.3165  0.6938 -1.7899
 4237SOL    HW224348   4.271   2.125  14.934  0.2522 -0.8975 -1.0933
 4238SOL     OW24349   4.591   4.470   9.734 -0.2637  0.1692  0.1178
 4238SOL    HW124350   4.515   4.479   9.792 -1.3718 -2.1619 -0.9566
 4238SOL    HW224351   4.653   4.530   9.776  0.3190 -0.3442 -0.0164
 4239SOL     OW24352   2.297   2.821   5.407 -0.1623 -1.0401  0.3302
 4239SOL    HW124353   2.222   2.845   5.461  1.4215 -0.8492  2.4317
 4239SOL    HW224354   2.342   2.760   5.465 -1.6910 -1.2540  1.2938
 4240SOL     OW24355   0.718   4.156   5.859 -0.5582 -0.0127 -0.2052
 4240SOL    HW124356   0.749   4.242   5.830 -1.9505  0.1816 -1.1103
 4240SOL    HW224357   0.693   4.177   5.949  2.4897  1.8732  0.2307
 4241SOL     OW24358   2.727   0.077   8.660  0.2980  0.1889 -0.0066
 4241SOL    HW124359   2.738   0.168   8.634  0.7044  0.6697  1.9211
 4241SOL    HW224360   2.693   0.030   8.583  0.9605  1.3859 -1.0346
 4242SOL     OW24361   1.186   1.479   1.328  0.9781 -0.4100  0.3593
 4242SOL    HW124362   1.165   1.493   1.235  1.4012 -0.9910  0.1750
 4242SOL    HW224363   1.109   1.429   1.354  1.7983 -1.3412  1.0003
 4243SOL     OW24364   3.940   1.169  10.809  0.1604  0.0566 -0.2062
 4243SOL    HW124365   3.872   1.232  10.784  0.7658  1.1880  1.0246
 4243SOL    HW224366   3.953   1.188  10.902 -1.4174 -2.4410  0.5412
 4244SOL     OW24367   4.361   1.273   4.408 -0.3889 -0.1663  0.1150
 4244SOL    HW124368   4.373   1.223   4.489 -1.8360 -2.4027 -1.0619
 4244SOL    HW224369   4.313   1.351   4.436 -2.0077  0.4004 -4.3240
 4245SOL     OW24370   2.323   3.070  17.435  0.0846  0.1624 -0.0878
 4245SOL    HW124371   2.312   2.989  17.386 -0.6279  0.6458 -0.7266
 4245SOL    HW224372   2.241   3.117  17.417 -0.9364 -2.2908 -1.7610
 4246SOL     OW24373   3.613   2.213   5.918 -0.3947  0.1240 -0.1040
 4246SOL    HW124374   3.641   2.265   5.994 -1.9615 -0.7654  1.0797
 4246SOL    HW224375   3.546   2.270   5.880  0.8701  1.3457 -0.5156
 4247SOL     OW24376   0.720   3.785   9.047  0.1696  0.5173 -0.3326
 4247SOL    HW124377   0.678   3.706   9.015  2.0381 -0.3795 -0.5975
 4247SOL    HW224378   0.664   3.839   8.992  1.7441 -0.1402 -2.5849
 4248SOL     OW24379   0.966   1.784   8.780 -0.7330  0.0192  0.1535
 4248SOL    HW124380   1.014   1.784   8.697  2.3188  1.6003  1.8999
 4248SOL    HW224381   1.037   1.780   8.845  1.7518 -0.5017 -2.6139
 4249SOL     OW24382   4.417   4.586   5.011 -0.7405  0.4083 -0.1430
 4249SOL    HW124383   4.465   4.505   5.030  0.1554  0.9918  0.1094
 4249SOL    HW224384   4.425   4.584   4.916  0.1766  2.5324 -0.1277
 4250SOL     OW24385   4.104   3.540  15.551 -0.6474  0.0114 -0.0074
 4250SOL    HW124386   4.079   3.451  15.576 -0.4531  0.9976  3.7200
 4250SOL    HW224387   4.097   3.591  15.632  1.1040 -1.3295  1.0009
 4251SOL     OW24388   2.086   1.558  16.838 -0.2285 -0.1170  0.2071
 4251SOL    HW124389   2.042   1.639  16.866 -3.0060 -1.5394 -0.0329
 4251SOL    HW224390   2.165   1.595  16.799 -0.4861  1.3745  1.0931
 4252SOL     OW24391   0.824   1.577   9.964 -0.0618 -0.4706 -0.0990
 4252SOL    HW124392   0.900   1.609   9.916  0.7124 -0.4218  1.1516
 4252SOL    HW224393   0.817   1.644  10.033 -1.3857 -1.6954  0.9702
 4253SOL     OW24394   4.161   3.745   0.914  0.5174 -0.0621  0.3317
 4253SOL    HW124395   4.179   3.826   0.961 -2.7488  0.0776  1.3743
 4253SOL    HW224396   4.192   3.763   0.825  0.9122 -0.7055  0.3412
 4254SOL     OW24397   3.064   2.063   1.376 -0.2776  0.2185  0.5541
 4254SOL    HW124398   2.971   2.087   1.369  0.2448  2.2977  0.7330
 4254SOL    HW224399   3.057   1.968   1.372 -1.4014  0.4405 -2.5799
 4255SOL     OW24400   1.739   2.143  10.544  0.3142  0.3517 -0.3567
 4255SOL    HW124401   1.671   2.210  10.550  0.7020  0.7549 -0.3961
 4255SOL    HW224402   1.796   2.154  10.620  0.2741 -1.1254 -0.1227
 4256SOL     OW24403   4.578   0.419  10.171  0.1726  0.5780  0.7537
 4256SOL    HW124404   4.489   0.444  10.144  1.0094  4.3660  1.5576
 4256SOL    HW224405   4.568   0.328  10.145  1.0059  0.9236 -0.7866
 4257SOL     OW24406   0.596   2.242   3.578  0.2666 -0.2036  0.0815
 4257SOL    HW124407   0.552   2.300   3.515  1.3304 -0.6334 -1.0727
 4257SOL    HW224408   0.686   2.273   3.590 -0.4204  2.0024 -0.4068
 4258SOL     OW24409   4.282   3.169  16.501 -0.4414 -0.1996  0.0590
 4258SOL    HW124410   4.311   3.159  16.410  1.6609  0.6332  0.6271
 4258SOL    HW224411   4.201   3.119  16.503 -0.2777 -0.3665  2.1922
 4259SOL     OW24412   0.324   3.814   2.890 -0.3903  0.4010  0.4235
 4259SOL    HW124413   0.265   3.746   2.922  0.9894 -0.5836  0.8678
 4259SOL    HW224414   0.390   3.818   2.960 -1.3599 -0.1719  1.3592
 4260SOL     OW24415   2.553   2.195   2.101  0.4237 -0.2727 -0.2470
 4260SOL    HW124416   2.561   2.249   2.023 -2.7647 -0.9043 -1.0269
 4260SOL    HW224417   2.642   2.161   2.109 -0.6853 -3.0204  0.2735
 4261SOL     OW24418   0.321   0.386   7.951 -0.8103  0.0586 -0.2141
 4261SOL    HW124419   0.372   0.315   7.989 -1.9172  0.1957  1.5438
 4261SOL    HW224420   0.319   0.366   7.857  1.0383 -1.5955  0.1131
 4262SOL     OW24421   0.163   2.082   8.654  0.0218  0.0206  0.0321
 4262SOL    HW124422   0.184   2.047   8.568 -1.0843  0.7192 -0.5215
 4262SOL    HW224423   0.094   2.016   8.662 -0.1090  0.0910 -0.5369
 4263SOL     OW24424   1.186   0.072  14.882  0.3454 -0.8432 -0.5925
 4263SOL    HW124425   1.180   0.128  14.804 -0.0416 -0.0706 -0.0159
 4263SOL    HW224426   1.099   0.092  14.918  0.7221  3.1764 -1.9427
 4264SOL     OW24427   0.642   1.561   0.766 -0.1950  0.1356 -0.4190
 4264SOL    HW124428   0.589   1.504   0.710  1.2195  0.1954 -1.8323
 4264SOL    HW224429   0.589   1.640   0.750  0.9331  1.1591  0.8920
 4265SOL     OW24430   4.416   1.315   4.962 -0.2807  0.2791 -0.1454
 4265SOL    HW124431   4.386   1.289   4.875 -3.0037 -1.0818  1.1780
 4265SOL    HW224432   4.398   1.235   5.011 -1.3208  0.3149 -0.4496
 4266SOL     OW24433   1.566   1.335  13.984 -0.3065  0.2027  0.6905
 4266SOL    HW124434   1.541   1.358  13.894 -1.9524 -0.2128  1.0455
 4266SOL    HW224435   1.515   1.255  13.996 -1.7232  1.4059  2.6812
 4267SOL     OW24436   2.514   0.728   8.764  0.0600 -0.1074 -0.7619
 4267SOL    HW124437   2.591   0.676   8.787 -0.1397 -0.3021 -0.5356
 4267SOL    HW224438   2.536   0.801   8.822 -0.3512 -0.3002 -0.3605
 4268SOL     OW24439   3.397   2.741   7.378 -0.0611  0.3948 -0.5463
 4268SOL    HW124440   3.359   2.829   7.377 -0.5203  0.2174  0.5915
 4268SOL    HW224441   3.377   2.711   7.290  2.5767 -0.6883 -0.7569
 4269SOL     OW24442   1.373   1.131   7.773 -0.2055  0.1244 -0.4699
 4269SOL    HW124443   1.465   1.133   7.748 -0.2464 -0.2126 -0.6553
 4269SOL    HW224444   1.364   1.036   7.770 -0.3433  0.0796  0.9551
 4270SOL     OW24445   1.891   0.486   1.699  0.2202 -0.1766  0.0042
 4270SOL    HW124446   1.845   0.467   1.617  1.6287  0.0044 -0.8187
 4270SOL    HW224447   1.846   0.430   1.764  1.2421 -1.8009 -0.6875
 4271SOL     OW24448   4.431   0.703  11.641  0.1769  0.1383 -0.2078
 4271SOL    HW124449   4.445   0.611  11.617 -0.8554  0.5656 -2.4750
 4271SOL    HW224450   4.431   0.700  11.737 -0.3119  0.6441 -0.1944
 4272SOL     OW24451   2.465   1.225   5.021 -0.0063  0.0333  0.3469
 4272SOL    HW124452   2.539   1.189   5.070  0.4670 -1.6469 -1.5876
 4272SOL    HW224453   2.411   1.276   5.081  1.8075 -0.5303  2.4792
 4273SOL     OW24454   3.111   3.390   0.951 -0.4624 -0.1905  0.4908
 4273SOL    HW124455   3.088   3.423   0.864 -1.7240  2.3862  1.7789
 4273SOL    HW224456   3.190   3.344   0.925  0.3935  0.8355  1.2861
 4274SOL     OW24457   2.098   3.480   5.904  0.0473  0.2127 -0.2231
 4274SOL    HW124458   2.161   3.548   5.882 -1.6990  2.1251  0.6687
 4274SOL    HW224459   2.020   3.536   5.903 -0.8469 -0.9928  0.6717
 4275SOL     OW24460   1.759   2.202  17.625 -0.3373  0.5959  0.0859
 4275SOL    HW124461   1.826   2.269  17.611 -1.1819  1.0992 -1.5720
 4275SOL    HW224462   1.769   2.203  17.721  2.7842 -3.1654 -0.1890
 4276SOL     OW24463   2.874   3.992   2.888  0.3486  0.4454  0.4198
 4276SOL    HW124464   2.876   3.964   2.796 -0.8594 -0.0879  0.5587
 4276SOL    HW224465   2.836   4.080   2.889  1.9951  1.1713 -0.3244
 4277SOL     OW24466   3.100   4.636  16.769 -0.1845  0.4451  0.4050
 4277SOL    HW124467   3.064   4.551  16.794  1.9883 -0.0269  1.8904
 4277SOL    HW224468   3.040   4.693  16.816  1.8291  2.0103  1.0573
 4278SOL     OW24469   1.548   3.241   6.433  0.1357 -0.4912  0.0143
 4278SOL    HW124470   1.615   3.278   6.490  2.9252 -1.6299 -2.5256
 4278SOL    HW224471   1.526   3.166   6.487 -2.6141 -1.0538 -1.8733
 4279SOL     OW24472   4.733   0.151   3.448  0.2638  0.3067 -0.0803
 4279SOL    HW124473   4.640   0.175   3.453 -0.2203 -1.2158 -1.5333
 4279SOL    HW224474   0.014   0.069   3.493  0.5706 -0.2031 -1.1683
 4280SOL     OW24475   0.639   2.740   3.314  0.2255  0.1114  0.4928
 4280SOL    HW124476   0.726   2.781   3.306  0.0522  0.3132 -0.3158
 4280SOL    HW224477   0.663   2.666   3.370  4.7079 -0.6018 -2.3422
 4281SOL     OW24478   0.101   2.947   2.456 -0.1293 -0.4437 -0.5725
 4281SOL    HW124479   0.117   2.977   2.366 -0.1859  2.3596  0.3463
 4281SOL    HW224480   0.154   3.011   2.503 -0.6249 -0.1470 -0.4263
 4282SOL     OW24481   3.206   3.925   6.271 -0.3990 -0.7460  1.0489
 4282SOL    HW124482   3.192   3.841   6.226  0.1111  0.5757 -1.5856
 4282SOL    HW224483   3.273   3.956   6.210 -0.3410  0.8849  1.9558
 4283SOL     OW24484   4.739   1.473   6.069 -0.6378 -0.2902  0.7274
 4283SOL    HW124485   4.663   1.502   6.019  0.7646  1.7969 -0.2149
 4283SOL    HW224486   4.693   1.422   6.136 -0.1444  0.8052  1.9136
 4284SOL     OW24487   0.197   1.560  14.019 -0.7543  0.4438  0.4017
 4284SOL    HW124488   0.276   1.556  13.964  1.4438  1.1002  3.4889
 4284SOL    HW224489   0.134   1.542  13.950  0.0359 -0.4872 -0.0790
 4285SOL     OW24490   4.388   3.133   2.186  0.4087 -0.1739 -0.2124
 4285SOL    HW124491   4.376   3.053   2.236  1.1213  1.5749  2.7299
 4285SOL    HW224492   4.386   3.098   2.097  1.2931  2.0784 -1.1143
 4286SOL     OW24493   1.842   4.490   2.841 -0.2900 -0.9986 -0.5659
 4286SOL    HW124494   1.834   4.395   2.831  1.8956 -1.1343 -1.0820
 4286SOL    HW224495   1.764   4.524   2.798 -0.4889  0.1965  0.7275
 4287SOL     OW24496   4.218   0.271   5.353  0.0472  0.3547 -0.8283
 4287SOL    HW124497   4.180   0.340   5.408  0.4640  0.9354 -1.2649
 4287SOL    HW224498   4.179   0.299   5.270  0.6356 -0.3036 -1.3255
 4288SOL     OW24499   1.507   0.056   8.458 -0.4494  0.1441 -0.4237
 4288SOL    HW124500   1.545   0.118   8.520  0.2685  0.7613 -1.4908
 4288SOL    HW224501   1.559   0.069   8.379 -1.1539  1.9855 -0.5901
 4289SOL     OW24502   3.158   1.354   2.728 -0.1925 -0.0696 -0.3016
 4289SOL    HW124503   3.251   1.341   2.743 -0.5575 -0.2620  1.8396
 4289SOL    HW224504   3.169   1.392   2.641  0.7384  2.8283  1.0662
 4290SOL     OW24505   3.112   3.624   8.118 -0.2532 -0.0611 -0.1418
 4290SOL    HW124506   3.120   3.529   8.125 -2.0644 -0.3851 -2.3669
 4290SOL    HW224507   3.204   3.650   8.124 -0.0926 -0.8152  0.7320
 4291SOL     OW24508   1.501   2.002  14.947  0.6763 -0.4087 -0.4226
 4291SOL    HW124509   1.496   2.046  15.032 -0.2183 -0.5128 -0.4270
 4291SOL    HW224510   1.445   2.065  14.902  0.8758 -1.5792 -2.3001
 4292SOL     OW24511   0.318   4.400   3.527 -0.5410  0.6105 -0.1314
 4292SOL    HW124512   0.258   4.443   3.466 -3.0897 -2.3198  0.2933
 4292SOL    HW224513   0.263   4.332   3.566 -0.0380  0.7224  0.7682
 4293SOL     OW24514   3.074   0.879   8.485  0.0952 -0.1285 -0.4452
 4293SOL    HW124515   3.051   0.926   8.565  2.2277  0.3264 -0.1048
 4293SOL    HW224516   3.010   0.909   8.421  2.2900  0.9112 -2.1616
 4294SOL     OW24517   1.159   4.342  11.691  0.0408  0.5764 -0.3226
 4294SOL    HW124518   1.204   4.274  11.741  3.8176  1.8172 -2.0041
 4294SOL    HW224519   1.145   4.415  11.751 -0.5553  1.1925 -1.2155
 4295SOL     OW24520   3.695   2.224   9.842 -0.3815  0.1381 -0.0989
 4295SOL    HW124521   3.645   2.149   9.874 -0.3124  0.8700  1.7113
 4295SOL    HW224522   3.626   2.289   9.823 -0.5037 -0.3767 -1.4431
 4296SOL     OW24523   4.589   2.092   5.356  0.1780 -0.3625 -0.1839
 4296SOL    HW124524   4.501   2.062   5.381 -0.7191  2.4438  0.0377
 4296SOL    HW224525   4.628   2.114   5.440  0.7807 -0.8008 -0.3446
 4297SOL     OW24526   2.674   4.634   0.369  0.5583  0.0442  0.3997
 4297SOL    HW124527   2.712   4.648   0.282  0.7819  0.8865  0.6308
 4297SOL    HW224528   2.720   4.553   0.392 -0.7696 -0.5608  0.9201
 4298SOL     OW24529   1.527   1.159   4.008 -0.0518 -0.2943  0.1059
 4298SOL    HW124530   1.545   1.226   3.943  1.7107 -3.2660 -2.4841
 4298SOL    HW224531   1.614   1.124   4.024  0.2857 -0.4753 -2.0847
 4299SOL     OW24532   3.923   1.825  16.851 -0.2255  0.3331  0.6121
 4299SOL    HW124533   3.937   1.734  16.878 -1.1549 -0.0667 -0.2413
 4299SOL    HW224534   3.852   1.849  16.912 -1.3077 -1.0414 -0.0947
 4300SOL     OW24535   1.453   3.179   7.264  0.2863 -0.3780  0.6107
 4300SOL    HW124536   1.458   3.085   7.282 -0.0330 -0.5843 -0.3858
 4300SOL    HW224537   1.460   3.186   7.169  0.5066  1.2462  0.7495
 4301SOL     OW24538   1.716   3.713   3.832  0.3453  0.3258 -0.2570
 4301SOL    HW124539   1.735   3.733   3.741 -0.8024 -0.5130 -0.6845
 4301SOL    HW224540   1.644   3.652   3.814 -0.1350  1.4784 -2.2079
 4302SOL     OW24541   3.189   3.706   1.073 -0.6210  0.1246 -0.1229
 4302SOL    HW124542   3.189   3.772   1.004  1.6966  1.2720  0.9782
 4302SOL    HW224543   3.222   3.626   1.031  2.3117  1.4167 -0.3011
 4303SOL     OW24544   2.730   4.646  16.839 -0.0103 -0.1337  0.0751
 4303SOL    HW124545   2.667   4.577  16.815 -2.2442  1.5623  1.0098
 4303SOL    HW224546   2.727   4.687  16.752  1.3843  2.5755  1.3079
 4304SOL     OW24547   2.720   4.565   4.348 -0.0300  0.3685  0.2895
 4304SOL    HW124548   2.673   4.601   4.423 -2.2173 -1.3422 -0.2791
 4304SOL    HW224549   2.813   4.563   4.373 -0.2224 -0.3596  0.9420
 4305SOL     OW24550   2.769   2.432  14.773 -0.3638  0.3461  0.4358
 4305SOL    HW124551   2.853   2.428  14.727 -0.6273 -2.1622  0.2148
 4305SOL    HW224552   2.748   2.339  14.781  0.5516  0.0578 -0.4996
 4306SOL     OW24553   0.860   3.859   4.371  0.1295  0.1279  0.2495
 4306SOL    HW124554   0.923   3.873   4.441  0.0308  0.7611  0.2153
 4306SOL    HW224555   0.787   3.821   4.421 -1.6229  2.7861 -0.2926
 4307SOL     OW24556   2.265   1.146   7.120 -0.0894  0.5410  0.4341
 4307SOL    HW124557   2.226   1.064   7.151  0.4347  0.6152  1.2986
 4307SOL    HW224558   2.324   1.180   7.188  2.3416 -0.7186 -1.0274
 4308SOL     OW24559   4.714   0.072   8.675 -0.2035  0.0743 -0.3272
 4308SOL    HW124560   0.050   0.077   8.734  0.4385  3.0861 -1.4084
 4308SOL    HW224561   4.656   0.017   8.727 -1.2129  1.7601  0.3485
 4309SOL     OW24562   2.445   2.011   1.630 -0.1960 -0.1832  0.7097
 4309SOL    HW124563   2.490   1.954   1.692  1.1340 -2.1522 -2.0515
 4309SOL    HW224564   2.380   1.955   1.589 -2.2652  2.9303 -0.2489
 4310SOL     OW24565   2.435   4.594   3.704  0.2436  0.0748 -0.2126
 4310SOL    HW124566   2.443   4.590   3.609 -0.8661  1.3884 -0.3626
 4310SOL    HW224567   2.406   4.685   3.712  1.7032  0.5544 -0.4578
 4311SOL     OW24568   0.989   1.076   0.653 -0.0449  0.3881  0.4999
 4311SOL    HW124569   0.985   1.003   0.591  0.8058  2.9475 -2.5848
 4311SOL    HW224570   1.082   1.077   0.673 -0.3594  1.6702  1.9105
 4312SOL     OW24571   4.035   0.702  14.793  0.9446 -0.7506  0.8678
 4312SOL    HW124572   3.961   0.703  14.854  0.8591  0.7123  0.7497
 4312SOL    HW224573   4.072   0.614  14.797  3.4249  0.2966  1.0486
 4313SOL     OW24574   4.243   3.434  13.562  0.0484 -0.1750 -0.5701
 4313SOL    HW124575   4.300   3.386  13.622 -0.2841 -1.3973 -1.2355
 4313SOL    HW224576   4.167   3.378  13.577 -1.0000  2.2692  3.3010
 4314SOL     OW24577   2.058   1.867  14.370  0.3587 -0.0142 -0.2344
 4314SOL    HW124578   1.985   1.842  14.313  2.2363 -0.8448 -2.3086
 4314SOL    HW224579   2.053   1.791  14.428 -0.3614  1.3879  1.5374
 4315SOL     OW24580   2.322   0.581   2.048  0.0574 -0.3093  0.4330
 4315SOL    HW124581   2.395   0.641   2.061  0.4164 -0.3260 -1.5453
 4315SOL    HW224582   2.365   0.498   2.068 -0.2944 -0.7478 -0.6264
 4316SOL     OW24583   1.680   1.980   6.433  0.0871 -0.1069 -0.2481
 4316SOL    HW124584   1.592   1.945   6.421 -0.1161  0.0153  0.9103
 4316SOL    HW224585   1.722   1.943   6.355  2.5979  1.4346  0.3839
 4317SOL     OW24586   3.156   4.016  17.454 -0.2184  0.0751  0.0620
 4317SOL    HW124587   3.080   3.970  17.418  0.1443 -0.9460  0.5866
 4317SOL    HW224588   3.212   4.017  17.377 -0.9784  0.0417 -0.4915
 4318SOL     OW24589   1.583   0.474   0.701  0.1979  0.1498  0.1751
 4318SOL    HW124590   1.555   0.466   0.609  1.3945  0.5408 -0.2220
 4318SOL    HW224591   1.500   0.443   0.737  0.0468 -0.5568 -0.7680
 4319SOL     OW24592   2.983   0.355   7.557 -0.6302  0.3482  1.0296
 4319SOL    HW124593   3.034   0.436   7.552  0.2432 -0.3405 -1.2127
 4319SOL    HW224594   2.908   0.382   7.503  0.5093 -1.4767 -1.4785
 4320SOL     OW24595   0.836   0.363   7.470 -0.2153 -0.1024 -0.0953
 4320SOL    HW124596   0.821   0.368   7.375 -0.2704  0.2575 -0.0663
 4320SOL    HW224597   0.930   0.382   7.474 -0.0829 -1.0773  1.0815
 4321SOL     OW24598   0.982   0.464   0.410  0.5984  0.0924  0.1888
 4321SOL    HW124599   0.972   0.372   0.433  1.4208  0.7583  3.2947
 4321SOL    HW224600   0.931   0.475   0.330  2.3083 -1.1895 -1.0671
 4322SOL     OW24601   1.019   1.115   3.701  0.4345 -0.0684  0.5746
 4322SOL    HW124602   0.957   1.188   3.704 -0.2409 -0.6203  0.1941
 4322SOL    HW224603   1.069   1.119   3.782 -0.2919 -3.1886  1.1961
 4323SOL     OW24604   2.938   3.131   3.678 -0.2791  0.3253 -0.0997
 4323SOL    HW124605   2.920   3.057   3.736  1.6086 -0.6337 -0.7183
 4323SOL    HW224606   2.973   3.193   3.741 -1.0932  0.1970  0.4749
 4324SOL     OW24607   1.802   2.371   7.496  0.4909 -0.3621 -0.0243
 4324SOL    HW124608   1.799   2.453   7.447 -1.7762 -1.4010 -1.6160
 4324SOL    HW224609   1.719   2.336   7.463  0.6108 -1.3668  0.7455
 4325SOL     OW24610   3.766   2.723   4.021 -0.1739 -0.0870 -0.5034
 4325SOL    HW124611   3.766   2.818   4.015 -1.1493 -0.0049  0.8417
 4325SOL    HW224612   3.681   2.712   3.978  0.3832 -0.2714 -1.5621
 4326SOL     OW24613   3.165   2.248   4.633 -0.2190  0.1934 -0.7445
 4326SOL    HW124614   3.247   2.219   4.674 -0.1016 -0.9042 -1.7419
 4326SOL    HW224615   3.095   2.192   4.666 -0.1471 -0.0692 -1.0342
 4327SOL     OW24616   1.045   3.216   6.434 -0.2122 -0.2938  0.1697
 4327SOL    HW124617   1.060   3.150   6.502  1.9988  1.0703  1.0052
 4327SOL    HW224618   1.100   3.286   6.470  0.3436 -1.1588  0.9994
 4328SOL     OW24619   0.525   1.958   8.619 -0.4141  0.0032  0.0294
 4328SOL    HW124620   0.484   1.947   8.534  1.9194  1.4960 -1.2806
 4328SOL    HW224621   0.611   1.921   8.603  0.6439  2.0277  0.9090
 4329SOL     OW24622   2.742   1.381   3.811  0.1911  0.3149  0.3352
 4329SOL    HW124623   2.834   1.369   3.786  0.1729  0.9546 -0.0445
 4329SOL    HW224624   2.713   1.448   3.749  0.1573 -2.4076 -2.5792
 4330SOL     OW24625   3.853   0.305  11.057 -0.1973 -0.3391 -0.3561
 4330SOL    HW124626   3.900   0.283  11.138 -1.0394 -2.2640 -0.3835
 4330SOL    HW224627   3.902   0.377  11.018  0.1179 -0.9876 -1.1611
 4331SOL     OW24628   1.484   4.018   4.466  0.2241  0.6967  0.1899
 4331SOL    HW124629   1.512   4.045   4.554 -1.3909  3.6229 -0.2103
 4331SOL    HW224630   1.483   4.100   4.417  0.0075  0.0847 -0.8282
 4332SOL     OW24631   2.454   2.548   1.932 -0.1619  0.2521 -0.8196
 4332SOL    HW124632   2.382   2.524   1.873 -0.3948  0.6794 -0.7069
 4332SOL    HW224633   2.518   2.478   1.921  1.2843  1.3753  0.4613
 4333SOL     OW24634   2.000   2.140   3.540  0.1830  0.0975 -0.2567
 4333SOL    HW124635   1.954   2.187   3.611 -1.3902  0.7621 -1.7170
 4333SOL    HW224636   2.044   2.071   3.589  4.4453  2.9182 -0.1331
 4334SOL     OW24637   4.560   3.831   7.437 -0.5997  0.0994  0.0409
 4334SOL    HW124638   4.487   3.814   7.497  0.0994 -0.3003  0.7807
 4334SOL    HW224639   4.546   3.769   7.366 -0.3949 -1.1990  1.1330
 4335SOL     OW24640   3.977   2.710   8.219  0.4018  0.5862 -0.0408
 4335SOL    HW124641   3.930   2.634   8.255  2.9044  1.3536  4.8225
 4335SOL    HW224642   3.966   2.694   8.125  0.0498 -0.6983  0.2087
 4336SOL     OW24643   1.053   2.694   8.772  0.4793  0.0823 -0.3792
 4336SOL    HW124644   1.107   2.710   8.850  0.8877  1.1656 -0.8822
 4336SOL    HW224645   1.080   2.603   8.761  0.0390 -0.2374  1.1877
 4337SOL     OW24646   1.554   0.532   8.706 -0.3216 -0.1472  0.5405
 4337SOL    HW124647   1.620   0.593   8.738 -1.9251  1.6824  0.3722
 4337SOL    HW224648   1.583   0.517   8.616  0.7911  2.6104  0.4452
 4338SOL     OW24649   1.378   2.348   3.275 -0.1875  0.5327 -0.5028
 4338SOL    HW124650   1.341   2.269   3.315  0.3457 -1.1130 -3.2746
 4338SOL    HW224651   1.318   2.381   3.208  0.7014 -2.4647 -2.7763
 4339SOL     OW24652   2.865   2.705   4.314 -0.0903  0.2664  0.2322
 4339SOL    HW124653   2.811   2.634   4.350 -2.4825  0.8069 -2.3262
 4339SOL    HW224654   2.937   2.646   4.289 -0.1549 -0.4163  1.5903
 4340SOL     OW24655   0.288   3.266   5.265 -0.1567 -0.0935 -0.1436
 4340SOL    HW124656   0.336   3.310   5.194 -1.8499  2.3722  0.2499
 4340SOL    HW224657   0.345   3.280   5.341  0.1422  0.6319 -0.5012
 4341SOL     OW24658   4.210   0.590   4.806  0.4607  0.1761  0.6351
 4341SOL    HW124659   4.247   0.539   4.734  0.6596 -1.1421  1.6689
 4341SOL    HW224660   4.238   0.532   4.876 -0.4381 -0.6177  0.3440
 4342SOL     OW24661   0.388   1.927   6.420 -0.1194  0.0439 -0.4689
 4342SOL    HW124662   0.478   1.958   6.409 -0.8540  2.7477  0.9199
 4342SOL    HW224663   0.394   1.842   6.378 -0.1303 -0.5844  0.8134
 4343SOL     OW24664   3.624   4.511   3.339 -0.3370  0.4089  0.3404
 4343SOL    HW124665   3.575   4.437   3.302  0.7010  0.3672 -0.9705
 4343SOL    HW224666   3.652   4.479   3.425 -2.7358  1.6399  1.5691
 4344SOL     OW24667   0.679   3.672   6.437 -0.4988 -0.1762  0.4150
 4344SOL    HW124668   0.653   3.676   6.345  0.3277 -1.7838  0.0974
 4344SOL    HW224669   0.643   3.756   6.464 -2.1862 -1.1231  1.0757
 4345SOL     OW24670   2.597   2.767   6.863 -0.4176  0.0035 -0.0188
 4345SOL    HW124671   2.573   2.715   6.940  0.4639 -2.1811 -1.1902
 4345SOL    HW224672   2.672   2.713   6.838 -1.0877  0.1441 -2.3493
 4346SOL     OW24673   4.710   2.154   9.217  0.2545  0.6135  0.4824
 4346SOL    HW124674   0.047   2.177   9.269  1.4880 -2.5035  0.0262
 4346SOL    HW224675   4.638   2.151   9.280  0.4652 -1.4941  0.6282
 4347SOL     OW24676   1.041   4.650  12.558  0.0465 -0.3635  0.7193
 4347SOL    HW124677   1.053   4.738  12.523 -1.7310 -0.6412 -0.5775
 4347SOL    HW224678   1.096   4.593  12.503 -2.2226 -1.6881 -0.1700
 4348SOL     OW24679   2.277   0.537   0.173 -0.9868 -0.7384 -0.0350
 4348SOL    HW124680   2.353   0.558   0.227 -1.6413  2.2441 -0.2768
 4348SOL    HW224681   2.302   0.454   0.134  0.0695 -2.1933  3.7624
 4349SOL     OW24682   3.939   3.840  12.082  0.2969 -0.5876  0.4771
 4349SOL    HW124683   3.894   3.756  12.092 -1.3625  0.5448  2.2459
 4349SOL    HW224684   3.916   3.865  11.993 -1.3058 -2.2882  0.4005
 4350SOL     OW24685   1.902   0.891   6.618  0.3079  0.5678 -0.1001
 4350SOL    HW124686   1.991   0.924   6.630 -0.6920  3.1219  0.3575
 4350SOL    HW224687   1.914   0.798   6.600 -0.6700  0.1369  1.4593
 4351SOL     OW24688   1.880   0.074   8.664  0.8772  0.2236 -0.6718
 4351SOL    HW124689   1.913   0.013   8.730 -0.2673  0.8352  0.4562
 4351SOL    HW224690   1.851   0.008   8.601 -0.5599  0.1605  0.0599
 4352SOL     OW24691   2.843   0.822   7.281 -0.5064 -0.1948 -0.2524
 4352SOL    HW124692   2.855   0.763   7.206  0.9839  0.1442 -0.2756
 4352SOL    HW224693   2.748   0.811   7.278 -0.6332 -0.2998  4.7837
 4353SOL     OW24694   3.583   3.857   6.866  0.5543  0.1081 -0.2128
 4353SOL    HW124695   3.626   3.937   6.836 -2.8969  1.9519 -0.1664
 4353SOL    HW224696   3.587   3.794   6.794 -0.0950 -0.5623  0.3320
 4354SOL     OW24697   3.698   4.285   7.208 -0.5844 -0.6535 -0.3137
 4354SOL    HW124698   3.653   4.205   7.180 -0.5700 -1.1472  1.0969
 4354SOL    HW224699   3.740   4.300   7.123 -0.5623 -1.2982 -0.4203
 4355SOL     OW24700   2.221   0.842   3.322  0.1589  0.2864  0.2672
 4355SOL    HW124701   2.310   0.818   3.347  0.0032  0.8603  1.3434
 4355SOL    HW224702   2.229   0.838   3.227  0.0332  0.0618  0.2656
 4356SOL     OW24703   3.907   4.678   3.143 -0.1234  0.9066 -0.3968
 4356SOL    HW124704   3.927   0.032   3.135 -1.2929  1.1116 -0.9658
 4356SOL    HW224705   3.921   4.680   3.238 -1.0032 -2.3443 -0.2174
 4357SOL     OW24706   0.767   0.072   5.185  0.1010 -0.1743  0.2382
 4357SOL    HW124707   0.677   0.057   5.156  0.3870  0.5782 -1.0299
 4357SOL    HW224708   0.760   0.033   5.272  1.7859 -1.3539 -0.1565
 4358SOL     OW24709   0.201   0.848   7.858  0.5423  0.4000  0.0498
 4358SOL    HW124710   0.174   0.883   7.772 -2.6753  1.4569  1.4781
 4358SOL    HW224711   0.255   0.920   7.891 -0.5105  1.0489  0.3792
 4359SOL     OW24712   1.450   2.011   3.160 -0.5908  0.1435 -0.5586
 4359SOL    HW124713   1.466   1.944   3.227  1.4285  1.0664 -0.1281
 4359SOL    HW224714   1.362   2.034   3.190 -1.1822  0.7718 -2.8069
 4360SOL     OW24715   3.258   2.473   2.717 -0.6638 -0.0638  0.1205
 4360SOL    HW124716   3.290   2.385   2.737  0.2353  0.5563  1.4610
 4360SOL    HW224717   3.215   2.494   2.800 -2.1326  1.2553 -0.9783
 4361SOL     OW24718   2.219   4.581  17.068 -0.1100 -0.1375 -0.1877
 4361SOL    HW124719   2.302   4.625  17.048 -1.6767  2.4452 -0.9224
 4361SOL    HW224720   2.237   4.563  17.160 -0.2233  0.2087 -0.0956
 4362SOL     OW24721   0.071   3.708   7.544  0.3396  0.0574 -0.6216
 4362SOL    HW124722   4.731   3.747   7.509  0.0184 -0.7978 -0.8368
 4362SOL    HW224723   0.128   3.731   7.471 -1.0421  1.0668 -1.3741
 4363SOL     OW24724   4.484   4.231   2.978  0.1715 -0.3847  0.1734
 4363SOL    HW124725   4.500   4.325   2.966  0.6790 -0.6683 -1.3283
 4363SOL    HW224726   4.503   4.204   2.888  0.8831  1.4881 -0.2429
 4364SOL     OW24727   3.588   0.877   7.628 -0.4968 -0.1576 -0.1383
 4364SOL    HW124728   3.681   0.862   7.645 -0.6123 -0.5146  0.1962
 4364SOL    HW224729   3.572   0.801   7.572  3.3506 -1.0670 -0.0032
 4365SOL     OW24730   3.726   0.207  16.913  0.0425  0.4322 -0.2156
 4365SOL    HW124731   3.791   0.186  16.980  0.5661 -1.2626 -1.2606
 4365SOL    HW224732   3.733   0.125  16.864  1.5728  0.3439  0.1468
 4366SOL     OW24733   1.174   0.827  13.780  0.9430  0.2692 -0.4191
 4366SOL    HW124734   1.130   0.805  13.698  3.1724 -1.4676 -1.1511
 4366SOL    HW224735   1.123   0.900  13.815  0.8000  0.1781 -0.4368
 4367SOL     OW24736   2.644   4.191   7.053  0.0305 -0.7467  0.0238
 4367SOL    HW124737   2.719   4.249   7.043  1.1677 -2.3028 -0.5784
 4367SOL    HW224738   2.661   4.127   6.984  0.2192 -0.0926 -0.5292
 4368SOL     OW24739   2.528   0.006   5.933  0.0357 -0.3161 -0.2306
 4368SOL    HW124740   2.595   4.704   5.878  2.1755 -0.4475  2.4365
 4368SOL    HW224741   2.466   0.029   5.865 -0.1214 -1.1743 -0.3716
 4369SOL     OW24742   3.755   2.134   5.571  0.3916  0.1841  0.2518
 4369SOL    HW124743   3.679   2.184   5.601  0.5946 -0.2441  1.4914
 4369SOL    HW224744   3.710   2.050   5.569 -0.0746  0.4790 -1.8666
 4370SOL     OW24745   2.583   0.811  17.146 -0.3222  0.1502 -0.2935
 4370SOL    HW124746   2.677   0.803  17.132 -0.2613 -0.1618  0.2852
 4370SOL    HW224747   2.555   0.844  17.061  2.0793 -0.7015 -1.4150
 4371SOL     OW24748   3.582   3.745   1.920 -0.4631 -0.1797 -0.4428
 4371SOL    HW124749   3.488   3.735   1.906  0.0688 -4.8416 -0.7096
 4371SOL    HW224750   3.597   3.662   1.966 -2.7000  0.9081  2.1962
 4372SOL     OW24751   2.248   4.424   7.152 -0.2559  0.1761 -0.0412
 4372SOL    HW124752   2.342   4.415   7.168 -0.1086 -0.0401 -1.0720
 4372SOL    HW224753   2.216   4.408   7.241  0.8870  0.1072  0.3542
 4373SOL     OW24754   1.672   1.976   6.772  0.4892 -0.9044 -0.1620
 4373SOL    HW124755   1.705   2.036   6.705  1.2121 -1.2801 -0.1337
 4373SOL    HW224756   1.621   1.911   6.722  1.2658 -2.5353  1.1804
 4374SOL     OW24757   0.393   3.281   6.841  0.0401 -0.0826  1.1532
 4374SOL    HW124758   0.484   3.271   6.811 -0.5584 -1.1676 -0.3461
 4374SOL    HW224759   0.369   3.202   6.889 -1.5338 -0.6477 -0.5510
 4375SOL     OW24760   4.220   3.196   8.091 -0.7726 -0.1498  0.4472
 4375SOL    HW124761   4.233   3.243   8.008 -2.0929 -1.2381 -0.3679
 4375SOL    HW224762   4.254   3.110   8.065 -0.1749 -0.0551  0.9186
 4376SOL     OW24763   1.934   2.207  10.771  0.3045  0.2531 -0.1346
 4376SOL    HW124764   1.988   2.185  10.847 -1.5624 -0.8551  0.8647
 4376SOL    HW224765   1.986   2.171  10.699  0.4507 -0.3792  0.2895
 4377SOL     OW24766   1.745   4.329  10.286 -0.4623  0.2878  0.0683
 4377SOL    HW124767   1.838   4.353  10.279  0.1151 -2.2068 -0.7015
 4377SOL    HW224768   1.734   4.252  10.231  2.1759  0.9871 -1.4167
 4378SOL     OW24769   0.063   0.350  10.517  0.3027  0.5702  0.2527
 4378SOL    HW124770   0.123   0.424  10.523  0.7277  0.4301 -2.1981
 4378SOL    HW224771   4.735   0.388  10.461 -1.0392 -0.6711  1.0310
 4379SOL     OW24772   0.619   1.033   4.098 -0.2831  0.0025 -0.2691
 4379SOL    HW124773   0.544   0.973   4.094 -0.8988  0.8396 -1.1627
 4379SOL    HW224774   0.595   1.105   4.040 -0.4102 -0.2876 -0.5808
 4380SOL     OW24775   0.588   4.375   2.842  0.5509 -0.2514  0.2931
 4380SOL    HW124776   0.502   4.410   2.818  0.5686 -1.1538 -1.1084
 4380SOL    HW224777   0.574   4.287   2.808  1.9118 -0.2818 -0.1723
 4381SOL     OW24778   0.674   0.784   5.153  0.1023  0.5228  0.3142
 4381SOL    HW124779   0.650   0.712   5.095 -1.6784  1.4760 -0.1153
 4381SOL    HW224780   0.589   0.820   5.178  0.5073  1.1542  0.7851
 4382SOL     OW24781   2.960   1.975  11.338 -0.3602 -0.4743 -0.3045
 4382SOL    HW124782   2.986   2.062  11.306  2.3142 -1.1691  0.0068
 4382SOL    HW224783   2.957   2.010  11.427 -0.0050 -0.9722 -0.1016
 4383SOL     OW24784   1.231   4.218   7.291  0.0158  0.4481 -0.0072
 4383SOL    HW124785   1.277   4.158   7.233  0.4521  1.0472 -0.2764
 4383SOL    HW224786   1.143   4.219   7.255 -0.3059  1.3051  0.7812
 4384SOL     OW24787   4.250   1.736   0.933  0.6534  0.3327 -0.2797
 4384SOL    HW124788   4.249   1.819   0.885  0.7527  1.1584  1.1681
 4384SOL    HW224789   4.344   1.717   0.934  0.6847  0.6072  1.0405
 4385SOL     OW24790   3.173   1.813   9.295  0.5629  0.0977 -0.2769
 4385SOL    HW124791   3.203   1.722   9.304 -1.2452 -0.6201 -1.6337
 4385SOL    HW224792   3.185   1.826   9.201 -2.7987  1.5058 -0.5241
 4386SOL     OW24793   0.854   4.316   3.214  0.2198  0.4048  0.3312
 4386SOL    HW124794   0.835   4.222   3.211 -0.2249  0.5367 -0.9671
 4386SOL    HW224795   0.820   4.341   3.300 -1.6425  0.0727 -0.3021
 4387SOL     OW24796   1.579   4.546  10.305 -0.3792 -0.1896 -0.2543
 4387SOL    HW124797   1.494   4.534  10.263 -0.0939  0.0688 -0.8854
 4387SOL    HW224798   1.625   4.462  10.296  1.4043  0.7035  0.5888
 4388SOL     OW24799   0.292   2.478   4.677 -0.0128  0.1342  0.1148
 4388SOL    HW124800   0.286   2.490   4.582 -0.1746 -0.5975  0.0337
 4388SOL    HW224801   0.309   2.385   4.687 -0.4257  0.2793  2.2117
 4389SOL     OW24802   1.594   3.695   7.039  0.3999  0.4017 -0.1742
 4389SOL    HW124803   1.529   3.628   7.018 -0.1558  0.0641  2.5994
 4389SOL    HW224804   1.626   3.706   6.949  0.6912 -0.7457 -0.2084
 4390SOL     OW24805   2.734   3.731   7.126 -0.1223 -0.1278  0.2630
 4390SOL    HW124806   2.766   3.819   7.148  0.4150 -0.5385  1.1454
 4390SOL    HW224807   2.650   3.752   7.167  0.0407  2.1238 -0.5326
 4391SOL     OW24808   1.451   0.449   8.325 -0.2273 -0.7783  0.4144
 4391SOL    HW124809   1.369   0.426   8.369  0.4201 -0.4373  1.8019
 4391SOL    HW224810   1.433   0.537   8.291 -0.5207  0.0821  2.7716
 4392SOL     OW24811   3.499   4.640   6.756  0.2265 -0.0842 -0.5921
 4392SOL    HW124812   3.460   4.579   6.818 -0.5500  0.1580 -0.8494
 4392SOL    HW224813   3.546   4.580   6.697 -1.6265  0.3932 -2.5467
 4393SOL     OW24814   3.490   2.418   1.400 -0.4886  0.0258 -0.4346
 4393SOL    HW124815   3.398   2.419   1.423 -0.2380 -0.7700  0.5888
 4393SOL    HW224816   3.507   2.478   1.327 -1.9266 -0.5052 -1.2025
 4394SOL     OW24817   0.153   1.097   5.447 -0.3344  0.2823 -0.1840
 4394SOL    HW124818   0.225   1.133   5.500 -0.9953  0.0555  0.8736
 4394SOL    HW224819   0.192   1.078   5.362 -1.7818 -2.1913 -0.2761
 4395SOL     OW24820   4.203   2.099   5.620  0.3476 -0.9488 -0.3722
 4395SOL    HW124821   4.120   2.096   5.668 -1.8736  4.3171 -3.9986
 4395SOL    HW224822   4.201   2.185   5.580  2.0275 -1.2919 -1.1883
 4396SOL     OW24823   1.101   1.592   6.644  0.0906  0.2090 -0.1378
 4396SOL    HW124824   1.040   1.529   6.684 -0.0685  0.3704 -0.1249
 4396SOL    HW224825   1.150   1.623   6.720 -2.6448  1.3224  1.1813
 4397SOL     OW24826   2.316   2.837  11.619  0.2812 -0.3203  0.4158
 4397SOL    HW124827   2.229   2.821  11.654 -0.2381  2.0089  0.2287
 4397SOL    HW224828   2.291   2.881  11.538 -0.6642  1.9300  1.9331
 4398SOL     OW24829   4.472   1.210   7.803  0.4260  0.0260  0.6618
 4398SOL    HW124830   4.474   1.165   7.718 -1.4967  0.6422  0.2954
 4398SOL    HW224831   4.378   1.222   7.815  0.1521 -2.5519  1.1132
 4399SOL     OW24832   3.120   3.588   7.059 -0.3406  0.1273 -0.1098
 4399SOL    HW124833   3.043   3.587   7.116 -0.6611 -0.8430 -0.5608
 4399SOL    HW224834   3.185   3.631   7.115 -0.0690  2.0497 -1.8766
 4400SOL     OW24835   4.282   3.157   5.492 -0.2157  0.1696  0.0488
 4400SOL    HW124836   4.366   3.203   5.491  1.3453 -2.6895 -1.5171
 4400SOL    HW224837   4.260   3.158   5.585 -1.5012  1.2798 -0.2729
 4401SOL     OW24838   0.856   0.729  14.917 -0.0312  0.4902  0.5877
 4401SOL    HW124839   0.790   0.667  14.886 -0.7322  0.9936  1.0709
 4401SOL    HW224840   0.809   0.772  14.989 -0.7828 -1.6284  1.3633
 4402SOL     OW24841   1.608   2.987   7.022  0.1521 -0.0808 -0.3469
 4402SOL    HW124842   1.675   3.035   7.069 -1.0623  0.0672  1.2370
 4402SOL    HW224843   1.656   2.990   6.939  0.9159 -1.3126  0.0446
 4403SOL     OW24844   3.542   3.153  10.336 -0.0553  0.1133 -0.2609
 4403SOL    HW124845   3.567   3.083  10.397  0.0395  0.8053  0.4960
 4403SOL    HW224846   3.530   3.107  10.253  0.5686  0.7256 -0.6875
 4404SOL     OW24847   0.542   0.604   1.525 -0.4168  0.3279  0.4066
 4404SOL    HW124848   0.534   0.637   1.436 -0.6348 -1.3435 -0.2047
 4404SOL    HW224849   0.515   0.513   1.511  1.7520 -0.4303  1.0988
 4405SOL     OW24850   2.524   3.566  13.511 -0.5423  0.2790  0.5488
 4405SOL    HW124851   2.499   3.536  13.598 -0.0999 -0.7135  0.3361
 4405SOL    HW224852   2.606   3.610  13.532 -0.6662  0.3334  0.9029
 4406SOL     OW24853   0.440   3.690   7.388  0.4320 -0.5510 -0.0998
 4406SOL    HW124854   0.490   3.731   7.459 -2.7479  2.1928  0.5784
 4406SOL    HW224855   0.510   3.699   7.324  1.7302  1.5210  1.6016
 4407SOL     OW24856   2.671   2.641   2.710  0.1913  0.0806  0.0079
 4407SOL    HW124857   2.622   2.570   2.751  0.7681 -0.4071 -0.1491
 4407SOL    HW224858   2.656   2.711   2.774 -1.5241 -1.6567  1.5298
 4408SOL     OW24859   0.197   0.766   4.324  0.5052 -0.2950  0.0010
 4408SOL    HW124860   0.150   0.809   4.252 -0.4631 -2.4233 -0.6402
 4408SOL    HW224861   0.212   0.679   4.287 -0.8590 -0.0825 -1.0987
 4409SOL     OW24862   3.266   4.011   3.423 -0.1741  0.2817 -0.1083
 4409SOL    HW124863   3.201   4.077   3.398 -0.0736 -0.2048 -1.5990
 4409SOL    HW224864   3.286   3.972   3.339 -0.2914 -0.8980  0.4088
 4410SOL     OW24865   1.075   2.233   5.941  0.5627  0.2276  0.3085
 4410SOL    HW124866   1.159   2.186   5.935 -0.3887 -1.2028 -1.5463
 4410SOL    HW224867   1.013   2.167   5.972 -1.8239  0.2739 -4.5006
 4411SOL     OW24868   0.827   3.515   4.515  0.4915 -0.0778 -1.1177
 4411SOL    HW124869   0.761   3.583   4.502 -0.7742 -1.1379 -0.1492
 4411SOL    HW224870   0.781   3.449   4.566 -0.4225  1.6440  0.3073
 4412SOL     OW24871   4.428   1.855   4.650  0.1947 -0.3404  0.1130
 4412SOL    HW124872   4.357   1.854   4.585 -0.3092  0.7374  0.6509
 4412SOL    HW224873   4.501   1.879   4.593 -0.5010  1.6812  0.0806
 4413SOL     OW24874   2.678   3.555   6.402 -0.3529  0.3311 -0.1093
 4413SOL    HW124875   2.583   3.550   6.388  0.1851 -0.9482 -3.4482
 4413SOL    HW224876   2.684   3.496   6.477  2.2981 -0.5708 -1.0393
 4414SOL     OW24877   4.087   2.205   3.379 -0.1265 -0.1698  0.1828
 4414SOL    HW124878   4.118   2.174   3.465  0.5656 -0.0746 -0.0267
 4414SOL    HW224879   4.018   2.265   3.406  1.3555  0.9774  1.4538
 4415SOL     OW24880   1.165   0.017   0.212 -0.2864  0.1634  0.1238
 4415SOL    HW124881   1.235   4.721   0.267 -0.9480 -0.6812  0.4182
 4415SOL    HW224882   1.144   4.689   0.147 -0.7666  0.7703 -0.3444
 4416SOL     OW24883   3.181   0.644  10.893 -0.4314  0.1134 -0.3783
 4416SOL    HW124884   3.121   0.641  10.819 -1.3831  2.3243  0.2953
 4416SOL    HW224885   3.168   0.566  10.947 -2.7945  0.4176 -0.5031
 4417SOL     OW24886   1.589   0.663   5.801  0.6985 -0.3314  0.4577
 4417SOL    HW124887   1.612   0.700   5.886 -0.7225  0.3555  0.5475
 4417SOL    HW224888   1.554   0.578   5.825 -1.1336  0.2370 -0.1896
 4418SOL     OW24889   0.642   1.685   8.578 -0.5253  0.1490  0.0842
 4418SOL    HW124890   0.700   1.638   8.638  0.1751  1.4689  0.4490
 4418SOL    HW224891   0.581   1.616   8.550  1.2808 -1.1030 -0.7740
 4419SOL     OW24892   3.254   2.974   9.714  0.2417 -0.3079 -0.0201
 4419SOL    HW124893   3.198   2.937   9.646 -1.4418  1.5635  0.3638
 4419SOL    HW224894   3.245   3.062   9.678  0.3257 -0.4163 -0.3040
 4420SOL     OW24895   3.095   4.010   1.518  0.3414  0.2568  0.4877
 4420SOL    HW124896   3.019   4.064   1.498  0.7684  0.7854  0.2943
 4420SOL    HW224897   3.128   3.988   1.431 -3.5574 -2.2435 -0.3603
 4421SOL     OW24898   1.684   1.530   8.445 -0.4664 -0.2736  0.3825
 4421SOL    HW124899   1.769   1.519   8.488  0.2976 -0.4705 -1.2014
 4421SOL    HW224900   1.616   1.514   8.511  0.2102  1.6274  1.5280
 4422SOL     OW24901   3.263   0.144   3.414 -0.1781 -0.4810 -0.6630
 4422SOL    HW124902   3.198   0.098   3.361 -1.3551 -1.6874  1.8013
 4422SOL    HW224903   3.309   0.192   3.345  0.1060  0.0969 -0.0678
 4423SOL     OW24904   0.054   2.352   7.136 -0.4258  0.8423 -0.3168
 4423SOL    HW124905   0.107   2.306   7.071 -0.8543  0.8324 -0.6631
 4423SOL    HW224906   0.105   2.333   7.215  0.5857 -0.3510 -1.2676
 4424SOL     OW24907   0.993   3.428   3.230  0.1347 -0.3372  0.1020
 4424SOL    HW124908   0.997   3.380   3.313 -0.9276 -0.7843 -0.0985
 4424SOL    HW224909   0.981   3.356   3.169 -0.1477  0.5531 -0.8829
 4425SOL     OW24910   4.284   1.972  15.781  0.0440 -0.1806  0.2228
 4425SOL    HW124911   4.215   2.003  15.840  0.1349 -1.4765  1.0157
 4425SOL    HW224912   4.257   2.003  15.695 -1.1247  0.4290  0.7968
 4426SOL     OW24913   3.781   1.754  15.792 -0.0314  0.7101  0.1187
 4426SOL    HW124914   3.740   1.678  15.834 -0.0889  2.0040  2.4155
 4426SOL    HW224915   3.815   1.801  15.868 -1.6653  1.0408  0.6507
 4427SOL     OW24916   0.062   0.833   4.090 -0.8009  0.3607  0.4882
 4427SOL    HW124917   0.047   0.926   4.101 -1.2203  0.5014 -1.2449
 4427SOL    HW224918   0.123   0.833   4.016  0.2376  0.3644  1.3441
 4428SOL     OW24919   2.416   0.587   3.419  0.2050 -0.2559  0.0464
 4428SOL    HW124920   2.505   0.553   3.429  0.4346 -0.0929 -1.5813
 4428SOL    HW224921   2.444   0.679   3.425  0.9833 -0.5549  1.1600
 4429SOL     OW24922   4.520   3.451  15.525 -0.9369  0.1580  0.2973
 4429SOL    HW124923   4.596   3.506  15.544  0.4193 -2.2351  1.7962
 4429SOL    HW224924   4.558   3.370  15.558 -0.7017  0.1446 -0.0191
 4430SOL     OW24925   0.323   2.209   7.841 -0.4808  0.0677  0.0425
 4430SOL    HW124926   0.265   2.279   7.870 -0.3135  0.1953  0.0743
 4430SOL    HW224927   0.336   2.225   7.748 -0.2709  1.3231  0.2854
 4431SOL     OW24928   0.261   1.885   6.025 -0.2186 -0.1983  0.4743
 4431SOL    HW124929   0.202   1.950   6.063 -0.3643 -0.1689  0.1974
 4431SOL    HW224930   0.315   1.847   6.095  0.9088  2.4689  1.0329
 4432SOL     OW24931   0.775   3.152   6.336  0.0343 -0.8282 -0.0345
 4432SOL    HW124932   0.855   3.205   6.339 -0.6294  0.1329  0.5404
 4432SOL    HW224933   0.803   3.062   6.350  1.4424 -0.2600  0.8183
 4433SOL     OW24934   3.928   4.032   7.360 -0.0366 -0.1819 -0.2611
 4433SOL    HW124935   3.883   4.044   7.276 -0.7876  1.6920  0.3985
 4433SOL    HW224936   4.018   4.024   7.328 -0.4878  0.5084 -1.7106
 4434SOL     OW24937   4.667   2.560  11.008  0.7110  0.0024 -0.4260
 4434SOL    HW124938   4.624   2.568  10.923 -2.8100 -1.3931  1.1821
 4434SOL    HW224939   4.643   2.645  11.046  1.1633  0.0532 -0.2634
 4435SOL     OW24940   3.462   2.189   5.277  0.2983 -0.1983 -0.9906
 4435SOL    HW124941   3.438   2.125   5.210 -2.2487  0.4801 -0.7096
 4435SOL    HW224942   3.546   2.153   5.306 -0.2564  0.4368  1.4649
 4436SOL     OW24943   3.967   2.825   6.659  0.0681  0.1523  0.3115
 4436SOL    HW124944   3.986   2.733   6.678  1.0839  0.5364  1.1958
 4436SOL    HW224945   4.028   2.846   6.588 -0.6046  0.5003 -0.1586
 4437SOL     OW24946   2.075   3.480  12.469 -0.1262  0.2502  0.3419
 4437SOL    HW124947   2.101   3.523  12.550 -2.3674 -0.4844  1.4336
 4437SOL    HW224948   2.137   3.407  12.468  0.2435  0.5554  0.8223
 4438SOL     OW24949   3.253   3.629  12.400 -0.6459 -0.2417  0.5239
 4438SOL    HW124950   3.314   3.562  12.368  0.9301  1.0252  0.8841
 4438SOL    HW224951   3.199   3.582  12.464 -2.4302  0.5787 -0.3602
 4439SOL     OW24952   2.416   0.069   2.055  0.2936 -0.0078 -0.4229
 4439SOL    HW124953   2.398   0.075   2.149  1.5786 -1.8841 -0.0486
 4439SOL    HW224954   2.471   4.730   2.045 -0.1367 -0.0081 -2.8221
 4440SOL     OW24955   0.247   4.658   8.659  0.0118 -0.6785  0.0170
 4440SOL    HW124956   0.324   4.697   8.699 -0.4689  1.1014 -0.7925
 4440SOL    HW224957   0.231   4.703   8.576  2.6287  0.2143  0.0113
 4441SOL     OW24958   2.239   4.276   5.452 -0.1130  0.0885  0.0931
 4441SOL    HW124959   2.224   4.362   5.492 -0.9416  0.5897 -1.3337
 4441SOL    HW224960   2.238   4.220   5.530 -0.3440  0.3447  0.2754
 4442SOL     OW24961   1.830   0.265  11.833  0.2181 -0.1348  0.3734
 4442SOL    HW124962   1.755   0.325  11.825  1.4512  1.3877  0.3204
 4442SOL    HW224963   1.900   0.319  11.798  1.1942 -2.5630 -1.4125
 4443SOL     OW24964   0.793   1.332  10.536  0.0592  0.1712  0.0352
 4443SOL    HW124965   0.805   1.294  10.623 -3.0037  1.9948  1.2699
 4443SOL    HW224966   0.882   1.351  10.507 -0.1591  2.0398  0.6266
 4444SOL     OW24967   0.755   2.751   7.681  0.3145 -0.3660 -0.3756
 4444SOL    HW124968   0.837   2.758   7.729  2.1287  1.4102 -3.7736
 4444SOL    HW224969   0.786   2.761   7.591 -1.0194  1.4446 -0.6528
 4445SOL     OW24970   2.329   3.432   7.203 -0.1357  0.4760 -0.3534
 4445SOL    HW124971   2.329   3.384   7.120 -0.4850  0.8915 -0.5935
 4445SOL    HW224972   2.234   3.429   7.215 -0.3064 -0.0783 -1.7801
 4446SOL     OW24973   1.450   1.098  17.637 -0.2457 -0.5274 -0.2247
 4446SOL    HW124974   1.361   1.063  17.646 -0.6598  0.2603 -1.2330
 4446SOL    HW224975   1.438   1.123  17.545  1.3002  1.0313  0.0064
 4447SOL     OW24976   1.405   1.927   9.716 -0.2774 -0.0654  0.2943
 4447SOL    HW124977   1.485   1.878   9.697 -0.7811 -1.0245  0.6537
 4447SOL    HW224978   1.437   2.017   9.708  0.4336 -0.4065 -0.6854
 4448SOL     OW24979   2.976   0.166   6.403 -0.8922  0.3433 -0.0594
 4448SOL    HW124980   3.035   0.222   6.454  0.7975 -0.5463 -1.0443
 4448SOL    HW224981   2.893   0.212   6.418 -0.4031  0.7477  1.4780
 4449SOL     OW24982   1.027   0.112   5.358 -0.0704 -0.4169  0.4496
 4449SOL    HW124983   0.944   0.078   5.391  0.5519 -2.4237 -0.0447
 4449SOL    HW224984   1.006   0.101   5.265 -0.9756  1.2599  0.4571
 4450SOL     OW24985   2.638   4.446  16.463  0.2314 -1.2449 -0.1330
 4450SOL    HW124986   2.587   4.524  16.484  1.7815  0.1136 -1.3544
 4450SOL    HW224987   2.573   4.398  16.411  0.8574  0.0626 -2.1213
 4451SOL     OW24988   3.413   3.083   3.906  0.3776 -0.3894 -0.6332
 4451SOL    HW124989   3.350   3.096   3.976  0.6346 -3.5702  0.1967
 4451SOL    HW224990   3.402   3.159   3.848 -0.8837  2.4319  3.3577
 4452SOL     OW24991   1.188   4.657   5.513 -0.3492  0.0831  0.7017
 4452SOL    HW124992   1.248   4.652   5.439  0.4444  2.1917  1.2159
 4452SOL    HW224993   1.126   4.719   5.475  1.2081  0.6160 -0.9721
 4453SOL     OW24994   1.730   3.650   8.045  0.2611 -0.3090  0.4350
 4453SOL    HW124995   1.704   3.739   8.021 -0.6144 -0.6140  0.2737
 4453SOL    HW224996   1.751   3.617   7.957  4.4890 -3.0530  2.4983
 4454SOL     OW24997   0.893   0.281   8.988 -0.1940  0.1478 -0.0635
 4454SOL    HW124998   0.943   0.200   8.978 -2.1934 -1.1335  0.3426
 4454SOL    HW224999   0.940   0.320   9.062 -0.8318 -0.0336  0.4297
 4455SOL     OW25000   3.436   2.240   1.958  0.2548  0.0732 -0.6887
 4455SOL    HW125001   3.448   2.260   2.051  1.6436  1.1135 -1.0778
 4455SOL    HW225002   3.450   2.327   1.921  0.2261  0.4894  0.2550
 4456SOL     OW25003   4.438   4.239   4.072  0.7053  0.1273 -0.0887
 4456SOL    HW125004   4.528   4.269   4.086 -0.0941  1.9089  1.1473
 4456SOL    HW225005   4.452   4.154   4.115  0.5064 -0.3464 -0.9718
 4457SOL     OW25006   0.796   1.257   0.639 -0.4236  0.0276 -0.1258
 4457SOL    HW125007   0.727   1.223   0.581  1.1487 -1.9802 -0.7936
 4457SOL    HW225008   0.852   1.180   0.646 -0.6137 -0.0901  0.1141
 4458SOL     OW25009   3.100   3.331   7.363  0.1848 -0.0451  0.0611
 4458SOL    HW125010   3.075   3.320   7.455 -1.2663 -0.9119 -0.4293
 4458SOL    HW225011   3.190   3.352   7.384  0.4173  0.7611 -1.7429
 4459SOL     OW25012   0.081   2.316   2.630  0.2875  0.0921  0.5625
 4459SOL    HW125013   0.172   2.330   2.605  0.5197  0.1374  1.4267
 4459SOL    HW225014   0.054   2.303   2.539  0.0856  0.5116  0.5621
 4460SOL     OW25015   3.531   3.096   3.244  0.3322  0.3698 -0.4589
 4460SOL    HW125016   3.580   3.150   3.306 -0.5409  0.2340  0.3534
 4460SOL    HW225017   3.511   3.166   3.182 -2.0767  1.7083  1.8115
 4461SOL     OW25018   0.163   4.192   5.536  0.0132 -0.2547  0.7054
 4461SOL    HW125019   0.137   4.237   5.456  0.4292 -1.0657  0.1146
 4461SOL    HW225020   0.206   4.114   5.499  1.1250  1.2586 -1.1697
 4462SOL     OW25021   0.135   0.980   9.742 -0.0526 -0.1772  0.3733
 4462SOL    HW125022   0.135   0.887   9.765  2.0776  0.2396  2.0420
 4462SOL    HW225023   0.127   1.036   9.819  1.1918  2.0273 -1.1073
 4463SOL     OW25024   3.861   4.483  14.357  0.0874 -0.4211  0.3770
 4463SOL    HW125025   3.807   4.555  14.324  0.4050  0.0586  0.8901
 4463SOL    HW225026   3.794   4.438  14.407 -0.8944  1.6693  0.9352
 4464SOL     OW25027   4.651   4.358  17.395 -0.0918  0.6995  0.6502
 4464SOL    HW125028   4.600   4.282  17.422 -1.4253  2.2652  2.5023
 4464SOL    HW225029   4.670   4.338  17.303 -3.6129 -0.6807  0.2218
 4465SOL     OW25030   3.190   3.863   2.193  0.9271 -0.3244  0.2512
 4465SOL    HW125031   3.205   3.819   2.277 -0.2660 -0.0838  0.5944
 4465SOL    HW225032   3.144   3.789   2.152 -2.1279  1.5051  0.3617
 4466SOL     OW25033   0.984   1.215  10.156  0.1326 -0.2642 -1.0023
 4466SOL    HW125034   0.891   1.208  10.175  0.0610 -0.5394 -1.4511
 4466SOL    HW225035   1.017   1.290  10.206 -0.1045 -0.7991 -0.0550
 4467SOL     OW25036   1.556   4.544  12.403 -0.2065  0.3285 -0.6196
 4467SOL    HW125037   1.533   4.602  12.476  1.0567  0.5922 -0.4353
 4467SOL    HW225038   1.466   4.541  12.372 -1.3737  0.0698  2.7927
 4468SOL     OW25039   1.531   3.304   4.653 -0.7001 -0.1507  0.0737
 4468SOL    HW125040   1.443   3.323   4.686 -0.6211 -0.3206  0.3806
 4468SOL    HW225041   1.522   3.337   4.564 -2.0639  2.1215  1.0516
 4469SOL     OW25042   0.218   4.612   9.224  0.5179  0.2375 -0.0327
 4469SOL    HW125043   0.300   4.623   9.271  0.8284 -1.5660 -0.1691
 4469SOL    HW225044   0.221   4.697   9.181 -2.2975  1.2162  1.6499
 4470SOL     OW25045   3.868   0.078   9.666  0.2166  0.2853 -0.3107
 4470SOL    HW125046   3.961   0.087   9.686  1.0211 -2.6720 -2.5480
 4470SOL    HW225047   3.868   4.726   9.636  1.6236 -0.0647  0.7718
 4471SOL     OW25048   1.055   2.537   6.397  0.1562 -0.1442 -0.4680
 4471SOL    HW125049   1.013   2.459   6.432  0.9780 -1.2374 -1.9560
 4471SOL    HW225050   1.081   2.511   6.309  0.5863 -2.6988  0.4231
 4472SOL     OW25051   4.666   1.610  10.216 -0.0875 -0.5763 -0.0785
 4472SOL    HW125052   4.576   1.579  10.221 -1.3463  2.8365 -1.1348
 4472SOL    HW225053   4.708   1.526  10.235 -2.4036 -2.0363 -1.3880
 4473SOL     OW25054   0.174   3.849   4.702 -0.2744 -0.6142 -0.0929
 4473SOL    HW125055   0.197   3.922   4.759  0.2707 -1.1918  0.4236
 4473SOL    HW225056   0.106   3.805   4.752  0.2735  0.3864  1.5406
 4474SOL     OW25057   0.776   3.242   2.635 -0.3177  0.3280 -0.1557
 4474SOL    HW125058   0.724   3.210   2.709 -1.1671  1.6677 -0.1672
 4474SOL    HW225059   0.838   3.170   2.632 -2.3358 -1.3753 -0.9384
 4475SOL     OW25060   3.816   2.951   3.591  0.4831 -0.4680 -0.1740
 4475SOL    HW125061   3.759   3.011   3.638  0.6849 -0.0500 -0.4681
 4475SOL    HW225062   3.794   2.986   3.505 -4.2888  1.0441  1.6414
 4476SOL     OW25063   4.519   3.717  12.556  0.4261 -0.3917 -0.6316
 4476SOL    HW125064   4.579   3.661  12.506  2.1422 -0.3310  1.3815
 4476SOL    HW225065   4.438   3.668  12.570 -0.4162  1.0362 -0.5228
 4477SOL     OW25066   3.426   1.866  15.757 -0.2998  0.7343 -0.2705
 4477SOL    HW125067   3.395   1.935  15.816  0.0025 -1.1179  2.0763
 4477SOL    HW225068   3.400   1.794  15.815 -0.3095  2.0606  1.3697
 4478SOL     OW25069   4.484   1.033   5.702 -0.2213  0.0445 -0.2429
 4478SOL    HW125070   4.578   1.020   5.687 -0.0724 -0.6358  1.2264
 4478SOL    HW225071   4.473   1.014   5.795 -0.1281  1.4970  0.0591
 4479SOL     OW25072   4.003   2.851  14.463 -0.1953 -0.3716 -0.1281
 4479SOL    HW125073   4.027   2.909  14.391  0.1741 -2.1630 -1.4483
 4479SOL    HW225074   4.059   2.886  14.532 -3.2973 -0.1483  2.2888
 4480SOL     OW25075   2.915   0.443   4.017  0.2577  0.2707 -0.4212
 4480SOL    HW125076   2.894   0.367   4.070  2.3219 -0.6320 -0.9157
 4480SOL    HW225077   2.897   0.419   3.926 -0.9543  1.3713 -0.4780
 4481SOL     OW25078   3.288   3.807  13.441 -0.3731 -0.2057 -0.3735
 4481SOL    HW125079   3.280   3.777  13.532 -2.4434 -1.3925 -0.9407
 4481SOL    HW225080   3.203   3.787  13.403 -0.6752  0.5148 -0.0764
 4482SOL     OW25081   1.888   2.517   0.908  0.0145  0.3590  0.2408
 4482SOL    HW125082   1.922   2.467   0.982  0.7678 -3.6127 -2.8043
 4482SOL    HW225083   1.957   2.580   0.887  0.7458  0.0315  1.6443
 4483SOL     OW25084   0.125   0.493  16.947  0.2852  0.6636 -0.4193
 4483SOL    HW125085   0.061   0.522  17.012  1.6682 -0.9877  1.7046
 4483SOL    HW225086   0.196   0.552  16.973  1.5049 -1.3848  0.8690
 4484SOL     OW25087   4.171   2.004  10.280  0.0229 -0.1769 -0.0701
 4484SOL    HW125088   4.143   2.029  10.368  0.3543  1.7965 -0.5182
 4484SOL    HW225089   4.193   2.087  10.236 -1.9339  0.5295  0.2665
 4485SOL     OW25090   4.693   3.363   3.415  0.4248  0.3094  0.0181
 4485SOL    HW125091   4.644   3.424   3.360  1.4491  0.6791 -0.4960
 4485SOL    HW225092   4.694   3.287   3.356  0.9461 -1.1553  1.9126
 4486SOL     OW25093   2.130   3.235   6.314 -0.4455  0.4076  0.0971
 4486SOL    HW125094   2.149   3.259   6.223 -2.7178 -0.8110 -0.7091
 4486SOL    HW225095   2.216   3.254   6.350 -1.1556  0.6190  1.6910
 4487SOL     OW25096   2.643   2.071   5.785 -0.2821 -0.2384 -0.1304
 4487SOL    HW125097   2.712   2.045   5.724 -0.2437 -0.9769  0.2275
 4487SOL    HW225098   2.648   2.167   5.779  3.0480 -0.4992 -1.2072
 4488SOL     OW25099   0.096   1.476  11.135  0.6020  0.3306 -0.1611
 4488SOL    HW125100   0.117   1.489  11.043  1.0710  0.4948 -0.0337
 4488SOL    HW225101   0.017   1.424  11.123  1.1509 -0.3099 -0.9709
 4489SOL     OW25102   1.648   2.758   4.660  0.1611 -0.8004  0.3587
 4489SOL    HW125103   1.672   2.851   4.657 -0.9104 -0.5406 -0.1304
 4489SOL    HW225104   1.706   2.741   4.586 -0.9188  1.6960 -1.0812
 4490SOL     OW25105   3.233   2.321   4.045 -0.0756 -0.0657  0.1693
 4490SOL    HW125106   3.300   2.355   4.104 -2.4012  0.8295  2.2531
 4490SOL    HW225107   3.257   2.229   4.054 -2.0902 -0.2451  3.5391
 4491SOL     OW25108   2.874   0.833   4.395 -0.2460  0.5363  0.2168
 4491SOL    HW125109   2.927   0.758   4.368 -2.7261 -1.4241  0.7096
 4491SOL    HW225110   2.791   0.785   4.402 -0.2034  0.5877  1.0406
 4492SOL     OW25111   2.081   1.252   1.272 -0.2218 -0.4142  0.6681
 4492SOL    HW125112   2.113   1.188   1.209 -3.0175 -0.3797 -0.8018
 4492SOL    HW225113   1.994   1.219   1.296 -1.9049  1.5952 -2.7129
 4493SOL     OW25114   4.538   3.421   6.792 -0.3981 -0.2943  0.3708
 4493SOL    HW125115   4.546   3.406   6.886  2.2697 -1.6776 -0.0861
 4493SOL    HW225116   4.600   3.360   6.752  1.2517  1.9482 -0.5390
 4494SOL     OW25117   4.247   4.395   2.845  0.3769 -0.5273 -0.1697
 4494SOL    HW125118   4.319   4.393   2.782  0.3770 -0.2082 -0.1781
 4494SOL    HW225119   4.180   4.341   2.804  0.8087 -0.7719 -0.5556
 4495SOL     OW25120   2.561   0.626  16.686  0.3915  0.1565  0.6288
 4495SOL    HW125121   2.552   0.580  16.603  2.3871  1.4311 -0.2923
 4495SOL    HW225122   2.478   0.673  16.701  1.5560  3.1372 -2.2715
 4496SOL     OW25123   0.993   0.845  13.377  0.1752 -0.3271 -0.0152
 4496SOL    HW125124   0.942   0.818  13.300 -1.0610  2.7447 -0.2621
 4496SOL    HW225125   0.931   0.810  13.441 -0.2379 -2.1894 -1.4236
 4497SOL     OW25126   3.255   3.123   2.335 -0.1423 -0.5484  0.3077
 4497SOL    HW125127   3.304   3.048   2.300 -0.3291 -0.8522  0.7050
 4497SOL    HW225128   3.294   3.116   2.422 -0.1788 -0.1419  0.3541
 4498SOL     OW25129   0.415   3.508   6.273  0.4184  0.4346  0.1421
 4498SOL    HW125130   0.459   3.428   6.246  1.1099  0.4453  1.2498
 4498SOL    HW225131   0.471   3.578   6.241 -0.5978  0.8520 -0.7179
 4499SOL     OW25132   4.247   1.496   3.040 -0.1460  0.3205  0.1425
 4499SOL    HW125133   4.340   1.476   3.051 -0.4671 -1.8338 -0.9448
 4499SOL    HW225134   4.237   1.482   2.946  2.4181  0.3528 -0.1480
 4500SOL     OW25135   1.789   3.697   4.110  0.2392  0.0172  0.5126
 4500SOL    HW125136   1.882   3.695   4.085  0.0265 -0.3873 -0.2589
 4500SOL    HW225137   1.752   3.687   4.022  0.9101  0.5362  0.1653
 4501SOL     OW25138   0.432   0.663  17.410 -0.3916 -0.3761  0.0724
 4501SOL    HW125139   0.429   0.595  17.343  0.2665 -0.3870  0.0539
 4501SOL    HW225140   0.403   0.733  17.353  0.5856 -1.8836 -2.2621
 4502SOL     OW25141   3.472   0.314   9.158 -0.6282  0.1095  0.6319
 4502SOL    HW125142   3.394   0.368   9.170 -1.2537 -0.4581 -0.8469
 4502SOL    HW225143   3.537   0.376   9.192 -0.8529  0.9182 -0.4124
 4503SOL     OW25144   0.189   3.681  13.282 -0.4064  0.8296  0.0515
 4503SOL    HW125145   0.276   3.650  13.256 -0.6055  1.1165 -0.9738
 4503SOL    HW225146   0.157   3.698  13.193  0.7256  0.3799 -0.4327
 4504SOL     OW25147   4.095   2.527   4.929  0.2534  0.5287 -0.5086
 4504SOL    HW125148   4.125   2.449   4.881  0.1880 -0.2801  0.7529
 4504SOL    HW225149   4.053   2.585   4.866 -0.2028  0.6147 -0.1256
 4505SOL     OW25150   1.685   2.336  10.067  0.5236  0.3189  0.2062
 4505SOL    HW125151   1.741   2.262  10.041  1.0454  0.4379  1.0204
 4505SOL    HW225152   1.600   2.292  10.076  1.1409 -0.8777  0.2760
 4506SOL     OW25153   3.063   4.249  17.233 -0.0063  0.0184 -0.9172
 4506SOL    HW125154   3.153   4.283  17.234  0.1786 -0.5136 -0.1748
 4506SOL    HW225155   3.028   4.313  17.170  2.0925 -0.4279 -2.5509
 4507SOL     OW25156   2.436   1.253  16.911  0.1622 -0.6574 -0.0529
 4507SOL    HW125157   2.452   1.330  16.966 -1.8460 -1.9170  2.2694
 4507SOL    HW225158   2.421   1.300  16.829  0.7246  0.0447  0.2481
 4508SOL     OW25159   1.395   0.132   3.004  0.3109  0.4363  0.3071
 4508SOL    HW125160   1.417   0.096   2.918 -1.5061  0.5836 -0.2304
 4508SOL    HW225161   1.299   0.134   3.007  0.3720  1.4733  1.4843
 4509SOL     OW25162   4.390   1.157  13.540  0.6355  0.4929  0.6234
 4509SOL    HW125163   4.415   1.242  13.505 -2.7975 -0.0026 -2.9978
 4509SOL    HW225164   4.303   1.174  13.577  2.2075  2.8466  3.2626
 4510SOL     OW25165   2.442   1.641   7.118  0.0400  0.3093 -0.2981
 4510SOL    HW125166   2.361   1.690   7.137 -0.1804 -0.2911  0.3451
 4510SOL    HW225167   2.508   1.701   7.153  0.2453  0.2089 -0.5180
 4511SOL     OW25168   4.348   2.189   9.720 -0.4320  0.5141 -0.1615
 4511SOL    HW125169   4.349   2.146   9.806 -1.3950  2.4723  0.8381
 4511SOL    HW225170   4.311   2.273   9.749 -0.8052 -0.3591  1.8571
 4512SOL     OW25171   3.872   1.544   8.894 -0.0197  0.1189 -0.0075
 4512SOL    HW125172   3.882   1.622   8.948 -0.3636  1.1097 -1.3940
 4512SOL    HW225173   3.867   1.484   8.969 -0.7497 -1.5418 -1.3870
 4513SOL     OW25174   1.604   3.374   9.038 -0.0328 -0.5040  0.9695
 4513SOL    HW125175   1.512   3.347   9.033 -0.3016  0.7393 -1.0087
 4513SOL    HW225176   1.600   3.468   9.017  0.3512 -0.5684  0.5941
 4514SOL     OW25177   3.718   3.285   5.492  0.6251  0.5944 -0.6419
 4514SOL    HW125178   3.751   3.354   5.434  0.5178  1.3208  0.1606
 4514SOL    HW225179   3.795   3.275   5.547 -0.2462  1.6938  0.7825
 4515SOL     OW25180   1.305   1.092   0.992  0.1673  0.1587 -0.4063
 4515SOL    HW125181   1.299   1.188   0.987  2.6042  0.1280 -3.9834
 4515SOL    HW225182   1.380   1.091   0.932  0.1855 -1.5938 -0.3602
 4516SOL     OW25183   2.272   4.326   8.143  0.5099 -0.4066 -0.3380
 4516SOL    HW125184   2.201   4.265   8.125 -2.2419  2.0920  2.0905
 4516SOL    HW225185   2.336   4.279   8.196  0.2086  0.0273  0.4136
 4517SOL     OW25186   0.858   3.315   8.219  0.0795  0.1017 -0.4286
 4517SOL    HW125187   0.786   3.275   8.170 -1.1855  0.0047  1.5246
 4517SOL    HW225188   0.929   3.317   8.154  1.6172 -3.0556  1.1573
 4518SOL     OW25189   1.755   0.289  16.347  0.8165 -0.4184 -0.7284
 4518SOL    HW125190   1.705   0.316  16.270  0.3439  1.7372  0.3254
 4518SOL    HW225191   1.709   0.206  16.359 -1.3682  0.8142 -0.6708
 4519SOL     OW25192   1.733   1.150   8.488  0.1505  0.0355 -0.1999
 4519SOL    HW125193   1.645   1.179   8.466 -0.5508  0.0752  2.6363
 4519SOL    HW225194   1.767   1.119   8.404  2.5534 -0.5191  0.9582
 4520SOL     OW25195   2.711   3.252   7.649  0.5235  0.0548  0.4018
 4520SOL    HW125196   2.715   3.221   7.740 -2.0360 -0.0321  0.4951
 4520SOL    HW225197   2.742   3.340   7.669  1.2757  0.2263 -1.5896
 4521SOL     OW25198   3.295   3.155   7.558 -0.2640  0.3295  0.5822
 4521SOL    HW125199   3.277   3.239   7.600 -1.2607  1.8526 -2.9004
 4521SOL    HW225200   3.330   3.107   7.633  1.8902  1.4273  0.2678
 4522SOL     OW25201   0.812   0.568   9.127 -0.1369  0.2044  0.1779
 4522SOL    HW125202   0.867   0.495   9.157  0.1311  0.6711  0.8403
 4522SOL    HW225203   0.869   0.642   9.109  0.5525 -0.5669 -0.7846
 4523SOL     OW25204   0.585   0.443  11.793 -1.0599  0.0009  0.3324
 4523SOL    HW125205   0.499   0.443  11.835 -1.8872  0.5583 -1.3929
 4523SOL    HW225206   0.576   0.389  11.715 -1.5257  0.1157  0.3067
 4524SOL     OW25207   4.095   0.264   2.290  0.0467  0.1069  0.5049
 4524SOL    HW125208   4.182   0.287   2.323 -0.9076  3.1785  0.8548
 4524SOL    HW225209   4.085   0.342   2.235 -0.8276  0.4539  1.1547
 4525SOL     OW25210   1.040   0.140  10.346  0.0922  0.5553 -0.6623
 4525SOL    HW125211   1.032   0.057  10.392  0.7429  1.4646  1.1042
 4525SOL    HW225212   1.071   0.104  10.263 -0.8156  0.6104 -1.0304
 4526SOL     OW25213   2.126   0.899   6.249  0.2926  0.0223  0.9000
 4526SOL    HW125214   2.203   0.873   6.300  1.6160  1.4452 -0.4094
 4526SOL    HW225215   2.122   0.839   6.175 -0.4866 -0.3787  1.2695
 4527SOL     OW25216   1.811   1.567  12.466 -0.1612 -0.3067 -0.8694
 4527SOL    HW125217   1.775   1.487  12.428 -0.8060 -0.7108  0.6297
 4527SOL    HW225218   1.755   1.591  12.539 -1.8824 -3.7829 -1.0345
 4528SOL     OW25219   1.529   1.716   5.334 -0.3326  0.1234  0.4445
 4528SOL    HW125220   1.563   1.802   5.359 -0.1179  0.2814 -0.4149
 4528SOL    HW225221   1.435   1.737   5.338 -0.6758 -1.2758 -0.1092
 4529SOL     OW25222   3.827   4.052  10.508 -0.4623 -0.3144  0.3856
 4529SOL    HW125223   3.897   4.117  10.514 -1.1646  0.4321  0.4719
 4529SOL    HW225224   3.754   4.093  10.461 -1.1404 -1.2588  0.6097
 4530SOL     OW25225   0.222   0.291   8.836 -0.0040  0.2255 -0.4946
 4530SOL    HW125226   0.183   0.366   8.881  0.4503  0.2635 -0.1676
 4530SOL    HW225227   0.305   0.326   8.803  0.8772 -0.4569  1.0230
 4531SOL     OW25228   1.443   2.284   4.690  0.6647  0.0027 -0.2084
 4531SOL    HW125229   1.488   2.344   4.631  1.5598  0.8759  1.3332
 4531SOL    HW225230   1.495   2.204   4.686  2.6868  1.3792 -1.3094
 4532SOL     OW25231   2.277   4.073  14.659 -0.0186  0.1568 -0.4118
 4532SOL    HW125232   2.195   4.107  14.623 -0.1591  0.9752  0.6981
 4532SOL    HW225233   2.332   4.151  14.659 -1.2733  1.0395  1.1741
 4533SOL     OW25234   1.683   1.545   5.609 -0.4901  0.3861  0.7271
 4533SOL    HW125235   1.719   1.626   5.572  0.0274  0.1461  0.7124
 4533SOL    HW225236   1.694   1.494   5.529  1.7401  0.8040  0.7818
 4534SOL     OW25237   0.453   2.167  10.701  0.0252  0.2618  0.1085
 4534SOL    HW125238   0.408   2.202  10.624 -2.0973  1.7833  2.0568
 4534SOL    HW225239   0.520   2.111  10.662 -2.9307 -3.0874 -0.1891
 4535SOL     OW25240   0.440   0.170   8.077  0.0639  0.5119 -0.7597
 4535SOL    HW125241   0.441   0.184   8.172 -3.3676  0.9020 -0.8056
 4535SOL    HW225242   0.491   0.089   8.068  3.0623  2.3183 -0.2000
 4536SOL     OW25243   1.454   3.838  10.917 -0.2713 -0.2494  0.1732
 4536SOL    HW125244   1.543   3.867  10.939 -0.2147 -0.7175  0.5847
 4536SOL    HW225245   1.422   3.927  10.931  1.2052 -0.0468  2.2370
 4537SOL     OW25246   2.123   1.134   7.530 -0.2137  0.0708  0.2098
 4537SOL    HW125247   2.098   1.050   7.492  0.7670  0.0059 -0.2896
 4537SOL    HW225248   2.166   1.113   7.614  1.7721 -2.4917 -1.4483
 4538SOL     OW25249   4.561   0.343   7.788  0.6714  0.7687 -0.3722
 4538SOL    HW125250   4.522   0.410   7.843  1.3772  1.1307 -0.3042
 4538SOL    HW225251   4.654   0.358   7.809 -0.0998  0.9876  2.7992
 4539SOL     OW25252   3.783   2.173   2.136 -0.5367 -0.2906  0.8097
 4539SOL    HW125253   3.741   2.121   2.204  0.6606  0.2002  1.9217
 4539SOL    HW225254   3.828   2.244   2.182  0.4939 -2.4172  3.0584
 4540SOL     OW25255   3.560   4.224  15.659 -0.2244 -0.3848 -1.0004
 4540SOL    HW125256   3.465   4.216  15.663 -0.1165 -1.1142  0.1088
 4540SOL    HW225257   3.579   4.228  15.565 -1.3055 -0.7057 -1.2253
 4541SOL     OW25258   2.756   1.761  11.045  0.5977  0.0140 -0.3141
 4541SOL    HW125259   2.850   1.768  11.058  0.6382  0.0021 -0.6005
 4541SOL    HW225260   2.733   1.854  11.045 -1.8999 -0.5749 -1.1525
 4542SOL     OW25261   3.263   1.744   5.019 -0.6082 -0.1896 -0.0684
 4542SOL    HW125262   3.273   1.653   4.991 -1.1864  0.1838 -1.5158
 4542SOL    HW225263   3.246   1.779   4.931  0.0711 -0.3637 -0.2691
 4543SOL     OW25264   4.031   1.511  13.822 -0.2171 -0.1383  0.0403
 4543SOL    HW125265   3.997   1.472  13.903 -0.8652  0.1745 -0.0817
 4543SOL    HW225266   3.987   1.595  13.833 -0.3004 -0.2581  0.6213
 4544SOL     OW25267   0.542   0.115   5.492 -0.3824 -0.0519 -0.1809
 4544SOL    HW125268   0.470   0.053   5.510  0.4731 -0.8064  0.6141
 4544SOL    HW225269   0.601   0.094   5.564 -0.9202  1.0339  0.5605
 4545SOL     OW25270   2.292   4.202   6.482 -0.0959 -0.6511 -0.2855
 4545SOL    HW125271   2.334   4.273   6.531 -1.2838  0.0631 -0.3102
 4545SOL    HW225272   2.368   4.177   6.429  0.0761  1.5902 -1.0834
 4546SOL     OW25273   3.544   4.109   7.026 -0.1072 -0.4306  0.3679
 4546SOL    HW125274   3.480   4.068   6.967  3.0486 -3.0219 -1.2404
 4546SOL    HW225275   3.480   4.173   7.057 -1.4474 -0.5391 -2.1598
 4547SOL     OW25276   0.129   4.409   8.776  0.1366  0.4590  0.0326
 4547SOL    HW125277   0.167   4.496   8.761  1.4382  0.1007  1.1909
 4547SOL    HW225278   0.086   4.383   8.695 -1.1413 -0.2494  0.9443
 4548SOL     OW25279   2.115   2.303  12.370  0.1882 -0.6540  0.0537
 4548SOL    HW125280   2.061   2.314  12.448 -1.3204 -1.2126 -0.9084
 4548SOL    HW225281   2.054   2.246  12.323 -0.7478  1.1628 -0.9390
 4549SOL     OW25282   1.172   0.649   0.326  0.6826 -0.3600  0.1450
 4549SOL    HW125283   1.092   0.689   0.292  0.8391 -0.2084 -0.0461
 4549SOL    HW225284   1.145   0.558   0.341  1.9530 -0.5492  1.2805
 4550SOL     OW25285   4.040   1.572  12.922 -0.1682 -0.0190  0.2043
 4550SOL    HW125286   4.001   1.617  12.996 -2.5736 -1.3738 -0.2643
 4550SOL    HW225287   4.001   1.486  12.937  4.0075 -1.6637  1.8106
 4551SOL     OW25288   2.279   1.203   3.309  0.0831 -0.4848 -0.2825
 4551SOL    HW125289   2.273   1.281   3.363 -0.8751  0.1085 -1.2690
 4551SOL    HW225290   2.223   1.140   3.355 -2.0543 -0.4944 -2.9393
 4552SOL     OW25291   2.685   2.216   3.452 -0.2096  0.1769  0.1535
 4552SOL    HW125292   2.682   2.310   3.469 -2.0468 -0.1256  1.4621
 4552SOL    HW225293   2.612   2.213   3.389 -0.1204 -1.7994  0.1417
 4553SOL     OW25294   1.620   3.025   2.717 -0.2388  0.5040  0.0263
 4553SOL    HW125295   1.710   3.049   2.698 -0.0258 -2.1632 -2.4529
 4553SOL    HW225296   1.619   3.011   2.812 -1.6443 -2.3241 -0.3996
 4554SOL     OW25297   4.608   1.237  10.609 -0.0921  0.1195  0.0956
 4554SOL    HW125298   4.684   1.179  10.615  0.0831  0.2921 -0.4266
 4554SOL    HW225299   4.643   1.310  10.558 -1.5964  2.0721  1.8949
 4555SOL     OW25300   0.881   1.866   3.320 -0.5867  0.2480  0.1105
 4555SOL    HW125301   0.814   1.905   3.376 -0.2168  2.7968 -1.2411
 4555SOL    HW225302   0.913   1.800   3.381 -1.0503  0.6447  0.7884
 4556SOL     OW25303   1.307   2.411   5.825  0.0891 -0.4652 -0.2187
 4556SOL    HW125304   1.296   2.328   5.873  1.3303 -0.2202  0.4955
 4556SOL    HW225305   1.217   2.437   5.805  0.1538  1.2968  1.7609
 4557SOL     OW25306   1.806   2.420   8.712  0.5799  0.6385 -0.4857
 4557SOL    HW125307   1.896   2.452   8.707  1.1726 -1.0683 -0.5293
 4557SOL    HW225308   1.813   2.342   8.658  0.7702  0.1045  0.3142
 4558SOL     OW25309   1.608   1.270   7.404  0.4336  1.2429  0.0819
 4558SOL    HW125310   1.515   1.249   7.415  0.9438 -0.4412  1.1524
 4558SOL    HW225311   1.601   1.328   7.328  0.4359 -0.3113 -1.0867
 4559SOL     OW25312   3.949   3.156  17.525  0.4361  0.6085  0.0821
 4559SOL    HW125313   3.924   3.124  17.611 -0.9895  1.1216 -0.1349
 4559SOL    HW225314   3.895   3.114  17.459  0.4241 -0.7710  0.9746
 4560SOL     OW25315   0.025   0.966   7.002 -0.0712  0.8605 -0.1142
 4560SOL    HW125316   0.001   1.045   6.954  0.8871  0.3760 -1.3766
 4560SOL    HW225317   0.069   1.005   7.078 -0.0138  0.1881  0.2056
 4561SOL     OW25318   0.172   0.669   3.475  0.6090  0.7243 -0.0236
 4561SOL    HW125319   0.170   0.668   3.380  1.5050 -0.2608 -0.0324
 4561SOL    HW225320   0.172   0.574   3.490 -1.5942  0.9399  1.2739
 4562SOL     OW25321   4.093   3.165   2.244  0.5672 -0.6652 -0.2438
 4562SOL    HW125322   4.051   3.116   2.173 -0.3616 -0.3593  0.0970
 4562SOL    HW225323   4.178   3.122   2.254  1.9317  2.0462 -0.3230
 4563SOL     OW25324   1.167   2.060   6.399  0.0907  0.0725  0.0480
 4563SOL    HW125325   1.168   1.981   6.345 -0.0394 -0.7040  1.1792
 4563SOL    HW225326   1.251   2.093   6.367 -0.8538  2.7322  0.2642
 4564SOL     OW25327   1.442   3.593   0.546  0.3049 -0.0805  0.1262
 4564SOL    HW125328   1.530   3.555   0.542 -0.4856 -1.9422  0.4366
 4564SOL    HW225329   1.437   3.628   0.635  0.8100 -0.6602  0.3787
 4565SOL     OW25330   0.885   3.728   6.712  0.7258  0.1529  0.0291
 4565SOL    HW125331   0.848   3.674   6.782  1.6870 -2.3166 -1.3813
 4565SOL    HW225332   0.890   3.660   6.644  0.0379  1.2865 -1.1462
 4566SOL     OW25333   4.348   4.662   9.460  0.1344  0.5595 -0.1440
 4566SOL    HW125334   4.331   4.694   9.371  1.2192 -0.5094 -0.7314
 4566SOL    HW225335   4.397   4.736   9.495  0.0062  0.6368 -0.1281
 4567SOL     OW25336   1.962   4.096  10.048 -0.4779 -0.8278 -0.5014
 4567SOL    HW125337   1.909   4.029  10.091 -1.0783 -0.7460 -1.1200
 4567SOL    HW225338   2.047   4.055  10.066 -0.6681 -1.4838 -1.0519
 4568SOL     OW25339   2.530   0.780   3.891  0.3951  0.3552 -0.3468
 4568SOL    HW125340   2.525   0.840   3.966  0.3564 -0.5361  0.3691
 4568SOL    HW225341   2.478   0.707   3.924  0.5467  0.5540  0.3353
 4569SOL     OW25342   4.108   1.982   2.435  0.1974 -0.0986  1.1210
 4569SOL    HW125343   4.145   1.957   2.350 -2.4624 -0.4676  0.0847
 4569SOL    HW225344   4.176   1.939   2.487  1.8121 -2.2347 -2.7448
 4570SOL     OW25345   1.132   0.863   7.359  0.3643  0.3377  0.2609
 4570SOL    HW125346   1.137   0.908   7.274 -1.2569 -0.6197 -0.3453
 4570SOL    HW225347   1.037   0.855   7.367  0.3686 -0.9780 -1.1427
 4571SOL     OW25348   0.304   0.176   5.314  0.3225 -0.1238 -0.4888
 4571SOL    HW125349   0.393   0.202   5.291  0.3680  2.4282  2.6639
 4571SOL    HW225350   0.255   0.168   5.232 -0.4774  0.8961 -0.0992
 4572SOL     OW25351   4.212   2.163   9.966 -0.2256 -0.0393  0.3819
 4572SOL    HW125352   4.182   2.187  10.054  3.7834 -1.4941  2.1209
 4572SOL    HW225353   4.189   2.245   9.922  0.3157 -1.3628 -2.3896
 4573SOL     OW25354   0.767   3.964  11.813  0.2638 -0.6050 -0.2513
 4573SOL    HW125355   0.691   3.987  11.759 -0.4829 -1.2110  0.5523
 4573SOL    HW225356   0.835   4.028  11.795  0.5498 -0.9515 -0.3976
 4574SOL     OW25357   2.261   1.755   7.584 -0.2784 -0.4646  0.0300
 4574SOL    HW125358   2.295   1.671   7.554  1.4362  0.2684 -0.0824
 4574SOL    HW225359   2.181   1.754   7.532  0.9291  3.2679 -1.8951
 4575SOL     OW25360   2.181   4.689   4.342 -0.0529 -0.4792 -0.3777
 4575SOL    HW125361   2.124   0.025   4.328  1.2546  1.1362  3.0454
 4575SOL    HW225362   2.267   4.724   4.320  0.2534 -0.6829  0.5095
 4576SOL     OW25363   3.487   2.383   9.794 -0.0271 -0.1441 -0.2353
 4576SOL    HW125364   3.415   2.321   9.783  0.0220 -0.0046 -1.3237
 4576SOL    HW225365   3.454   2.433   9.869 -2.2196  0.2684 -1.4724
 4577SOL     OW25366   4.366   3.412   7.395  0.0214 -0.3798  0.2862
 4577SOL    HW125367   4.421   3.448   7.325 -1.0511 -1.2050 -0.9709
 4577SOL    HW225368   4.320   3.341   7.351  1.7298 -1.0101 -0.5192
 4578SOL     OW25369   2.492   3.229   2.403 -0.1329  0.0908 -0.0589
 4578SOL    HW125370   2.447   3.160   2.453 -2.1220  1.7652  0.4496
 4578SOL    HW225371   2.569   3.252   2.455  0.2492 -1.4599  0.0639
 4579SOL     OW25372   0.502   3.692   5.907 -0.0558 -0.0085  0.2229
 4579SOL    HW125373   0.409   3.713   5.906  0.0416  0.4126 -0.0400
 4579SOL    HW225374   0.534   3.728   5.825  1.1540 -0.7506  0.3709
 4580SOL     OW25375   0.656   2.004   6.356  0.5019 -0.0666 -0.3488
 4580SOL    HW125376   0.669   1.909   6.355 -1.1027 -0.2794 -0.7926
 4580SOL    HW225377   0.748   2.030   6.347  0.3705  0.7695  0.7746
 4581SOL     OW25378   1.121   2.857   2.960 -0.2478  0.4867  0.2204
 4581SOL    HW125379   1.073   2.938   2.943  0.0563  0.0144 -2.9812
 4581SOL    HW225380   1.161   2.843   2.874 -0.6298 -0.9066  0.2700
 4582SOL     OW25381   0.258   0.617   1.646 -0.2900 -0.1543  0.2016
 4582SOL    HW125382   0.331   0.640   1.588 -1.1494 -0.2583 -0.9254
 4582SOL    HW225383   0.215   0.560   1.582  0.8808 -0.4985 -0.2935
 4583SOL     OW25384   1.337   2.143   5.933 -0.6525 -0.0224 -0.1378
 4583SOL    HW125385   1.324   2.048   5.933  0.2359 -0.1460 -3.0971
 4583SOL    HW225386   1.405   2.148   5.865 -0.8592 -1.3936 -0.4563
 4584SOL     OW25387   1.860   1.311  16.344 -0.1195 -0.0926  0.7067
 4584SOL    HW125388   1.802   1.358  16.404 -2.1952  0.2158 -1.5515
 4584SOL    HW225389   1.943   1.351  16.367 -0.3631  0.4523  0.6298
 4585SOL     OW25390   1.624   1.364   1.804  0.0819 -0.7476  0.5858
 4585SOL    HW125391   1.630   1.293   1.741  3.0927 -1.1544  1.3450
 4585SOL    HW225392   1.538   1.402   1.788  1.7379  2.9039  0.4676
 4586SOL     OW25393   4.689   4.034   6.779 -0.0065  0.4278  0.5843
 4586SOL    HW125394   4.603   3.998   6.801 -0.4196  1.2151  0.2647
 4586SOL    HW225395   4.721   4.057   6.866 -2.9471  1.0611  1.4968
 4587SOL     OW25396   1.753   2.419   3.038 -0.1026  0.5946  0.6339
 4587SOL    HW125397   1.828   2.437   3.094  0.8820 -1.6090  0.0220
 4587SOL    HW225398   1.750   2.325   3.057  1.5437  0.5589  0.6893
 4588SOL     OW25399   3.511   0.940   4.668 -0.2715 -0.6624  0.1136
 4588SOL    HW125400   3.576   0.871   4.662  0.1138 -0.2595 -0.4219
 4588SOL    HW225401   3.517   0.974   4.757 -0.4114 -0.1334 -0.0736
 4589SOL     OW25402   3.979   3.586  17.389  0.2801 -0.3337 -0.0402
 4589SOL    HW125403   3.984   3.680  17.408 -0.4938  0.6281 -4.5893
 4589SOL    HW225404   3.947   3.583  17.299 -0.2518 -1.3868  0.1781
 4590SOL     OW25405   0.766   0.356   1.834  0.0411 -0.1117  0.1249
 4590SOL    HW125406   0.825   0.432   1.842 -1.2150  0.9679 -0.7857
 4590SOL    HW225407   0.687   0.409   1.823  0.5453  0.5440 -0.3522
 4591SOL     OW25408   4.263   2.012   0.951 -0.1250 -0.6120  0.2205
 4591SOL    HW125409   4.327   2.075   0.983  0.8032 -1.7098  0.5125
 4591SOL    HW225410   4.261   1.957   1.029 -0.7488 -1.7795 -0.6147
 4592SOL     OW25411   3.461   0.383   8.694 -0.4237 -0.2414 -0.1322
 4592SOL    HW125412   3.366   0.373   8.703 -0.4051 -1.4941 -1.2782
 4592SOL    HW225413   3.491   0.326   8.765 -0.3172 -0.0602 -0.0325
 4593SOL     OW25414   4.504   2.073   1.661  0.5864 -0.7032 -0.5396
 4593SOL    HW125415   4.549   2.066   1.745  1.6720 -0.3099 -1.0827
 4593SOL    HW225416   4.431   2.012   1.672 -0.5920  1.0531  1.2253
 4594SOL     OW25417   1.312   4.496   3.856  0.3306  0.1394  0.3134
 4594SOL    HW125418   1.312   4.502   3.760 -1.6820 -0.5026  0.2788
 4594SOL    HW225419   1.407   4.489   3.862  0.3960  0.6746 -0.0476
 4595SOL     OW25420   1.007   2.765   6.552 -0.4209 -0.5296  0.4304
 4595SOL    HW125421   0.947   2.711   6.604 -0.8226  0.2689  0.8080
 4595SOL    HW225422   1.061   2.694   6.520 -0.8350 -1.0814  0.9467
 4596SOL     OW25423   0.620   4.345  12.455  0.0145 -0.0420 -0.0335
 4596SOL    HW125424   0.534   4.375  12.427  0.2484  0.5809 -0.0722
 4596SOL    HW225425   0.611   4.257  12.417  0.9784  1.0561 -2.7658
 4597SOL     OW25426   4.357   1.389   3.960 -0.3884  0.2560  0.5800
 4597SOL    HW125427   4.439   1.391   3.911 -1.0602  0.8484 -0.5153
 4597SOL    HW225428   4.383   1.450   4.028  0.9767  0.1118  0.1733
 4598SOL     OW25429   2.860   1.082  16.690  0.1104 -0.0692 -0.1268
 4598SOL    HW125430   2.916   1.138  16.744  0.3297  1.2750 -1.7662
 4598SOL    HW225431   2.812   1.130  16.623 -1.4163 -0.2498  0.8379
 4599SOL     OW25432   4.513   0.566  17.417  0.3463  0.2767  0.2967
 4599SOL    HW125433   4.479   0.654  17.435  1.9206  1.0788 -0.6872
 4599SOL    HW225434   4.607   0.579  17.426  0.6794 -3.1237  1.4591
 4600SOL     OW25435   4.203   1.737   1.201 -1.2144 -0.1664 -0.1285
 4600SOL    HW125436   4.201   1.727   1.106  1.6470 -1.6649 -0.0288
 4600SOL    HW225437   4.241   1.825   1.210 -0.2040 -0.3053 -3.2972
 4601SOL     OW25438   3.594   4.503   5.411 -0.2327 -0.1670 -0.2236
 4601SOL    HW125439   3.682   4.535   5.394  0.0332  0.7162  2.8363
 4601SOL    HW225440   3.604   4.423   5.462 -1.5745  0.5250  1.1539
 4602SOL     OW25441   1.942   1.695   2.904  0.8565 -0.5344 -0.3891
 4602SOL    HW125442   1.973   1.717   2.817 -1.1232  2.2647 -0.3859
 4602SOL    HW225443   1.992   1.761   2.952 -1.1313  0.9032 -0.3183
 4603SOL     OW25444   0.132   1.328  16.586 -0.5132 -0.2019 -0.4671
 4603SOL    HW125445   0.129   1.235  16.561 -2.4156 -0.5244  1.0339
 4603SOL    HW225446   0.143   1.372  16.502 -0.2323 -1.0065 -0.8596
 4604SOL     OW25447   1.897   0.113  17.713 -0.9098 -0.5871  0.3391
 4604SOL    HW125448   1.926   0.031  17.674  1.7355  0.1785  0.6737
 4604SOL    HW225449   1.978   0.149  17.750 -2.0396  1.7698  0.4958
 4605SOL     OW25450   2.697   0.245   6.994 -0.2520  0.0792  0.6202
 4605SOL    HW125451   2.750   0.181   7.041  0.4107  0.1873  0.0185
 4605SOL    HW225452   2.759   0.260   6.923 -0.9606 -3.8742 -0.8437
 4606SOL     OW25453   2.719   4.612   6.256  0.7468  0.5448 -0.5403
 4606SOL    HW125454   2.747   4.559   6.182 -0.9655 -1.4884  0.2977
 4606SOL    HW225455   2.628   4.584   6.269  1.3577 -1.2852 -0.2418
 4607SOL     OW25456   1.603   1.834  14.147 -0.3629 -0.2347  0.3272
 4607SOL    HW125457   1.577   1.746  14.175  0.3083  0.1398  2.1582
 4607SOL    HW225458   1.688   1.815  14.109 -1.1196 -1.1033 -0.9317
 4608SOL     OW25459   4.489   1.079   8.730 -0.1436  0.0993  0.1225
 4608SOL    HW125460   4.422   1.068   8.663  2.1778  1.2790 -2.3441
 4608SOL    HW225461   4.516   0.988   8.729  3.9056  1.3702 -3.6328
 4609SOL     OW25462   1.238   4.569   8.839 -0.1297 -0.5101  0.0702
 4609SOL    HW125463   1.217   4.662   8.826 -2.4624 -1.1947 -1.0021
 4609SOL    HW225464   1.331   4.583   8.858  0.3805 -0.1320 -2.7269
 4610SOL     OW25465   1.009   0.392   4.588 -0.7278  0.3621  0.0734
 4610SOL    HW125466   0.921   0.406   4.553 -0.8697  2.9085  1.3974
 4610SOL    HW225467   0.995   0.370   4.680  0.4685 -1.3574 -0.1554
 4611SOL     OW25468   0.660   0.415  12.293  0.1181  0.2783 -0.1100
 4611SOL    HW125469   0.727   0.409  12.361 -0.0080  1.8099  0.1521
 4611SOL    HW225470   0.582   0.401  12.347  0.6248 -2.0396  0.0350
 4612SOL     OW25471   1.135   3.237  14.955  0.3215  0.3691 -0.3020
 4612SOL    HW125472   1.042   3.230  14.935  0.2814 -0.8748  0.2697
 4612SOL    HW225473   1.162   3.153  14.993  1.3063  1.3384  1.1129
 4613SOL     OW25474   2.914   0.535   3.205 -0.0589 -0.3798  0.2920
 4613SOL    HW125475   2.974   0.470   3.242  0.3209  0.7073  1.5665
 4613SOL    HW225476   2.853   0.470   3.169  0.7536 -2.2142  2.1914
 4614SOL     OW25477   3.865   1.999   3.578  0.0841  0.1692 -0.0267
 4614SOL    HW125478   3.844   2.039   3.662 -1.1656  0.1584 -0.3298
 4614SOL    HW225479   3.779   1.966   3.553  1.1694 -2.7663  0.0760
 4615SOL     OW25480   2.914   0.040  17.006  0.3851 -0.2534 -0.3547
 4615SOL    HW125481   2.868   0.124  17.000  1.1770  0.1990 -0.1632
 4615SOL    HW225482   2.848   4.715  16.981  0.3285  0.4679 -2.0092
 4616SOL     OW25483   3.181   0.350   8.690 -0.6550  0.7301  0.2079
 4616SOL    HW125484   3.157   0.355   8.783 -1.7125  0.7221 -0.0672
 4616SOL    HW225485   3.131   0.274   8.660  1.7102 -0.7907  0.0863
 4617SOL     OW25486   4.612   0.172  13.427  0.5339  0.9041 -0.7737
 4617SOL    HW125487   4.546   0.204  13.366 -1.7746  0.2906  1.4214
 4617SOL    HW225488   4.638   0.094  13.378 -2.3108  0.3650 -1.4294
 4618SOL     OW25489   2.265   2.278   5.556  0.2309 -0.0829 -0.2731
 4618SOL    HW125490   2.282   2.323   5.474 -1.0728  1.8320  0.4845
 4618SOL    HW225491   2.325   2.327   5.612  0.3349  0.5644 -0.9559
 4619SOL     OW25492   0.792   2.925   6.505  0.0525 -0.6366 -0.7034
 4619SOL    HW125493   0.719   2.907   6.564 -0.1178 -1.7300 -1.2603
 4619SOL    HW225494   0.868   2.876   6.537 -0.0075 -0.3170 -0.0841
 4620SOL     OW25495   3.217   0.789  17.095  0.2638 -0.1940  0.2173
 4620SOL    HW125496   3.205   0.880  17.066  1.5373 -0.1385 -0.1240
 4620SOL    HW225497   3.287   0.756  17.039 -1.0896 -0.8883 -1.0824
 4621SOL     OW25498   4.035   3.792   3.553 -0.5268  0.3080  0.5228
 4621SOL    HW125499   4.005   3.847   3.625 -0.7990  0.6035  0.1878
 4621SOL    HW225500   4.069   3.855   3.489 -0.0200 -1.1107 -0.6121
 4622SOL     OW25501   0.396   4.096   3.998 -0.4590 -0.5016  0.4396
 4622SOL    HW125502   0.316   4.053   3.971 -0.2143 -1.0323  0.5543
 4622SOL    HW225503   0.418   4.143   3.917 -0.4618  0.7182  1.1425
 4623SOL     OW25504   0.286   1.318  12.873  0.1776 -0.6000  0.6696
 4623SOL    HW125505   0.331   1.268  12.805  2.3121  0.8320  1.0212
 4623SOL    HW225506   0.343   1.395  12.865  1.2916 -1.5043 -0.2126
 4624SOL     OW25507   2.598   1.660   7.557 -0.0583  0.0965  0.3026
 4624SOL    HW125508   2.519   1.628   7.513 -1.3914  4.8295 -0.7595
 4624SOL    HW225509   2.602   1.592   7.624  0.8101  2.0940  2.2744
 4625SOL     OW25510   4.078   4.206   7.091 -0.0544  0.4110 -0.2719
 4625SOL    HW125511   4.142   4.277   7.087  0.9187 -0.6638 -3.9800
 4625SOL    HW225512   4.115   4.152   7.160 -0.2127  0.7816  0.1049
 4626SOL     OW25513   3.439   1.104   7.621 -0.1755 -0.0459  0.4023
 4626SOL    HW125514   3.390   1.082   7.542 -1.0068  2.7762  0.1436
 4626SOL    HW225515   3.496   1.028   7.634 -0.8141 -0.5175  0.4487
 4627SOL     OW25516   0.822   1.396   5.151 -0.3185  0.1782  0.7665
 4627SOL    HW125517   0.838   1.443   5.233 -0.1742  0.9774  0.2783
 4627SOL    HW225518   0.737   1.354   5.161  1.2166 -2.4334  2.9050
 4628SOL     OW25519   4.702   0.620  16.726  0.2204  0.3287 -0.3237
 4628SOL    HW125520   4.726   0.597  16.816  1.1468  0.7471 -0.4645
 4628SOL    HW225521   4.663   0.707  16.729  1.9492  1.1029 -0.5884
 4629SOL     OW25522   1.923   3.093   8.576  0.1602 -0.1780 -0.3990
 4629SOL    HW125523   1.962   3.082   8.663  0.0949  2.2905 -0.0492
 4629SOL    HW225524   1.994   3.067   8.517  1.0060 -0.1479  0.5933
 4630SOL     OW25525   3.649   1.129   4.309 -0.9092 -0.4395 -0.4708
 4630SOL    HW125526   3.658   1.170   4.395  1.0829 -0.8379 -0.4880
 4630SOL    HW225527   3.591   1.195   4.271  1.6702  1.4540 -1.0567
 4631SOL     OW25528   0.517   0.080   5.070  0.3835  0.0904  0.0928
 4631SOL    HW125529   0.431   0.038   5.075  0.8657 -1.1346 -1.7333
 4631SOL    HW225530   0.530   0.093   4.976  1.5378 -0.3922  0.1865
 4632SOL     OW25531   2.283   1.957   2.959 -0.2694  0.0378 -0.3460
 4632SOL    HW125532   2.370   1.969   2.996  0.5763 -0.8209 -2.0189
 4632SOL    HW225533   2.301   1.996   2.873 -1.1866 -0.3861 -0.7307
 4633SOL     OW25534   1.167   0.944   1.975 -0.4181 -0.0272  0.0149
 4633SOL    HW125535   1.164   1.033   1.940  0.5603 -0.7178 -1.7993
 4633SOL    HW225536   1.121   0.952   2.059 -1.2283  1.6803 -0.5829
 4634SOL     OW25537   3.116   4.140   3.726  0.6611 -0.3810  0.1583
 4634SOL    HW125538   3.142   4.132   3.634 -1.4062  0.6899 -0.5052
 4634SOL    HW225539   3.201   4.122   3.767 -0.1790 -1.8963  1.2302
 4635SOL     OW25540   3.214   2.561  12.538  0.0098 -0.2964 -0.7353
 4635SOL    HW125541   3.186   2.599  12.455 -0.0531 -1.2909 -1.1624
 4635SOL    HW225542   3.250   2.476  12.511 -0.2255  0.0555 -2.1570
 4636SOL     OW25543   0.749   0.598   6.821 -0.1196  0.5441  0.4802
 4636SOL    HW125544   0.730   0.551   6.903  1.2904 -0.0714  0.4592
 4636SOL    HW225545   0.715   0.686   6.838  2.9655  2.1385 -1.5861
 4637SOL     OW25546   4.212   4.281   4.472 -0.2852 -0.4215  0.2638
 4637SOL    HW125547   4.200   4.245   4.560 -0.8403 -0.1269  0.3104
 4637SOL    HW225548   4.288   4.231   4.444  0.5517  0.2791  1.2966
 4638SOL     OW25549   1.491   1.109   8.700  0.2686 -0.3316 -0.0425
 4638SOL    HW125550   1.475   1.035   8.758  0.3957  1.5247  2.3780
 4638SOL    HW225551   1.456   1.184   8.749 -2.4890  0.3928 -3.1055
 4639SOL     OW25552   2.517   1.392   6.137 -0.1599 -0.0502 -0.6829
 4639SOL    HW125553   2.514   1.484   6.163  1.7598 -0.2877  0.3899
 4639SOL    HW225554   2.438   1.351   6.172 -0.2588  1.1406  0.5172
 4640SOL     OW25555   2.342   4.495   2.394  0.0662 -0.0358  0.3401
 4640SOL    HW125556   2.285   4.463   2.463 -1.2987  1.0349 -0.3041
 4640SOL    HW225557   2.408   4.534   2.452 -0.4081  1.5653 -0.1987
 4641SOL     OW25558   2.703   3.785   3.877 -0.0435  0.0770 -0.0277
 4641SOL    HW125559   2.663   3.819   3.958 -0.9585  0.0659 -0.4761
 4641SOL    HW225560   2.756   3.860   3.851 -0.5035  0.3777 -0.0946
 4642SOL     OW25561   1.563   1.966   6.029  0.1038 -0.3640  0.2191
 4642SOL    HW125562   1.538   1.900   5.964 -0.5348 -0.7672  0.8694
 4642SOL    HW225563   1.630   1.921   6.080 -0.3309 -0.1831  0.9451
 4643SOL     OW25564   1.347   3.564   8.506 -0.2760 -0.0684 -0.2035
 4643SOL    HW125565   1.300   3.569   8.589 -0.4418  0.5284 -0.3333
 4643SOL    HW225566   1.290   3.505   8.456 -0.9887  0.0484  0.4788
 4644SOL     OW25567   0.677   3.714   3.225  0.4092 -0.1862 -0.1636
 4644SOL    HW125568   0.769   3.698   3.202  1.0130  1.3313  1.2270
 4644SOL    HW225569   0.646   3.752   3.143  2.5159  0.3928 -0.7006
 4645SOL     OW25570   4.068   0.500   2.592 -0.0466 -0.1779  0.1203
 4645SOL    HW125571   4.013   0.422   2.594  0.7339 -0.7667 -1.4089
 4645SOL    HW225572   4.118   0.494   2.511  1.2023  0.0235  0.8690
 4646SOL     OW25573   0.236   3.756   5.944  0.1291  0.6115 -0.0866
 4646SOL    HW125574   0.228   3.706   5.862  1.5271  0.7437 -0.3047
 4646SOL    HW225575   0.229   3.679   6.000  1.4914  0.6378  0.1217
 4647SOL     OW25576   3.329   0.728   6.979 -0.1647  0.1771  0.2417
 4647SOL    HW125577   3.333   0.741   7.073 -0.4118 -0.1663  0.2993
 4647SOL    HW225578   3.327   0.816   6.942  0.8362 -0.3872 -1.1787
 4648SOL     OW25579   0.225   3.380  12.654  0.3540 -0.2492 -0.1769
 4648SOL    HW125580   0.293   3.441  12.625  0.9792 -0.4310  0.8985
 4648SOL    HW225581   0.226   3.316  12.583 -0.0764 -1.6791  1.1253
 4649SOL     OW25582   3.621   3.961   9.496 -0.4892 -0.3847  0.1513
 4649SOL    HW125583   3.698   4.006   9.531  0.1316 -1.7764  0.5800
 4649SOL    HW225584   3.642   3.876   9.534  0.7799 -1.0682 -2.0632
 4650SOL     OW25585   2.847   0.442  17.285  0.2166 -0.0971  0.2035
 4650SOL    HW125586   2.772   0.427  17.227  0.8682  1.6401 -1.0647
 4650SOL    HW225587   2.908   0.472  17.218 -2.7077  0.3859 -2.2581
 4651SOL     OW25588   3.428   3.978   3.181  0.4267  0.6448 -0.3408
 4651SOL    HW125589   3.508   3.999   3.133  0.5181  1.0108 -0.0270
 4651SOL    HW225590   3.444   3.886   3.203  1.0899  0.8086 -0.1483
 4652SOL     OW25591   3.185   3.219   9.606 -0.2356  0.3826  0.0461
 4652SOL    HW125592   3.178   3.247   9.514 -2.6928 -0.0949  0.1029
 4652SOL    HW225593   3.098   3.185   9.621  0.8728 -1.6668  1.7596
 4653SOL     OW25594   3.736   0.936   6.102 -0.4885 -0.0468  0.1505
 4653SOL    HW125595   3.646   0.916   6.130 -1.0748 -0.9008 -2.3621
 4653SOL    HW225596   3.760   0.866   6.041  0.5719  1.4844 -1.1800
 4654SOL     OW25597   0.858   2.928   9.232 -0.0434  0.4607 -0.1794
 4654SOL    HW125598   0.952   2.940   9.217  0.1294 -1.7181 -0.9292
 4654SOL    HW225599   0.824   2.991   9.168 -1.3203  0.6798  0.7267
 4655SOL     OW25600   2.473   4.540   8.962  0.1211 -0.6876 -0.6996
 4655SOL    HW125601   2.472   4.611   8.897  4.1901  0.5855  0.6293
 4655SOL    HW225602   2.468   4.583   9.047 -2.6303  0.9656 -1.7035
 4656SOL     OW25603   0.896   4.468   8.862  0.3410 -0.4145 -0.3554
 4656SOL    HW125604   0.877   4.520   8.940 -0.0012 -1.8121  0.5005
 4656SOL    HW225605   0.806   4.438   8.847  0.0762 -0.7921  1.9979
 4657SOL     OW25606   3.602   0.694  11.657 -0.0797  0.1515  0.6610
 4657SOL    HW125607   3.609   0.610  11.613 -0.2917  0.4754  0.0172
 4657SOL    HW225608   3.649   0.759  11.603 -1.6782 -0.1965 -1.1309
 4658SOL     OW25609   0.274   2.345  11.215 -0.0772  0.2763 -0.9352
 4658SOL    HW125610   0.355   2.396  11.218 -1.2285  2.1267 -1.3977
 4658SOL    HW225611   0.244   2.360  11.305  2.4933  0.0261 -0.0298
 4659SOL     OW25612   4.542   4.364   5.352  0.1005  0.0753  0.1509
 4659SOL    HW125613   4.460   4.379   5.400 -1.0075 -0.4479 -1.5589
 4659SOL    HW225614   4.557   4.456   5.331 -1.3168 -0.2399 -2.1907
 4660SOL     OW25615   2.360   3.302  11.475  0.3913  0.3658  0.0183
 4660SOL    HW125616   2.353   3.397  11.488  4.0933  0.7125 -0.5232
 4660SOL    HW225617   2.361   3.300  11.380  1.8860  2.0840 -0.0197
 4661SOL     OW25618   1.674   1.436   0.589 -0.4952 -0.3067 -0.0525
 4661SOL    HW125619   1.647   1.493   0.517 -1.4281  0.6045  1.0258
 4661SOL    HW225620   1.740   1.378   0.552  0.2498  0.8571 -0.5684
 4662SOL     OW25621   1.655   0.085   7.139 -0.6874  0.2715 -0.4920
 4662SOL    HW125622   1.639   0.162   7.085 -0.5074  0.3589 -0.4203
 4662SOL    HW225623   1.676   0.026   7.067 -2.1935  0.4744 -1.1168
 4663SOL     OW25624   2.791   2.804   3.212 -0.2125 -0.1528 -0.0073
 4663SOL    HW125625   2.796   2.791   3.307  0.1333 -0.4724 -0.0688
 4663SOL    HW225626   2.699   2.827   3.206 -0.0197  1.0149  1.3916
 4664SOL     OW25627   3.140   2.256   9.415  0.2725 -0.0113 -0.0991
 4664SOL    HW125628   3.057   2.261   9.462  0.7024 -0.9316  0.7539
 4664SOL    HW225629   3.179   2.182   9.460  0.8526  0.5053  0.2508
 4665SOL     OW25630   0.496   1.041   8.294  0.0152 -0.0427 -0.3462
 4665SOL    HW125631   0.569   0.985   8.323 -1.0417 -1.1671  0.1717
 4665SOL    HW225632   0.539   1.115   8.252  0.4433  0.6405  1.3033
 4666SOL     OW25633   1.548   1.044   3.288 -0.3560 -0.4802 -0.2570
 4666SOL    HW125634   1.462   1.079   3.267  0.2081  1.1082  0.0793
 4666SOL    HW225635   1.587   1.119   3.333 -1.0160 -2.0202  2.8452
 4667SOL     OW25636   0.967   0.403   6.698  0.3610 -0.3461  0.2158
 4667SOL    HW125637   0.988   0.316   6.663  1.9135  0.6938 -1.4500
 4667SOL    HW225638   0.934   0.378   6.785  0.0559 -2.1388 -0.4111
 4668SOL     OW25639   2.662   4.013  13.378 -0.4716 -0.1807 -0.0231
 4668SOL    HW125640   2.723   3.952  13.420 -1.8804 -0.9678  0.8568
 4668SOL    HW225641   2.591   3.953  13.356 -1.8023  1.6006 -0.5245
 4669SOL     OW25642   2.444   2.170   2.404 -0.0208  0.1202  0.0304
 4669SOL    HW125643   2.519   2.123   2.442  1.3421  1.9336 -0.4004
 4669SOL    HW225644   2.487   2.241   2.355  1.5134 -0.9216 -0.1421
 4670SOL     OW25645   0.523   4.250   6.391 -0.3953  0.1894 -0.2907
 4670SOL    HW125646   0.486   4.280   6.474  2.0046  1.0293  0.4629
 4670SOL    HW225647   0.470   4.183   6.348  1.2850 -0.6616 -1.0267
 4671SOL     OW25648   2.591   0.976  16.321  0.0564  0.3248 -0.1170
 4671SOL    HW125649   2.611   0.886  16.297  0.6524  0.6819 -0.9594
 4671SOL    HW225650   2.637   1.023  16.252  0.9970 -0.4006  0.0164
 4672SOL     OW25651   3.753   0.267   2.964  0.1119  0.5672  0.2973
 4672SOL    HW125652   3.740   0.294   3.055 -1.4021 -0.0068  0.2505
 4672SOL    HW225653   3.670   0.298   2.927  0.8548  0.5601 -1.3911
 4673SOL     OW25654   2.957   1.255   2.450  0.2925  0.0247  0.0674
 4673SOL    HW125655   3.044   1.284   2.421 -0.5205  1.2407 -1.1657
 4673SOL    HW225656   2.918   1.343   2.443 -0.2889 -0.0998  1.6627
 4674SOL     OW25657   0.593   1.722   9.095  0.5361  0.0613 -0.1522
 4674SOL    HW125658   0.631   1.716   9.007  2.4247  0.0418  0.6598
 4674SOL    HW225659   0.511   1.764   9.071  0.0853 -2.0785 -2.4515
 4675SOL     OW25660   1.638   3.294   5.833  0.0788 -0.0136 -0.4043
 4675SOL    HW125661   1.643   3.199   5.832  1.0290  0.0154  0.9251
 4675SOL    HW225662   1.573   3.314   5.900  3.0870  2.1054  1.9036
 4676SOL     OW25663   2.832   1.235  12.750 -0.0244  0.1669 -0.3858
 4676SOL    HW125664   2.911   1.181  12.757  0.1091  0.6295  1.6624
 4676SOL    HW225665   2.766   1.166  12.746  1.0459 -0.7730 -1.9580
 4677SOL     OW25666   1.692   4.489   7.751 -0.7326 -0.2597  0.6020
 4677SOL    HW125667   1.599   4.504   7.736 -0.2714  2.8046  0.8645
 4677SOL    HW225668   1.731   4.566   7.710 -0.7575  0.6950  2.3757
 4678SOL     OW25669   2.416   1.409   4.233 -0.0229  0.1574  0.0227
 4678SOL    HW125670   2.371   1.355   4.298  1.3950 -1.9092 -0.7270
 4678SOL    HW225671   2.481   1.447   4.292 -0.6764  0.4007  0.5795
 4679SOL     OW25672   0.314   2.758   7.990  0.1601  0.6443 -0.0662
 4679SOL    HW125673   0.393   2.740   7.940  0.3804 -0.2959  0.6331
 4679SOL    HW225674   0.343   2.727   8.076 -0.1212  1.0951  0.1956
 4680SOL     OW25675   0.817   1.876   7.847  0.7407 -0.2329  0.0012
 4680SOL    HW125676   0.765   1.951   7.877 -0.0412 -0.7466 -0.0811
 4680SOL    HW225677   0.823   1.815   7.920  1.0500  0.4428  0.5440
 4681SOL     OW25678   3.245   3.076   6.537  0.3294 -0.1006 -0.2126
 4681SOL    HW125679   3.250   3.148   6.599 -0.9134 -0.4074  0.2538
 4681SOL    HW225680   3.167   3.028   6.567 -0.5697  0.5563 -1.4846
 4682SOL     OW25681   4.003   2.112   7.330  0.5636  0.3984 -0.3016
 4682SOL    HW125682   3.926   2.166   7.310 -0.0790 -0.0799  0.8222
 4682SOL    HW225683   3.970   2.023   7.347  0.9590  0.5308  1.2021
 4683SOL     OW25684   3.762   3.148  11.170 -0.4676  0.2123 -0.4044
 4683SOL    HW125685   3.777   3.232  11.127  0.0370 -0.6441 -1.9089
 4683SOL    HW225686   3.756   3.162  11.264 -0.0035  0.0507 -0.3510
 4684SOL     OW25687   0.140   3.905   5.279  0.0444  0.4524 -0.2650
 4684SOL    HW125688   0.198   3.897   5.355 -0.7929 -1.5437  0.1600
 4684SOL    HW225689   0.062   3.936   5.324  0.1933  1.2763 -0.5710
 4685SOL     OW25690   3.627   2.408   7.711  0.1686 -0.2580  0.3844
 4685SOL    HW125691   3.658   2.335   7.657 -0.2597 -0.4244  0.3596
 4685SOL    HW225692   3.553   2.445   7.661 -1.6067 -1.8843  1.8104
 4686SOL     OW25693   0.455   1.513  11.207  0.2330 -0.2645 -0.0888
 4686SOL    HW125694   0.486   1.526  11.296  0.3459 -1.1466 -0.0006
 4686SOL    HW225695   0.533   1.531  11.154  2.5143 -1.1902  2.9942
 4687SOL     OW25696   3.504   1.028   5.760  0.1598  0.4009  0.3698
 4687SOL    HW125697   3.440   1.070   5.818 -0.8731  1.7972 -1.7395
 4687SOL    HW225698   3.454   0.991   5.687  1.4460 -2.3656  0.9323
 4688SOL     OW25699   2.018   2.313   9.110 -0.2258 -0.2046 -0.2057
 4688SOL    HW125700   1.926   2.289   9.122 -1.1052  1.1154 -4.3750
 4688SOL    HW225701   2.065   2.230   9.105 -0.0633 -0.2053  1.3118
 4689SOL     OW25702   2.132   3.207  13.401 -0.1833 -0.0766  0.1952
 4689SOL    HW125703   2.179   3.270  13.346  0.6757 -2.2291 -1.5236
 4689SOL    HW225704   2.165   3.123  13.371  2.0413  0.0499  2.2354
 4690SOL     OW25705   0.875   2.649   4.210 -0.1376  0.1444 -0.2992
 4690SOL    HW125706   0.935   2.723   4.199  0.9668 -0.6000  0.6908
 4690SOL    HW225707   0.910   2.580   4.155 -1.2875 -2.6991  2.5663
 4691SOL     OW25708   0.604   1.996   9.410  0.3125 -0.9867  0.1514
 4691SOL    HW125709   0.653   1.913   9.404  1.9806 -0.0302  0.4547
 4691SOL    HW225710   0.621   2.021   9.501  1.5997  0.3013 -0.4557
 4692SOL     OW25711   1.135   3.635   3.200 -0.2334 -0.1467  0.0815
 4692SOL    HW125712   1.076   3.561   3.216 -0.8952  0.7809  1.8765
 4692SOL    HW225713   1.159   3.621   3.108 -0.8078 -0.1669 -0.0666
 4693SOL     OW25714   3.195   4.458   6.622  0.7973 -0.4031 -0.1013
 4693SOL    HW125715   3.179   4.471   6.716  0.5843 -0.4047 -0.1396
 4693SOL    HW225716   3.223   4.366   6.624  0.8425 -0.4387 -2.4331
 4694SOL     OW25717   3.545   3.673   6.625  0.2001  0.6801  0.2145
 4694SOL    HW125718   3.535   3.746   6.563  1.9273  1.7265  1.1545
 4694SOL    HW225719   3.640   3.663   6.613  0.3251  1.1766  0.7920
 4695SOL     OW25720   1.003   3.291   6.108 -0.0175  0.6125 -0.6258
 4695SOL    HW125721   1.088   3.281   6.067  0.5600 -0.3936  0.8230
 4695SOL    HW225722   1.025   3.251   6.192  2.1259  0.6866 -1.1646
 4696SOL     OW25723   1.477   3.116   8.592  0.0408  0.5269 -0.0215
 4696SOL    HW125724   1.542   3.056   8.554 -0.2737 -0.1843  0.5667
 4696SOL    HW225725   1.516   3.129   8.679  2.2746 -0.1021 -0.9313
 4697SOL     OW25726   1.006   1.424   4.624  0.0470  0.1412  0.0917
 4697SOL    HW125727   1.063   1.360   4.582 -1.8739  1.3890 -4.4262
 4697SOL    HW225728   0.962   1.363   4.682  0.6535 -1.0757 -0.7380
 4698SOL     OW25729   0.355   4.345   8.566 -0.6371 -0.5790  0.0356
 4698SOL    HW125730   0.382   4.436   8.552 -2.0350 -0.1989 -0.2083
 4698SOL    HW225731   0.351   4.341   8.662 -1.3880 -0.3640  0.0127
 4699SOL     OW25732   0.171   0.938  16.758  0.1410  0.2631  0.4289
 4699SOL    HW125733   0.214   0.859  16.723  1.7627  1.0537  0.6067
 4699SOL    HW225734   0.199   0.997  16.688  0.5896 -0.3418  0.0895
 4700SOL     OW25735   1.295   2.277   9.834 -0.0941  0.2495 -0.0124
 4700SOL    HW125736   1.275   2.367   9.811 -1.4132 -0.2754 -0.9413
 4700SOL    HW225737   1.206   2.246   9.817  0.7760 -2.9208  1.2092
 4701SOL     OW25738   3.729   4.595   4.484 -0.3368  0.4327  0.0607
 4701SOL    HW125739   3.672   4.637   4.420  1.7570  1.5715 -1.0625
 4701SOL    HW225740   3.783   4.674   4.491  1.7668 -1.1300  1.3941
 4702SOL     OW25741   2.702   0.696   4.683  0.8484  0.1870  0.3829
 4702SOL    HW125742   2.785   0.663   4.718  1.5587 -0.2509 -1.7042
 4702SOL    HW225743   2.708   0.790   4.700  0.6980 -0.0486  1.7618
 4703SOL     OW25744   2.804   0.489  16.270 -0.5503 -0.2412 -0.3263
 4703SOL    HW125745   2.789   0.496  16.365  0.3973  0.1286 -0.2063
 4703SOL    HW225746   2.897   0.511  16.260 -1.0741  1.9331 -0.3961
 4704SOL     OW25747   2.986   0.850   3.700  0.4375  0.0686  0.1136
 4704SOL    HW125748   3.024   0.786   3.641  1.5853 -0.9382  1.9430
 4704SOL    HW225749   2.938   0.786   3.753  0.0663  0.6843  0.5215
 4705SOL     OW25750   3.768   1.704   8.528  0.2114  0.4975  0.3662
 4705SOL    HW125751   3.745   1.619   8.566 -1.1548  0.7933  0.2037
 4705SOL    HW225752   3.708   1.757   8.580  2.2661  2.0460  1.1613
 4706SOL     OW25753   0.952   3.257   9.035  0.2424  0.1448  0.4583
 4706SOL    HW125754   0.985   3.345   9.017  1.2768 -0.2999  0.1880
 4706SOL    HW225755   0.938   3.218   8.949 -0.7588  0.4177  0.4863
 4707SOL     OW25756   1.452   0.135   0.176  0.0666  0.4235 -0.3708
 4707SOL    HW125757   1.531   0.165   0.131  1.6930 -1.9192  1.0036
 4707SOL    HW225758   1.480   0.057   0.224 -1.2122 -0.0902 -0.4492
 4708SOL     OW25759   2.993   0.080   7.612  0.0444 -0.1058 -0.0126
 4708SOL    HW125760   2.902   0.074   7.583 -0.2233  1.3186  0.5405
 4708SOL    HW225761   3.003   0.175   7.606  1.0906 -0.3009 -1.2392
 4709SOL     OW25762   0.454   0.361  14.090  0.1433  0.2822 -0.8675
 4709SOL    HW125763   0.468   0.455  14.098  1.2257 -0.0346  0.9092
 4709SOL    HW225764   0.474   0.341  13.998  0.5081  0.2092 -0.7720
 4710SOL     OW25765   2.143   3.651   2.928  0.3890  0.0386 -0.1625
 4710SOL    HW125766   2.191   3.710   2.985 -1.1888  1.7606 -0.6086
 4710SOL    HW225767   2.058   3.652   2.972  0.9457 -1.6038  0.9512
 4711SOL     OW25768   3.381   3.319   8.484  0.3358  0.0859  0.2773
 4711SOL    HW125769   3.396   3.385   8.551 -1.4392  2.0690 -1.2898
 4711SOL    HW225770   3.467   3.277   8.477 -1.0798 -2.3780 -2.2529
 4712SOL     OW25771   4.046   3.502   4.052 -0.0357 -0.3364  0.8202
 4712SOL    HW125772   3.989   3.436   4.012  0.7319  0.1344 -1.0254
 4712SOL    HW225773   4.100   3.506   3.974 -0.2641 -0.4222  0.6570
 4713SOL     OW25774   2.998   1.973   3.887 -0.8694  0.2924  0.3100
 4713SOL    HW125775   3.064   1.998   3.822  1.2130  0.0589  2.3343
 4713SOL    HW225776   3.035   2.012   3.967 -0.3080  0.1050  0.1458
 4714SOL     OW25777   1.003   3.252   6.791 -0.0833 -0.4839  0.0245
 4714SOL    HW125778   1.084   3.200   6.784  0.6657  0.8151 -0.8214
 4714SOL    HW225779   1.030   3.328   6.842  0.9126 -2.8647  3.1038
 4715SOL     OW25780   3.063   1.468   8.789 -0.0247 -0.8662 -0.3679
 4715SOL    HW125781   3.092   1.527   8.719 -1.0181 -1.1715 -1.0326
 4715SOL    HW225782   2.974   1.502   8.795  0.5209  0.9970 -2.7442
 4716SOL     OW25783   0.807   1.643   7.970 -0.4702 -0.5785 -0.3417
 4716SOL    HW125784   0.899   1.622   7.959 -0.4125 -1.6396  2.1275
 4716SOL    HW225785   0.780   1.603   7.888 -1.6468  0.0924 -0.2855
 4717SOL     OW25786   1.441   2.374   4.986 -0.3989  0.1740 -0.3606
 4717SOL    HW125787   1.499   2.404   4.916  0.8347 -1.4052  0.0004
 4717SOL    HW225788   1.462   2.281   4.985 -0.0588  0.2456  0.3679
 4718SOL     OW25789   4.656   0.939  14.773  0.1216  0.7593  0.6043
 4718SOL    HW125790   4.664   1.021  14.822  2.4509  0.5753  0.5026
 4718SOL    HW225791   4.711   0.885  14.830 -1.1582 -1.7891 -0.5489
 4719SOL     OW25792   2.939   2.817   2.953  0.4628 -0.7876  0.0208
 4719SOL    HW125793   3.018   2.867   2.972 -0.0183  0.6671 -1.8296
 4719SOL    HW225794   2.926   2.779   3.040  2.7881  1.4354  1.3230
 4720SOL     OW25795   2.531   4.427   3.287 -0.6201 -0.0369  0.1751
 4720SOL    HW125796   2.448   4.387   3.310  0.9714 -2.2470  2.0451
 4720SOL    HW225797   2.530   4.520   3.310 -1.1181  0.0070 -0.0371
 4721SOL     OW25798   1.970   0.123  15.842 -0.0772 -0.2416 -0.2122
 4721SOL    HW125799   2.022   0.043  15.844  0.0855 -0.1356 -0.1455
 4721SOL    HW225800   2.034   0.187  15.875  0.1454 -0.0335 -1.0250
 4722SOL     OW25801   0.362   3.738   5.165 -0.2122 -0.8578  0.1678
 4722SOL    HW125802   0.288   3.795   5.186  1.3654  0.9078  0.8610
 4722SOL    HW225803   0.382   3.778   5.080 -0.4897  0.5884  0.7901
 4723SOL     OW25804   2.359   3.808   6.932  0.0861  0.0889 -0.3837
 4723SOL    HW125805   2.331   3.730   6.884 -0.0661  1.0895 -1.9174
 4723SOL    HW225806   2.424   3.852   6.877  0.3121  0.3884  0.1182
 4724SOL     OW25807   1.001   2.133   4.620  0.3839  0.4186  0.0464
 4724SOL    HW125808   0.933   2.070   4.597  0.0126  0.6415  0.5288
 4724SOL    HW225809   1.013   2.181   4.538 -0.8979 -0.4246 -0.6435
 4725SOL     OW25810   1.219   1.739   2.712  0.4865  0.5599  0.0555
 4725SOL    HW125811   1.244   1.759   2.802 -1.4483  0.2414  0.6527
 4725SOL    HW225812   1.145   1.800   2.708  0.4140  0.5298  0.8993
 4726SOL     OW25813   2.901   2.221   9.526  0.2602  0.0554  0.3190
 4726SOL    HW125814   2.853   2.277   9.587 -0.4232 -0.6807  0.4455
 4726SOL    HW225815   2.864   2.247   9.441 -2.4081 -1.6314  1.0036
 4727SOL     OW25816   2.966   0.722  17.475  0.7081  0.1214  0.0005
 4727SOL    HW125817   3.045   0.706  17.423 -0.5175 -2.7852 -1.0017
 4727SOL    HW225818   2.916   0.772  17.410 -2.9847  0.9272  3.4564
 4728SOL     OW25819   2.809   1.301  15.207  0.3148  0.6049 -0.0288
 4728SOL    HW125820   2.894   1.286  15.165  0.8338  0.1240  1.2039
 4728SOL    HW225821   2.842   1.349  15.283 -1.1917  0.5052  0.6778
 4729SOL     OW25822   3.342   4.603   2.276 -0.1996  0.3206 -0.5176
 4729SOL    HW125823   3.375   4.561   2.356 -1.3183  1.0558  0.3205
 4729SOL    HW225824   3.387   4.552   2.208 -0.1954 -1.1793  0.6024
 4730SOL     OW25825   2.920   4.312   1.673 -0.1005 -0.0044  0.3019
 4730SOL    HW125826   3.008   4.318   1.710  1.3939 -0.0384 -3.2581
 4730SOL    HW225827   2.888   4.402   1.677  0.1284  0.0468  0.8484
 4731SOL     OW25828   1.991   4.370   9.514  0.0118  0.2423  0.3169
 4731SOL    HW125829   2.044   4.425   9.456 -0.3755 -1.6926 -1.8869
 4731SOL    HW225830   2.058   4.312   9.552  0.8496  0.5177 -0.7380
 4732SOL     OW25831   2.306   0.394   3.611  0.1622 -0.4263  0.3179
 4732SOL    HW125832   2.302   0.367   3.519  1.2776 -0.4479  0.2763
 4732SOL    HW225833   2.323   0.488   3.604  1.1580 -0.5248  1.5775
 4733SOL     OW25834   2.207   3.558   8.646 -0.6668  0.2161 -0.1969
 4733SOL    HW125835   2.130   3.567   8.591 -0.8416 -2.3556 -0.3593
 4733SOL    HW225836   2.280   3.591   8.594 -0.8816 -0.9851 -1.2671
 4734SOL     OW25837   4.293   1.232   0.237 -0.5255  0.3952  0.1364
 4734SOL    HW125838   4.230   1.299   0.264  2.6577  3.0450  0.9953
 4734SOL    HW225839   4.304   1.178   0.315 -2.2446 -1.1549 -0.6961
 4735SOL     OW25840   2.471   4.628  17.521 -0.8641  0.4955  0.1417
 4735SOL    HW125841   2.397   4.573  17.548  0.0710  0.7751  3.3333
 4735SOL    HW225842   2.519   4.620  17.604  1.3363 -1.8344 -1.3403
 4736SOL     OW25843   2.325   0.369   1.696 -0.3059 -0.1653 -0.0282
 4736SOL    HW125844   2.263   0.360   1.623 -0.7376 -0.3522  0.3655
 4736SOL    HW225845   2.271   0.410   1.763  0.2958  0.8918 -0.1973
 4737SOL     OW25846   4.030   2.603   3.366  0.2821 -0.0681  0.2943
 4737SOL    HW125847   3.995   2.551   3.439  0.6972 -1.9273 -0.8379
 4737SOL    HW225848   4.038   2.687   3.412 -0.0465 -0.6358  1.4048
 4738SOL     OW25849   4.348   3.780  16.321  0.2310 -0.0697  0.4525
 4738SOL    HW125850   4.319   3.737  16.240  0.7123 -0.4922  0.5049
 4738SOL    HW225851   4.338   3.873  16.303 -3.2065 -1.2249 -3.6816
 4739SOL     OW25852   0.713   0.444   8.041  0.1328  0.0980  0.0065
 4739SOL    HW125853   0.683   0.477   7.957 -1.2133 -0.0805  0.4152
 4739SOL    HW225854   0.629   0.461   8.083  0.9582  1.7754  1.0081
 4740SOL     OW25855   0.308   2.290   9.253  0.5251 -0.4877  0.1534
 4740SOL    HW125856   0.326   2.202   9.286 -1.0254 -0.7336  0.3460
 4740SOL    HW225857   0.245   2.323   9.317  1.1955 -0.2753  0.7117
 4741SOL     OW25858   3.697   2.340   4.832  0.3923  0.2702 -0.4408
 4741SOL    HW125859   3.675   2.292   4.753  0.2571  0.8144 -0.7369
 4741SOL    HW225860   3.788   2.328   4.860  1.1030 -0.7099 -3.1636
 4742SOL     OW25861   3.469   1.357  11.954  0.0257 -0.0376 -0.2652
 4742SOL    HW125862   3.417   1.306  12.016  1.5168  1.7801  2.4518
 4742SOL    HW225863   3.422   1.440  11.956  0.0789 -0.0291  0.4987
 4743SOL     OW25864   2.893   3.561   7.742 -0.0131 -0.2236  0.2863
 4743SOL    HW125865   2.847   3.566   7.826  0.6425  0.5602  0.6014
 4743SOL    HW225866   2.969   3.517   7.781 -0.5999 -0.1872  1.4606
 4744SOL     OW25867   3.898   3.030   0.951 -0.2309 -0.1477  0.0781
 4744SOL    HW125868   3.896   3.113   0.904 -0.2455  1.1958  2.4527
 4744SOL    HW225869   3.992   3.012   0.947  0.3242  2.6153  0.6882
 4745SOL     OW25870   4.156   4.138   3.769 -0.0344 -0.2503  0.2353
 4745SOL    HW125871   4.231   4.083   3.794  2.0851  0.9646 -3.4398
 4745SOL    HW225872   4.084   4.075   3.773  0.5019 -0.8797 -0.1219
 4746SOL     OW25873   4.498   3.821   2.997  0.4481 -0.0005  0.4947
 4746SOL    HW125874   4.552   3.749   2.964  0.4099  0.1237  0.1673
 4746SOL    HW225875   4.447   3.837   2.918 -1.4664 -0.8436  1.5447
 4747SOL     OW25876   4.700   2.666   8.693 -0.2659 -0.2222  0.6607
 4747SOL    HW125877   4.611   2.631   8.688 -0.2938  0.1349 -1.1166
 4747SOL    HW225878   4.686   2.737   8.755 -1.1637  0.0323  0.1576
 4748SOL     OW25879   2.534   1.855   1.878 -0.7228 -0.2605 -0.0407
 4748SOL    HW125880   2.545   1.778   1.822 -0.6809 -1.0966  1.1041
 4748SOL    HW225881   2.624   1.887   1.884 -1.3875  1.6439 -0.3493
 4749SOL     OW25882   1.305   2.985   4.933 -0.9591  0.8524 -0.1133
 4749SOL    HW125883   1.280   3.031   5.013 -2.4931 -2.3805  1.2439
 4749SOL    HW225884   1.393   3.019   4.919  0.1690 -2.0773 -0.0718
 4750SOL     OW25885   4.416   0.371  12.659  0.2568  0.0626 -0.3547
 4750SOL    HW125886   4.350   0.336  12.599  1.3129  0.5875 -1.8012
 4750SOL    HW225887   4.410   0.303  12.727 -1.0054 -1.5691 -2.0913
 4751SOL     OW25888   0.897   0.123   2.879  0.1896  0.5850 -0.1896
 4751SOL    HW125889   0.825   0.078   2.924 -0.1165  0.8010 -0.4664
 4751SOL    HW225890   0.918   0.059   2.811 -0.2916  2.3684 -2.0434
 4752SOL     OW25891   0.961   1.093   7.716  0.3391  0.2568  0.0785
 4752SOL    HW125892   0.932   1.003   7.700  2.7812 -0.5057  0.0876
 4752SOL    HW225893   0.931   1.134   7.635  1.3654  1.7486  0.4694
 4753SOL     OW25894   0.592   2.002   5.606  0.5811 -0.4083 -0.0260
 4753SOL    HW125895   0.683   1.974   5.595  0.7040  0.8084 -2.1921
 4753SOL    HW225896   0.567   1.953   5.684  0.6556 -0.8547 -0.2755
 4754SOL     OW25897   2.192   3.591  10.370  0.1081 -0.1865  0.1755
 4754SOL    HW125898   2.164   3.589  10.461 -1.5766 -0.7999 -0.3603
 4754SOL    HW225899   2.144   3.516  10.336 -2.1405  0.2744  2.3842
 4755SOL     OW25900   4.634   4.248  14.293  0.2401  0.5452 -0.0269
 4755SOL    HW125901   4.707   4.272  14.236 -0.4415  0.5452 -0.8989
 4755SOL    HW225902   4.632   4.320  14.356 -0.2285  0.5990 -0.1047
 4756SOL     OW25903   4.294   4.564   8.780  0.1310  1.0631 -0.3432
 4756SOL    HW125904   4.218   4.565   8.722  0.9132  2.9540 -1.3336
 4756SOL    HW225905   4.272   4.484   8.829  1.9217  0.3376 -0.7050
 4757SOL     OW25906   0.970   0.148   5.975 -0.1350  0.1261  0.8232
 4757SOL    HW125907   0.946   0.234   5.939 -1.9325 -0.5116  0.5244
 4757SOL    HW225908   1.020   0.115   5.900  0.2942 -0.1475  1.2282
 4758SOL     OW25909   3.322   1.700  10.748 -0.5234  0.0696 -0.2389
 4758SOL    HW125910   3.414   1.695  10.773 -0.5407 -0.8041 -0.3505
 4758SOL    HW225911   3.299   1.784  10.786  3.2299  1.3796 -0.9286
 4759SOL     OW25912   1.494   4.143   2.749  0.3446 -0.3697 -0.0629
 4759SOL    HW125913   1.567   4.193   2.713  1.0530 -0.8409  0.7072
 4759SOL    HW225914   1.459   4.216   2.801  1.1590 -0.0582  0.0540
 4760SOL     OW25915   3.460   0.980   3.534  0.0395 -0.0116  0.1473
 4760SOL    HW125916   3.427   1.069   3.541 -1.3834 -0.5824  0.7062
 4760SOL    HW225917   3.470   0.975   3.439 -0.5594 -0.1636  0.0930
 4761SOL     OW25918   0.193   0.552  10.291 -0.3277  0.1905 -0.2560
 4761SOL    HW125919   0.156   0.639  10.302 -0.7942  0.2018 -1.9066
 4761SOL    HW225920   0.283   0.576  10.269  0.4510 -1.3768  1.2477
 4762SOL     OW25921   0.265   4.654   9.676 -0.2311  0.0421  0.1009
 4762SOL    HW125922   0.346   4.604   9.664  0.3334  1.0066 -0.0768
 4762SOL    HW225923   0.257   4.712   9.601  0.8371 -1.4336 -1.1454
 4763SOL     OW25924   4.313   2.976   7.177 -0.4036 -0.1365  0.8899
 4763SOL    HW125925   4.337   2.922   7.252  2.0750 -0.7539 -0.3284
 4763SOL    HW225926   4.310   2.911   7.107  0.1617 -0.0133  0.7507
 4764SOL     OW25927   3.533   4.720   5.883  0.3303  0.5400  0.4072
 4764SOL    HW125928   3.570   0.051   5.830  0.2258  0.4912  0.2685
 4764SOL    HW225929   3.607   4.678   5.926 -0.5219  1.1537  2.4654
 4765SOL     OW25930   4.394   2.597   2.875 -0.7561 -0.0214  0.5206
 4765SOL    HW125931   4.311   2.577   2.917 -0.7564  1.0845  1.0515
 4765SOL    HW225932   4.401   2.522   2.816 -2.9148  0.8879 -0.9071
 4766SOL     OW25933   3.486   1.532   6.220 -0.4577 -0.0708 -0.1683
 4766SOL    HW125934   3.431   1.609   6.202  0.1936  0.6013  0.6970
 4766SOL    HW225935   3.446   1.489   6.294  2.7748 -1.2902  0.8618
 4767SOL     OW25936   1.520   4.711   6.258 -0.3822 -0.2078  0.1162
 4767SOL    HW125937   1.461   4.645   6.296  0.9977 -2.0551 -0.9497
 4767SOL    HW225938   1.551   0.009   6.341  1.2276  0.9683 -1.0264
 4768SOL     OW25939   1.813   2.513  12.394 -0.6276 -0.0814  0.2138
 4768SOL    HW125940   1.865   2.504  12.314  0.6450 -1.7694  1.2215
 4768SOL    HW225941   1.884   2.528  12.457 -1.3141  0.1227  0.9402
 4769SOL     OW25942   0.890   0.732   4.650 -0.2404 -0.3174  0.4316
 4769SOL    HW125943   0.980   0.702   4.631 -0.4798  0.9502 -2.7199
 4769SOL    HW225944   0.910   0.814   4.695 -0.5114  1.2914 -2.3540
 4770SOL     OW25945   3.121   3.262  13.725  0.6598  0.4046  0.0317
 4770SOL    HW125946   3.086   3.320  13.793  0.6841  0.3860  0.0601
 4770SOL    HW225947   3.189   3.207  13.763  0.4739  0.1764  0.0363
 4771SOL     OW25948   1.858   2.771   7.185 -0.3986  0.0084 -0.5297
 4771SOL    HW125949   1.821   2.772   7.097 -2.5619  2.0244  0.4303
 4771SOL    HW225950   1.930   2.710   7.168  1.9302  2.8917 -1.0406
 4772SOL     OW25951   4.564   2.227   2.159 -0.3864 -0.4607 -0.3255
 4772SOL    HW125952   4.530   2.316   2.171  0.9816 -0.0956  0.8107
 4772SOL    HW225953   4.653   2.245   2.189 -0.7660 -0.4299  0.7828
 4773SOL     OW25954   3.484   4.339   3.625 -0.4211 -0.2888  0.3778
 4773SOL    HW125955   3.574   4.335   3.656 -0.7318  0.3512  1.3889
 4773SOL    HW225956   3.479   4.279   3.551 -1.2404 -0.0296  0.2172
 4774SOL     OW25957   0.345   4.001  16.473  0.1690 -0.4864  0.3539
 4774SOL    HW125958   0.324   3.925  16.418 -1.3513 -0.4631  0.8906
 4774SOL    HW225959   0.303   4.076  16.432  1.6848  0.1881  0.0564
 4775SOL     OW25960   3.601   1.729  10.433  0.1945 -0.1693 -0.9854
 4775SOL    HW125961   3.577   1.639  10.411 -0.0188 -0.2715 -0.3358
 4775SOL    HW225962   3.627   1.717  10.524  1.1221 -0.1650 -1.2549
 4776SOL     OW25963   1.767   3.037   8.240  0.0336 -0.0664  0.2445
 4776SOL    HW125964   1.798   3.115   8.194  0.9057 -0.3272  0.4025
 4776SOL    HW225965   1.841   2.978   8.246 -0.0297 -0.3804 -2.3081
 4777SOL     OW25966   0.808   3.531   0.404 -0.2464  0.0550 -0.1308
 4777SOL    HW125967   0.733   3.591   0.409  0.9324  1.6953 -2.0767
 4777SOL    HW225968   0.766   3.449   0.378 -1.4115  0.4236  0.5387
 4778SOL     OW25969   0.208   1.094   6.397  0.1151  0.4567 -0.7381
 4778SOL    HW125970   0.156   1.171   6.418 -1.2268 -0.4210 -0.8454
 4778SOL    HW225971   0.163   1.019   6.437  0.1246  1.1561  0.5480
 4779SOL     OW25972   4.080   3.655  16.052 -0.4579 -0.5041 -0.4045
 4779SOL    HW125973   4.042   3.691  16.132  1.8875  0.2547  0.3772
 4779SOL    HW225974   4.027   3.578  16.033 -0.8088 -0.4394  0.3338
 4780SOL     OW25975   2.643   0.865   8.356 -0.0022 -0.2230 -0.1501
 4780SOL    HW125976   2.587   0.796   8.391  0.0700  0.2944  0.9948
 4780SOL    HW225977   2.604   0.938   8.404  1.1642  1.5390 -1.8819
 4781SOL     OW25978   4.124   0.193   7.022  0.7932 -0.0526  0.2260
 4781SOL    HW125979   4.156   0.249   6.951 -0.9892  0.3609 -0.2517
 4781SOL    HW225980   4.030   0.191   7.007  0.9908 -2.0278 -0.7387
 4782SOL     OW25981   2.017   1.522   4.885 -0.2024  0.0973 -0.3547
 4782SOL    HW125982   2.104   1.491   4.863 -0.4744 -2.0904  1.6242
 4782SOL    HW225983   1.978   1.500   4.801 -0.9198  1.1768 -0.2967
 4783SOL     OW25984   4.252   0.922  11.549  0.2148  0.0992 -0.0196
 4783SOL    HW125985   4.326   0.873  11.512  0.2315 -0.0793  0.2519
 4783SOL    HW225986   4.278   0.935  11.640  0.8481  1.3740 -0.3884
 4784SOL     OW25987   3.837   1.949   3.273 -0.5646  0.0902  0.5333
 4784SOL    HW125988   3.746   1.972   3.292 -0.4244  0.3856  0.8712
 4784SOL    HW225989   3.896   2.009   3.320  2.3687 -2.6634  0.3184
 4785SOL     OW25990   2.685   4.101   3.750  0.5777 -0.0137 -0.0671
 4785SOL    HW125991   2.699   4.177   3.807 -2.3903 -0.6666  1.4938
 4785SOL    HW225992   2.776   4.071   3.742  1.1277  0.8502  2.8009
 4786SOL     OW25993   2.360   3.484  16.023 -0.0290  0.9725 -0.1715
 4786SOL    HW125994   2.415   3.528  16.089  0.0216 -1.7110  1.5849
 4786SOL    HW225995   2.338   3.552  15.960 -1.0103  2.3940  1.6828
 4787SOL     OW25996   3.308   1.926   8.298 -0.2992  0.0065 -0.1000
 4787SOL    HW125997   3.333   2.003   8.247 -0.0078  0.2217  0.3644
 4787SOL    HW225998   3.313   1.956   8.388 -0.4228 -1.2157  0.3187
 4788SOL     OW25999   2.528   1.978   4.104  0.0166 -0.1967 -0.7339
 4788SOL    HW126000   2.618   1.960   4.077  0.8038  0.9417  1.1256
 4788SOL    HW226001   2.533   1.975   4.200 -1.7458 -0.7149 -0.6580
 4789SOL     OW26002   3.965   2.701   2.166 -0.5440 -0.7527  0.1005
 4789SOL    HW126003   4.039   2.665   2.214  0.7895 -0.0486 -1.4225
 4789SOL    HW226004   3.952   2.641   2.092 -0.1069  0.8738 -1.3125
 4790SOL     OW26005   1.497   2.486   1.381 -0.0088 -0.3972  0.2429
 4790SOL    HW126006   1.419   2.463   1.330  0.8153 -2.2543 -0.1918
 4790SOL    HW226007   1.460   2.549   1.443  0.1554  0.9856 -1.0381
 4791SOL     OW26008   4.169   4.021   2.703 -0.5407 -0.0193  0.3658
 4791SOL    HW126009   4.153   4.053   2.792  1.9219 -0.5286  1.0171
 4791SOL    HW226010   4.084   4.030   2.661 -1.2001 -0.6590  1.5680
 4792SOL     OW26011   1.119   1.929  12.708 -0.0538  0.6312  0.1867
 4792SOL    HW126012   1.115   2.001  12.644  0.2116 -0.4163 -0.9980
 4792SOL    HW226013   1.099   1.979  12.787  1.3491  2.8479 -0.8706
 4793SOL     OW26014   3.595   0.074   4.309 -0.3138 -0.1200  0.1331
 4793SOL    HW126015   3.587   0.163   4.276 -0.7225 -0.4487 -0.6408
 4793SOL    HW226016   3.580   0.034   4.224 -0.0543  1.9832 -0.9104
 4794SOL     OW26017   1.665   4.016   2.549  0.0095 -0.2593 -0.2682
 4794SOL    HW126018   1.580   4.034   2.589  0.9697  3.7590 -0.0987
 4794SOL    HW226019   1.712   3.983   2.625  2.3675 -1.4452 -2.2290
 4795SOL     OW26020   3.107   1.074  15.980 -0.1984  0.4838  0.1972
 4795SOL    HW126021   3.176   1.066  15.914 -0.3768  0.1263  0.0557
 4795SOL    HW226022   3.042   1.108  15.919 -0.6729 -1.9277 -0.6380
 4796SOL     OW26023   2.668   1.205   2.522 -0.6019  0.0306  0.6901
 4796SOL    HW126024   2.679   1.279   2.581  1.0530 -0.5476  1.1050
 4796SOL    HW226025   2.760   1.191   2.503 -1.2576 -0.6417 -2.0421
 4797SOL     OW26026   0.120   1.436  10.090  0.1317 -0.3674  1.4495
 4797SOL    HW126027   0.165   1.469  10.168 -0.1243 -2.1764  2.3658
 4797SOL    HW226028   0.118   1.511  10.031 -0.1180 -1.0131  0.6428
 4798SOL     OW26029   4.049   0.730   8.191 -0.4133  0.3860  0.2449
 4798SOL    HW126030   4.102   0.767   8.121 -1.4938  1.5057  0.0176
 4798SOL    HW226031   4.104   0.693   8.260 -0.8168  0.9097  0.8492
 4799SOL     OW26032   2.178   2.829   8.702 -0.0760 -0.3660  0.4527
 4799SOL    HW126033   2.205   2.883   8.777 -0.9567 -0.8044  1.0808
 4799SOL    HW226034   2.218   2.884   8.635  1.1849 -1.4789  0.2864
 4800SOL     OW26035   0.309   4.140   6.923  0.7061 -0.0012 -0.6939
 4800SOL    HW126036   0.356   4.064   6.958  1.8869  0.6057 -0.9727
 4800SOL    HW226037   0.224   4.141   6.967  0.2490  2.1156 -1.6600
 4801SOL     OW26038   2.378   4.312  15.188 -0.1462 -0.7926 -0.4865
 4801SOL    HW126039   2.473   4.305  15.202 -0.3971 -0.7261  1.1472
 4801SOL    HW226040   2.364   4.328  15.094 -0.0161  0.9998 -0.1961
 4802SOL     OW26041   4.717   3.417   0.684 -0.1340  0.3929 -0.8001
 4802SOL    HW126042   4.723   3.322   0.692  2.1191  0.3155 -3.6229
 4802SOL    HW226043   4.656   3.442   0.753 -1.1644  0.4814 -1.7319
 4803SOL     OW26044   4.093   4.364   0.194 -0.1940  0.3494  0.3255
 4803SOL    HW126045   4.081   4.454   0.162 -2.1215  0.1440  0.4308
 4803SOL    HW226046   4.162   4.378   0.258  1.2278 -0.7958 -0.9577
 4804SOL     OW26047   4.706   0.042   0.595 -0.2459 -0.2264 -0.0023
 4804SOL    HW126048   0.004   4.699   0.564 -0.3135 -1.0382  2.0966
 4804SOL    HW226049   4.615   0.024   0.571  0.5196 -1.4726 -2.0460
 4805SOL     OW26050   1.935   1.723   9.002  0.6028  0.3096  1.1152
 4805SOL    HW126051   1.894   1.754   9.083 -1.4870  2.4354 -0.7533
 4805SOL    HW226052   1.890   1.770   8.932 -0.2874  1.0059  2.1452
 4806SOL     OW26053   2.433   0.046  10.641  0.1794  0.3010  0.4492
 4806SOL    HW126054   2.382   0.069  10.718 -1.8826 -0.0637 -0.8238
 4806SOL    HW226055   2.388   0.099  10.575  0.7287  0.7226  0.4136
 4807SOL     OW26056   3.681   1.242  13.117 -0.2225 -0.3514  0.5300
 4807SOL    HW126057   3.650   1.175  13.178 -0.7771 -1.8479 -1.3894
 4807SOL    HW226058   3.637   1.222  13.034  1.1163  0.3971 -0.3497
 4808SOL     OW26059   1.237   2.222  12.211  0.6352  0.2040  0.1674
 4808SOL    HW126060   1.326   2.189  12.194 -0.4177 -1.2445 -2.3984
 4808SOL    HW226061   1.236   2.240  12.305  1.7317  2.2056 -0.1972
 4809SOL     OW26062   3.404   3.910   1.490  0.5319  0.0499 -0.1102
 4809SOL    HW126063   3.435   3.996   1.518 -1.0773  0.6854 -0.2605
 4809SOL    HW226064   3.350   3.929   1.413  0.8198  2.5382  0.3020
 4810SOL     OW26065   1.277   1.022   6.200  0.3897  0.9643  0.2822
 4810SOL    HW126066   1.263   0.933   6.234  0.7354 -0.0986 -2.3805
 4810SOL    HW226067   1.327   1.055   6.274 -0.5463 -0.2236  1.4542
 4811SOL     OW26068   1.255   0.777   6.303  0.1250 -0.1518 -0.4529
 4811SOL    HW126069   1.168   0.736   6.302 -0.5685  1.3387 -0.1793
 4811SOL    HW226070   1.286   0.776   6.393 -1.6117 -1.7097  0.1244
 4812SOL     OW26071   0.802   0.306   2.461 -0.4561 -0.2444 -0.1053
 4812SOL    HW126072   0.728   0.319   2.402 -0.2333  0.5687 -0.2044
 4812SOL    HW226073   0.821   0.212   2.458 -0.8013 -0.4110  3.2488
 4813SOL     OW26074   3.233   1.131   2.497  0.0418 -0.1986  0.3249
 4813SOL    HW126075   3.327   1.138   2.511 -0.1762  2.8038  0.2546
 4813SOL    HW226076   3.204   1.111   2.586  1.2882 -2.7701  0.1400
 4814SOL     OW26077   3.068   4.232   6.791  0.1901  0.4009 -0.2813
 4814SOL    HW126078   3.135   4.175   6.754  2.2159  3.2177 -0.9203
 4814SOL    HW226079   3.054   4.282   6.711 -1.1836  0.8036  0.2113
 4815SOL     OW26080   0.226   2.644  12.116 -0.1491 -0.0355 -0.5267
 4815SOL    HW126081   0.222   2.717  12.179 -0.5689 -1.3326  0.9566
 4815SOL    HW226082   0.145   2.598  12.138  0.3973 -0.5667  0.3825
 4816SOL     OW26083   2.572   0.907   0.965 -0.0008  1.2156  0.9210
 4816SOL    HW126084   2.659   0.944   0.955  0.2056  0.4260 -0.2052
 4816SOL    HW226085   2.530   0.925   0.881  0.9907  0.7242  0.3213
 4817SOL     OW26086   1.448   2.712   0.165 -0.1539 -0.2853  0.3059
 4817SOL    HW126087   1.475   2.803   0.167 -3.9850  0.8410  0.3972
 4817SOL    HW226088   1.366   2.716   0.214 -0.1254  2.4893  0.1130
 4818SOL     OW26089   1.765   0.863   4.405 -0.4344  0.8156 -0.4305
 4818SOL    HW126090   1.745   0.955   4.392 -0.0142  0.8483 -0.8405
 4818SOL    HW226091   1.682   0.816   4.405  0.1876 -0.2824 -0.9579
 4819SOL     OW26092   3.711   0.605   3.357  0.3890 -0.0355  0.1429
 4819SOL    HW126093   3.769   0.564   3.421 -0.1680 -1.2565 -0.1167
 4819SOL    HW226094   3.691   0.674   3.420  0.8285  0.7057 -0.5347
 4820SOL     OW26095   0.577   0.042   9.346 -0.2529  0.7497 -0.2584
 4820SOL    HW126096   0.609   4.691   9.347 -1.1969  0.4423  2.0808
 4820SOL    HW226097   0.540   0.061   9.259 -2.3836 -0.3297  0.4133
 4821SOL     OW26098   3.628   1.235   9.313  0.2815 -0.4143  0.2577
 4821SOL    HW126099   3.665   1.199   9.233 -0.0802 -0.4771  0.1188
 4821SOL    HW226100   3.653   1.163   9.371  1.4163  0.3039  0.6631
 4822SOL     OW26101   2.864   3.111  15.621 -0.8016 -0.3129  0.6457
 4822SOL    HW126102   2.912   3.149  15.547  2.2729 -2.7768  1.3954
 4822SOL    HW226103   2.834   3.193  15.661  1.9796  1.7550 -1.4434
 4823SOL     OW26104   4.490   2.692  15.184  0.6668 -0.2657  0.1608
 4823SOL    HW126105   4.436   2.617  15.161 -2.0355  0.6145  3.6489
 4823SOL    HW226106   4.452   2.714  15.269 -1.8866  2.1222 -1.5649
 4824SOL     OW26107   4.636   0.563   8.392 -0.6855 -0.9728  0.6404
 4824SOL    HW126108   4.704   0.621   8.355 -0.7142 -0.8942  0.7113
 4824SOL    HW226109   4.684   0.512   8.457  0.3920  0.1695  0.7460
 4825SOL     OW26110   0.574   1.436   1.001 -0.2649 -0.5165 -0.0393
 4825SOL    HW126111   0.548   1.352   0.963 -0.2426 -0.9791  0.9731
 4825SOL    HW226112   0.617   1.481   0.928  0.2961 -0.5717  0.2551
 4826SOL     OW26113   1.770   1.673   5.205 -0.0176 -0.1104  0.3012
 4826SOL    HW126114   1.693   1.685   5.149  0.3461  0.3240 -0.1007
 4826SOL    HW226115   1.731   1.688   5.291 -3.5251 -1.2928 -1.0799
 4827SOL     OW26116   3.907   3.409   9.104  0.0814 -0.2442 -0.2474
 4827SOL    HW126117   3.993   3.448   9.091 -1.3658  2.6621 -1.1652
 4827SOL    HW226118   3.872   3.418   9.015  0.4283  0.1386 -0.3436
 4828SOL     OW26119   1.586   4.012   2.031 -0.3623  0.4480  0.3409
 4828SOL    HW126120   1.628   4.028   2.116  0.0647 -0.5016  0.3106
 4828SOL    HW226121   1.612   4.094   1.990  2.4805 -1.5855 -1.8767
 4829SOL     OW26122   1.578   1.724   4.980 -0.5505 -0.1410 -0.0449
 4829SOL    HW126123   1.544   1.806   5.016 -0.2889  0.4894 -1.2448
 4829SOL    HW226124   1.508   1.669   4.946 -0.3879  0.0395 -0.6697
 4830SOL     OW26125   4.042   1.682   1.845  0.0896 -0.0847  0.4814
 4830SOL    HW126126   4.067   1.763   1.802 -0.0974  0.3390  1.1747
 4830SOL    HW226127   4.036   1.624   1.769 -0.3652  1.7536 -0.8894
 4831SOL     OW26128   1.704   0.438  15.882  0.1039 -0.1423 -0.3058
 4831SOL    HW126129   1.728   0.375  15.814  0.2472  0.8732 -1.2015
 4831SOL    HW226130   1.789   0.459  15.920  0.1927 -0.5970 -0.2511
 4832SOL     OW26131   3.130   3.719   3.201  0.4200  0.1960  0.1990
 4832SOL    HW126132   3.060   3.767   3.246  1.1125 -0.4693  1.9753
 4832SOL    HW226133   3.136   3.774   3.123  2.9043 -1.8262 -1.0086
 4833SOL     OW26134   2.247   4.398   3.379 -0.4842 -0.7378 -0.3573
 4833SOL    HW126135   2.165   4.448   3.376  0.4809  0.7486 -2.3138
 4833SOL    HW226136   2.212   4.314   3.349 -1.5538 -0.7999  1.0822
 4834SOL     OW26137   0.821   2.111   2.549  0.1071  0.1469  0.0898
 4834SOL    HW126138   0.897   2.154   2.588  2.3666 -0.4439 -3.6522
 4834SOL    HW226139   0.867   2.079   2.472  0.3099  2.6273 -0.8068
 4835SOL     OW26140   3.092   0.640   3.519  0.2042 -0.2890 -0.0352
 4835SOL    HW126141   3.181   0.645   3.486  0.9979 -0.4767  2.0889
 4835SOL    HW226142   3.106   0.552   3.554  1.2655 -0.4418 -0.8533
 4836SOL     OW26143   4.432   1.805   8.265 -0.7561  0.4444 -0.3480
 4836SOL    HW126144   4.406   1.721   8.227 -1.5640  1.4985 -2.0992
 4836SOL    HW226145   4.512   1.773   8.306 -1.3149  0.1731  0.5278
 4837SOL     OW26146   2.203   1.054   2.115  0.5453 -0.6656  0.5614
 4837SOL    HW126147   2.108   1.064   2.115  0.6722  0.5809 -4.1452
 4837SOL    HW226148   2.220   0.985   2.051 -1.1577 -1.5340  1.0525
 4838SOL     OW26149   3.907   0.307   6.705 -0.5230 -0.1822 -0.2474
 4838SOL    HW126150   3.849   0.340   6.636 -0.2322  2.3670  0.7156
 4838SOL    HW226151   3.977   0.372   6.696 -0.2940 -0.0616  2.4993
 4839SOL     OW26152   2.491   2.126   5.261  0.2408  0.0088  0.1616
 4839SOL    HW126153   2.448   2.203   5.297 -0.5346 -0.3891  0.0881
 4839SOL    HW226154   2.411   2.074   5.250  1.5899 -1.6918 -1.7962
 4840SOL     OW26155   4.425   3.851   8.502 -0.8895 -0.1388  0.5571
 4840SOL    HW126156   4.378   3.850   8.418 -1.6629 -0.6797  0.9927
 4840SOL    HW226157   4.376   3.914   8.555 -0.1673 -0.1915  1.2720
 4841SOL     OW26158   4.676   1.650  16.886 -0.6531  0.0181  0.5271
 4841SOL    HW126159   4.684   1.555  16.883  2.6522  0.3467 -0.4015
 4841SOL    HW226160   4.599   1.659  16.942 -1.4630 -0.5381 -0.4931
 4842SOL     OW26161   4.445   2.024  14.843  0.6991 -0.0016  0.0578
 4842SOL    HW126162   4.507   2.079  14.794  1.2153  0.2176  0.9470
 4842SOL    HW226163   4.495   2.005  14.922  0.6716 -0.7279 -0.0980
 4843SOL     OW26164   1.366   1.185   9.991 -0.2860  0.4616 -0.1183
 4843SOL    HW126165   1.277   1.186   9.956  0.1175 -1.2927 -1.2107
 4843SOL    HW226166   1.356   1.204  10.084  0.2295 -1.4350  0.3206
 4844SOL     OW26167   0.056   1.714   3.841  0.4356  0.0714  0.2386
 4844SOL    HW126168   0.035   1.749   3.755 -0.1991 -1.3121 -0.1610
 4844SOL    HW226169   0.031   1.789   3.896  2.0688  0.0059  1.0747
 4845SOL     OW26170   0.386   4.075   7.489 -0.0132 -0.1660 -0.8836
 4845SOL    HW126171   0.464   4.078   7.545  0.9078  0.0736 -2.1560
 4845SOL    HW226172   0.334   4.015   7.542 -0.1569  0.3585 -0.4336
 4846SOL     OW26173   2.669   2.120   6.821 -0.4632  0.9388 -0.0882
 4846SOL    HW126174   2.734   2.055   6.848 -0.8222  0.0425 -1.3384
 4846SOL    HW226175   2.718   2.202   6.827  0.3130  0.4102  0.7989
 4847SOL     OW26176   1.885   4.458   4.022 -1.1083 -0.0086  0.0587
 4847SOL    HW126177   1.978   4.462   4.045 -1.4850 -0.0550  1.6009
 4847SOL    HW226178   1.862   4.532   4.077 -1.1203 -0.6236  0.8809
 4848SOL     OW26179   1.546   1.287   4.877  0.1691 -0.3731 -0.0915
 4848SOL    HW126180   1.585   1.304   4.963 -3.0969 -2.9819  1.9037
 4848SOL    HW226181   1.613   1.234   4.834  1.8832 -0.6128  2.8958
 4849SOL     OW26182   1.187   3.543   8.270 -0.6385  0.7052  0.2835
 4849SOL    HW126183   1.127   3.526   8.198  0.7722 -1.8514 -0.2659
 4849SOL    HW226184   1.237   3.463   8.284 -0.2403  0.6747 -1.3207
 4850SOL     OW26185   2.867   0.340  17.529 -0.5930  0.5976 -0.1542
 4850SOL    HW126186   2.863   0.353  17.434  0.1990  2.3260  0.0431
 4850SOL    HW226187   2.853   0.431  17.553 -1.1545  0.3878  0.3001
 4851SOL     OW26188   1.949   2.777   6.069 -0.3918  0.4486 -0.8840
 4851SOL    HW126189   1.923   2.869   6.068  3.0096  1.4252 -0.2615
 4851SOL    HW226190   1.921   2.756   5.980  0.3448 -2.6855 -0.3847
 4852SOL     OW26191   3.946   1.164   0.200  0.3073  0.1098 -0.1003
 4852SOL    HW126192   3.964   1.078   0.237  0.9672  0.3529  0.1474
 4852SOL    HW226193   3.948   1.136   0.108  0.7812  0.5184 -0.2167
 4853SOL     OW26194   3.987   2.482   1.994  0.0046 -0.1220 -0.4951
 4853SOL    HW126195   3.967   2.419   1.925 -1.3899 -0.2611  0.0500
 4853SOL    HW226196   4.074   2.507   1.963 -0.1866  1.3936  0.1577
 4854SOL     OW26197   0.639   1.195   0.849  0.2235 -0.9995  0.6796
 4854SOL    HW126198   0.705   1.242   0.797  1.2916 -0.9920  2.0657
 4854SOL    HW226199   0.688   1.116   0.871 -0.0866 -1.1610  0.7951
 4855SOL     OW26200   3.481   3.678   1.588 -0.6731  0.3089  0.2059
 4855SOL    HW126201   3.421   3.729   1.534  1.0424  2.2359  0.1367
 4855SOL    HW226202   3.427   3.670   1.667 -2.2449 -1.1148 -1.0138
 4856SOL     OW26203   4.046   0.647   6.373  0.0756  0.3782  0.7186
 4856SOL    HW126204   3.999   0.613   6.297 -0.4166  3.5885 -0.4005
 4856SOL    HW226205   4.001   0.729   6.391 -0.4092  0.2342  0.1326
 4857SOL     OW26206   1.371   2.850   6.358  0.2926 -0.2906  0.5075
 4857SOL    HW126207   1.460   2.863   6.325 -0.7323 -2.3060 -3.0719
 4857SOL    HW226208   1.355   2.764   6.320  0.8170 -0.9713  1.8326
 4858SOL     OW26209   2.273   4.225   4.434  0.1864 -0.1235  0.4092
 4858SOL    HW126210   2.317   4.195   4.354 -1.3164  0.4240 -0.6209
 4858SOL    HW226211   2.341   4.266   4.488 -1.1578  2.8922 -0.1972
 4859SOL     OW26212   3.484   0.770  13.420 -0.3012  0.6667 -0.4293
 4859SOL    HW126213   3.562   0.764  13.475 -0.1508  1.4996 -0.5529
 4859SOL    HW226214   3.523   0.762  13.333  2.1441 -0.1581  0.7357
 4860SOL     OW26215   0.073   3.551  12.795 -0.4784 -0.0372 -0.2508
 4860SOL    HW126216   4.736   3.573  12.742 -0.3483  0.1800 -0.3448
 4860SOL    HW226217   0.117   3.483  12.743 -2.8567 -2.3116  0.6843
 4861SOL     OW26218   4.679   1.570  15.570  0.4715  0.2237 -0.2298
 4861SOL    HW126219   4.691   1.589  15.477 -1.0506 -0.3917 -0.5538
 4861SOL    HW226220   0.026   1.585  15.608  0.6387  0.4703 -0.7148
 4862SOL     OW26221   1.371   4.434  12.103  0.2298 -0.5865  0.2643
 4862SOL    HW126222   1.414   4.460  12.021 -1.3501  1.0016 -0.0418
 4862SOL    HW226223   1.349   4.343  12.080 -0.0727 -0.8018  1.4236
 4863SOL     OW26224   1.962   2.546   8.216  0.2456  0.1023 -0.1587
 4863SOL    HW126225   1.978   2.639   8.203 -1.0621  0.6461  2.1984
 4863SOL    HW226226   1.988   2.505   8.133  1.8371  1.4176 -0.3201
 4864SOL     OW26227   4.579   3.186   5.525  0.2906  0.4363 -0.4690
 4864SOL    HW126228   4.644   3.145   5.583  2.0394  0.3720 -2.4742
 4864SOL    HW226229   4.621   3.182   5.439 -0.3219 -0.9570 -0.6886
 4865SOL     OW26230   3.829   3.844   2.822 -0.0486  0.2892 -0.2537
 4865SOL    HW126231   3.822   3.836   2.727  0.5781 -1.0441 -0.1880
 4865SOL    HW226232   3.741   3.817   2.848  0.6863 -0.7052  1.1522
 4866SOL     OW26233   3.776   0.247   6.203 -0.4528 -0.0670 -0.2020
 4866SOL    HW126234   3.842   0.233   6.135 -0.4390  1.0444 -0.4079
 4866SOL    HW226235   3.699   0.235   6.146 -2.0727  0.0846  1.9576
 4867SOL     OW26236   3.989   3.976   3.314 -0.0694 -1.0360  0.4735
 4867SOL    HW126237   4.081   3.976   3.341 -0.3318  2.2509  1.3456
 4867SOL    HW226238   4.002   3.944   3.225  1.3712  2.5781 -0.5884
 4868SOL     OW26239   2.046   4.267   6.380 -0.2855  0.0513  0.6763
 4868SOL    HW126240   2.133   4.256   6.420  0.0360  2.3664  0.6073
 4868SOL    HW226241   2.030   4.361   6.388 -0.3455  0.1754 -0.8047
 4869SOL     OW26242   2.020   3.870   8.234 -0.1612 -0.7622  0.7499
 4869SOL    HW126243   2.058   3.857   8.321  1.6858 -2.0546 -0.2578
 4869SOL    HW226244   1.961   3.794   8.229 -2.2617  1.0295 -1.8865
 4870SOL     OW26245   0.197   1.399  17.071 -0.0542  0.0634  0.5314
 4870SOL    HW126246   0.173   1.455  17.144 -0.8470 -1.9799  1.8174
 4870SOL    HW226247   0.110   1.368  17.044  0.4518  0.8807 -2.1017
 4871SOL     OW26248   1.286   3.157   4.083 -0.1233 -0.0312 -0.2362
 4871SOL    HW126249   1.375   3.175   4.052 -0.0519  1.3702  0.7810
 4871SOL    HW226250   1.235   3.192   4.010  0.5950 -0.5874 -1.0097
 4872SOL     OW26251   4.448   0.513   2.586  0.0402 -0.1860  1.1024
 4872SOL    HW126252   4.422   0.605   2.586 -0.9990 -0.4825  1.8548
 4872SOL    HW226253   4.535   0.525   2.548 -0.0271  0.2074  1.0722
 4873SOL     OW26254   0.253   1.889   9.658  0.1972 -0.2725 -0.3063
 4873SOL    HW126255   0.286   1.820   9.600 -0.8319 -2.6987  1.9877
 4873SOL    HW226256   0.163   1.862   9.675  0.1981  0.6622  1.1963
 4874SOL     OW26257   3.109   4.468   8.446  0.0246  0.5030 -0.1463
 4874SOL    HW126258   3.086   4.480   8.354  0.0493  0.5814 -0.1422
 4874SOL    HW226259   3.094   4.375   8.463  1.8881  0.7247  2.7571
 4875SOL     OW26260   3.053   1.830   8.267 -0.1086 -0.3882  0.9203
 4875SOL    HW126261   3.072   1.739   8.289  2.0471 -0.2237 -0.2141
 4875SOL    HW226262   3.140   1.871   8.276 -0.3976  1.0472 -2.9971
 4876SOL     OW26263   0.169   4.150   3.087  0.2742 -0.4268  0.4049
 4876SOL    HW126264   0.106   4.186   3.149 -0.3330  2.1518 -1.6862
 4876SOL    HW226265   0.239   4.214   3.104 -1.0176  0.5897  1.8998
 4877SOL     OW26266   0.128   3.684   0.878 -0.1551 -0.2311  0.0425
 4877SOL    HW126267   0.171   3.604   0.851  0.4346 -0.4476  1.6246
 4877SOL    HW226268   0.205   3.736   0.901  0.1959 -0.3794 -0.7991
 4878SOL     OW26269   4.047   1.342   4.098 -0.1465  0.2027 -0.1017
 4878SOL    HW126270   3.991   1.283   4.148 -0.9572  0.7330 -0.3939
 4878SOL    HW226271   4.133   1.300   4.106 -0.4369 -0.3407  0.1617
 4879SOL     OW26272   3.092   1.409  17.157 -0.2862 -0.2108  0.8497
 4879SOL    HW126273   3.078   1.428  17.249 -3.1756 -1.8249  0.7508
 4879SOL    HW226274   3.002   1.417  17.124 -0.6631 -3.5637  1.0428
 4880SOL     OW26275   1.553   2.753   7.491  0.2847 -0.6848 -0.3169
 4880SOL    HW126276   1.618   2.693   7.453  0.1159 -1.7824  1.1309
 4880SOL    HW226277   1.559   2.720   7.581  0.3635 -0.7115 -0.3321
 4881SOL     OW26278   0.398   1.256  11.100 -0.1641 -0.5188  0.3390
 4881SOL    HW126279   0.422   1.286  11.012 -0.3229 -1.3901 -0.0062
 4881SOL    HW226280   0.389   1.335  11.153 -1.0841 -0.3993 -0.0038
 4882SOL     OW26281   3.247   2.957   6.296 -0.3554 -0.0477  0.3862
 4882SOL    HW126282   3.157   2.933   6.271 -0.3564 -0.9153  1.2294
 4882SOL    HW226283   3.226   3.020   6.364 -0.8395 -1.8901  1.9438
 4883SOL     OW26284   4.488   4.545   3.855  0.2309  0.0128 -0.0167
 4883SOL    HW126285   4.447   4.602   3.789 -1.2150 -1.9265 -0.7740
 4883SOL    HW226286   4.512   4.468   3.803  0.3344 -0.0754  0.1634
 4884SOL     OW26287   2.064   3.913  17.650 -0.3799  0.6385 -0.7104
 4884SOL    HW126288   2.043   4.003  17.627 -2.6749  0.2930 -0.0633
 4884SOL    HW226289   2.022   3.912  17.736 -1.4238  1.5839 -1.2152
 4885SOL     OW26290   4.277   1.842   2.962  0.0465  0.1579  0.0793
 4885SOL    HW126291   4.285   1.782   3.036 -0.3752  0.0109  0.0061
 4885SOL    HW226292   4.183   1.833   2.948  0.0396 -0.8386  0.7951
 4886SOL     OW26293   0.540   0.303  16.217  0.4294 -0.2826  0.2371
 4886SOL    HW126294   0.572   0.298  16.307 -0.6872  0.2363  0.6602
 4886SOL    HW226295   0.533   0.210  16.196 -1.1942 -0.2812  0.7516
 4887SOL     OW26296   3.684   4.516   9.386  0.1979  0.2136 -0.2727
 4887SOL    HW126297   3.677   4.608   9.362  0.7550  0.0475 -1.0777
 4887SOL    HW226298   3.718   4.511   9.476 -1.4557 -0.5171  0.3136
 4888SOL     OW26299   1.631   1.079   7.756 -0.3015  0.5367 -0.0580
 4888SOL    HW126300   1.680   1.160   7.746  0.2916  0.2648  0.6704
 4888SOL    HW226301   1.700   1.014   7.743 -1.0964 -0.5176  0.9971
 4889SOL     OW26302   2.039   4.399   6.039 -0.4771 -0.7538  0.4744
 4889SOL    HW126303   1.999   4.350   5.967 -0.2618 -1.4088  0.7973
 4889SOL    HW226304   2.078   4.334   6.098  1.1034 -0.5122 -0.3001
 4890SOL     OW26305   0.473   0.957  10.856  0.4044  0.0130 -0.2180
 4890SOL    HW126306   0.480   1.007  10.937 -1.5475 -1.4338  0.8509
 4890SOL    HW226307   0.401   0.902  10.887  1.6416 -2.4575 -1.7255
 4891SOL     OW26308   1.206   0.476  11.887  0.0281 -0.1621 -0.0016
 4891SOL    HW126309   1.246   0.413  11.827 -2.0165  0.2817 -1.8178
 4891SOL    HW226310   1.272   0.545  11.896  0.4641 -0.5996  0.1256
 4892SOL     OW26311   0.507   0.235   2.592  0.7063  0.0611 -0.4909
 4892SOL    HW126312   0.568   0.189   2.649 -2.1223 -1.8661  0.9962
 4892SOL    HW226313   0.499   0.161   2.532  3.6502  1.0861 -2.1171
 4893SOL     OW26314   2.766   3.439   8.484 -0.5111 -0.0558  0.9863
 4893SOL    HW126315   2.741   3.349   8.506  1.5029 -0.5825  1.1373
 4893SOL    HW226316   2.860   3.449   8.502 -0.3672 -0.1172  0.2727
 4894SOL     OW26317   3.328   2.334   6.775 -0.3997 -0.3459 -0.0516
 4894SOL    HW126318   3.287   2.416   6.803  1.1346  0.2250  0.5162
 4894SOL    HW226319   3.418   2.357   6.799 -0.7569  0.0207  0.9457
 4895SOL     OW26320   4.621   2.543   8.422  0.9770  0.5421  0.4669
 4895SOL    HW126321   4.663   2.519   8.505 -2.9558 -1.8311  1.7861
 4895SOL    HW226322   4.701   2.570   8.377  1.5151  0.5793  1.4490
 4896SOL     OW26323   2.455   2.439   3.367  0.0027  0.3321 -0.0227
 4896SOL    HW126324   2.461   2.515   3.425 -0.4257 -0.3058  0.8626
 4896SOL    HW226325   2.373   2.458   3.323  0.5236  0.7742 -0.8033
 4897SOL     OW26326   3.644   1.351   8.431  0.1767  0.1684 -0.4070
 4897SOL    HW126327   3.714   1.394   8.382  0.3946  0.2112 -0.0563
 4897SOL    HW226328   3.658   1.390   8.517  0.2076 -3.5621  1.3077
 4898SOL     OW26329   1.340   1.186   3.155 -0.6693 -0.3387 -0.2146
 4898SOL    HW126330   1.271   1.251   3.166  1.0171  1.3755  0.1512
 4898SOL    HW226331   1.308   1.130   3.084  3.9995 -1.8270 -1.1484
 4899SOL     OW26332   1.623   1.309   9.651 -0.0150 -0.2393  0.3764
 4899SOL    HW126333   1.613   1.216   9.629  0.8707 -0.0054 -0.9859
 4899SOL    HW226334   1.717   1.307   9.668  0.1198 -0.3513 -0.4076
 4900SOL     OW26335   1.893   4.188   0.104 -0.0169 -0.4041  0.6483
 4900SOL    HW126336   1.929   4.268   0.143 -0.2415  0.7393 -1.4800
 4900SOL    HW226337   1.943   4.113   0.136  0.7363 -0.1424  0.0904
 4901SOL     OW26338   4.080   3.593   2.575  0.6208  0.0277  0.0389
 4901SOL    HW126339   4.098   3.530   2.505 -1.0187 -1.5277  1.0044
 4901SOL    HW226340   3.985   3.606   2.565  0.4632 -0.4007  0.9609
 4902SOL     OW26341   4.136   1.949   8.498 -0.5785  0.3663  0.0515
 4902SOL    HW126342   4.126   2.011   8.570 -0.6701  1.6880 -1.1034
 4902SOL    HW226343   4.114   2.008   8.426  4.0420  0.1800 -1.5414
 4903SOL     OW26344   3.950   4.346  16.952  0.2266 -0.5958  0.1407
 4903SOL    HW126345   4.006   4.302  16.889  1.4143 -0.0716  0.8409
 4903SOL    HW226346   4.006   4.366  17.027 -1.0600 -0.3823  1.0424
 4904SOL     OW26347   1.022   1.941  16.887 -0.0364  0.2574 -0.4504
 4904SOL    HW126348   0.951   1.997  16.919  0.2900 -0.4605  1.5329
 4904SOL    HW226349   1.095   1.990  16.926  0.6193 -0.0654 -1.2838
 4905SOL     OW26350   1.208   0.477   2.516  0.0208 -0.1612 -0.2161
 4905SOL    HW126351   1.254   0.428   2.449  1.0482 -0.2432  0.5432
 4905SOL    HW226352   1.154   0.408   2.554  0.1222  0.7001  1.4936
 4906SOL     OW26353   1.478   3.665   9.160 -0.0937 -0.2385 -0.2104
 4906SOL    HW126354   1.498   3.707   9.077 -0.9404 -0.5390 -0.5672
 4906SOL    HW226355   1.569   3.669   9.189  0.2344 -1.3432 -1.1368
 4907SOL     OW26356   3.400   0.002  11.502 -0.2489  0.1064 -0.3520
 4907SOL    HW126357   3.468   4.674  11.503 -1.6682 -1.3584 -1.6441
 4907SOL    HW226358   3.407   0.019  11.596 -0.3793  0.2295 -0.3640
 4908SOL     OW26359   4.611   0.112   9.832 -0.0298  0.2173  0.1152
 4908SOL    HW126360   4.661   0.031   9.820 -0.6370 -0.0960 -0.2877
 4908SOL    HW226361   4.620   0.122   9.927  0.3605  1.3680 -0.0425
 4909SOL     OW26362   4.334   1.249   5.603 -0.1539  0.2601 -0.5422
 4909SOL    HW126363   4.391   1.178   5.630  0.9949  1.4451  0.1342
 4909SOL    HW226364   4.394   1.322   5.619  0.1864  0.0437 -0.8437
 4910SOL     OW26365   0.521   0.797  16.144 -0.0181  0.1201 -0.6082
 4910SOL    HW126366   0.509   0.703  16.127  1.9059 -0.1143 -0.6784
 4910SOL    HW226367   0.517   0.840  16.058  0.6073 -1.1741 -1.2980
 4911SOL     OW26368   2.078   3.358   6.731 -0.5893 -0.3881  0.6555
 4911SOL    HW126369   2.057   3.357   6.824  1.5740  0.4877  1.1490
 4911SOL    HW226370   2.122   3.275   6.715 -0.1041  0.5238 -2.7638
 4912SOL     OW26371   0.588   3.765   2.134 -0.0674  0.0603  0.6329
 4912SOL    HW126372   0.585   3.766   2.229  0.1885 -0.0456  0.6400
 4912SOL    HW226373   0.578   3.671   2.117 -0.5655  0.5574 -1.8813
 4913SOL     OW26374   3.190   1.674  16.201  0.0429  1.0993  0.4538
 4913SOL    HW126375   3.207   1.637  16.287  0.7931 -1.6073 -0.8416
 4913SOL    HW226376   3.178   1.766  16.221  2.2272  1.6224 -0.6386
 4914SOL     OW26377   0.988   1.735   6.443  0.0925  0.0105  0.3193
 4914SOL    HW126378   0.978   1.775   6.529 -3.1362 -0.4164  0.1479
 4914SOL    HW226379   1.055   1.669   6.462  0.3873  0.4272  0.7222
 4915SOL     OW26380   0.379   1.041   2.781  0.3365  0.2466 -0.0246
 4915SOL    HW126381   0.419   1.044   2.694  3.0097  0.7580  1.2173
 4915SOL    HW226382   0.453   1.056   2.840  0.5532  0.3854 -0.3330
 4916SOL     OW26383   3.567   4.059  16.438  0.1270  0.2495  0.2381
 4916SOL    HW126384   3.615   4.100  16.511  0.9458  1.3930 -0.9570
 4916SOL    HW226385   3.547   4.137  16.387 -0.7528 -0.3596 -0.3365
 4917SOL     OW26386   1.569   0.776   7.601 -0.4277  0.5897 -0.3105
 4917SOL    HW126387   1.612   0.853   7.638 -1.0752  0.5562  0.5090
 4917SOL    HW226388   1.481   0.815   7.602 -0.0180  1.5763 -1.5934
 4918SOL     OW26389   3.384   3.637  10.152  0.2048  0.3223  0.0029
 4918SOL    HW126390   3.397   3.598  10.066 -2.5306  0.2067 -0.3566
 4918SOL    HW226391   3.446   3.581  10.198  2.9327  2.4178 -1.1400
 4919SOL     OW26392   0.710   0.000   0.049 -0.2705  0.0478  0.5617
 4919SOL    HW126393   0.683   4.663  17.755 -1.9111  1.0918 -0.1625
 4919SOL    HW226394   0.763   4.695   0.115  1.2291  1.2207  0.1421
 4920SOL     OW26395   0.160   4.684   8.186  0.0356 -0.1772 -0.4438
 4920SOL    HW126396   0.083   4.628   8.189  0.0172 -0.2041 -1.5161
 4920SOL    HW226397   0.195   4.673   8.097 -2.5067  0.4983 -1.5304
 4921SOL     OW26398   4.034   0.074   9.327  0.1616  0.0371 -0.6594
 4921SOL    HW126399   4.113   0.125   9.345  1.1420 -0.6945 -2.8730
 4921SOL    HW226400   4.074   4.737   9.286  0.0033 -1.8735  2.6938
 4922SOL     OW26401   3.316   2.309  11.266  0.1032 -0.1148 -0.4584
 4922SOL    HW126402   3.228   2.292  11.299  1.6415 -1.1893  3.1026
 4922SOL    HW226403   3.354   2.355  11.340 -0.7674 -1.8245  1.0539
 4923SOL     OW26404   4.095   3.281   9.948  0.8765 -0.1027 -0.0178
 4923SOL    HW126405   4.109   3.374   9.964  0.0878 -0.2465  1.4173
 4923SOL    HW226406   4.013   3.273   9.995  0.5260 -0.4070 -0.6799
 4924SOL     OW26407   2.800   4.032  15.858  0.0569  0.2124  0.5132
 4924SOL    HW126408   2.766   4.067  15.775 -2.1537 -2.1141  0.4286
 4924SOL    HW226409   2.773   4.101  15.919 -1.4172  1.1162 -1.1134
 4925SOL     OW26410   3.297   3.868   1.823  0.0721  0.3347  0.3738
 4925SOL    HW126411   3.245   3.794   1.791  2.0923 -1.1731  0.5959
 4925SOL    HW226412   3.348   3.899   1.748  0.2223 -1.1559 -0.1424
 4926SOL     OW26413   3.909   3.570   2.312  0.0374  0.0486 -0.0659
 4926SOL    HW126414   3.984   3.511   2.321 -0.4705 -0.2614  2.0912
 4926SOL    HW226415   3.839   3.506   2.325 -0.5290  0.2188 -2.4694
 4927SOL     OW26416   0.700   4.577   9.740  0.3672 -0.2595  0.3373
 4927SOL    HW126417   0.663   4.653   9.696  0.1769 -2.1562 -2.8172
 4927SOL    HW226418   0.656   4.593   9.823 -0.0388  1.0408 -0.1355
 4928SOL     OW26419   4.007   2.228   2.480  0.4934 -0.2379 -0.3540
 4928SOL    HW126420   3.931   2.232   2.422  0.2408  0.5528  0.0260
 4928SOL    HW226421   4.045   2.142   2.460 -1.8534 -0.8840 -2.0672
 4929SOL     OW26422   2.438   4.157   4.218  0.0959  0.8213  0.0437
 4929SOL    HW126423   2.500   4.225   4.190  1.3719 -0.7335 -0.8774
 4929SOL    HW226424   2.405   4.132   4.131 -0.7882  0.2075  0.5608
 4930SOL     OW26425   2.349   3.579  11.540  0.9524 -0.0853  0.0454
 4930SOL    HW126426   2.294   3.606  11.614  2.1715  1.4811  0.4013
 4930SOL    HW226427   2.434   3.601  11.580  1.2550 -1.3184  0.0838
 4931SOL     OW26428   3.649   4.224   6.266  0.4366 -0.1271 -0.2225
 4931SOL    HW126429   3.613   4.285   6.201 -0.4219 -1.1877 -0.7490
 4931SOL    HW226430   3.721   4.181   6.220  0.5087 -0.6823  0.4016
 4932SOL     OW26431   4.346   1.576  16.048  0.2075  0.6204  0.1993
 4932SOL    HW126432   4.350   1.667  16.079  0.6145  0.8338 -0.4898
 4932SOL    HW226433   4.423   1.572  15.992 -1.3371 -2.2514 -1.6961
 4933SOL     OW26434   1.812   0.910   7.735 -0.1260  0.9820 -0.6534
 4933SOL    HW126435   1.881   0.936   7.674  2.3159 -1.2901  1.1549
 4933SOL    HW226436   1.872   0.906   7.809 -0.7355  2.0977 -0.0843
 4934SOL     OW26437   1.180   1.515   8.800 -0.2587 -0.1015  0.8687
 4934SOL    HW126438   1.097   1.468   8.789  0.2410 -0.5001 -1.0775
 4934SOL    HW226439   1.164   1.564   8.881 -0.7568  0.4256  0.4519
 4935SOL     OW26440   1.342   0.609   4.730  0.1355  0.1107  0.0480
 4935SOL    HW126441   1.401   0.535   4.738  1.1530  1.1379  2.1151
 4935SOL    HW226442   1.408   0.677   4.715 -1.3578  0.8319 -3.2693
 4936SOL     OW26443   1.752   3.956  13.619 -0.0196  0.3992 -0.0038
 4936SOL    HW126444   1.756   3.926  13.529 -0.9656  1.1760 -0.2922
 4936SOL    HW226445   1.764   3.870  13.660 -0.0266  0.3449 -0.1173
 4937SOL     OW26446   2.219   1.319   2.047  0.4394 -0.7358 -0.1553
 4937SOL    HW126447   2.240   1.225   2.048  1.0298 -0.6054 -0.0406
 4937SOL    HW226448   2.207   1.330   2.141  0.8760 -0.4816 -0.1271
 4938SOL     OW26449   1.133   1.264  17.442  0.2962 -0.4297 -0.4751
 4938SOL    HW126450   1.054   1.318  17.447  1.2120  0.8943 -0.2654
 4938SOL    HW226451   1.112   1.212  17.519  1.0112 -0.2450 -0.1619
 4939SOL     OW26452   3.528   3.050   9.260  0.6391 -0.1326 -0.4193
 4939SOL    HW126453   3.468   2.995   9.310 -0.5861  0.0129 -1.7646
 4939SOL    HW226454   3.585   3.083   9.331 -0.2527  1.6679 -0.5419
 4940SOL     OW26455   3.632   1.497   9.391 -0.2522 -0.6460  0.2098
 4940SOL    HW126456   3.652   1.512   9.483  0.7865 -2.8246  0.3351
 4940SOL    HW226457   3.627   1.401   9.388 -3.6623 -0.4620 -0.3213
 4941SOL     OW26458   2.845   3.488   0.014  0.3366  1.2109  0.4446
 4941SOL    HW126459   2.844   3.414   0.075  1.7947  1.5549  0.8712
 4941SOL    HW226460   2.934   3.479  17.735 -0.0679  0.6288 -0.4592
 4942SOL     OW26461   0.206   2.700   2.496 -0.2168 -0.1745  0.2982
 4942SOL    HW126462   0.264   2.724   2.425  0.1225  0.2194  0.7058
 4942SOL    HW226463   0.170   2.788   2.505  1.8646  0.5388  1.5935
 4943SOL     OW26464   3.703   2.703   2.621 -0.0230 -0.3080  0.7816
 4943SOL    HW126465   3.775   2.741   2.569 -2.1142  4.2152  1.1583
 4943SOL    HW226466   3.722   2.743   2.706  1.1683  0.5731  0.1170
 4944SOL     OW26467   2.518   3.638   8.798  0.1672  0.0158 -0.6258
 4944SOL    HW126468   2.554   3.553   8.773  1.2389 -0.0863  1.1984
 4944SOL    HW226469   2.471   3.632   8.882  0.4528 -1.3128 -0.5495
 4945SOL     OW26470   3.248   1.454  14.910  0.3558  0.1995 -0.8406
 4945SOL    HW126471   3.311   1.525  14.916  1.1503 -0.6534  0.9045
 4945SOL    HW226472   3.202   1.461  14.827  0.6409 -0.5581 -1.0623
 4946SOL     OW26473   1.001   4.446   7.359 -0.2204  1.0797 -0.0060
 4946SOL    HW126474   0.971   4.473   7.445  2.1651 -0.1524  1.1932
 4946SOL    HW226475   0.940   4.375   7.341  0.5984  0.4756 -0.4399
 4947SOL     OW26476   1.234   0.079   2.269  0.9305 -0.0211  0.7467
 4947SOL    HW126477   1.150   0.068   2.224  1.4232  3.6629 -1.0655
 4947SOL    HW226478   1.206   0.077   2.360  1.7494  1.9733  1.0375
 4948SOL     OW26479   3.740   2.712  16.242  0.7747 -0.5183 -0.5518
 4948SOL    HW126480   3.693   2.682  16.320  0.3160  1.4589 -0.0686
 4948SOL    HW226481   3.827   2.672  16.243  1.6874  1.5078 -0.2269
 4949SOL     OW26482   3.433   2.638   2.576 -0.2976 -0.5775  0.2483
 4949SOL    HW126483   3.524   2.634   2.607 -0.3333  1.9052  0.6546
 4949SOL    HW226484   3.373   2.601   2.641 -0.4632  0.1904  0.5373
 4950SOL     OW26485   4.653   1.715   7.650 -0.1209  0.1731 -0.0573
 4950SOL    HW126486   4.708   1.650   7.693 -0.8200  0.5196  1.3422
 4950SOL    HW226487   4.713   1.748   7.583  0.7072 -2.0215 -0.3848
 4951SOL     OW26488   3.484   2.482   8.129  0.3087 -0.1104 -0.3776
 4951SOL    HW126489   3.394   2.466   8.158  1.1596 -1.2706  1.6113
 4951SOL    HW226490   3.502   2.393   8.099 -3.5148 -0.7346 -0.8498
 4952SOL     OW26491   2.993   3.041   1.368  0.0762  0.3078  0.2456
 4952SOL    HW126492   2.999   3.120   1.314 -0.5751 -0.5268 -1.0420
 4952SOL    HW226493   3.079   3.035   1.410  0.0387 -1.5513  0.0587
 4953SOL     OW26494   1.463   1.480   9.784  0.2013 -1.1688 -0.6930
 4953SOL    HW126495   1.471   1.428   9.864 -0.4627  0.9935  0.7728
 4953SOL    HW226496   1.518   1.426   9.728  1.1315 -0.2673 -0.6359
 4954SOL     OW26497   0.661   0.238  13.211  0.3614  0.1115 -0.5981
 4954SOL    HW126498   0.669   0.262  13.118  1.0629 -2.0166 -1.0816
 4954SOL    HW226499   0.613   0.158  13.190 -2.3393  0.9407  2.5580
 4955SOL     OW26500   4.192   4.174   0.947 -0.7123 -0.1086  0.4115
 4955SOL    HW126501   4.253   4.141   1.013 -0.7302 -1.1224 -0.0757
 4955SOL    HW226502   4.119   4.128   0.987 -0.4835  0.0349  0.9866
 4956SOL     OW26503   3.510   2.021  10.415 -0.4129  0.0686  0.1928
 4956SOL    HW126504   3.453   2.024  10.491  0.1650 -0.5299  0.6466
 4956SOL    HW226505   3.533   1.929  10.428  1.9357  0.5898 -0.2450
 4957SOL     OW26506   2.516   2.846   3.188  0.2651  0.9977  0.0239
 4957SOL    HW126507   2.454   2.823   3.118  3.1729  1.6659 -2.7588
 4957SOL    HW226508   2.460   2.892   3.251  0.4062 -1.1718  1.7270
 4958SOL     OW26509   3.748   0.621   5.527 -0.0100 -0.0429  0.0464
 4958SOL    HW126510   3.804   0.625   5.450 -0.2880  0.8510 -0.1214
 4958SOL    HW226511   3.774   0.698   5.578 -0.8502  1.1789 -1.3796
 4959SOL     OW26512   2.440   1.635   2.608 -1.1647  0.2254 -0.5119
 4959SOL    HW126513   2.473   1.704   2.667 -2.7453 -0.2477  0.9450
 4959SOL    HW226514   2.518   1.619   2.556 -0.6327 -0.3395  0.4636
 4960SOL     OW26515   2.698   4.095  10.398 -0.1601  0.4837  0.6611
 4960SOL    HW126516   2.710   4.181  10.438  1.3416  0.4249  0.3172
 4960SOL    HW226517   2.669   4.040  10.470  1.9163 -1.9582 -0.3878
 4961SOL     OW26518   4.345   2.756   7.397 -0.2458 -0.0966 -0.0123
 4961SOL    HW126519   4.433   2.786   7.377  0.6513 -1.9995  1.0980
 4961SOL    HW226520   4.320   2.695   7.328 -0.3224  0.1591 -0.2125
 4962SOL     OW26521   0.991   3.686   7.840  0.4110 -0.1237  0.2752
 4962SOL    HW126522   1.069   3.728   7.874  0.0445 -0.0391  1.0008
 4962SOL    HW226523   1.014   3.673   7.748  1.1411 -0.9368  0.5781
 4963SOL     OW26524   4.519   3.465   4.171 -0.2093 -0.4808  0.3107
 4963SOL    HW126525   4.492   3.481   4.261 -0.7258  3.1125 -0.4931
 4963SOL    HW226526   4.615   3.460   4.169 -0.1012  1.0506  1.7016
 4964SOL     OW26527   1.894   3.203   2.040 -0.0252  0.0955 -0.1637
 4964SOL    HW126528   1.925   3.238   2.123 -2.5835  2.2759 -0.1653
 4964SOL    HW226529   1.819   3.257   2.015 -0.9634 -1.3176 -0.4558
 4965SOL     OW26530   1.877   0.056   6.012 -0.8990 -0.9435 -0.2382
 4965SOL    HW126531   1.929   0.068   5.932  0.1378  0.3992  0.6311
 4965SOL    HW226532   1.940   0.009   6.066  0.1407 -1.1449 -1.6329
 4966SOL     OW26533   1.170   3.625  11.218 -0.5335 -0.1742 -0.1163
 4966SOL    HW126534   1.204   3.714  11.224  1.8617 -1.1511  0.6945
 4966SOL    HW226535   1.246   3.571  11.197  0.1476 -0.1375  2.1867
 4967SOL     OW26536   1.433   2.772   9.179  0.2637 -0.2391 -0.0248
 4967SOL    HW126537   1.452   2.684   9.213  2.4573  1.0562  2.0845
 4967SOL    HW226538   1.398   2.815   9.257 -2.6208 -0.4695 -1.1879
 4968SOL     OW26539   2.669   3.310   2.669  0.0686  0.2377  0.4164
 4968SOL    HW126540   2.587   3.323   2.717  0.0256  3.7197 -0.5322
 4968SOL    HW226541   2.717   3.255   2.731 -0.2999 -1.1005 -0.4958
 4969SOL     OW26542   0.220   2.140   6.418 -0.0547 -0.3747  0.2631
 4969SOL    HW126543   0.236   2.166   6.327  0.4329  1.4213  0.8695
 4969SOL    HW226544   0.278   2.064   6.422  0.0868 -0.2583  0.4048
 4970SOL     OW26545   2.035   2.372   1.100  0.3979  0.1161  0.5820
 4970SOL    HW126546   2.023   2.435   1.171 -0.1333 -0.3129  0.8713
 4970SOL    HW226547   2.127   2.370   1.075  0.0787 -0.6594 -0.5473
 4971SOL     OW26548   1.810   3.244  15.159  0.3548  0.1645  0.2341
 4971SOL    HW126549   1.897   3.253  15.120  0.0965  1.1118 -0.1273
 4971SOL    HW226550   1.786   3.336  15.174 -1.2094  0.0044 -1.2762
 4972SOL     OW26551   1.180   0.057   6.214  0.3127 -0.0288 -0.2215
 4972SOL    HW126552   1.109   0.031   6.271  2.4611 -2.8899  1.1340
 4972SOL    HW226553   1.149   0.130   6.160  1.9700  0.8860  0.0443
 4973SOL     OW26554   0.311   2.552   4.423 -0.1699  0.1045 -0.8009
 4973SOL    HW126555   0.385   2.602   4.457 -0.9347  1.0973 -0.6105
 4973SOL    HW226556   0.240   2.616   4.418 -0.7091 -0.4104  0.3834
 4974SOL     OW26557   4.665   1.713  11.107  0.0914  0.2252 -0.7099
 4974SOL    HW126558   0.007   1.715  11.057  0.5641  1.5642  0.1163
 4974SOL    HW226559   4.610   1.750  11.039 -2.0692 -1.9335 -0.1543
 4975SOL     OW26560   1.349   1.733   0.116 -0.2308  0.1221  0.1929
 4975SOL    HW126561   1.441   1.760   0.108 -0.3455  0.2958 -0.5663
 4975SOL    HW226562   1.300   1.809   0.083 -0.1943  0.5623  1.1573
 4976SOL     OW26563   0.208   0.453  15.966 -0.5351  0.0026  0.2361
 4976SOL    HW126564   0.232   0.511  15.894  1.6156 -0.0988  0.8560
 4976SOL    HW226565   0.243   0.372  15.930 -0.9717 -0.4301  0.8018
 4977SOL     OW26566   3.786   2.147   3.835 -0.1034  0.4198 -0.1420
 4977SOL    HW126567   3.860   2.207   3.846  0.1281  0.2327 -0.6689
 4977SOL    HW226568   3.820   2.066   3.873 -0.5233 -0.6980 -2.1516
 4978SOL     OW26569   4.055   2.800   9.009  0.4298 -0.3563 -0.3085
 4978SOL    HW126570   4.146   2.824   9.027  0.7746 -1.6233 -0.3503
 4978SOL    HW226571   4.028   2.760   9.091 -0.6242 -1.7383 -1.3277
 4979SOL     OW26572   2.236   3.580   1.141 -0.0290 -0.5097 -0.1313
 4979SOL    HW126573   2.223   3.583   1.236  0.9995  0.1185 -0.0134
 4979SOL    HW226574   2.330   3.572   1.125 -0.1137 -0.5620 -0.6138
 4980SOL     OW26575   3.333   4.226   2.831 -0.0140 -0.2344  0.8952
 4980SOL    HW126576   3.254   4.227   2.885 -1.8282  0.9494 -1.7933
 4980SOL    HW226577   3.287   4.188   2.756  0.2908 -2.8534  2.0326
 4981SOL     OW26578   1.367   2.159   3.849 -0.2695  0.0262 -0.2396
 4981SOL    HW126579   1.373   2.158   3.753  0.2385 -0.7299 -0.1967
 4981SOL    HW226580   1.296   2.095   3.854 -0.0020 -0.4662 -2.8111
 4982SOL     OW26581   3.359   3.925   7.975 -0.2642 -0.2172  0.0967
 4982SOL    HW126582   3.343   4.019   7.981  0.7302  0.1028 -2.3524
 4982SOL    HW226583   3.453   3.909   7.964 -0.1293 -0.2112  1.2041
 4983SOL     OW26584   2.524   4.435   1.759  0.1238  0.2134 -0.4117
 4983SOL    HW126585   2.485   4.425   1.672 -1.7168  1.2195  0.3147
 4983SOL    HW226586   2.471   4.366   1.799  1.3518 -0.9113 -0.7158
 4984SOL     OW26587   2.111   3.904   5.372  0.0352  0.7122 -0.1137
 4984SOL    HW126588   2.069   3.869   5.294 -1.4721  0.8620  0.6294
 4984SOL    HW226589   2.135   3.989   5.335 -0.2450  0.5197 -0.7244
 4985SOL     OW26590   3.294   0.073   5.805 -0.1241 -0.0724 -0.2248
 4985SOL    HW126591   3.259   0.117   5.883 -0.8160  1.0739 -1.1718
 4985SOL    HW226592   3.367   0.019   5.836 -2.5825 -3.6048 -0.5804
 4986SOL     OW26593   0.068   3.955   0.097  0.0561  0.0225  0.0003
 4986SOL    HW126594   4.733   3.940   0.038 -0.6293  0.0406  0.8658
 4986SOL    HW226595   0.068   4.050   0.081 -1.6825 -0.1595 -1.0424
 4987SOL     OW26596   3.468   4.702   8.327  0.1906 -0.1265  0.2711
 4987SOL    HW126597   3.478   4.711   8.232 -1.1324  0.0825  0.1420
 4987SOL    HW226598   3.483   4.609   8.338 -0.4412 -0.2438  0.1532
 4988SOL     OW26599   4.190   3.577  12.164 -0.2696 -0.1306  0.2490
 4988SOL    HW126600   4.228   3.623  12.090 -1.1175 -4.5196 -2.9373
 4988SOL    HW226601   4.169   3.645  12.228 -1.9036  1.1975 -1.7056
 4989SOL     OW26602   4.263   0.852   9.484 -0.1976 -0.5074 -0.0485
 4989SOL    HW126603   4.248   0.898   9.401  2.1043 -0.7373 -0.6132
 4989SOL    HW226604   4.183   0.875   9.530 -0.7176 -0.2923 -1.0567
 4990SOL     OW26605   2.946   4.711  11.224  0.5212  0.1978 -0.3195
 4990SOL    HW126606   2.973   0.058  11.254 -0.3102 -0.2394  1.7325
 4990SOL    HW226607   3.028   4.682  11.185 -0.7393 -1.8291 -1.4558
 4991SOL     OW26608   2.284   1.886   4.223  0.5008 -0.0839  0.5517
 4991SOL    HW126609   2.335   1.958   4.187  0.4600 -0.8780 -1.0685
 4991SOL    HW226610   2.356   1.839   4.266 -0.5304  0.1944  2.5887
 4992SOL     OW26611   3.544   1.943  11.597 -0.1741  0.4632 -0.1599
 4992SOL    HW126612   3.620   1.899  11.636  0.0728 -0.6703 -1.9192
 4992SOL    HW226613   3.594   2.004  11.543  1.9009 -0.4057  0.7667
 4993SOL     OW26614   3.697   0.736   4.624  0.0804  0.0122 -0.3194
 4993SOL    HW126615   3.775   0.690   4.655 -0.0638  0.5259  0.8353
 4993SOL    HW226616   3.668   0.690   4.546 -0.4673 -1.3921  0.7186
 4994SOL     OW26617   3.190   3.409   0.620  0.2334 -0.1022 -0.7935
 4994SOL    HW126618   3.240   3.368   0.550 -0.5475 -1.6730 -0.4378
 4994SOL    HW226619   3.253   3.422   0.691 -2.6122  0.0008  1.7457
 4995SOL     OW26620   2.309   3.176   4.530  0.1913 -0.0686 -0.1377
 4995SOL    HW126621   2.296   3.186   4.436 -0.8498 -0.2052 -0.0066
 4995SOL    HW226622   2.223   3.142   4.555 -0.3393 -0.4547 -2.4570
 4996SOL     OW26623   4.193   4.322   5.865 -0.8245 -0.3352 -0.3192
 4996SOL    HW126624   4.104   4.311   5.898 -0.9866  0.5902 -0.4525
 4996SOL    HW226625   4.250   4.313   5.941  0.1427  0.4933 -0.9421
 4997SOL     OW26626   3.168   3.916   8.858 -0.4999  0.6400  0.4467
 4997SOL    HW126627   3.204   3.830   8.880 -0.6149  0.4703 -0.0333
 4997SOL    HW226628   3.192   3.958   8.941  0.0044  1.5432 -0.1608
 4998SOL     OW26629   1.698   3.504   3.184 -0.3320  0.0808 -0.6117
 4998SOL    HW126630   1.662   3.443   3.249 -0.6064  2.2328  1.2428
 4998SOL    HW226631   1.615   3.539   3.153 -1.4205 -2.5403 -0.7004
 4999SOL     OW26632   4.686   0.398  12.260 -0.2045  0.1739  0.1472
 4999SOL    HW126633   4.669   0.337  12.331 -0.7436  1.7510  1.3570
 4999SOL    HW226634   0.035   0.431  12.275 -0.1454 -0.1407  0.4856
 5000SOL     OW26635   2.471   3.055   5.188 -0.3026 -0.5786 -0.4514
 5000SOL    HW126636   2.476   3.131   5.131  2.0660  1.9177  3.0846
 5000SOL    HW226637   2.550   3.065   5.242 -0.6640  1.7821 -0.3752
 5001SOL     OW26638   4.113   3.419   2.346 -0.4349 -0.7104 -0.4939
 5001SOL    HW126639   4.206   3.423   2.324 -0.6479 -0.9374 -1.4383
 5001SOL    HW226640   4.087   3.337   2.303  1.9953 -1.1854 -1.0511
 5002SOL     OW26641   0.048   1.887  16.894 -0.2039  0.4566 -0.1233
 5002SOL    HW126642   0.109   1.878  16.820 -0.5995  0.3011 -0.4332
 5002SOL    HW226643   0.012   1.800  16.882 -0.1995  0.5281 -0.6753
 5003SOL     OW26644   1.338   3.131   2.380  0.4903  0.1490  0.2617
 5003SOL    HW126645   1.401   3.186   2.334  1.7644 -0.5378  1.1676
 5003SOL    HW226646   1.397   3.060   2.408 -1.3657 -1.2937  0.5337
 5004SOL     OW26647   4.723   1.303   4.001 -0.4965  0.1254  0.0460
 5004SOL    HW126648   4.680   1.359   4.066  1.3402  1.5609  0.0229
 5004SOL    HW226649   4.713   1.217   4.042 -1.6925 -0.0136 -0.5301
 5005SOL     OW26650   3.050   2.551   9.094 -0.4447  0.1235  0.0364
 5005SOL    HW126651   3.098   2.533   9.174 -1.7927 -0.5620  0.7005
 5005SOL    HW226652   3.095   2.487   9.040  0.5442 -0.0777  1.1048
 5006SOL     OW26653   1.070   4.681  12.968 -0.3319  0.1971  0.3640
 5006SOL    HW126654   1.016   0.005  13.016 -0.3006 -0.4921  1.3011
 5006SOL    HW226655   1.011   4.667  12.894  0.6698  3.9343 -1.1857
 5007SOL     OW26656   4.695   1.230  14.816 -0.0130  0.0809 -0.3713
 5007SOL    HW126657   4.615   1.278  14.838  1.5911  1.2622  3.0032
 5007SOL    HW226658   4.710   1.260  14.727 -0.2375 -1.3699 -0.8997
 5008SOL     OW26659   4.018   4.475  15.477 -0.3088 -0.8831 -0.4572
 5008SOL    HW126660   3.975   4.398  15.441 -0.7328 -1.4976  1.3822
 5008SOL    HW226661   3.970   4.552  15.446 -0.5260 -0.4416  0.9647
 5009SOL     OW26662   0.684   1.193   3.637  0.3302 -0.0749  0.0978
 5009SOL    HW126663   0.708   1.204   3.545 -0.7151  2.3577  0.1310
 5009SOL    HW226664   0.745   1.254   3.677  1.4543 -0.7964 -0.5332
 5010SOL     OW26665   4.445   3.424   7.099  0.0583  0.2434  0.3010
 5010SOL    HW126666   4.361   3.401   7.059 -0.8793 -0.8828  2.9286
 5010SOL    HW226667   4.478   3.334   7.102  0.8415  0.3975 -3.6845
 5011SOL     OW26668   4.116   0.130   9.750  0.2234  0.4754  0.2673
 5011SOL    HW126669   4.107   0.220   9.718  2.0075  0.2945 -0.7202
 5011SOL    HW226670   4.209   0.125   9.729  0.7950 -1.2491  3.2397
 5012SOL     OW26671   3.487   4.445   7.806 -0.2494 -0.4831 -0.0921
 5012SOL    HW126672   3.546   4.419   7.735 -0.3622 -2.6535  0.6178
 5012SOL    HW226673   3.535   4.512   7.855  0.9272 -1.7975  0.5438
 5013SOL     OW26674   2.426   0.172   3.760  0.2207  0.6113  0.2217
 5013SOL    HW126675   2.511   0.185   3.718  0.7122  0.1708  1.0883
 5013SOL    HW226676   2.379   0.240   3.713  1.4166 -0.1710 -2.1050
 5014SOL     OW26677   4.413   3.780   7.123 -0.2821 -0.6323  0.4459
 5014SOL    HW126678   4.329   3.808   7.160 -0.6016  0.7542 -1.3153
 5014SOL    HW226679   4.450   3.720   7.187  2.4973  0.0830 -0.4832
 5015SOL     OW26680   1.334   0.303   6.773  0.3154 -0.0591 -0.2223
 5015SOL    HW126681   1.308   0.249   6.699 -2.0347  0.6937  0.0793
 5015SOL    HW226682   1.363   0.236   6.836  1.8259  1.8795  1.1821
 5016SOL     OW26683   0.011   0.502   6.926  0.2234  0.7268  0.4872
 5016SOL    HW126684   0.024   0.427   6.984  1.4405  2.2927  2.2346
 5016SOL    HW226685   0.017   0.458   6.842 -1.9154 -1.5527  1.5363
 5017SOL     OW26686   0.418   1.377   1.879 -0.8316 -0.7821  0.0424
 5017SOL    HW126687   0.374   1.301   1.839  1.7588 -0.6077 -3.1198
 5017SOL    HW226688   0.428   1.428   1.799 -1.5660 -2.0044 -0.8429
 5018SOL     OW26689   2.332   0.352  13.611  0.4390  0.0046 -0.4624
 5018SOL    HW126690   2.239   0.370  13.601 -0.0136 -1.9426  0.2842
 5018SOL    HW226691   2.362   0.413  13.545  0.3027  1.8863  1.2120
 5019SOL     OW26692   4.511   2.556   5.507 -0.3956 -0.1555 -0.3665
 5019SOL    HW126693   4.579   2.621   5.522 -0.7503  0.2470 -0.4984
 5019SOL    HW226694   4.501   2.548   5.412  0.2625 -1.9028 -0.2818
 5020SOL     OW26695   0.096   3.970   1.924  0.2493  0.0079  0.4227
 5020SOL    HW126696   0.186   3.980   1.955  0.6346  2.7914 -1.4998
 5020SOL    HW226697   0.048   4.053   1.932 -1.1367 -0.7681  0.2226
 5021SOL     OW26698   2.788   2.755  12.509  0.4747  0.1819 -0.1719
 5021SOL    HW126699   2.847   2.687  12.474 -1.2673 -0.9717 -0.8842
 5021SOL    HW226700   2.708   2.711  12.481 -0.8817  2.0446  0.8061
 5022SOL     OW26701   1.560   4.734   4.352  0.1208 -0.3413 -0.5520
 5022SOL    HW126702   1.523   4.736   4.264  1.4279 -0.7716 -1.1107
 5022SOL    HW226703   1.526   0.080   4.381  0.3383 -0.3910 -0.1383
 5023SOL     OW26704   0.305   0.333   7.016  0.2568 -0.3518  0.5861
 5023SOL    HW126705   0.327   0.296   7.101  1.7777  0.2276  0.4525
 5023SOL    HW226706   0.210   0.326   7.023  0.2406  0.5200  1.1743
 5024SOL     OW26707   1.450   1.381   2.861  0.4057  0.1692 -0.1146
 5024SOL    HW126708   1.543   1.363   2.873 -0.1610 -2.6017  0.0414
 5024SOL    HW226709   1.461   1.438   2.785  0.2453 -0.2193 -0.4295
 5025SOL     OW26710   0.576   3.546  14.615  0.9039  0.1102  0.4245
 5025SOL    HW126711   0.669   3.523  14.621  0.9723  0.5361  1.0430
 5025SOL    HW226712   0.577   3.629  14.663 -1.9420 -0.8486  2.1491
 5026SOL     OW26713   0.567   2.597  15.940 -0.2333  0.7018  0.0506
 5026SOL    HW126714   0.534   2.605  15.850  2.1119 -1.7751 -1.0198
 5026SOL    HW226715   0.552   2.688  15.967 -0.1606  0.6054  0.4104
 5027SOL     OW26716   1.754   0.666   2.293 -0.8021 -0.2741 -0.0068
 5027SOL    HW126717   1.685   0.731   2.283  0.6856  1.3032 -0.0361
 5027SOL    HW226718   1.829   0.725   2.307  1.7881 -2.7139 -3.4903
 5028SOL     OW26719   1.121   2.152  12.542  1.0291 -0.1302  0.0052
 5028SOL    HW126720   1.187   2.216  12.516  1.4531 -1.3487 -1.9116
 5028SOL    HW226721   1.056   2.213  12.576 -0.2931 -0.4909 -1.9046
 5029SOL     OW26722   1.590   0.144   8.881 -0.0793 -0.0426 -0.2782
 5029SOL    HW126723   1.620   0.182   8.798  0.8245  1.1440  0.5804
 5029SOL    HW226724   1.598   0.213   8.947  2.3220 -1.0871  0.5051
 5030SOL     OW26725   2.516   0.375   8.153  0.2234 -0.0888 -0.4816
 5030SOL    HW126726   2.445   0.402   8.094  1.8740 -1.7489 -3.2839
 5030SOL    HW226727   2.500   0.430   8.229  1.6522  2.0338 -1.7095
 5031SOL     OW26728   4.523   1.733   0.969 -1.0258 -0.8580 -0.1996
 5031SOL    HW126729   4.548   1.685   0.890 -0.2486 -2.8301  1.2177
 5031SOL    HW226730   4.604   1.722   1.020 -0.3608  1.0809 -0.8630
 5032SOL     OW26731   4.500   0.959   7.155 -0.0219 -0.1509  0.4441
 5032SOL    HW126732   4.583   0.962   7.108 -0.8720 -0.2548 -1.0598
 5032SOL    HW226733   4.477   1.051   7.155  1.0866  0.1247  0.6601
 5033SOL     OW26734   0.317   2.144  11.553  0.2613 -0.4651  0.4844
 5033SOL    HW126735   0.351   2.097  11.629  0.6439 -0.5443  0.2651
 5033SOL    HW226736   0.235   2.182  11.583 -0.0349 -0.8160  0.1345
 5034SOL     OW26737   2.033   2.527   2.282 -0.0577 -0.2053  0.1400
 5034SOL    HW126738   2.050   2.587   2.355  2.6097  0.0729 -0.6967
 5034SOL    HW226739   1.972   2.465   2.322  1.6890 -1.4481  0.8989
 5035SOL     OW26740   0.548   4.496   8.441 -0.0289 -0.1750 -0.2228
 5035SOL    HW126741   0.624   4.439   8.453  0.5661  0.9724  1.4400
 5035SOL    HW226742   0.547   4.512   8.347  0.9606  0.4281 -0.1301
 5036SOL     OW26743   4.512   4.332   4.452  0.1217  0.0901 -0.4364
 5036SOL    HW126744   4.544   4.257   4.403 -2.7945 -1.7870  0.4936
 5036SOL    HW226745   4.557   4.324   4.537  0.5507  4.3219 -0.2690
 5037SOL     OW26746   3.817   1.977   1.271 -0.3873  0.3719 -0.5563
 5037SOL    HW126747   3.736   2.020   1.297  0.3862  0.7965  1.1678
 5037SOL    HW226748   3.796   1.884   1.284 -1.6270  0.7249 -0.0801
 5038SOL     OW26749   2.618   1.734   8.773  0.3882  0.0857  0.4053
 5038SOL    HW126750   2.522   1.732   8.783 -0.0752  0.0344 -3.7663
 5038SOL    HW226751   2.631   1.741   8.678  1.9388 -2.9680  0.3921
 5039SOL     OW26752   1.916   3.071   2.476 -0.4988 -0.5614  0.1525
 5039SOL    HW126753   1.888   3.060   2.567  1.1897 -2.5881  0.4177
 5039SOL    HW226754   1.847   3.121   2.432 -0.7464 -0.7111  0.3711
 5040SOL     OW26755   2.040   0.251   8.261  0.0557 -0.6845 -0.2083
 5040SOL    HW126756   2.125   0.206   8.255  1.8965  2.6696  0.5545
 5040SOL    HW226757   2.047   0.334   8.213 -0.4738  0.0949  1.0534
 5041SOL     OW26758   0.389   4.153   2.475 -0.1675  0.0886  0.1124
 5041SOL    HW126759   0.476   4.136   2.438  0.1055 -2.5284  1.9481
 5041SOL    HW226760   0.347   4.179   2.393 -1.9836 -0.0101  1.0204
 5042SOL     OW26761   3.254   2.954   5.949  0.8498 -0.1537  0.4534
 5042SOL    HW126762   3.256   3.035   5.999  0.2133  1.2660 -1.8031
 5042SOL    HW226763   3.177   2.985   5.902 -0.8236 -3.2985  1.1310
 5043SOL     OW26764   3.362   0.330   5.220 -0.4061  0.7033 -0.1990
 5043SOL    HW126765   3.440   0.373   5.184  0.4870 -0.2756  0.5483
 5043SOL    HW226766   3.385   0.242   5.190  0.9730  1.3384 -0.9991
 5044SOL     OW26767   1.643   4.238   0.895 -0.0671  0.0133  0.9756
 5044SOL    HW126768   1.670   4.301   0.962 -0.5371  0.5475  0.6651
 5044SOL    HW226769   1.688   4.266   0.815  0.2589  2.6404  2.0709
 5045SOL     OW26770   4.031   0.792   4.110  0.0268  0.0480  0.3744
 5045SOL    HW126771   3.953   0.829   4.070  0.9730  2.6795  0.9699
 5045SOL    HW226772   4.086   0.779   4.032 -0.2672  1.0229  0.0026
 5046SOL     OW26773   2.554   4.699   3.084 -0.2368 -0.6237 -0.3510
 5046SOL    HW126774   2.472   0.009   3.078 -0.2209 -1.0084 -3.4918
 5046SOL    HW226775   2.614   0.029   3.110 -0.2330 -1.6680  2.4369
 5047SOL     OW26776   1.746   4.451  12.231  0.0852 -0.3172 -0.7906
 5047SOL    HW126777   1.685   4.478  12.299  0.3732 -1.7106  0.0282
 5047SOL    HW226778   1.688   4.389  12.187  1.5092 -2.2613  0.0657
 5048SOL     OW26779   3.637   0.445   9.326 -0.2666 -0.2421 -0.0603
 5048SOL    HW126780   3.655   0.397   9.406 -0.0477 -2.6188 -1.5497
 5048SOL    HW226781   3.661   0.535   9.352  1.3652 -1.6069  3.1522
 5049SOL     OW26782   1.800   2.149   8.599 -0.4321 -0.1502  0.2970
 5049SOL    HW126783   1.867   2.110   8.543 -0.0390 -1.3994  1.6515
 5049SOL    HW226784   1.737   2.174   8.531  0.4439 -1.5799 -1.0421
 5050SOL     OW26785   1.173   1.536   5.496  0.9789  0.1182 -0.1961
 5050SOL    HW126786   1.181   1.494   5.411  0.1524  0.4528 -0.4397
 5050SOL    HW226787   1.263   1.524   5.527  1.7800  1.4028 -2.0158
 5051SOL     OW26788   4.447   1.377  13.768 -0.2088 -0.7012  0.6704
 5051SOL    HW126789   4.368   1.406  13.722  0.5987 -0.2967 -0.4539
 5051SOL    HW226790   4.397   1.339  13.841 -0.4827 -0.2955  0.6889
 5052SOL     OW26791   3.872   0.875   6.367 -0.9040  0.0381  0.1581
 5052SOL    HW126792   3.845   0.912   6.283 -1.5931  2.1179  1.2955
 5052SOL    HW226793   3.792   0.878   6.420  1.0831 -2.3986  3.2319
 5053SOL     OW26794   2.936   4.721  17.532  1.1526  0.2967  0.8174
 5053SOL    HW126795   2.965   0.039  17.461 -1.9112 -2.8197 -2.9586
 5053SOL    HW226796   2.993   4.645  17.516  1.2745  0.9990 -1.9870
 5054SOL     OW26797   3.301   3.959  16.105 -0.0216 -0.1863 -0.3413
 5054SOL    HW126798   3.359   3.924  16.172  2.1610 -1.2285 -2.7774
 5054SOL    HW226799   3.285   3.884  16.048 -1.4085 -0.8449  0.8951
 5055SOL     OW26800   0.446   2.798   0.483  0.7678 -0.3242  0.4729
 5055SOL    HW126801   0.414   2.739   0.551  1.4304 -1.0716  0.1328
 5055SOL    HW226802   0.402   2.757   0.408  2.6545 -1.6145  0.0866
 5056SOL     OW26803   0.529   1.416   4.884 -0.2338 -0.1959  0.4895
 5056SOL    HW126804   0.513   1.370   4.802 -1.5533 -0.0408  0.6611
 5056SOL    HW226805   0.590   1.478   4.845 -0.1166  0.0665  1.0912
 5057SOL     OW26806   2.777   3.991   1.351  0.7121  0.3999 -0.2228
 5057SOL    HW126807   2.738   3.961   1.433 -2.3608  2.0437 -1.0788
 5057SOL    HW226808   2.845   4.054   1.372 -0.6121  1.0116  2.1788
 5058SOL     OW26809   0.955   4.327   9.917  0.1936 -0.8115 -0.2228
 5058SOL    HW126810   0.963   4.422   9.909  0.9305 -0.7810  0.9152
 5058SOL    HW226811   0.873   4.310   9.871  0.2076  0.9918 -0.9134
 5059SOL     OW26812   3.636   3.964   5.401  0.0742 -0.1578  0.0231
 5059SOL    HW126813   3.681   3.888   5.363 -0.6904 -0.5000 -0.2056
 5059SOL    HW226814   3.560   3.977   5.343 -1.1699 -0.6832  1.5316
 5060SOL     OW26815   3.413   3.247   8.871  0.0553 -0.6672  0.5937
 5060SOL    HW126816   3.446   3.168   8.826 -1.6449  0.4243 -2.6136
 5060SOL    HW226817   3.428   3.229   8.963  0.2038 -0.9914  0.5076
 5061SOL     OW26818   1.804   0.340   6.785  0.1239  0.3302  0.5132
 5061SOL    HW126819   1.892   0.338   6.748 -0.2552 -1.6364 -0.2502
 5061SOL    HW226820   1.755   0.368   6.707  0.3720 -3.9738 -1.1474
 5062SOL     OW26821   1.867   0.546   5.155  0.5608 -0.1820  0.5065
 5062SOL    HW126822   1.774   0.565   5.166  0.5840 -1.0483  2.1926
 5062SOL    HW226823   1.882   0.516   5.065 -1.2002 -1.4621  0.6203
 5063SOL     OW26824   4.485   1.908   2.787  0.1549  0.1573 -0.5488
 5063SOL    HW126825   4.523   1.979   2.839 -2.6328  0.9440  0.3993
 5063SOL    HW226826   4.419   1.869   2.844 -0.9514  0.4465 -1.6350
 5064SOL     OW26827   1.183   4.044   4.026  0.3795 -0.0779 -0.5702
 5064SOL    HW126828   1.121   4.099   4.073  1.6759  0.1735  0.8763
 5064SOL    HW226829   1.266   4.093   4.020  1.1122 -1.7343 -3.9107
 5065SOL     OW26830   4.572   4.325   8.700  0.0235 -0.0937  0.1905
 5065SOL    HW126831   4.584   4.278   8.618 -2.7541  3.0045 -1.9717
 5065SOL    HW226832   4.584   4.252   8.761  0.8277 -1.0148 -1.0657
 5066SOL     OW26833   0.529   2.736   4.490 -0.1327  0.2147  0.0679
 5066SOL    HW126834   0.622   2.719   4.508 -0.0525 -2.7246 -3.1739
 5066SOL    HW226835   0.517   2.815   4.543  1.0826 -1.7801  3.3624
 5067SOL     OW26836   1.946   2.593   6.601 -0.6304  0.0379 -0.1014
 5067SOL    HW126837   1.894   2.597   6.521 -0.0824 -0.2434 -0.4751
 5067SOL    HW226838   1.931   2.505   6.635  1.6729  0.2097  1.3932
 5068SOL     OW26839   2.187   3.980   7.013  0.1441 -0.3615 -0.2785
 5068SOL    HW126840   2.264   3.932   6.980  0.1521 -0.7491  0.3088
 5068SOL    HW226841   2.127   3.908   7.030  0.7400 -1.4399 -2.6550
 5069SOL     OW26842   1.775   3.173   0.237  0.3926  0.4901 -0.0746
 5069SOL    HW126843   1.856   3.122   0.228  1.0478  1.6753 -0.9561
 5069SOL    HW226844   1.721   3.143   0.164  0.1220  3.7316 -1.2134
 5070SOL     OW26845   4.204   4.016   5.790 -0.0247  0.1386 -0.0983
 5070SOL    HW126846   4.178   4.090   5.735 -0.3519 -1.4919 -2.1368
 5070SOL    HW226847   4.285   3.990   5.746 -0.1071 -0.7138  0.2489
 5071SOL     OW26848   2.175   0.480   1.099 -0.1472  0.2352  0.1846
 5071SOL    HW126849   2.089   0.472   1.140 -0.7713 -0.7007 -1.3107
 5071SOL    HW226850   2.148   0.548   1.037 -1.6731 -0.9188 -0.4350
 5072SOL     OW26851   4.477   0.268   7.524 -0.0083  0.6089  0.1303
 5072SOL    HW126852   4.388   0.278   7.559  0.0748 -2.2968  1.1963
 5072SOL    HW226853   4.536   0.287   7.596  1.2311 -0.8425 -0.4969
 5073SOL     OW26854   0.066   2.070  13.839  0.0976 -0.3922  0.9254
 5073SOL    HW126855   4.731   2.053  13.782  1.4388  1.1732 -1.2791
 5073SOL    HW226856   0.134   2.014  13.801  0.3957  2.0214 -2.1043
 5074SOL     OW26857   3.708   3.679   9.562  0.1178 -0.0745  0.3694
 5074SOL    HW126858   3.796   3.701   9.531  0.5588  1.1608  2.5243
 5074SOL    HW226859   3.720   3.615   9.633 -1.4455  1.4382  1.9920
 5075SOL     OW26860   0.780   1.905  11.305  0.2723 -0.1080  0.0181
 5075SOL    HW126861   0.780   1.954  11.387 -1.1389 -0.9325  0.4990
 5075SOL    HW226862   0.722   1.831  11.322 -0.5671  0.6396  0.4263
 5076SOL     OW26863   3.392   4.675   5.104  0.5559 -0.1915 -0.2176
 5076SOL    HW126864   3.439   0.014   5.075  1.4776 -0.6248  0.1029
 5076SOL    HW226865   3.353   4.652   5.020 -2.3758 -1.6034  1.5414
 5077SOL     OW26866   2.472   0.858   4.460 -0.2728 -0.4205 -0.0679
 5077SOL    HW126867   2.467   0.851   4.556  1.7317  0.5205  0.1201
 5077SOL    HW226868   2.546   0.805   4.429  0.2307  1.1118 -1.4232
 5078SOL     OW26869   3.360   2.994   4.480  0.2751  0.0351  0.3374
 5078SOL    HW126870   3.410   2.926   4.525  1.3418  1.0769  0.7148
 5078SOL    HW226871   3.333   3.056   4.547 -2.1666  0.7680 -1.3206
 5079SOL     OW26872   4.264   1.382   8.180 -0.2935 -0.1661 -0.0086
 5079SOL    HW126873   4.294   1.291   8.172  1.6019  0.3468  1.3355
 5079SOL    HW226874   4.311   1.400   8.262  3.1803 -2.5114 -1.4502
 5080SOL     OW26875   3.342   2.675  14.121 -0.3809 -0.5676  0.0337
 5080SOL    HW126876   3.395   2.621  14.180 -0.0580  1.7931  1.9403
 5080SOL    HW226877   3.278   2.717  14.179 -0.3748  1.3412 -1.3496
 5081SOL     OW26878   1.733   1.427  13.616  0.5945  0.0929 -0.3724
 5081SOL    HW126879   1.714   1.520  13.607  0.9147  0.4305  2.5736
 5081SOL    HW226880   1.818   1.437  13.658 -0.6431  4.3639  1.0890
 5082SOL     OW26881   1.836   1.256  13.211  0.0298  0.2023  0.5478
 5082SOL    HW126882   1.793   1.318  13.270  0.5859  1.4615 -0.3790
 5082SOL    HW226883   1.759   1.218  13.168  0.3504  0.2007 -0.0274
 5083SOL     OW26884   1.064   0.543  12.383 -0.5806  0.4169  0.0020
 5083SOL    HW126885   1.049   0.515  12.293  1.7432 -1.9537  0.3544
 5083SOL    HW226886   1.108   0.625  12.361  2.9580 -0.6673  3.0079
 5084SOL     OW26887   1.103   4.365   4.651  0.5115 -0.2305  0.0372
 5084SOL    HW126888   1.153   4.295   4.694 -1.0889 -0.7124  1.0974
 5084SOL    HW226889   1.168   4.418   4.605  1.4123 -0.6244  0.8406
 5085SOL     OW26890   2.579   4.294   7.653  0.1782 -0.1446 -0.0440
 5085SOL    HW126891   2.546   4.336   7.733  1.5885  1.0713 -0.1114
 5085SOL    HW226892   2.516   4.337   7.595  2.8045  0.3519 -2.5030
 5086SOL     OW26893   3.730   3.888   3.339  0.0886  0.0848  0.2910
 5086SOL    HW126894   3.721   3.896   3.434 -0.9721  2.7253 -0.0233
 5086SOL    HW226895   3.819   3.922   3.330 -0.6344  1.7580 -0.5194
 5087SOL     OW26896   4.601   1.340   6.254  0.4345  0.6355 -0.7650
 5087SOL    HW126897   4.516   1.333   6.297  0.2296 -0.3255 -1.3332
 5087SOL    HW226898   4.667   1.321   6.321  1.4604  1.5351 -1.5108
 5088SOL     OW26899   1.946   0.290   9.256 -0.2712  0.3365  0.0817
 5088SOL    HW126900   1.877   0.231   9.226 -1.4682  2.5002 -1.4328
 5088SOL    HW226901   2.021   0.235   9.235 -0.7986 -0.8975  1.3923
 5089SOL     OW26902   4.393   0.320   3.271  0.5470  0.0557 -0.0515
 5089SOL    HW126903   4.346   0.266   3.208  1.6223 -2.2818  1.1342
 5089SOL    HW226904   4.480   0.285   3.252 -0.6056 -3.6413  1.5028
 5090SOL     OW26905   2.277   3.318   6.061 -0.1654  0.2680  0.3133
 5090SOL    HW126906   2.217   3.381   6.021 -1.0836 -2.8355 -3.2047
 5090SOL    HW226907   2.299   3.260   5.989 -0.8034 -0.1948  0.4867
 5091SOL     OW26908   0.315   3.487   1.165 -0.4572  0.4414 -0.9079
 5091SOL    HW126909   0.387   3.534   1.122 -0.0043 -1.3010 -2.0575
 5091SOL    HW226910   0.269   3.544   1.226 -1.0779 -0.6205 -0.3884
 5092SOL     OW26911   0.702   0.752   3.924  0.5164  0.3370  0.2418
 5092SOL    HW126912   0.630   0.809   3.953  0.7429 -0.1630  1.7745
 5092SOL    HW226913   0.750   0.731   4.004 -0.3981  0.7376  0.8981
 5093SOL     OW26914   3.348   0.651   3.432  0.2072  0.2354  0.2027
 5093SOL    HW126915   3.376   0.568   3.393  1.0914  0.0358  1.2667
 5093SOL    HW226916   3.427   0.704   3.419  1.4057 -1.8233 -0.8512
 5094SOL     OW26917   3.977   4.372   9.202  0.6632  0.1851 -0.5443
 5094SOL    HW126918   3.930   4.316   9.141 -0.2347  1.7315 -1.2773
 5094SOL    HW226919   3.929   4.455   9.195  0.8768  0.2825 -0.8720
 5095SOL     OW26920   0.144   2.926   8.148  0.2879  0.6868 -0.3989
 5095SOL    HW126921   0.222   2.883   8.114 -0.1703 -1.2711  0.9840
 5095SOL    HW226922   0.177   3.016   8.154  0.1514  0.6602  0.8641
 5096SOL     OW26923   3.820   3.980  14.112 -0.5529 -0.1355 -0.1843
 5096SOL    HW126924   3.773   3.902  14.142  0.7303 -0.8931 -0.1788
 5096SOL    HW226925   3.794   4.005  14.023  1.0132 -1.8083 -1.0968
 5097SOL     OW26926   0.338   0.636   7.740  0.5977  0.4501  0.0887
 5097SOL    HW126927   0.379   0.700   7.681 -1.3187  1.2053 -0.4345
 5097SOL    HW226928   0.307   0.702   7.802  1.0808  0.9786 -0.2260
 5098SOL     OW26929   2.349   1.520   6.893 -0.2854  0.4298  0.2641
 5098SOL    HW126930   2.415   1.568   6.944  0.6530  0.0240 -0.5781
 5098SOL    HW226931   2.344   1.579   6.818  1.3114 -0.7063 -0.7086
 5099SOL     OW26932   3.812   1.621   2.162 -0.5345 -0.0809  0.5128
 5099SOL    HW126933   3.748   1.690   2.178 -1.0951 -0.5442  0.2687
 5099SOL    HW226934   3.784   1.559   2.229  2.6528 -1.2970  0.7594
 5100SOL     OW26935   0.673   2.638   8.840  0.4738  0.6130  0.2518
 5100SOL    HW126936   0.585   2.610   8.861  1.1453 -2.5528 -1.0971
 5100SOL    HW226937   0.706   2.556   8.803 -1.5241 -0.3317  0.6171
 5101SOL     OW26938   4.732   4.277  11.126  0.8629  0.1458 -0.1652
 5101SOL    HW126939   0.081   4.290  11.158  0.9581  0.8278 -0.7103
 5101SOL    HW226940   4.717   4.189  11.159  0.6787  0.7969  1.4710
 5102SOL     OW26941   3.084   1.463   3.470  0.4329  0.2567 -0.1660
 5102SOL    HW126942   3.150   1.526   3.498  1.8802 -0.6557 -1.5141
 5102SOL    HW226943   3.140   1.388   3.449 -3.2668 -2.1802 -1.2213
 5103SOL     OW26944   2.543   2.779  11.755  0.0012 -0.4660 -0.0382
 5103SOL    HW126945   2.466   2.783  11.697 -1.3179  0.6935  1.7966
 5103SOL    HW226946   2.614   2.799  11.694 -1.0659 -1.6899 -1.6858
 5104SOL     OW26947   2.292   2.227   5.031 -0.4729 -0.8246 -0.3860
 5104SOL    HW126948   2.287   2.149   5.085  1.8303  1.6317  3.3413
 5104SOL    HW226949   2.200   2.230   5.004 -0.5083 -0.9887 -0.2788
 5105SOL     OW26950   1.255   4.507  12.345 -0.7760 -0.6068 -0.2146
 5105SOL    HW126951   1.249   4.419  12.382 -1.9345 -0.9003 -1.1026
 5105SOL    HW226952   1.277   4.486  12.255 -0.8292 -2.1037  0.1208
 5106SOL     OW26953   4.569   4.736  12.996 -0.4474 -0.2879  0.0597
 5106SOL    HW126954   4.519   0.029  12.922  2.1049  1.6308 -0.8268
 5106SOL    HW226955   4.521   4.658  13.023 -2.2883  1.3426  1.5194
 5107SOL     OW26956   1.181   0.469  15.706  0.3716 -0.0927 -0.0626
 5107SOL    HW126957   1.185   0.480  15.801  3.8145  2.0568 -0.4747
 5107SOL    HW226958   1.090   0.483  15.681  0.2479  1.5084  1.3249
 5108SOL     OW26959   4.412   1.099   8.197  0.4138 -0.0762  0.9673
 5108SOL    HW126960   4.417   1.045   8.118  2.3367  0.6732  0.5801
 5108SOL    HW226961   4.359   1.051   8.260 -1.0015  1.3114  0.8230
 5109SOL     OW26962   0.739   2.478  13.418  0.0158 -0.2321 -0.0005
 5109SOL    HW126963   0.754   2.536  13.493  0.1832  0.3765 -0.5055
 5109SOL    HW226964   0.653   2.444  13.441 -1.2092  2.8408 -0.1390
 5110SOL     OW26965   2.766   1.125   1.076 -0.0022 -0.1768  0.3726
 5110SOL    HW126966   2.678   1.135   1.113  0.1073  1.6702  0.1292
 5110SOL    HW226967   2.785   1.207   1.032  2.4844 -0.0562  1.6465
 5111SOL     OW26968   3.104   3.041   4.879 -0.4915  0.2491 -0.5834
 5111SOL    HW126969   3.155   2.971   4.839  1.9323  3.1314 -2.4875
 5111SOL    HW226970   3.016   3.008   4.862 -0.7724 -0.0921  1.4807
 5112SOL     OW26971   3.538   0.829   5.204  0.3799  0.0033  0.7137
 5112SOL    HW126972   3.520   0.769   5.276  0.2447  0.4489  1.0483
 5112SOL    HW226973   3.615   0.785   5.168  1.3229  1.4091  1.0208
 5113SOL     OW26974   4.303   1.536   2.269  0.6110  0.1967  0.7805
 5113SOL    HW126975   4.245   1.542   2.193  1.0809 -2.7047  0.1919
 5113SOL    HW226976   4.317   1.630   2.278 -0.7232  0.4990 -0.1565
 5114SOL     OW26977   4.168   2.866   1.973  0.1999  0.1429 -0.4018
 5114SOL    HW126978   4.096   2.909   2.019  0.9945 -1.2088  2.0962
 5114SOL    HW226979   4.124   2.815   1.905 -1.0918 -0.3465  0.8099
 5115SOL     OW26980   1.728   1.054  14.407 -0.2641  0.0695 -0.3227
 5115SOL    HW126981   1.750   0.979  14.462 -1.2161  1.4560  1.9476
 5115SOL    HW226982   1.697   1.115  14.474 -0.3501 -0.7522  0.3850
 5116SOL     OW26983   3.880   0.915  16.270  0.1852  0.3496 -0.5013
 5116SOL    HW126984   3.924   0.841  16.312  0.4760  1.3354  0.9089
 5116SOL    HW226985   3.951   0.945  16.213  1.2742 -1.0488  0.1393
 5117SOL     OW26986   2.694   2.265   8.250 -0.0150 -0.5142 -0.0766
 5117SOL    HW126987   2.635   2.309   8.189  0.1636 -1.4325 -0.9349
 5117SOL    HW226988   2.638   2.258   8.327  2.9567  0.3693  2.1561
 5118SOL     OW26989   3.448   1.337   2.668  0.5409  0.3020  0.1244
 5118SOL    HW126990   3.470   1.245   2.683 -0.2769 -0.4331 -3.2104
 5118SOL    HW226991   3.441   1.339   2.573 -0.2814  2.3671  0.2239
 5119SOL     OW26992   3.603   3.165   0.471 -0.0062  0.0434 -0.2886
 5119SOL    HW126993   3.530   3.136   0.416  1.3902 -0.0356 -2.1263
 5119SOL    HW226994   3.599   3.097   0.538  3.1640  0.7329  0.5974
 5120SOL     OW26995   0.873   2.066  11.514 -0.0659 -0.2404 -0.4177
 5120SOL    HW126996   0.827   2.150  11.522 -1.1750 -0.9918  1.2314
 5120SOL    HW226997   0.957   2.097  11.481 -0.3385  0.0747 -0.8214
 5121SOL     OW26998   4.481   0.647   2.169  0.2536  0.0944  0.0432
 5121SOL    HW126999   4.394   0.669   2.136 -0.0979 -1.6575 -0.1714
 5121SOL    HW227000   4.480   0.552   2.163 -0.1351  0.1843 -1.1962
 5122SOL     OW27001   2.898   3.178   8.319 -0.1091  0.2672 -0.5917
 5122SOL    HW127002   2.857   3.127   8.389 -2.6653  1.2901 -1.3639
 5122SOL    HW227003   2.990   3.170   8.344  0.1558  1.7657 -1.0943
 5123SOL     OW27004   4.694   4.638   4.197 -0.8943  0.3329 -0.1234
 5123SOL    HW127005   0.045   4.663   4.180 -0.3500 -1.8655 -0.4539
 5123SOL    HW227006   4.686   4.575   4.126 -0.1956 -0.5240  0.5595
 5124SOL     OW27007   3.159   3.173   8.366 -0.1643 -0.0816 -0.0233
 5124SOL    HW127008   3.235   3.199   8.419 -0.2416  1.8503 -0.8363
 5124SOL    HW227009   3.171   3.079   8.363  1.7728  0.1519  0.5281
 5125SOL     OW27010   3.331   2.532  15.195  0.1404 -0.3916 -0.6040
 5125SOL    HW127011   3.249   2.509  15.239  0.5804  0.8438  0.8955
 5125SOL    HW227012   3.389   2.477  15.248 -1.3994  2.0825  3.6545
 5126SOL     OW27013   3.284   3.517  16.826  0.4614  0.9836 -0.1006
 5126SOL    HW127014   3.226   3.521  16.902 -0.0854 -2.5558 -0.3255
 5126SOL    HW227015   3.262   3.592  16.771  3.6149  1.7536 -0.3001
 5127SOL     OW27016   2.947   3.899   3.337 -0.1290  0.3495 -0.0291
 5127SOL    HW127017   2.912   3.826   3.387 -2.9743  2.1368  0.5496
 5127SOL    HW227018   2.897   3.966   3.382  0.8152  0.3425  1.0164
 5128SOL     OW27019   0.690   3.114   8.641  0.4291  0.3710  0.6240
 5128SOL    HW127020   0.696   3.088   8.549 -1.6594  0.9823  0.3187
 5128SOL    HW227021   0.713   3.040   8.697 -3.9400 -1.0300  0.5721
 5129SOL     OW27022   3.521   3.313   3.078  0.8085  0.1338 -0.3145
 5129SOL    HW127023   3.434   3.334   3.045  0.2411  1.7481  2.1800
 5129SOL    HW227024   3.577   3.351   3.009 -2.0045  3.9148 -0.5389
 5130SOL     OW27025   0.194   3.618  14.709 -0.2629  0.8546 -0.3346
 5130SOL    HW127026   0.212   3.530  14.745 -2.5331  0.4746 -0.1009
 5130SOL    HW227027   0.142   3.651  14.783  1.3472  1.5668  0.4824
 5131SOL     OW27028   1.982   1.507  13.679  0.4610  0.0246 -0.2677
 5131SOL    HW127029   1.994   1.485  13.771 -0.2775  1.8910  0.2700
 5131SOL    HW227030   2.070   1.496  13.643  1.2934  1.4206  1.3079
 5132SOL     OW27031   2.607   0.367   6.126  0.0963 -0.5804  0.4316
 5132SOL    HW127032   2.599   0.272   6.132  1.7177 -0.6439  1.7881
 5132SOL    HW227033   2.677   0.365   6.062 -0.8514  0.3634 -0.6139
 5133SOL     OW27034   4.315   4.103   2.428 -0.2270  0.1308  0.5758
 5133SOL    HW127035   4.324   4.011   2.401  1.8206  0.2609  0.7996
 5133SOL    HW227036   4.285   4.090   2.518  0.0334 -0.9591  0.5035
 5134SOL     OW27037   4.236   3.438  17.425 -0.4301 -0.1919  0.6338
 5134SOL    HW127038   4.223   3.385  17.504 -0.8694  2.6516  2.4439
 5134SOL    HW227039   4.154   3.486  17.411 -1.3623 -1.3298  2.1997
 5135SOL     OW27040   3.967   3.117   9.211 -0.0963 -0.0726 -0.1182
 5135SOL    HW127041   3.926   3.107   9.297  3.8785 -1.2947  1.6175
 5135SOL    HW227042   3.926   3.203   9.196  3.0948  1.2353 -1.3272
 5136SOL     OW27043   4.042   2.321   7.738 -0.2244  0.0568 -0.1028
 5136SOL    HW127044   4.035   2.358   7.827  1.4003  1.0843 -0.4069
 5136SOL    HW227045   3.992   2.240   7.746 -0.9019  0.4609 -0.2293
 5137SOL     OW27046   1.265   0.799   6.582 -0.2620  0.0139 -0.0577
 5137SOL    HW127047   1.243   0.706   6.595 -0.4667  0.2363  1.2318
 5137SOL    HW227048   1.183   0.835   6.617 -1.1347  0.0299 -2.0915
 5138SOL     OW27049   1.489   3.003  12.608  0.5128  0.0531  0.1608
 5138SOL    HW127050   1.436   3.076  12.576  0.1050 -1.2190 -2.0987
 5138SOL    HW227051   1.514   3.029  12.697  0.1693 -3.9202  1.4656
 5139SOL     OW27052   4.712   1.955   6.311 -0.0232  0.3723  0.0296
 5139SOL    HW127053   4.715   1.882   6.249  1.0712 -0.0948  0.6165
 5139SOL    HW227054   0.012   2.020   6.253 -1.8966  1.9920  0.5801
 5140SOL     OW27055   3.326   3.607  15.144  0.0217 -0.4961 -0.0100
 5140SOL    HW127056   3.303   3.638  15.056 -0.4078 -2.6302 -0.6460
 5140SOL    HW227057   3.322   3.689  15.193 -0.0737  0.1382 -1.0763
 5141SOL     OW27058   0.781   0.386   7.180  0.3755 -0.0451 -0.0325
 5141SOL    HW127059   0.698   0.348   7.149  0.5684  0.8364 -1.6295
 5141SOL    HW227060   0.770   0.478   7.155  2.0540  0.4642  1.1577
 5142SOL     OW27061   2.893   0.193  16.378 -0.2088  0.0845  0.3224
 5142SOL    HW127062   2.938   0.158  16.454  0.3332 -0.7642 -0.3939
 5142SOL    HW227063   2.887   0.284  16.408 -2.1036  0.0731 -0.0064
 5143SOL     OW27064   2.367   3.500   4.434  0.0326 -0.1293  0.0245
 5143SOL    HW127065   2.443   3.551   4.460 -0.9255  0.3144  1.9732
 5143SOL    HW227066   2.390   3.462   4.349 -1.4061 -0.1835 -0.3533
 5144SOL     OW27067   4.344   3.678  16.052 -0.1163 -0.0882 -0.1362
 5144SOL    HW127068   4.249   3.680  16.052 -0.0611  2.0804 -1.1195
 5144SOL    HW227069   4.372   3.614  15.987 -1.4848  0.3716 -1.1762
 5145SOL     OW27070   1.721   0.665   0.844 -0.6233  0.2200 -0.0640
 5145SOL    HW127071   1.695   0.617   0.765  1.0908 -0.4876 -0.1969
 5145SOL    HW227072   1.640   0.716   0.855 -1.7852 -1.9995  1.6256
 5146SOL     OW27073   1.519   1.830   5.670 -0.3030  0.2124 -0.0174
 5146SOL    HW127074   1.590   1.820   5.606  0.1483 -0.9348  0.6626
 5146SOL    HW227075   1.517   1.925   5.684 -3.3425 -0.0264  1.0722
 5147SOL     OW27076   4.445   3.468   6.233  0.3494 -0.1806  0.6780
 5147SOL    HW127077   4.354   3.438   6.239  0.7686 -2.1080 -2.5453
 5147SOL    HW227078   4.476   3.478   6.322  1.7542  2.0061 -0.0720
 5148SOL     OW27079   3.600   0.984   8.149  0.3021  0.3136 -0.0377
 5148SOL    HW127080   3.551   1.017   8.224 -0.2353  0.0637 -0.2766
 5148SOL    HW227081   3.664   0.933   8.199 -1.6089 -0.2401  1.8427
 5149SOL     OW27082   1.252   4.016   5.226 -0.1771  0.5771  0.8217
 5149SOL    HW127083   1.342   4.048   5.226 -0.1579  0.5522  2.1974
 5149SOL    HW227084   1.254   3.950   5.157 -0.2817  2.1678 -0.6874
 5150SOL     OW27085   3.865   3.376   3.875 -0.8906  0.7867 -0.5228
 5150SOL    HW127086   3.844   3.294   3.831 -4.0106  0.2710  1.8989
 5150SOL    HW227087   3.780   3.419   3.867 -1.7750 -1.0970 -1.1761
 5151SOL     OW27088   1.915   4.219   7.488  0.0417 -0.0172 -0.0156
 5151SOL    HW127089   1.849   4.169   7.439  1.3530 -1.7455 -0.0118
 5151SOL    HW227090   1.873   4.304   7.500  1.3101  0.5990  0.0380
 5152SOL     OW27091   0.071   1.328  13.615 -0.0734  0.3410  0.1243
 5152SOL    HW127092   0.037   1.401  13.667 -1.8438  0.7883 -1.6142
 5152SOL    HW227093   0.043   1.251  13.665  0.3259 -0.6299 -1.1351
 5153SOL     OW27094   2.411   3.515   0.679 -0.5534 -0.5671  0.1345
 5153SOL    HW127095   2.503   3.523   0.706 -0.5665  0.0485  0.0110
 5153SOL    HW227096   2.422   3.449   0.610  0.6359  0.0450 -0.2638
 5154SOL     OW27097   3.938   1.120   4.284 -0.2341  0.3635 -0.5692
 5154SOL    HW127098   3.949   1.043   4.341 -1.5094  0.8483  0.3423
 5154SOL    HW227099   3.849   1.100   4.254 -0.1589  1.1775 -1.3112
 5155SOL     OW27100   1.437   0.980   9.529 -0.2283  0.6209 -0.0258
 5155SOL    HW127101   1.432   1.006   9.621  1.5841 -1.4581  0.6730
 5155SOL    HW227102   1.496   1.051   9.504 -0.9508  1.5458  0.9017
 5156SOL     OW27103   3.222   2.402   8.611  0.0501  0.3342  0.6121
 5156SOL    HW127104   3.285   2.462   8.571  0.1021  1.0441  1.7796
 5156SOL    HW227105   3.160   2.397   8.538  2.3529 -0.2126 -1.3386
 5157SOL     OW27106   2.065   4.562  13.639  0.8285 -0.0626  0.0354
 5157SOL    HW127107   2.127   4.552  13.711 -0.9297  0.9910  1.7002
 5157SOL    HW227108   2.114   4.614  13.575 -0.3415  2.1357  0.9176
 5158SOL     OW27109   1.002   3.345   8.452 -0.0109  0.4791  0.3816
 5158SOL    HW127110   0.950   3.268   8.427  3.3917 -1.8505  0.5397
 5158SOL    HW227111   1.013   3.375   8.361  1.6727 -1.0798  0.0578
 5159SOL     OW27112   2.669   0.193   3.144 -0.7140  0.0102  0.2007
 5159SOL    HW127113   2.763   0.205   3.132 -0.5186  0.9349  2.6412
 5159SOL    HW227114   2.633   0.230   3.063  1.0162  2.1969  0.4452
 5160SOL     OW27115   3.503   2.133   8.705  0.3939 -0.0846 -0.2581
 5160SOL    HW127116   3.559   2.144   8.628  0.1965  0.7308 -0.2839
 5160SOL    HW227117   3.526   2.212   8.755  3.8362 -1.2616  0.0192
 5161SOL     OW27118   2.689   3.682   5.345 -0.3122 -0.2256  0.2424
 5161SOL    HW127119   2.614   3.742   5.340  0.4028  1.0227  5.1425
 5161SOL    HW227120   2.649   3.601   5.377 -0.7141  0.0388  0.4219
 5162SOL     OW27121   3.164   1.160   3.280  0.3772 -0.2490  0.0550
 5162SOL    HW127122   3.132   1.114   3.358  2.2491 -1.4031  0.1366
 5162SOL    HW227123   3.084   1.195   3.242  1.6061  1.7663 -0.6799
 5163SOL     OW27124   4.047   0.329  16.283  0.3930 -0.1943 -0.4580
 5163SOL    HW127125   3.991   0.311  16.359 -1.4459  2.6033 -1.1463
 5163SOL    HW227126   3.998   0.401  16.243 -0.6809 -0.9037 -0.3962
 5164SOL     OW27127   1.844   2.051  14.579  0.2046  0.2773 -0.3357
 5164SOL    HW127128   1.775   1.996  14.541  1.3562 -1.7546  0.5280
 5164SOL    HW227129   1.884   2.081  14.497 -0.0050 -0.8675 -0.8575
 5165SOL     OW27130   3.031   2.216   6.915  0.1189  0.4814 -0.4916
 5165SOL    HW127131   2.952   2.190   6.962 -0.3126 -1.2899 -2.1627
 5165SOL    HW227132   3.096   2.146   6.925 -0.2176 -0.3170 -3.7293
 5166SOL     OW27133   0.017   0.365   6.689  0.4293 -0.2069 -0.2954
 5166SOL    HW127134   0.077   0.375   6.615  3.8449  1.2583  2.6986
 5166SOL    HW227135   4.677   0.350   6.638  0.0060  0.6600  0.1167
 5167SOL     OW27136   2.355   0.578  17.472 -0.3916 -0.5190  0.3982
 5167SOL    HW127137   2.380   0.573  17.379  2.7018 -1.7145  1.2913
 5167SOL    HW227138   2.431   0.547  17.521  0.6233  0.6353 -0.4408
 5168SOL     OW27139   4.359   1.097   3.256  0.0625  0.5964 -0.5797
 5168SOL    HW127140   4.372   1.015   3.208  3.2399  0.6344  0.2242
 5168SOL    HW227141   4.268   1.122   3.239 -0.3452 -0.4779 -0.0592
 5169SOL     OW27142   2.053   0.297   2.552  0.0574  0.3466  0.1864
 5169SOL    HW127143   2.016   0.209   2.544  0.3840  0.1018  1.3716
 5169SOL    HW227144   2.003   0.330   2.627  2.0711  1.6854  0.9339
 5170SOL     OW27145   1.604   2.140   7.709 -0.1695  0.2440 -0.4145
 5170SOL    HW127146   1.603   2.118   7.616 -3.4149  0.4350 -0.4303
 5170SOL    HW227147   1.554   2.069   7.750  0.2317  0.9124  1.2343
 5171SOL     OW27148   0.470   0.976   4.970  0.2370 -0.2293 -0.2927
 5171SOL    HW127149   0.530   0.908   4.939 -0.0949 -0.8897  0.5099
 5171SOL    HW227150   0.413   0.991   4.895 -1.2838 -0.9014  0.7221
 5172SOL     OW27151   4.527   2.132   3.445  0.0722  0.2014  0.1080
 5172SOL    HW127152   4.501   2.056   3.393 -0.9042  0.4970  0.1616
 5172SOL    HW227153   4.520   2.202   3.381  1.9744  0.4497  0.1802
 5173SOL     OW27154   2.177   1.563   3.965  0.2362  0.2876 -0.2308
 5173SOL    HW127155   2.132   1.496   3.913 -1.5770  0.4571  1.1321
 5173SOL    HW227156   2.248   1.590   3.906  0.6603 -1.8916 -0.7025
 5174SOL     OW27157   0.994   4.442   1.467  0.2513  0.1892 -0.2020
 5174SOL    HW127158   0.999   4.398   1.552 -0.5119 -0.6379 -0.5866
 5174SOL    HW227159   1.050   4.517   1.486  0.0230  0.4350 -0.4844
 5175SOL     OW27160   3.010   4.203   0.435  0.5516  0.5277  0.4717
 5175SOL    HW127161   3.072   4.223   0.364 -0.9700  1.2531 -0.6498
 5175SOL    HW227162   3.065   4.146   0.489 -0.0809 -1.1195 -0.6200
 5176SOL     OW27163   1.037   2.685   5.450 -0.5259 -0.2666 -0.4853
 5176SOL    HW127164   0.978   2.623   5.493  1.9551 -2.3154 -0.0967
 5176SOL    HW227165   0.967   2.751   5.443 -0.6749 -0.5622 -1.8165
 5177SOL     OW27166   0.639   1.574   4.694 -0.2835  0.1671  0.1075
 5177SOL    HW127167   0.717   1.546   4.647  0.0880  1.0926  0.1618
 5177SOL    HW227168   0.568   1.578   4.629 -1.7931  1.9059  1.8334
 5178SOL     OW27169   2.031   0.708   1.787 -0.2931 -0.2774 -0.4826
 5178SOL    HW127170   2.089   0.634   1.772 -1.0533 -0.6876 -1.4283
 5178SOL    HW227171   1.945   0.668   1.772 -1.6350  1.6600  2.0185
 5179SOL     OW27172   3.030   1.789  11.068 -0.5408  0.3877  0.2037
 5179SOL    HW127173   3.048   1.883  11.074  2.7095 -0.1562 -1.3811
 5179SOL    HW227174   3.048   1.764  11.158 -1.3704 -1.9225 -0.2583
 5180SOL     OW27175   3.153   0.431   8.363  0.1118 -0.8228 -0.2080
 5180SOL    HW127176   3.063   0.410   8.388 -0.0704  1.5002  1.0572
 5180SOL    HW227177   3.208   0.407   8.438  1.6429  1.0154 -0.7481
 5181SOL     OW27178   0.761   2.431  11.941  1.2249  0.0493 -0.1999
 5181SOL    HW127179   0.733   2.373  12.012  2.5959 -1.2345 -0.7029
 5181SOL    HW227180   0.825   2.482  11.992  0.6663  2.0378 -1.4852
 5182SOL     OW27181   1.135   4.165  13.525  0.1886 -0.6614 -0.0966
 5182SOL    HW127182   1.225   4.135  13.532  0.8383  0.6873 -2.5721
 5182SOL    HW227183   1.112   4.188  13.615 -0.5611 -1.0879 -0.1777
 5183SOL     OW27184   2.926   3.943   4.142  0.5014 -0.5862  0.4401
 5183SOL    HW127185   3.008   3.893   4.134  0.7834  0.1641 -1.5204
 5183SOL    HW227186   2.894   3.945   4.052  0.8722 -1.3723  0.2860
 5184SOL     OW27187   0.560   2.981   2.553  0.3091  0.3054 -0.5876
 5184SOL    HW127188   0.622   3.044   2.515 -0.8146  0.8166 -1.5877
 5184SOL    HW227189   0.618   2.950   2.623 -0.5286 -3.2683 -1.5321
 5185SOL     OW27190   2.111   3.482   6.476  0.4855 -0.2109  0.4893
 5185SOL    HW127191   2.077   3.447   6.558 -0.9883 -0.3084 -0.1557
 5185SOL    HW227192   2.095   3.402   6.425 -4.0991  1.8990 -1.4348
 5186SOL     OW27193   2.992   1.194   2.164  0.3638 -0.4178 -0.4013
 5186SOL    HW127194   2.974   1.187   2.258 -0.1210 -1.5511 -0.5795
 5186SOL    HW227195   3.058   1.262   2.153 -0.4903  0.4798 -0.0123
 5187SOL     OW27196   4.608   2.603   4.830  0.0861  0.1928  0.5666
 5187SOL    HW127197   4.698   2.579   4.854 -0.9772 -5.0808 -0.8484
 5187SOL    HW227198   4.595   2.688   4.871 -0.0148  0.4276  0.0446
 5188SOL     OW27199   0.142   3.309   8.737  0.0320  0.3653  0.2624
 5188SOL    HW127200   0.230   3.347   8.737 -0.3061  1.1453  0.4682
 5188SOL    HW227201   0.164   3.217   8.725  3.3501  1.3000 -0.8187
 5189SOL     OW27202   3.739   1.414  17.030  0.4777 -0.2775  0.0254
 5189SOL    HW127203   3.747   1.337  16.974 -2.9504 -0.3899 -0.3252
 5189SOL    HW227204   3.688   1.472  16.973 -1.6151  1.2888  3.4872
 5190SOL     OW27205   4.621   2.323   9.816  0.1012  0.0676  0.1084
 5190SOL    HW127206   4.591   2.298   9.729  1.4997  1.8432 -0.8821
 5190SOL    HW227207   4.578   2.262   9.876 -0.6437  0.7878  0.2989
 5191SOL     OW27208   2.715   2.110   1.567  0.4300 -0.1351  0.1417
 5191SOL    HW127209   2.740   2.115   1.474  1.6608  1.9279  0.5894
 5191SOL    HW227210   2.620   2.105   1.558  0.2947 -1.3088  2.3414
 5192SOL     OW27211   2.653   3.643   0.712 -0.2668 -0.1389  0.0093
 5192SOL    HW127212   2.737   3.612   0.747  0.3808  1.3444 -0.2277
 5192SOL    HW227213   2.676   3.698   0.637  1.9869 -0.5868  0.3548
 5193SOL     OW27214   3.678   2.031   4.104 -0.1253  0.5392 -0.7103
 5193SOL    HW127215   3.642   1.946   4.078 -0.5533 -0.0573  1.7940
 5193SOL    HW227216   3.760   2.025   4.055 -0.9581 -1.8424 -1.8218
 5194SOL     OW27217   3.694   2.810   8.149 -0.0520  0.1770  0.2430
 5194SOL    HW127218   3.748   2.744   8.106 -0.1658 -0.6094  1.2957
 5194SOL    HW227219   3.754   2.865   8.199  0.5923  0.6170 -1.0266
 5195SOL     OW27220   4.576   4.694   9.028 -0.0586  0.4236  0.5845
 5195SOL    HW127221   4.607   4.606   9.047 -1.8848 -0.0520  1.3347
 5195SOL    HW227222   4.546   4.691   8.937 -0.9948 -2.5704  1.0042
 5196SOL     OW27223   1.732   2.181   9.132 -0.0002  0.3724  0.4030
 5196SOL    HW127224   1.636   2.184   9.138  0.0004 -1.9508  1.4767
 5196SOL    HW227225   1.746   2.192   9.038  0.7144  1.4025  0.6299
 5197SOL     OW27226   1.341   4.486   1.296  0.7742 -0.4080  0.3771
 5197SOL    HW127227   1.289   4.417   1.253 -0.0608  0.8507 -0.6210
 5197SOL    HW227228   1.366   4.539   1.220 -2.8833  0.0623 -0.4915
 5198SOL     OW27229   4.302   3.349  12.240  0.2442  0.2271  0.4136
 5198SOL    HW127230   4.249   3.426  12.219 -2.3230 -1.7464 -0.3186
 5198SOL    HW227231   4.358   3.350  12.162  2.1396 -0.1901  1.7668
 5199SOL     OW27232   2.091   3.114   0.617  0.2303 -0.0609  0.1238
 5199SOL    HW127233   2.036   3.183   0.582  0.6675  0.1660 -0.1138
 5199SOL    HW227234   2.046   3.042   0.573  1.7487 -0.6700 -0.4242
 5200SOL     OW27235   2.430   2.780   8.018  0.2485  0.6864 -0.3429
 5200SOL    HW127236   2.392   2.792   7.931  0.9943  1.3881 -0.5613
 5200SOL    HW227237   2.430   2.870   8.048 -2.1587  1.4425 -2.6161
 5201SOL     OW27238   0.965   3.895   8.865  0.2075  0.3197  0.6881
 5201SOL    HW127239   0.974   3.873   8.957 -0.7999  2.2719  1.2508
 5201SOL    HW227240   0.989   3.815   8.817  0.5854 -0.7336  2.6481
 5202SOL     OW27241   1.542   3.738  10.357  0.2310  0.6055  0.3471
 5202SOL    HW127242   1.503   3.825  10.363 -0.7820  0.1137  0.9016
 5202SOL    HW227243   1.547   3.709  10.448  2.4232 -0.6293 -0.1626
 5203SOL     OW27244   3.477   0.898   4.245  0.0174 -0.5643  0.1614
 5203SOL    HW127245   3.389   0.936   4.238 -1.1386 -2.8619  2.0675
 5203SOL    HW227246   3.534   0.975   4.242 -0.2189 -0.3791  0.4882
 5204SOL     OW27247   1.608   2.475   5.445  0.0272 -0.2863 -0.4080
 5204SOL    HW127248   1.536   2.476   5.382  0.9390 -3.2396 -1.5186
 5204SOL    HW227249   1.571   2.503   5.529 -1.1246  2.7416 -1.9345
 5205SOL     OW27250   3.339   1.647   3.043  0.2591  0.3693  0.0582
 5205SOL    HW127251   3.379   1.608   3.121 -0.0124  2.2154  1.1350
 5205SOL    HW227252   3.280   1.576   3.021  0.6062  0.0926  0.0182
 5206SOL     OW27253   0.079   3.301   1.072  0.1083  0.6297  0.2569
 5206SOL    HW127254   0.057   3.323   0.981 -1.9201 -0.1349  0.5577
 5206SOL    HW227255   0.156   3.351   1.099 -1.0862  2.2271  0.6620
 5207SOL     OW27256   0.978   1.731  16.712  0.3387 -0.7180  0.4171
 5207SOL    HW127257   1.022   1.800  16.763  3.3407 -3.8093  1.9474
 5207SOL    HW227258   0.905   1.706  16.770 -0.5255 -1.0753 -0.8347
 5208SOL     OW27259   2.846   2.985   4.950  0.3204 -0.0860 -0.3692
 5208SOL    HW127260   2.786   3.026   4.888 -0.1941  0.4800  0.5065
 5208SOL    HW227261   2.796   2.914   4.990 -1.2393  0.1634 -1.9066
 5209SOL     OW27262   1.720   1.363   2.292  0.3341 -0.4195 -0.3514
 5209SOL    HW127263   1.745   1.455   2.288  1.3602 -0.6326  0.8759
 5209SOL    HW227264   1.626   1.366   2.277  0.6775 -1.3999 -2.6842
 5210SOL     OW27265   0.377   3.917   2.026 -0.0223  0.2469  0.0389
 5210SOL    HW127266   0.437   3.988   2.045  0.4485  0.0905 -0.8904
 5210SOL    HW227267   0.424   3.857   2.084  1.4850  0.7574 -0.6606
 5211SOL     OW27268   1.473   3.065   7.726 -0.1294  0.0893  0.3774
 5211SOL    HW127269   1.440   2.985   7.685 -1.8837  0.6174  0.7569
 5211SOL    HW227270   1.537   3.037   7.791 -0.5141 -0.4243  0.5308
 5212SOL     OW27271   3.477   0.214   5.515  0.3881  0.0236 -0.0134
 5212SOL    HW127272   3.527   0.217   5.433 -0.0186 -0.2339 -0.2681
 5212SOL    HW227273   3.419   0.140   5.500 -1.6157  1.5650  0.1195
 5213SOL     OW27274   4.174   1.262   9.365  0.2815 -0.3736  0.0371
 5213SOL    HW127275   4.195   1.178   9.325 -0.5911 -0.2533 -0.6566
 5213SOL    HW227276   4.247   1.268   9.427 -0.5536 -1.4780  1.1267
 5214SOL     OW27277   1.731   2.959   4.126  0.2420 -0.3495  0.3793
 5214SOL    HW127278   1.653   2.969   4.181 -1.7814 -0.7318 -2.4232
 5214SOL    HW227279   1.689   2.970   4.040  1.3357  5.0495  0.5019
 5215SOL     OW27280   1.800   4.481  13.721  0.0301 -0.1149 -0.7331
 5215SOL    HW127281   1.837   4.405  13.676  0.3561 -0.0948 -0.4961
 5215SOL    HW227282   1.864   4.548  13.696 -0.3702  0.4898 -0.1153
 5216SOL     OW27283   4.188   0.610   6.040 -0.0373 -0.0144 -0.0985
 5216SOL    HW127284   4.270   0.579   6.002  0.1459  0.4519 -0.0778
 5216SOL    HW227285   4.202   0.574   6.128  1.8492  2.0331  0.4488
 5217SOL     OW27286   1.104   1.368   0.242 -0.4527  0.3386 -0.4402
 5217SOL    HW127287   1.166   1.338   0.309 -0.7790  0.1707 -0.2126
 5217SOL    HW227288   1.170   1.388   0.176 -0.7398  1.4140 -0.4027
 5218SOL     OW27289   2.070   0.620  16.167  0.5811  0.6170  0.1998
 5218SOL    HW127290   2.029   0.595  16.249  0.2695 -0.8607 -0.4197
 5218SOL    HW227291   2.155   0.658  16.188 -0.1185  1.3274  1.7160
 5219SOL     OW27292   4.323   0.518   9.855  0.9086 -0.0565  0.2732
 5219SOL    HW127293   4.261   0.588   9.873  0.7150 -0.6753  2.0319
 5219SOL    HW227294   4.279   0.438   9.882  0.6328 -0.7975 -2.3831
 5220SOL     OW27295   3.674   0.970   5.461 -0.2971 -0.0259 -0.0429
 5220SOL    HW127296   3.728   0.960   5.382  0.6716 -1.8636  0.8667
 5220SOL    HW227297   3.588   0.936   5.435 -0.6469  1.5107 -0.9351
 5221SOL     OW27298   1.017   0.485  13.220 -0.4593 -0.1007 -0.5427
 5221SOL    HW127299   1.010   0.568  13.173 -0.1905 -0.0434 -0.4806
 5221SOL    HW227300   0.953   0.501  13.289 -1.0772 -2.4939 -0.5552
 5222SOL     OW27301   3.311   3.785   2.474  1.2244 -0.2352 -0.4591
 5222SOL    HW127302   3.301   3.855   2.539 -0.1917  0.1718 -1.0983
 5222SOL    HW227303   3.305   3.707   2.528 -1.2938 -0.0954 -0.5206
 5223SOL     OW27304   4.115   0.850   5.117  0.2664  0.1396 -0.0753
 5223SOL    HW127305   4.058   0.784   5.077 -0.2404  1.2295 -1.1533
 5223SOL    HW227306   4.057   0.921   5.090 -0.9781 -0.4877  0.9099
 5224SOL     OW27307   0.578   0.982   7.452 -0.3868 -0.0789 -1.0073
 5224SOL    HW127308   0.500   0.989   7.507  0.7526  0.7768  0.4933
 5224SOL    HW227309   0.557   0.896   7.414  0.2742 -0.7241  0.0990
 5225SOL     OW27310   2.067   1.980   7.309  0.0102 -0.0740 -0.8048
 5225SOL    HW127311   2.021   2.017   7.385 -0.0598 -0.4867 -0.6442
 5225SOL    HW227312   2.097   2.049   7.250  1.8410  1.6640  2.1108
 5226SOL     OW27313   4.200   0.298  13.117 -0.0698 -0.1236  0.9433
 5226SOL    HW127314   4.264   0.367  13.139 -0.2867  0.7329 -1.0752
 5226SOL    HW227315   4.216   0.225  13.176  1.9339  1.4393  2.3541
 5227SOL     OW27316   1.640   3.094   3.189 -0.3469  0.9742  0.0031
 5227SOL    HW127317   1.643   3.029   3.259  0.5931  0.8304 -0.1775
 5227SOL    HW227318   1.646   3.175   3.239 -0.3959  0.8218  0.2601
 5228SOL     OW27319   4.187   0.623   7.196  0.2764 -0.0494 -0.3801
 5228SOL    HW127320   4.200   0.699   7.139  1.4927  0.9768  1.2527
 5228SOL    HW227321   4.281   0.605   7.197  0.1105 -0.8362  0.6420
 5229SOL     OW27322   1.769   3.246   3.568  0.2385 -0.5700  0.1090
 5229SOL    HW127323   1.771   3.248   3.664 -0.4619  1.5503  0.0936
 5229SOL    HW227324   1.793   3.155   3.553  0.5252 -0.3220 -0.9580
 5230SOL     OW27325   1.281   2.535  16.441  0.0191  0.5066 -0.1075
 5230SOL    HW127326   1.270   2.560  16.349  0.9060  2.2931  0.2729
 5230SOL    HW227327   1.322   2.607  16.488  0.5347  0.4245 -0.4408
 5231SOL     OW27328   1.359   1.539   4.992  0.6062 -0.0707  0.3335
 5231SOL    HW127329   1.388   1.451   4.966  1.3733 -0.5707  2.9646
 5231SOL    HW227330   1.307   1.539   4.911  0.0661 -0.0489  0.6788
 5232SOL     OW27331   1.279   1.105   9.357 -0.0160  0.0868 -0.3923
 5232SOL    HW127332   1.331   1.116   9.278 -0.5375 -1.0795 -0.8902
 5232SOL    HW227333   1.322   1.027   9.393  0.7156  2.1669  3.2379
 5233SOL     OW27334   1.802   4.164   4.493 -0.3612 -0.0583 -0.2650
 5233SOL    HW127335   1.887   4.189   4.456  0.6393 -3.1404  0.0011
 5233SOL    HW227336   1.787   4.239   4.551  1.1285 -0.0404  0.1061
 5234SOL     OW27337   1.828   2.707   9.309 -0.2897 -0.1752  0.4015
 5234SOL    HW127338   1.888   2.782   9.313 -1.9434  1.2334 -0.9022
 5234SOL    HW227339   1.813   2.707   9.215  0.1891  1.0242  0.3190
 5235SOL     OW27340   2.660   2.601  14.173 -0.7700 -0.0362  0.2151
 5235SOL    HW127341   2.654   2.684  14.221 -0.5264  0.3886 -0.4816
 5235SOL    HW227342   2.704   2.539  14.230  0.6373  0.6048 -0.1746
 5236SOL     OW27343   4.719   3.194   2.470  0.7085  0.3662  0.4566
 5236SOL    HW127344   0.059   3.243   2.452  0.6466  0.0493 -0.6405
 5236SOL    HW227345   4.706   3.145   2.390  1.6321 -0.9130  1.0994
 5237SOL     OW27346   4.179   1.558   3.831 -0.5785  0.5029  0.1219
 5237SOL    HW127347   4.246   1.493   3.852 -2.5071 -1.2796  0.8552
 5237SOL    HW227348   4.227   1.611   3.768 -1.2515  2.1391  0.9889
 5238SOL     OW27349   2.232   3.174  11.162  0.1875  0.0296  0.1244
 5238SOL    HW127350   2.192   3.235  11.100 -0.2804 -0.9889 -0.5670
 5238SOL    HW227351   2.318   3.213  11.181  0.7156 -0.8091 -0.5327
 5239SOL     OW27352   4.629   3.357   3.737  0.7083  0.3571  0.2175
 5239SOL    HW127353   4.666   3.337   3.651 -1.6203  0.3400 -0.7760
 5239SOL    HW227354   4.562   3.421   3.712  1.2076  1.0152  0.5926
 5240SOL     OW27355   4.395   1.816   4.132 -0.3434 -0.1468 -0.5449
 5240SOL    HW127356   4.473   1.867   4.154 -1.6872  1.7316 -0.0965
 5240SOL    HW227357   4.360   1.865   4.058 -2.8104 -1.1427 -0.0470
 5241SOL     OW27358   4.179   4.560  10.548  0.2048  0.2453  0.0820
 5241SOL    HW127359   4.192   4.471  10.515  3.4410  1.4162 -1.7361
 5241SOL    HW227360   4.271   4.585  10.550  0.6481 -1.3919 -0.3862
 5242SOL     OW27361   0.844   3.596   7.329 -0.0807 -1.1294  0.2085
 5242SOL    HW127362   0.907   3.526   7.347 -0.6397 -1.4564  0.8843
 5242SOL    HW227363   0.903   3.668   7.307 -2.1010 -0.4303 -2.8584
 5243SOL     OW27364   3.762   4.647   6.019  0.8499 -0.2664 -0.4410
 5243SOL    HW127365   3.824   4.600   6.075  0.8760  0.7103  0.3362
 5243SOL    HW227366   3.829   4.694   5.968  0.6943  2.0412  1.5011
 5244SOL     OW27367   0.993   3.473   3.752  0.0641 -0.1340  0.0887
 5244SOL    HW127368   1.027   3.544   3.697 -1.5224 -0.4186 -1.2417
 5244SOL    HW227369   0.899   3.488   3.762 -0.2185 -2.0313  0.3512
 5245SOL     OW27370   0.281   0.952   9.396 -0.0825  0.1145  0.2039
 5245SOL    HW127371   0.354   0.925   9.452 -0.4767 -2.4644 -0.5696
 5245SOL    HW227372   0.234   1.023   9.441  0.3160  0.2597  0.3911
 5246SOL     OW27373   2.289   2.805   2.996 -0.6065  0.0724  0.8879
 5246SOL    HW127374   2.284   2.901   2.993 -2.5694 -0.0560  0.3166
 5246SOL    HW227375   2.195   2.788   3.002 -1.2847  3.9068  1.6009
 5247SOL     OW27376   2.577   4.604   0.004  0.7840 -0.2694 -0.0252
 5247SOL    HW127377   2.520   4.619   0.079  0.3552  1.2847 -0.6601
 5247SOL    HW227378   2.658   4.630   0.049 -0.4014  1.5380  1.0706
 5248SOL     OW27379   1.070   2.539  14.981 -0.1662 -0.2981  0.1552
 5248SOL    HW127380   1.106   2.614  14.933  0.2595 -1.1235 -0.8087
 5248SOL    HW227381   0.976   2.556  14.984 -0.2621 -1.0714  1.4709
 5249SOL     OW27382   1.495   1.414   2.515  0.6906  0.1614 -0.3409
 5249SOL    HW127383   1.486   1.435   2.422  0.7433 -0.7272 -0.5441
 5249SOL    HW227384   1.407   1.420   2.553 -0.3348 -1.7735 -2.4524
 5250SOL     OW27385   1.389   1.426   8.300 -0.1782 -0.0079 -0.4196
 5250SOL    HW127386   1.369   1.334   8.314  0.6007 -0.0751  0.2958
 5250SOL    HW227387   1.413   1.455   8.388 -0.2942  2.4706 -1.2046
 5251SOL     OW27388   4.681   3.623   5.853 -0.1941  0.0514  0.2544
 5251SOL    HW127389   4.680   3.700   5.910 -1.1901 -0.3175  0.7394
 5251SOL    HW227390   4.685   3.564   5.928  0.3135 -3.1834 -2.3255
 5252SOL     OW27391   2.447   3.983   5.506  0.1480 -0.1834 -0.3932
 5252SOL    HW127392   2.529   3.952   5.468  0.1422  0.1887 -0.7104
 5252SOL    HW227393   2.466   4.056   5.565  2.0319 -0.8325 -0.2049
 5253SOL     OW27394   3.990   2.956   4.373 -0.0200 -0.3984  0.0119
 5253SOL    HW127395   3.921   2.894   4.349  0.0347  0.3490 -2.0319
 5253SOL    HW227396   4.058   2.921   4.316 -1.0259  0.2572 -1.6061
 5254SOL     OW27397   2.715   3.562   3.264  0.0472 -0.6869  0.1879
 5254SOL    HW127398   2.767   3.603   3.333  0.2084 -0.8786  0.1779
 5254SOL    HW227399   2.629   3.604   3.266 -0.2377 -1.3432  1.6898
 5255SOL     OW27400   3.349   0.863   5.006 -0.7854 -0.0533  0.3675
 5255SOL    HW127401   3.333   0.956   4.987 -1.5541 -0.1178  0.7039
 5255SOL    HW227402   3.394   0.872   5.089  1.7990  1.5523 -1.2249
 5256SOL     OW27403   1.819   3.522  15.219  0.3751 -0.3936 -0.4792
 5256SOL    HW127404   1.911   3.528  15.246 -0.1259 -1.4341  1.3964
 5256SOL    HW227405   1.813   3.586  15.148 -0.4620 -1.1064 -1.0597
 5257SOL     OW27406   1.291   2.945   3.784 -1.0229  0.6240  0.4290
 5257SOL    HW127407   1.225   2.875   3.784  1.0545 -1.3112  0.9206
 5257SOL    HW227408   1.333   2.927   3.867 -0.4769  0.2217  0.0619
 5258SOL     OW27409   1.777   2.557   4.425  0.1840  0.6407  0.5431
 5258SOL    HW127410   1.855   2.508   4.451 -0.5590  0.1223  1.7584
 5258SOL    HW227411   1.804   2.649   4.420  0.5357  0.4781 -0.7131
 5259SOL     OW27412   0.179   0.838   0.806 -0.2785  0.1245 -0.5113
 5259SOL    HW127413   0.266   0.819   0.770 -0.5951 -0.5521 -0.9248
 5259SOL    HW227414   0.196   0.923   0.847  0.5445 -0.3107  0.0619
 5260SOL     OW27415   2.511   0.844   3.385 -0.0243  0.3029 -0.8143
 5260SOL    HW127416   2.557   0.862   3.467 -0.2219 -1.6362 -0.2837
 5260SOL    HW227417   2.577   0.880   3.325  0.9182  2.0642  1.2777
 5261SOL     OW27418   2.787   3.205   7.378  0.3378  0.0295 -0.2114
 5261SOL    HW127419   2.748   3.224   7.464 -0.8768  0.0295 -0.7553
 5261SOL    HW227420   2.822   3.291   7.354 -2.7222  1.3690 -0.0169
 5262SOL     OW27421   1.842   4.403   1.727 -0.8511 -0.1152 -0.6580
 5262SOL    HW127422   1.898   4.470   1.766 -0.7604 -0.1683 -0.6970
 5262SOL    HW227423   1.845   4.436   1.637 -2.7083  0.9277 -0.3419
 5263SOL     OW27424   3.926   2.526   4.083 -0.7223  0.1906 -0.1272
 5263SOL    HW127425   4.009   2.565   4.056  0.0698 -1.5042 -0.1391
 5263SOL    HW227426   3.863   2.595   4.060 -0.5226  0.1513 -0.7787
 5264SOL     OW27427   3.389   3.353  12.119  0.3867 -0.6981 -0.0031
 5264SOL    HW127428   3.406   3.406  12.197 -1.4015 -0.8956  0.5269
 5264SOL    HW227429   3.464   3.296  12.137  0.6496 -0.1975  0.4766
 5265SOL     OW27430   2.418   2.261   1.726  0.5593  0.3851 -0.3303
 5265SOL    HW127431   2.415   2.174   1.686 -3.0513 -0.6835  2.2665
 5265SOL    HW227432   2.326   2.283   1.740  0.2282 -0.5366 -1.0724
 5266SOL     OW27433   3.246   1.180   1.026  0.0497  0.1924  0.1082
 5266SOL    HW127434   3.286   1.096   1.005  0.8545  0.6849 -0.3227
 5266SOL    HW227435   3.238   1.210   0.936 -0.9680  0.5651  0.3203
 5267SOL     OW27436   0.810   0.007   5.459 -0.6274 -0.3330 -0.2457
 5267SOL    HW127437   0.771   4.660   5.460  0.5957 -0.9034 -1.4370
 5267SOL    HW227438   0.791   0.047   5.544  0.0950  0.6482 -0.5398
 5268SOL     OW27439   2.642   3.364   6.134 -1.1435 -0.3796 -0.3929
 5268SOL    HW127440   2.684   3.310   6.067  2.4254 -0.9349  2.3071
 5268SOL    HW227441   2.705   3.390   6.201 -1.3275  0.6240 -0.6083
 5269SOL     OW27442   0.704   2.340   4.414 -0.6720  0.0950 -0.0567
 5269SOL    HW127443   0.654   2.288   4.477  0.4075 -0.0895  0.6461
 5269SOL    HW227444   0.646   2.339   4.338 -2.4347  0.0366  1.2819
 5270SOL     OW27445   2.438   2.717   9.387 -0.1180 -0.1245 -0.0998
 5270SOL    HW127446   2.464   2.809   9.386  1.8591 -0.6601  1.5502
 5270SOL    HW227447   2.445   2.703   9.481 -1.7835  0.3509  0.0802
 5271SOL     OW27448   2.795   2.056  12.116  0.0125  0.3962 -0.0287
 5271SOL    HW127449   2.814   2.052  12.210  0.1957  0.5516 -0.0584
 5271SOL    HW227450   2.734   1.983  12.105  1.1145 -1.0351  3.5274
 5272SOL     OW27451   3.695   4.488   8.198 -0.4127 -0.1004 -0.4634
 5272SOL    HW127452   3.756   4.542   8.248 -0.1555 -1.4565  0.7000
 5272SOL    HW227453   3.708   4.398   8.229  0.6689 -0.2660 -1.4056
 5273SOL     OW27454   3.947   3.789   8.768  0.8120  0.1168  0.3202
 5273SOL    HW127455   3.994   3.804   8.850  0.4633  2.8383  0.0003
 5273SOL    HW227456   3.856   3.792   8.798  0.8590  2.1432  0.2272
 5274SOL     OW27457   4.035   2.347  11.926  0.1661 -0.3403 -0.1992
 5274SOL    HW127458   4.029   2.330  11.832  0.4173  2.3897 -0.7136
 5274SOL    HW227459   4.085   2.429  11.932  0.6139 -0.4030 -2.9296
 5275SOL     OW27460   4.468   4.492   3.193 -0.6261  0.4631  0.2873
 5275SOL    HW127461   4.397   4.458   3.248  0.3866  1.5985  2.3041
 5275SOL    HW227462   4.546   4.447   3.225 -0.5508  1.5046  1.5680
 5276SOL     OW27463   2.723   3.764   5.045 -0.4767 -0.3998 -0.2229
 5276SOL    HW127464   2.647   3.821   5.053 -0.0406  0.0488  0.6735
 5276SOL    HW227465   2.727   3.722   5.131  2.5906  0.0311 -0.1552
 5277SOL     OW27466   1.264   4.194   6.203  0.6742 -0.9075 -0.2554
 5277SOL    HW127467   1.319   4.119   6.227  0.2467 -0.7198  1.2818
 5277SOL    HW227468   1.230   4.219   6.289 -0.1992 -2.0515 -0.2576
 5278SOL     OW27469   4.173   3.497   9.036  0.0410  0.8021 -0.0143
 5278SOL    HW127470   4.193   3.468   8.947  2.6979  1.5660  0.3376
 5278SOL    HW227471   4.248   3.465   9.085  0.4494  2.3801  0.3958
 5279SOL     OW27472   3.186   0.289  12.213 -0.3903 -0.2312  0.3454
 5279SOL    HW127473   3.223   0.349  12.148 -0.2937  1.3725  1.8851
 5279SOL    HW227474   3.226   0.325  12.292  0.4659  0.0050 -0.1977
 5280SOL     OW27475   0.336   1.882  14.079 -0.4404  0.4851  0.0029
 5280SOL    HW127476   0.315   1.975  14.074 -0.1780  0.5666  0.3829
 5280SOL    HW227477   0.260   1.844  14.123  0.1532  0.5854  1.1180
 5281SOL     OW27478   1.285   2.259   1.763  0.1415 -0.0517  1.0768
 5281SOL    HW127479   1.211   2.282   1.820 -0.5802 -0.8338  0.4611
 5281SOL    HW227480   1.259   2.308   1.684 -0.5500  0.9879  1.9474
 5282SOL     OW27481   3.629   2.080   4.620  0.7591 -0.1002  0.4020
 5282SOL    HW127482   3.696   2.089   4.553 -0.5783 -0.5168 -1.0000
 5282SOL    HW227483   3.677   2.013   4.669 -0.4213 -1.1738  0.1212
 5283SOL     OW27484   1.653   3.548   7.271  0.3347  0.0075 -0.5275
 5283SOL    HW127485   1.616   3.609   7.334 -0.1158  0.2290 -1.0124
 5283SOL    HW227486   1.643   3.609   7.197  0.8225  0.5911 -0.1144
 5284SOL     OW27487   1.969   1.357   8.304  0.5407  0.5163 -0.2986
 5284SOL    HW127488   1.903   1.356   8.373 -0.6580 -2.8863 -1.5064
 5284SOL    HW227489   2.047   1.328   8.351  0.9123  1.8936 -0.0649
 5285SOL     OW27490   3.940   0.974  11.418  0.4311  0.1827 -0.0352
 5285SOL    HW127491   3.886   1.005  11.346 -2.3464 -1.9326  1.1573
 5285SOL    HW227492   4.024   0.958  11.375  0.0198 -1.1026 -0.3697
 5286SOL     OW27493   0.852   0.341   5.352  0.2378  0.0513  0.4942
 5286SOL    HW127494   0.851   0.333   5.448  0.7428  0.4280  0.5292
 5286SOL    HW227495   0.904   0.264   5.329 -1.6132  0.0936 -3.8508
 5287SOL     OW27496   0.266   2.315  13.580  0.0391  0.0674 -0.9452
 5287SOL    HW127497   0.191   2.362  13.616  0.2659  1.0508 -1.7585
 5287SOL    HW227498   0.308   2.278  13.658  0.3237 -0.8076 -1.5091
 5288SOL     OW27499   4.074   0.563  17.720  0.2850 -0.8184  0.6987
 5288SOL    HW127500   3.983   0.585  17.699  0.6271  0.3370  0.4032
 5288SOL    HW227501   4.068   0.488   0.022  0.8978 -0.0972  1.6917
 5289SOL     OW27502   0.715   2.553   6.159  0.9080 -0.2461 -0.1789
 5289SOL    HW127503   0.766   2.623   6.202  0.0489  1.0460 -1.2872
 5289SOL    HW227504   0.769   2.476   6.177  1.3179 -0.4667 -2.4236
 5290SOL     OW27505   1.714   1.680   6.672  0.6562 -0.5581  0.3137
 5290SOL    HW127506   1.724   1.587   6.648  1.7631 -0.3173 -0.1619
 5290SOL    HW227507   1.620   1.689   6.690  0.9997  2.4245  0.4892
 5291SOL     OW27508   4.622   2.902  13.732 -0.0393  0.3033 -0.2742
 5291SOL    HW127509   4.653   2.902  13.642 -2.8002  0.8205 -1.2165
 5291SOL    HW227510   4.655   2.984  13.768 -0.1930 -0.3496  1.3681
 5292SOL     OW27511   2.159   0.079   9.483  0.2240 -0.0552  0.0038
 5292SOL    HW127512   2.065   0.093   9.497  0.2066 -0.3378  0.1556
 5292SOL    HW227513   2.167   4.727   9.510 -0.4450 -0.3941 -0.9362
 5293SOL     OW27514   3.864   4.380   7.388 -0.0843  0.3033  0.4373
 5293SOL    HW127515   3.922   4.442   7.343 -0.9371  0.2539 -0.7170
 5293SOL    HW227516   3.802   4.342   7.327 -1.2120  0.4467  1.5064
 5294SOL     OW27517   0.910   4.730  16.004 -0.1194 -0.2244 -0.1835
 5294SOL    HW127518   0.870   0.017  16.087  0.5455  0.0005  0.0577
 5294SOL    HW227519   0.950   0.073  15.976  0.6650 -0.5324  0.0341
 5295SOL     OW27520   0.675   0.965   6.549 -0.6648  0.7610  0.5234
 5295SOL    HW127521   0.624   0.889   6.522 -1.0661  0.7617  1.2860
 5295SOL    HW227522   0.615   1.038   6.530  1.4220  2.4011  0.1986
 5296SOL     OW27523   1.791   1.003   6.406  0.4724 -0.0066  0.5011
 5296SOL    HW127524   1.838   0.979   6.485 -2.8187 -1.0900  2.1540
 5296SOL    HW227525   1.724   0.934   6.404 -2.5596  2.9474  0.2359
 5297SOL     OW27526   4.667   4.713  13.254 -0.6024  0.5188 -0.1243
 5297SOL    HW127527   4.699   4.626  13.277  1.2349  0.8950 -1.2405
 5297SOL    HW227528   4.662   4.717  13.158  0.7837  1.6097 -0.1509
 5298SOL     OW27529   2.316   4.344  14.923 -0.0266  0.2036 -0.4071
 5298SOL    HW127530   2.355   4.333  14.836  1.4058 -0.8055  0.3816
 5298SOL    HW227531   2.290   4.436  14.932 -1.6681 -0.2348 -0.7042
 5299SOL     OW27532   3.363   1.614   9.374  0.6483 -0.6486  0.3560
 5299SOL    HW127533   3.349   1.587   9.465  0.2108  0.5485  0.6477
 5299SOL    HW227534   3.446   1.660   9.386 -1.5223  3.3011  0.0740
 5300SOL     OW27535   2.151   0.289  10.733 -0.8628  0.3262  0.1672
 5300SOL    HW127536   2.079   0.231  10.708  1.8469 -1.8909 -2.3890
 5300SOL    HW227537   2.123   0.330  10.815  1.7765 -0.2375  1.3650
 5301SOL     OW27538   3.016   1.234  15.047 -0.2195 -0.1483  0.2630
 5301SOL    HW127539   2.983   1.180  14.975  0.7209 -0.3958  0.0141
 5301SOL    HW227540   3.065   1.299  14.997  0.5438 -1.0657 -0.1812
 5302SOL     OW27541   2.547   1.793   5.182  0.1325 -0.0968 -0.4219
 5302SOL    HW127542   2.611   1.861   5.163  3.9920 -3.3132  1.1493
 5302SOL    HW227543   2.574   1.740   5.107 -1.3587 -0.9018 -0.3958
 5303SOL     OW27544   3.972   1.086   3.890  0.6154 -0.1541  0.5084
 5303SOL    HW127545   4.042   1.079   3.955 -0.0352 -1.6361  1.0554
 5303SOL    HW227546   3.913   1.017   3.919  1.3011 -0.6668  0.6892
 5304SOL     OW27547   1.437   3.224   6.958  0.1241  0.8937 -0.0470
 5304SOL    HW127548   1.355   3.214   6.910 -0.3101 -1.3748  1.1386
 5304SOL    HW227549   1.487   3.143   6.952 -0.0737  0.6586  1.4260
 5305SOL     OW27550   0.278   3.793   6.678  0.7880 -0.0995 -0.5574
 5305SOL    HW127551   0.361   3.817   6.636  1.7180 -0.9551  0.7802
 5305SOL    HW227552   0.293   3.701   6.702  0.9433 -0.1911 -1.0071
 5306SOL     OW27553   0.467   4.020   4.361 -0.4131  0.5173  0.6420
 5306SOL    HW127554   0.416   3.939   4.359 -0.2459  0.4262  0.1148
 5306SOL    HW227555   0.498   4.035   4.272 -0.1144 -2.6407  0.2310
 5307SOL     OW27556   2.488   3.942   2.970 -0.2463 -0.1686  0.4335
 5307SOL    HW127557   2.583   3.940   2.983 -0.1465  2.5185  0.0005
 5307SOL    HW227558   2.476   4.034   2.947 -0.8583 -0.5257 -0.6829
 5308SOL     OW27559   4.080   4.481   8.147  0.1766 -0.0330  0.3025
 5308SOL    HW127560   3.989   4.490   8.118 -0.9508 -2.3549  3.1089
 5308SOL    HW227561   4.124   4.501   8.065  1.4606  0.3300  1.0873
 5309SOL     OW27562   3.515   2.715   3.907  0.0957  0.5286 -0.2930
 5309SOL    HW127563   3.516   2.769   3.828 -0.3866  1.4356  0.3123
 5309SOL    HW227564   3.431   2.749   3.938 -0.5868 -1.8250  0.4241
 5310SOL     OW27565   4.226   4.084   2.963  0.4544 -0.3326  0.7382
 5310SOL    HW127566   4.321   4.083   2.950  0.0759 -0.6646 -1.8379
 5310SOL    HW227567   4.229   4.145   3.037 -0.0455 -2.4636  2.5315
 5311SOL     OW27568   4.553   4.377   9.066  0.0271  0.0714  0.1861
 5311SOL    HW127569   4.460   4.381   9.085 -0.1399 -0.4651 -0.5239
 5311SOL    HW227570   4.583   4.405   9.153  0.9799 -0.3695 -0.0055
 5312SOL     OW27571   4.282   4.495  15.566 -0.3869 -0.0556  0.3388
 5312SOL    HW127572   4.264   4.584  15.598 -1.5687  0.1105 -0.8146
 5312SOL    HW227573   4.194   4.466  15.543  0.4069 -2.9976  0.9929
 5313SOL     OW27574   3.019   2.943   6.652  0.3340  0.1619  0.3112
 5313SOL    HW127575   2.926   2.966   6.653  0.4705  0.8302 -1.1121
 5313SOL    HW227576   3.021   2.847   6.653  0.2418  0.1467 -0.9700
 5314SOL     OW27577   3.290   0.433  12.445  0.0687  0.5582  0.1469
 5314SOL    HW127578   3.299   0.484  12.526  0.9096 -1.0927  1.0821
 5314SOL    HW227579   3.370   0.381  12.454 -1.8605 -2.1036  1.7109
 5315SOL     OW27580   1.713   2.732   3.154  0.3776 -0.0715 -0.0672
 5315SOL    HW127581   1.750   2.779   3.228  2.3923 -0.6354 -0.7234
 5315SOL    HW227582   1.681   2.650   3.191  1.6819 -1.3187 -1.6828
 5316SOL     OW27583   1.161   2.557   2.557  0.5812  0.2901  0.5798
 5316SOL    HW127584   1.254   2.575   2.569  0.7988 -1.5675  1.5971
 5316SOL    HW227585   1.147   2.618   2.485 -0.1009  1.1339  1.4190
 5317SOL     OW27586   1.395   0.065   6.036  0.4732  0.6614  0.5433
 5317SOL    HW127587   1.467   0.058   6.098  0.8896  0.8778  0.0840
 5317SOL    HW227588   1.321   0.026   6.082  0.9075 -2.6570 -1.5559
 5318SOL     OW27589   1.215   3.281  17.548  0.5796 -0.0472  0.3860
 5318SOL    HW127590   1.195   3.371  17.521  3.5389  0.4668 -0.0865
 5318SOL    HW227591   1.186   3.282  17.639 -0.0500  0.4323  0.1825
 5319SOL     OW27592   2.660   1.913   7.457 -0.0722 -0.5314  0.2718
 5319SOL    HW127593   2.753   1.912   7.435  0.0883 -1.4784  1.0010
 5319SOL    HW227594   2.648   1.818   7.466  3.1113 -0.8031  1.7409
 5320SOL     OW27595   0.160   4.333   6.021 -0.6333  0.6497 -0.4282
 5320SOL    HW127596   0.191   4.296   5.938 -0.7326  1.7625 -0.9596
 5320SOL    HW227597   0.127   4.417   5.989  1.6962  1.1654 -1.5249
 5321SOL     OW27598   2.670   4.642   8.452  0.2495 -0.3333  0.4338
 5321SOL    HW127599   2.753   4.627   8.408 -0.6343 -1.9548 -0.6578
 5321SOL    HW227600   2.658   4.573   8.517 -0.0281 -1.7343 -1.1073
 5322SOL     OW27601   3.736   3.888   7.754  0.1432  0.3577 -0.5423
 5322SOL    HW127602   3.696   3.828   7.817  1.5161  0.4197  0.3958
 5322SOL    HW227603   3.689   3.971   7.768  1.4977  0.6945  2.1065
 5323SOL     OW27604   3.058   0.674   8.667  0.3140  0.6013  0.2856
 5323SOL    HW127605   3.057   0.585   8.631  2.8983  0.3538  0.8930
 5323SOL    HW227606   3.045   0.720   8.584  0.1537  0.2749  0.1244
 5324SOL     OW27607   3.437   4.411  16.827 -0.2177  0.3663 -0.1393
 5324SOL    HW127608   3.413   4.504  16.835 -1.7089 -0.2530  2.4315
 5324SOL    HW227609   3.457   4.412  16.733  3.3050 -2.5280  0.6091
 5325SOL     OW27610   2.413   2.255   4.602  0.2989 -0.0440 -0.2204
 5325SOL    HW127611   2.320   2.236   4.606  0.3835 -0.3582  0.2378
 5325SOL    HW227612   2.412   2.346   4.632 -0.6489  0.0342 -0.4980
 5326SOL     OW27613   0.583   1.366   8.681  0.0661 -0.2546 -0.5516
 5326SOL    HW127614   0.516   1.371   8.750  0.5323 -0.8999 -0.0493
 5326SOL    HW227615   0.555   1.431   8.617 -0.2221  0.2075  0.0424
 5327SOL     OW27616   1.992   4.687  15.407  0.2172  0.1314  0.2106
 5327SOL    HW127617   1.912   4.694  15.459 -0.1659 -0.4508 -0.2910
 5327SOL    HW227618   1.962   4.631  15.335 -0.4650 -1.1399  1.4915
 5328SOL     OW27619   0.778   0.402   4.443  0.1915 -0.0499 -0.0528
 5328SOL    HW127620   0.730   0.483   4.426 -1.5967 -1.0031  0.4904
 5328SOL    HW227621   0.718   0.330   4.425  0.8913 -0.9635  1.2438
 5329SOL     OW27622   3.197   1.623   4.041 -0.5210  0.4432 -0.2922
 5329SOL    HW127623   3.161   1.601   3.955 -1.2822 -1.3424  0.4718
 5329SOL    HW227624   3.156   1.551   4.089 -0.5998  2.4722  2.6876
 5330SOL     OW27625   2.428   3.958   3.667  0.3097  0.1263 -0.2206
 5330SOL    HW127626   2.502   4.006   3.705  0.7985 -0.8133  0.0186
 5330SOL    HW227627   2.372   4.027   3.632  1.0108  0.6926 -0.2454
 5331SOL     OW27628   0.268   0.080   6.784 -0.4996 -0.3759 -0.3567
 5331SOL    HW127629   0.346   0.093   6.838 -1.1160 -0.3795  0.5127
 5331SOL    HW227630   0.275   0.155   6.725 -2.4502 -0.2777 -0.4583
 5332SOL     OW27631   2.188   2.590   6.490  0.1489 -0.0117  0.7607
 5332SOL    HW127632   2.120   2.620   6.429  0.8000 -0.8869 -0.4049
 5332SOL    HW227633   2.156   2.625   6.573 -3.4325 -1.2559 -0.0820
 5333SOL     OW27634   4.412   2.937  17.066  0.1509  0.0842  0.4754
 5333SOL    HW127635   4.382   3.019  17.105  1.2709  1.4809 -1.6611
 5333SOL    HW227636   4.469   2.966  16.995  0.7587 -0.0209  0.9158
 5334SOL     OW27637   4.154   4.416  12.896 -0.1397  0.2374 -1.0470
 5334SOL    HW127638   4.130   4.364  12.819 -1.2449 -0.7845 -0.0092
 5334SOL    HW227639   4.185   4.348  12.956 -0.4935  0.9296 -0.0936
 5335SOL     OW27640   0.840   0.410  16.215  0.1435  0.1154 -0.4513
 5335SOL    HW127641   0.760   0.458  16.239 -0.0276  0.7720 -2.2988
 5335SOL    HW227642   0.910   0.426  16.278 -1.3344 -0.4129  1.3622
 5336SOL     OW27643   3.407   0.669   9.129  0.0991 -0.2993  0.8739
 5336SOL    HW127644   3.324   0.631   9.099 -1.1281  1.5035  1.9861
 5336SOL    HW227645   3.380   0.715   9.208 -2.8746  0.5052 -0.6166
 5337SOL     OW27646   2.393   0.021  12.347 -0.0978 -0.2930  0.1504
 5337SOL    HW127647   2.471   0.071  12.371 -0.5586  1.4448 -2.0166
 5337SOL    HW227648   2.337   0.033  12.424 -0.6691  2.8130 -0.7758
 5338SOL     OW27649   2.349   0.806  10.572 -0.0837 -0.0935  0.0620
 5338SOL    HW127650   2.401   0.826  10.650 -0.6642  1.1970  0.1315
 5338SOL    HW227651   2.368   0.892  10.533  1.1411  1.1036  3.2755
 5339SOL     OW27652   2.881   4.114  17.715 -0.8769  1.0501 -0.1103
 5339SOL    HW127653   2.953   4.157  17.670 -0.4694  1.7446  1.2023
 5339SOL    HW227654   2.818   4.120  17.643 -0.7271 -0.4284 -0.3635
 5340SOL     OW27655   3.196   1.270  10.437  0.0523 -0.1779  0.2057
 5340SOL    HW127656   3.223   1.204  10.500 -1.3584 -1.0670 -0.1218
 5340SOL    HW227657   3.219   1.350  10.484  1.3848 -0.2857 -0.2592
 5341SOL     OW27658   1.951   4.389   3.750 -0.0664 -0.2247  0.4966
 5341SOL    HW127659   1.945   4.415   3.842  0.7605  1.4625  0.0825
 5341SOL    HW227660   2.044   4.370   3.739 -0.2366 -0.9029  0.2596
 5342SOL     OW27661   3.562   2.192   1.230 -0.1199 -0.3592 -0.3843
 5342SOL    HW127662   3.578   2.221   1.319 -1.7716  2.2048 -0.9198
 5342SOL    HW227663   3.468   2.212   1.227 -0.1615 -0.8107 -2.3318
 5343SOL     OW27664   1.935   2.625   2.775  0.0438 -0.8158 -0.1169
 5343SOL    HW127665   2.000   2.556   2.759  0.9142  0.1410 -0.6988
 5343SOL    HW227666   1.968   2.680   2.846 -0.3338  2.8917 -2.8075
 5344SOL     OW27667   4.463   0.520   7.980  0.3326 -0.3756 -0.4463
 5344SOL    HW127668   4.379   0.563   7.995  0.2936 -0.9355  0.9746
 5344SOL    HW227669   4.481   0.481   8.066  2.5801  1.0405 -0.2482
 5345SOL     OW27670   1.379   0.245   0.503 -0.0229 -0.3282  0.1794
 5345SOL    HW127671   1.431   0.212   0.577  1.2168 -1.3073 -1.1373
 5345SOL    HW227672   1.447   0.297   0.461  0.4574 -2.8403 -2.1800
 5346SOL     OW27673   1.339   4.349  11.125  0.4293  0.0959 -0.1427
 5346SOL    HW127674   1.246   4.340  11.148  0.3516  0.6559 -0.2570
 5346SOL    HW227675   1.333   4.416  11.057  2.1662  0.7909  0.4097
 5347SOL     OW27676   1.973   0.682  11.302 -0.1066 -0.0919 -0.3999
 5347SOL    HW127677   1.966   0.662  11.395 -0.9167  2.0850  0.0144
 5347SOL    HW227678   1.918   0.610  11.271 -0.6372 -0.3097  1.0584
 5348SOL     OW27679   4.359   2.019  11.767 -0.1896  0.5076  0.2915
 5348SOL    HW127680   4.386   1.962  11.695  1.3165  0.1125  1.1675
 5348SOL    HW227681   4.359   1.961  11.843  0.8204 -0.0646 -0.1532
 5349SOL     OW27682   0.741   3.910   5.122 -0.1266 -0.4425 -0.0622
 5349SOL    HW127683   0.826   3.891   5.160  0.6550 -1.4780 -2.3450
 5349SOL    HW227684   0.759   3.874   5.035  0.9047 -1.1685  0.4591
 5350SOL     OW27685   2.048   0.323   6.580  0.0850  0.4163  0.3506
 5350SOL    HW127686   2.142   0.337   6.573  0.0114  0.9127  0.3591
 5350SOL    HW227687   2.029   0.282   6.495  0.2199 -0.1383  0.5923
 5351SOL     OW27688   1.090   3.539   4.464 -0.1762  0.6056  0.1441
 5351SOL    HW127689   0.996   3.527   4.468 -0.3653  2.0111  0.0565
 5351SOL    HW227690   1.092   3.624   4.421 -2.2264  0.2566 -0.5941
 5352SOL     OW27691   3.603   0.176   2.537 -0.3964  0.3890  0.2676
 5352SOL    HW127692   3.616   0.267   2.566  1.0346  0.3031 -0.0920
 5352SOL    HW227693   3.645   0.124   2.605  0.0830 -0.9172 -1.0324
 5353SOL     OW27694   3.613   1.828   8.725  0.5041  0.0887  0.7276
 5353SOL    HW127695   3.645   1.865   8.807  0.4680  1.5066  0.1156
 5353SOL    HW227696   3.572   1.908   8.690 -1.1390 -0.3962  1.5584
 5354SOL     OW27697   3.758   4.003   7.123  0.2195 -0.0241 -0.1732
 5354SOL    HW127698   3.690   4.034   7.063  0.3709 -0.3911 -0.5360
 5354SOL    HW227699   3.741   3.909   7.131 -2.3495  0.3383 -1.3586
 5355SOL     OW27700   1.310   2.944   8.053  0.0963  0.7548  0.2694
 5355SOL    HW127701   1.359   3.012   8.101 -0.8938  0.8485  1.1478
 5355SOL    HW227702   1.277   2.880   8.116 -0.1988 -0.8466 -1.5502
 5356SOL     OW27703   3.497   4.251   3.919  0.1151  0.2888  0.0885
 5356SOL    HW127704   3.482   4.288   4.006  0.2959 -0.2464  0.3504
 5356SOL    HW227705   3.452   4.321   3.872  0.4128  1.1148  1.0329
 5357SOL     OW27706   3.450   0.228   6.394 -0.2290  0.6744 -0.0919
 5357SOL    HW127707   3.445   0.295   6.325  0.1570  0.7408 -0.0565
 5357SOL    HW227708   3.432   0.280   6.472 -2.1024  2.3309 -1.5951
 5358SOL     OW27709   0.814   4.386   0.520  0.5620 -0.1521  0.1205
 5358SOL    HW127710   0.760   4.431   0.455  0.8357 -0.6319 -0.4438
 5358SOL    HW227711   0.881   4.354   0.460  0.6168 -1.2230  0.7569
 5359SOL     OW27712   0.721   3.603   8.391 -0.3928  0.3640  0.9247
 5359SOL    HW127713   0.814   3.600   8.414 -0.3115  0.8629  0.6623
 5359SOL    HW227714   0.721   3.509   8.371 -2.6458  0.8775 -1.4383
 5360SOL     OW27715   4.736   1.264   7.368  0.2293  0.0308  0.2211
 5360SOL    HW127716   4.727   1.357   7.344  0.6173 -0.1327 -0.5650
 5360SOL    HW227717   0.002   1.221   7.283  1.2027 -0.4929  0.5561
 5361SOL     OW27718   0.188   4.342  10.085  0.5436  0.5917 -0.4464
 5361SOL    HW127719   0.200   4.437  10.089  0.5217  0.5605  0.2926
 5361SOL    HW227720   0.160   4.308  10.170 -2.1834  2.6547 -0.5266
 5362SOL     OW27721   1.218   3.934  10.329  0.0030 -0.1113 -0.2642
 5362SOL    HW127722   1.252   3.934  10.418  1.6062  1.2313 -0.8682
 5362SOL    HW227723   1.140   3.879  10.336 -0.7113  0.9699  0.3994
 5363SOL     OW27724   3.441   1.872   4.584 -0.0755  0.2732  0.4299
 5363SOL    HW127725   3.512   1.808   4.587  1.9572  2.3801 -3.3521
 5363SOL    HW227726   3.497   1.949   4.598 -0.9751  0.6915  1.7251
 5364SOL     OW27727   0.171   4.501   1.767 -0.1937 -0.1190 -0.2976
 5364SOL    HW127728   0.126   4.451   1.698  1.7557 -0.7076 -1.1405
 5364SOL    HW227729   0.260   4.467   1.759  0.0395  0.4801 -0.2911
 5365SOL     OW27730   3.498   4.275  16.292  0.3420  0.5752  0.4763
 5365SOL    HW127731   3.406   4.271  16.268  0.3980 -2.1107  0.7214
 5365SOL    HW227732   3.507   4.370  16.284  0.9852  0.5227  0.5922
 5366SOL     OW27733   2.368   1.759  10.329  0.1378  0.2872 -0.0161
 5366SOL    HW127734   2.396   1.723  10.413  2.1697  1.8149 -0.0375
 5366SOL    HW227735   2.344   1.678  10.283  0.0946  0.7145 -0.7573
 5367SOL     OW27736   1.561   4.429   9.438 -0.2112  0.2745 -0.1813
 5367SOL    HW127737   1.607   4.344   9.437  0.4411  0.6339 -1.2947
 5367SOL    HW227738   1.565   4.454   9.530  0.7529 -2.4902  0.5581
 5368SOL     OW27739   4.092   4.450   6.826  0.0051 -0.8874  0.1320
 5368SOL    HW127740   4.003   4.467   6.855 -0.0465  1.7186 -1.4592
 5368SOL    HW227741   4.084   4.461   6.731 -2.2353  0.1998  0.4414
 5369SOL     OW27742   3.222   2.422   1.432  0.5855  0.0896  0.4444
 5369SOL    HW127743   3.229   2.477   1.510 -2.2588 -1.1850  1.6039
 5369SOL    HW227744   3.137   2.455   1.404  0.7098 -1.0347 -1.2185
 5370SOL     OW27745   3.642   1.247   1.408 -0.3913  0.0073  0.0204
 5370SOL    HW127746   3.563   1.251   1.461  0.2975 -1.7989  1.1982
 5370SOL    HW227747   3.608   1.193   1.337 -0.5086  0.6878 -0.4340
 5371SOL     OW27748   3.672   4.025   2.163 -0.3582 -0.2149 -0.1676
 5371SOL    HW127749   3.595   4.037   2.107  0.0868  2.7625 -0.1540
 5371SOL    HW227750   3.678   3.930   2.165  0.0316 -0.1799  0.2205
 5372SOL     OW27751   1.756   4.424   4.353 -0.2901 -0.0043  0.5483
 5372SOL    HW127752   1.820   4.488   4.320  0.4824 -0.2011  1.6521
 5372SOL    HW227753   1.807   4.401   4.431  0.3046 -0.0971  0.1368
 5373SOL     OW27754   4.454   1.754  10.017 -0.2995  0.6698  0.2678
 5373SOL    HW127755   4.449   1.848  10.032 -0.7722  0.4974  1.1705
 5373SOL    HW227756   4.468   1.722  10.106  1.1559  0.5535 -0.0069
 5374SOL     OW27757   0.764   0.548   9.528 -0.0911  0.3711 -0.2243
 5374SOL    HW127758   0.817   0.616   9.487  0.3744  0.8514  1.1942
 5374SOL    HW227759   0.711   0.533   9.450  1.2610 -0.5389 -0.9688
 5375SOL     OW27760   2.663   0.368   7.916 -0.1235 -0.4195  0.1927
 5375SOL    HW127761   2.732   0.434   7.917 -0.0981 -0.4445 -0.3629
 5375SOL    HW227762   2.617   0.389   7.997 -1.5219  3.1760 -1.5394
 5376SOL     OW27763   0.954   4.020   6.253  0.3007  0.2245 -0.3138
 5376SOL    HW127764   0.940   4.114   6.257  2.3817  0.5078  0.1599
 5376SOL    HW227765   0.932   3.988   6.341 -1.3289 -1.0571 -1.1707
 5377SOL     OW27766   0.536   2.836   8.420  0.3633  0.1599  0.2579
 5377SOL    HW127767   0.471   2.882   8.474  0.8991  2.4999 -1.0500
 5377SOL    HW227768   0.560   2.759   8.471 -3.4726  0.0767  1.9241
 5378SOL     OW27769   1.807   3.640   0.521  0.4165 -0.2179 -0.0445
 5378SOL    HW127770   1.820   3.562   0.576 -1.2368 -1.1937 -1.0411
 5378SOL    HW227771   1.757   3.695   0.582  1.0505 -0.6731  0.8972
 5379SOL     OW27772   0.683   0.114   7.561 -1.3032 -0.2408  0.2952
 5379SOL    HW127773   0.711   0.114   7.653 -0.1060 -1.6027 -0.0791
 5379SOL    HW227774   0.718   0.198   7.531 -2.0956 -0.2474 -0.6376
 5380SOL     OW27775   2.853   0.602  10.973 -0.4615  0.2213  0.7455
 5380SOL    HW127776   2.913   0.613  11.047  1.8891 -1.0043 -0.9606
 5380SOL    HW227777   2.831   0.509  10.975 -2.2166  0.6745  2.9057
 5381SOL     OW27778   0.600   3.667   2.404 -0.2018  0.1153 -1.0774
 5381SOL    HW127779   0.627   3.577   2.389  2.6682  0.9450 -0.7941
 5381SOL    HW227780   0.678   3.716   2.429 -1.3790  1.2777  0.3607
 5382SOL     OW27781   0.837   0.651   1.579  0.2127 -0.0190 -0.3372
 5382SOL    HW127782   0.876   0.718   1.522  2.3197 -0.7998  0.1745
 5382SOL    HW227783   0.745   0.675   1.576 -0.6849 -3.5001 -0.6078
 5383SOL     OW27784   2.054   4.725   6.845 -0.1704  0.4087  0.0746
 5383SOL    HW127785   2.059   4.639   6.888 -1.1736  0.1809 -0.2484
 5383SOL    HW227786   1.998   4.700   6.771 -0.5808 -0.4575  0.6654
 5384SOL     OW27787   2.274   2.028   7.064  0.1394 -0.4465 -0.2263
 5384SOL    HW127788   2.347   1.984   7.107  0.2690 -0.4807 -0.4875
 5384SOL    HW227789   2.247   1.963   7.000  0.6623 -1.2307  0.3551
 5385SOL     OW27790   4.434   1.055   3.499  0.2496 -0.1343  0.0974
 5385SOL    HW127791   4.429   1.076   3.405 -0.1324  0.0730  0.1635
 5385SOL    HW227792   4.488   1.126   3.535  0.8411 -0.7837  0.4799
 5386SOL     OW27793   0.497   1.790   3.613 -0.1513  0.1361 -0.1614
 5386SOL    HW127794   0.437   1.765   3.684  0.3445 -0.0811  0.1833
 5386SOL    HW227795   0.451   1.862   3.571  0.7762  1.2312  0.6998
 5387SOL     OW27796   3.159   4.406  16.323 -0.5391 -0.6235  0.1213
 5387SOL    HW127797   3.183   4.452  16.242 -1.8183  0.2926  0.2615
 5387SOL    HW227798   3.171   4.315  16.299 -1.8592 -1.4785  2.7754
 5388SOL     OW27799   4.282   2.066  14.515 -0.4079 -0.3194 -0.2403
 5388SOL    HW127800   4.268   1.990  14.571  2.1121  0.7295  1.8114
 5388SOL    HW227801   4.196   2.098  14.488 -0.1225 -0.3668 -1.2085
 5389SOL     OW27802   3.191   4.183   2.583 -0.3550  0.3442 -0.1763
 5389SOL    HW127803   3.171   4.246   2.514 -1.8582  0.1453  0.0678
 5389SOL    HW227804   3.130   4.111   2.567 -0.3825  0.7078 -1.8060
 5390SOL     OW27805   2.319   1.346   8.714 -0.0413  0.4277  0.0138
 5390SOL    HW127806   2.244   1.286   8.714  0.7841 -0.5750 -3.5035
 5390SOL    HW227807   2.333   1.353   8.809  1.6420 -0.9160 -0.1342
 5391SOL     OW27808   2.143   2.107  16.046 -0.3206  0.4204  0.5534
 5391SOL    HW127809   2.075   2.099  15.980 -1.1341  1.8160  1.2312
 5391SOL    HW227810   2.212   2.064  15.995 -2.2702 -1.1611 -0.7006
 5392SOL     OW27811   1.290   2.828   5.363  0.1238  0.9493 -0.1484
 5392SOL    HW127812   1.328   2.879   5.435  0.3978  0.2504  0.1971
 5392SOL    HW227813   1.222   2.778   5.408 -0.8741  0.9345 -1.6655
 5393SOL     OW27814   0.033   1.988   9.877  0.3820 -0.6079 -0.0469
 5393SOL    HW127815   0.077   2.072   9.868 -1.0543  0.0299 -0.8777
 5393SOL    HW227816   4.691   2.000   9.830  1.3308  0.6444 -1.3589
 5394SOL     OW27817   1.534   0.124   2.033 -0.1463  0.5260  0.6380
 5394SOL    HW127818   1.525   0.107   2.127  1.8835  1.6018  1.0317
 5394SOL    HW227819   1.445   0.122   1.999 -0.0741  0.8695  0.4281
 5395SOL     OW27820   4.312   3.167   8.946  0.2030 -0.2578  0.0555
 5395SOL    HW127821   4.222   3.138   8.959  0.0951 -0.3132 -0.8232
 5395SOL    HW227822   4.304   3.208   8.860 -0.3859  1.8454  1.1107
 5396SOL     OW27823   2.389   2.908   8.443  0.2829 -0.1839 -0.3180
 5396SOL    HW127824   2.471   2.882   8.400 -0.8901 -3.5490 -0.4684
 5396SOL    HW227825   2.347   2.823   8.451  0.5703 -0.3473 -0.5452
 5397SOL     OW27826   0.560   0.487   5.918  0.7372  0.3608  0.2216
 5397SOL    HW127827   0.512   0.406   5.902  3.6941 -0.5425 -3.9447
 5397SOL    HW227828   0.498   0.547   5.876  0.7992  1.0843  1.1550
 5398SOL     OW27829   2.651   1.494   9.989  0.4016 -0.1306 -0.5073
 5398SOL    HW127830   2.663   1.418  10.046  0.5759  0.8213  0.7260
 5398SOL    HW227831   2.737   1.519   9.955  1.0341 -0.3837  0.8871
 5399SOL     OW27832   1.274   3.175   6.719 -0.4716 -0.5786 -0.2267
 5399SOL    HW127833   1.265   3.251   6.661  1.5809  0.7724  1.2292
 5399SOL    HW227834   1.275   3.104   6.655 -2.0348  0.1743 -1.0980
 5400SOL     OW27835   2.767   2.600   9.013 -0.1230  0.7390 -0.5527
 5400SOL    HW127836   2.858   2.591   9.039 -1.1317  0.5858  2.8517
 5400SOL    HW227837   2.724   2.619   9.096 -0.3851 -0.8036 -0.3209
 5401SOL     OW27838   0.245   4.213   9.845 -0.4605  0.0386  0.1008
 5401SOL    HW127839   0.169   4.222   9.787  0.8068  1.1922 -1.3594
 5401SOL    HW227840   0.217   4.269   9.917  0.0473  0.0498  0.2876
 5402SOL     OW27841   1.189   0.277  13.221 -0.5761  0.0057 -0.2067
 5402SOL    HW127842   1.124   0.342  13.196 -0.5484  0.5796  1.2506
 5402SOL    HW227843   1.265   0.330  13.196  0.3277 -1.3670 -0.4196
 5403SOL     OW27844   1.890   4.708   3.589  0.0171  0.3227 -0.1821
 5403SOL    HW127845   1.856   0.031   3.525  2.7596 -0.9511 -2.8923
 5403SOL    HW227846   1.813   4.712   3.646 -0.1840  0.3643 -0.4570
 5404SOL     OW27847   4.012   0.244   6.032 -0.2213  0.1312 -0.4625
 5404SOL    HW127848   4.039   0.279   5.947  0.6622  1.1169  0.2278
 5404SOL    HW227849   4.068   0.168   6.047  1.8198  1.2910 -2.2613
 5405SOL     OW27850   0.830   0.495   8.821  0.0515 -1.2113 -0.6028
 5405SOL    HW127851   0.847   0.434   8.893 -0.2789 -0.4133  0.1530
 5405SOL    HW227852   0.745   0.460   8.795 -0.7125 -0.1913  0.4659
 5406SOL     OW27853   1.629   0.948   9.132 -0.0567  0.4397  0.2322
 5406SOL    HW127854   1.685   0.999   9.074 -0.5224 -0.2203 -0.8007
 5406SOL    HW227855   1.599   1.012   9.197 -4.0250 -1.3671  0.1657
 5407SOL     OW27856   0.521   4.202   3.445 -0.7920  0.0723 -0.3374
 5407SOL    HW127857   0.492   4.144   3.374  0.7763  1.3763 -2.0569
 5407SOL    HW227858   0.456   4.273   3.447 -0.7184  0.1459 -0.5963
 5408SOL     OW27859   0.701   4.351   3.982 -0.2373  0.1098 -0.2551
 5408SOL    HW127860   0.710   4.438   3.941  1.3954 -0.1986 -0.5642
 5408SOL    HW227861   0.631   4.360   4.046 -0.4487 -0.2969 -0.4271
 5409SOL     OW27862   4.521   3.019  12.534 -0.1193 -0.2564  0.1011
 5409SOL    HW127863   4.525   3.050  12.443 -2.7470  0.3773  0.2056
 5409SOL    HW227864   4.432   2.985  12.538 -0.1426 -0.3390 -1.1943
 5410SOL     OW27865   0.814   1.924  16.608  0.9618  0.5098 -0.1100
 5410SOL    HW127866   0.831   1.954  16.697 -2.8367  3.4170 -0.3255
 5410SOL    HW227867   0.855   1.838  16.614  0.0812 -0.0091 -1.4723
 5411SOL     OW27868   3.786   1.714  15.317  0.0449 -0.6328 -0.0126
 5411SOL    HW127869   3.709   1.657  15.305  0.3701 -1.4176  1.7659
 5411SOL    HW227870   3.772   1.761  15.399 -0.5230  1.2955 -1.2124
 5412SOL     OW27871   3.688   3.015   7.149 -0.0996  0.1541 -0.6665
 5412SOL    HW127872   3.706   3.107   7.129  0.2145  0.5543  1.4166
 5412SOL    HW227873   3.722   3.002   7.238  0.5508  1.7954 -0.6740
 5413SOL     OW27874   1.997   0.784  15.270  0.0407 -0.2730 -0.6582
 5413SOL    HW127875   1.998   0.831  15.187  0.6326 -1.4780 -1.3312
 5413SOL    HW227876   2.031   0.700  15.239 -0.0379  0.0377 -1.6008
 5414SOL     OW27877   4.573   2.854   9.295  0.7558 -0.6090  1.0262
 5414SOL    HW127878   4.527   2.771   9.311 -0.3098 -0.5642 -1.8098
 5414SOL    HW227879   4.499   2.910   9.273  0.1146 -1.1423  1.8394
 5415SOL     OW27880   3.460   1.348   7.497 -0.3028  0.4630 -0.2747
 5415SOL    HW127881   3.475   1.272   7.553  0.0536  1.5174  1.0726
 5415SOL    HW227882   3.543   1.352   7.449  1.3311  0.2785  2.5307
 5416SOL     OW27883   0.535   1.594   6.701 -0.0076 -0.2067 -0.2935
 5416SOL    HW127884   0.525   1.510   6.747 -0.5281 -0.2301 -0.4546
 5416SOL    HW227885   0.454   1.636   6.728 -0.9750 -1.7919 -0.7457
 5417SOL     OW27886   4.515   4.031   6.521  0.0855 -0.4432  0.4766
 5417SOL    HW127887   4.565   4.108   6.546 -0.4848 -0.0844  0.4931
 5417SOL    HW227888   4.581   3.992   6.464  0.0837  0.3553 -0.0563
 5418SOL     OW27889   4.096   0.503   2.126  0.3624  0.5042  0.2858
 5418SOL    HW127890   4.151   0.477   2.053 -1.0561 -0.1196 -0.5532
 5418SOL    HW227891   4.008   0.484   2.093  0.3693 -0.7311  0.9808
 5419SOL     OW27892   1.249   1.375  16.371 -0.2118 -0.5396  0.3687
 5419SOL    HW127893   1.230   1.427  16.448  1.7337  0.1157  0.4141
 5419SOL    HW227894   1.246   1.449  16.309  3.0500 -0.8018 -0.1180
 5420SOL     OW27895   2.715   2.532  10.393 -0.2790 -0.4422 -0.2933
 5420SOL    HW127896   2.658   2.602  10.426 -0.7770 -0.1019 -1.8481
 5420SOL    HW227897   2.657   2.464  10.360  1.5600 -2.3281  0.4084
 5421SOL     OW27898   1.692   4.502   6.767 -0.2030  0.2111  0.7723
 5421SOL    HW127899   1.709   4.509   6.861 -0.9114 -0.5869  0.9542
 5421SOL    HW227900   1.702   4.408   6.754  0.2019  0.2316  0.9255
 5422SOL     OW27901   4.585   3.483   3.024  0.0034  0.0410  1.1126
 5422SOL    HW127902   4.514   3.419   3.025  0.0354  0.0002  0.7969
 5422SOL    HW227903   4.588   3.508   2.931  1.3525 -2.8250  0.4123
 5423SOL     OW27904   0.590   2.989   4.723 -0.4167  0.0413 -0.6139
 5423SOL    HW127905   0.516   3.017   4.776 -0.7369 -0.6090 -0.7244
 5423SOL    HW227906   0.655   2.993   4.793 -0.0475  0.1642 -0.9623
 5424SOL     OW27907   0.887   4.493   2.138  0.5699  0.0283  0.2921
 5424SOL    HW127908   0.978   4.524   2.131  0.4491 -0.9008 -4.7652
 5424SOL    HW227909   0.866   4.483   2.046  0.8130 -0.6903  0.3147
 5425SOL     OW27910   1.088   3.317   1.507  0.0935  0.1988  0.5729
 5425SOL    HW127911   1.061   3.402   1.471 -0.9356 -0.1487  0.5106
 5425SOL    HW227912   1.011   3.262   1.524 -1.3176  1.6213 -1.0792
 5426SOL     OW27913   1.303   1.716   9.502 -0.5119 -0.7649 -0.3416
 5426SOL    HW127914   1.252   1.668   9.567  1.2973 -2.5395 -0.2294
 5426SOL    HW227915   1.378   1.740   9.558 -1.5149 -0.8891  1.0516
 5427SOL     OW27916   4.494   1.109   9.419 -0.4178  0.1876 -0.4463
 5427SOL    HW127917   4.539   1.053   9.482  3.4396  2.8621 -0.8395
 5427SOL    HW227918   4.460   1.042   9.359  0.1303  0.2413 -0.8216
 5428SOL     OW27919   4.488   0.492   6.995 -0.0819  0.3947  0.3229
 5428SOL    HW127920   4.582   0.485   6.974  0.1551  1.3464  1.0800
 5428SOL    HW227921   4.492   0.545   7.075 -0.6816  1.8534 -0.6219
 5429SOL     OW27922   2.342   0.919   1.895 -0.1021  0.3864 -0.4819
 5429SOL    HW127923   2.404   0.889   1.962  0.9261  0.9273 -1.1888
 5429SOL    HW227924   2.380   0.879   1.817  1.6495  0.1313  0.5099
 5430SOL     OW27925   2.161   0.728   2.681 -0.4424  0.0750  0.3875
 5430SOL    HW127926   2.079   0.752   2.725 -0.3778 -3.3719  2.3558
 5430SOL    HW227927   2.221   0.787   2.726 -1.8411  1.9135 -0.1076
 5431SOL     OW27928   3.188   1.573   5.886 -0.2498 -0.4239  0.2177
 5431SOL    HW127929   3.145   1.603   5.806  1.2330 -1.5251 -0.9717
 5431SOL    HW227930   3.270   1.621   5.875 -0.2368 -0.0940  1.6947
 5432SOL     OW27931   0.030   2.334   7.985 -0.2005  0.1552 -0.3549
 5432SOL    HW127932   0.043   2.274   8.058  0.4743 -1.1616 -1.5506
 5432SOL    HW227933   4.687   2.374   8.010 -0.1327 -0.9971  1.7161
 5433SOL     OW27934   4.604   1.996   4.260  0.1676 -0.4638 -0.0774
 5433SOL    HW127935   4.697   1.996   4.240  0.0744 -0.0442 -0.5379
 5433SOL    HW227936   4.599   1.970   4.351 -2.2117 -0.5534 -0.2201
 5434SOL     OW27937   2.007   4.232  15.474  0.3900  0.2764  0.3166
 5434SOL    HW127938   1.947   4.161  15.500 -0.2115  0.1989 -1.2422
 5434SOL    HW227939   2.058   4.196  15.402 -0.9325 -1.4602  0.2390
 5435SOL     OW27940   0.316   2.200   7.575 -0.8685  0.4008 -0.1403
 5435SOL    HW127941   0.258   2.253   7.521  2.0021  2.7319 -0.9568
 5435SOL    HW227942   0.263   2.122   7.592 -1.4692  0.5811 -1.1737
 5436SOL     OW27943   3.726   3.443   8.903  0.2857  0.4055 -0.0259
 5436SOL    HW127944   3.762   3.415   8.819 -2.8105 -1.6276 -0.6978
 5436SOL    HW227945   3.653   3.384   8.923  0.9858 -0.1784  0.7997
 5437SOL     OW27946   2.145   3.398  11.038 -0.2600  0.5458 -0.0708
 5437SOL    HW127947   2.151   3.467  11.104  2.1362 -1.2355  1.5684
 5437SOL    HW227948   2.105   3.440  10.962 -2.4768  1.9676  1.8756
 5438SOL     OW27949   3.628   1.665   6.653  0.3511  0.5167  0.2275
 5438SOL    HW127950   3.542   1.695   6.684  0.9616  1.9660  0.5279
 5438SOL    HW227951   3.635   1.704   6.566  1.3973  0.8736  0.4779
 5439SOL     OW27952   1.882   1.532   9.390  0.4895  0.7967  0.7539
 5439SOL    HW127953   1.802   1.579   9.368  0.1747  0.4995  1.2578
 5439SOL    HW227954   1.946   1.602   9.396  2.2990 -0.9946  2.2797
 5440SOL     OW27955   2.731   4.212   7.438  0.5560  0.2734  0.0328
 5440SOL    HW127956   2.748   4.304   7.421 -1.0047  0.4518 -0.5224
 5440SOL    HW227957   2.675   4.224   7.515 -0.1115  0.4736 -0.4913
 5441SOL     OW27958   1.211   2.347   3.699  0.0322  0.0874  0.1657
 5441SOL    HW127959   1.187   2.405   3.771 -2.2099 -2.1460  1.2084
 5441SOL    HW227960   1.283   2.392   3.655 -0.9995  3.4258  1.8894
 5442SOL     OW27961   2.608   3.119   2.184  0.2431 -0.0164  0.1505
 5442SOL    HW127962   2.593   3.146   2.275 -2.7254 -0.8562 -0.0977
 5442SOL    HW227963   2.522   3.133   2.145  0.0401 -0.8286  0.3113
 5443SOL     OW27964   3.861   0.977   7.693  0.0017  0.0510 -0.1395
 5443SOL    HW127965   3.951   0.993   7.664 -0.3701  4.3463  1.0240
 5443SOL    HW227966   3.869   0.941   7.781 -1.8952 -0.2837 -0.0977
 5444SOL     OW27967   0.745   0.789   1.893  0.2168  0.0901 -0.0152
 5444SOL    HW127968   0.817   0.728   1.877 -2.4529 -3.0220 -0.3733
 5444SOL    HW227969   0.666   0.743   1.863  0.7570 -1.2833  0.6879
 5445SOL     OW27970   0.896   4.166   0.359 -0.3016 -0.2567  0.9072
 5445SOL    HW127971   0.990   4.150   0.371  0.0396 -0.5685 -2.4212
 5445SOL    HW227972   0.855   4.089   0.398 -4.1710  1.2925 -0.1469
 5446SOL     OW27973   3.461   0.918  17.299  0.0821  0.2689  0.5544
 5446SOL    HW127974   3.391   0.983  17.304 -0.2251  0.0619 -1.3525
 5446SOL    HW227975   3.516   0.966  17.238 -0.1599  0.7771  0.7397
 5447SOL     OW27976   2.174   4.210  15.733 -0.1353  0.1208  0.6715
 5447SOL    HW127977   2.133   4.241  15.652 -2.1661  1.5184  2.2625
 5447SOL    HW227978   2.107   4.227  15.799  0.8236  0.6813  1.4999
 5448SOL     OW27979   0.731   2.478   7.224  0.3479  0.2555  0.5223
 5448SOL    HW127980   0.762   2.565   7.199  1.4775 -0.0869  0.7688
 5448SOL    HW227981   0.638   2.492   7.204  0.1485  0.3245  1.5386
 5449SOL     OW27982   4.736   4.346   3.243  0.2664  0.4911 -0.0511
 5449SOL    HW127983   0.058   4.405   3.287 -0.5059  0.8964  0.4785
 5449SOL    HW227984   4.737   4.272   3.303 -1.8547  1.1551  0.8164
 5450SOL     OW27985   2.227   1.454   3.451  0.3739  0.0261  0.5078
 5450SOL    HW127986   2.258   1.543   3.432  1.0143 -0.1828  0.5804
 5450SOL    HW227987   2.132   1.466   3.454  0.1859 -1.6532  0.9141
 5451SOL     OW27988   1.538   0.732   2.810  0.6923 -0.0843  0.0197
 5451SOL    HW127989   1.578   0.774   2.735 -0.9888  0.4165 -0.5952
 5451SOL    HW227990   1.464   0.791   2.825  0.5913 -0.3455  0.5587
 5452SOL     OW27991   2.330   0.856  13.127  0.1172 -0.3101  0.6094
 5452SOL    HW127992   2.326   0.945  13.162  0.2738 -0.5188  1.1493
 5452SOL    HW227993   2.383   0.875  13.049 -0.7849  1.0129  0.3166
 5453SOL     OW27994   4.522   3.374   1.924 -0.0426  0.6041  0.6537
 5453SOL    HW127995   4.530   3.337   1.836 -0.7796 -1.6885  1.5627
 5453SOL    HW227996   4.508   3.465   1.898  1.2893  1.1515  1.8589
 5454SOL     OW27997   1.351   0.418  12.332  0.2540  0.0200  0.2809
 5454SOL    HW127998   1.263   0.447  12.357  0.6269  0.6162  0.9275
 5454SOL    HW227999   1.394   0.501  12.309 -0.4736  0.5044  0.6834
 5455SOL     OW28000   3.988   3.684   3.152  0.2492 -0.5555 -0.1222
 5455SOL    HW128001   3.979   3.765   3.102 -1.6746 -1.2809 -0.9347
 5455SOL    HW228002   4.063   3.640   3.112  1.5127 -0.1177  1.7752
 5456SOL     OW28003   1.894   1.135  13.730  0.3246  0.5048 -0.5082
 5456SOL    HW128004   1.801   1.114  13.721  0.1315  1.0750  0.1783
 5456SOL    HW228005   1.898   1.183  13.813 -0.4036 -0.2592 -0.0288
 5457SOL     OW28006   1.501   0.988   8.228 -0.2790  0.3054  0.7207
 5457SOL    HW128007   1.462   1.048   8.292 -0.8688  1.6911 -0.9168
 5457SOL    HW228008   1.546   1.051   8.172 -1.7921  0.8531  0.1087
 5458SOL     OW28009   0.364   3.063   3.174 -0.1708 -0.3558  0.0409
 5458SOL    HW128010   0.409   2.999   3.229 -1.5701  0.5268  2.1973
 5458SOL    HW228011   0.273   3.072   3.202  0.1718  0.2440  0.9970
 5459SOL     OW28012   4.016   0.794   3.670 -0.2674 -0.5746  0.3068
 5459SOL    HW128013   4.078   0.754   3.608 -0.0579  1.3305 -0.7101
 5459SOL    HW228014   3.976   0.867   3.623  1.0641  0.9843  1.5747
 5460SOL     OW28015   4.322   2.387  15.864  0.6648 -0.3749 -0.0146
 5460SOL    HW128016   4.310   2.325  15.792 -1.2677 -2.7845  2.3983
 5460SOL    HW228017   4.314   2.467  15.812 -0.7351  0.0599  0.8920
 5461SOL     OW28018   0.081   3.688  13.015  0.5963 -0.1013  0.4491
 5461SOL    HW128019   0.056   3.627  12.945  3.3900 -1.3246  0.5227
 5461SOL    HW228020   0.170   3.700  12.984  0.7254 -2.6172 -0.1440
 5462SOL     OW28021   0.353   0.575   3.987 -0.3885 -0.4390 -0.4451
 5462SOL    HW128022   0.308   0.513   3.930  0.7277 -0.6478 -1.1096
 5462SOL    HW228023   0.292   0.573   4.060 -0.4538 -0.9674 -0.5151
 5463SOL     OW28024   2.673   1.241  16.565  0.0129  0.2036 -0.2570
 5463SOL    HW128025   2.579   1.255  16.567 -0.2983 -1.9249  0.2795
 5463SOL    HW228026   2.690   1.210  16.476  2.2643  0.4951  0.0705
 5464SOL     OW28027   3.905   2.057   1.536 -0.0201 -0.6128  0.2162
 5464SOL    HW128028   3.958   2.136   1.523  0.1070 -0.9854 -1.6204
 5464SOL    HW228029   3.817   2.087   1.557  0.8461 -0.0880  3.0867
 5465SOL     OW28030   1.442   1.495   4.091 -0.0256  0.3161 -0.6696
 5465SOL    HW128031   1.523   1.445   4.090 -0.7157 -0.8100 -1.8157
 5465SOL    HW228032   1.442   1.546   4.171 -1.5435  0.4237 -0.7236
 5466SOL     OW28033   2.430   0.725   7.961 -0.1519  0.7903 -0.3679
 5466SOL    HW128034   2.523   0.726   7.940 -0.4872 -0.3407 -1.8912
 5466SOL    HW228035   2.411   0.633   7.946 -0.2155  0.5911  0.9901
 5467SOL     OW28036   3.526   1.582  14.871 -0.2768  0.2217  0.0900
 5467SOL    HW128037   3.526   1.539  14.785  1.0296  1.7004 -0.6448
 5467SOL    HW228038   3.571   1.515  14.922 -1.1052 -1.1284 -0.9538
 5468SOL     OW28039   1.872   1.800   4.429 -0.1067  0.8945  0.3604
 5468SOL    HW128040   1.793   1.777   4.477  0.8721 -3.5077 -0.0755
 5468SOL    HW228041   1.943   1.746   4.465 -0.5501  1.3117  1.8438
 5469SOL     OW28042   0.827   4.251   3.696  0.1814 -1.0343 -0.0575
 5469SOL    HW128043   0.802   4.203   3.775  1.3168 -0.6826  0.5068
 5469SOL    HW228044   0.888   4.196   3.648  1.6433 -0.8164  1.5318
 5470SOL     OW28045   4.336   0.322   2.378  0.5087  0.4773  0.2291
 5470SOL    HW128046   4.363   0.314   2.469  0.5857  1.1342  0.2626
 5470SOL    HW228047   4.302   0.411   2.380 -0.2821  0.1663  0.4654
 5471SOL     OW28048   4.647   1.245   2.757 -0.2463  0.8104  0.3066
 5471SOL    HW128049   4.681   1.264   2.670 -1.9434  1.1019 -0.2875
 5471SOL    HW228050   4.715   1.293   2.804  1.3500 -0.4427 -0.7228
 5472SOL     OW28051   2.165   3.008   5.085 -0.8016  0.3844  0.1815
 5472SOL    HW128052   2.140   2.952   5.011  0.0676 -0.4290  0.5006
 5472SOL    HW228053   2.130   2.964   5.162  2.1515  0.3486  1.4937
 5473SOL     OW28054   3.457   3.645   9.222  0.2214 -0.2627  0.2003
 5473SOL    HW128055   3.512   3.573   9.190  0.1547  0.4720 -1.5866
 5473SOL    HW228056   3.376   3.616   9.179  0.2696  1.7216 -1.2244
 5474SOL     OW28057   3.206   2.963   6.924 -0.4976 -0.1273 -0.2238
 5474SOL    HW128058   3.253   2.945   6.843 -0.3671  0.0956 -0.1969
 5474SOL    HW228059   3.279   2.969   6.986 -1.3458 -1.2175  0.8837
 5475SOL     OW28060   2.522   1.955   8.585 -0.6521  0.2097  0.0874
 5475SOL    HW128061   2.580   1.973   8.511 -0.9784  2.7801  0.4778
 5475SOL    HW228062   2.576   1.980   8.660 -0.0084  2.6294 -1.1897
 5476SOL     OW28063   2.521   4.126   6.703  0.2540 -0.2351 -0.0452
 5476SOL    HW128064   2.572   4.059   6.749 -0.3803  1.1606  2.6737
 5476SOL    HW228065   2.578   4.147   6.628  1.8873 -2.2663  0.6254
 5477SOL     OW28066   2.059   0.018  16.680 -0.2954 -0.1996  0.1109
 5477SOL    HW128067   2.006   4.715  16.747  1.1363  1.6214  2.3873
 5477SOL    HW228068   2.036   0.110  16.696  0.7456 -0.2811  1.9760
 5478SOL     OW28069   1.929   3.062  11.195 -0.0341  0.0841 -0.2976
 5478SOL    HW128070   1.983   3.095  11.124  2.8021  0.6996  2.1656
 5478SOL    HW228071   1.928   3.134  11.257 -1.3257 -0.3897  0.2522
 5479SOL     OW28072   4.665   2.710   4.428 -0.4774 -0.0336 -0.3741
 5479SOL    HW128073   4.687   2.621   4.457  1.1584  1.0206  1.6760
 5479SOL    HW228074   0.008   2.752   4.453  0.8539 -0.9381 -3.2137
 5480SOL     OW28075   3.598   0.863   8.842 -0.2546  0.0702 -0.1750
 5480SOL    HW128076   3.594   0.904   8.929  0.4669  1.9861 -1.0372
 5480SOL    HW228077   3.525   0.895   8.790 -0.8345 -1.2215 -0.1525
 5481SOL     OW28078   1.393   1.116   5.622  0.0399 -0.5504 -0.0781
 5481SOL    HW128079   1.320   1.168   5.657  2.9842  2.3826  1.6479
 5481SOL    HW228080   1.364   1.068   5.544 -0.6055  0.2229 -0.3176
 5482SOL     OW28081   3.259   2.631   0.530  0.0095 -0.0536  0.0430
 5482SOL    HW128082   3.323   2.697   0.502 -1.0104  0.8188 -0.2521
 5482SOL    HW228083   3.244   2.596   0.442  0.8964 -2.3624  0.8314
 5483SOL     OW28084   4.554   3.754  14.961 -0.1301 -0.0714 -0.1634
 5483SOL    HW128085   4.631   3.703  14.987 -0.0118 -0.9217 -2.2154
 5483SOL    HW228086   4.558   3.817  15.033 -0.4011  0.8437 -0.9498
 5484SOL     OW28087   1.914   1.528   4.620  0.0622 -0.0526 -0.5567
 5484SOL    HW128088   1.844   1.591   4.607  0.7385  0.7118 -0.5234
 5484SOL    HW228089   1.993   1.577   4.597  0.0644 -0.2349 -0.9284
 5485SOL     OW28090   1.571   4.707   5.299 -0.1490 -1.0415  0.4343
 5485SOL    HW128091   1.647   4.700   5.241 -0.6941  0.9330 -0.4921
 5485SOL    HW228092   1.585   0.060   5.320 -3.9730  0.0519 -1.8065
 5486SOL     OW28093   1.204   2.849  11.390 -0.1202  0.0328  0.1746
 5486SOL    HW128094   1.221   2.898  11.310  0.6693 -1.6171 -0.6671
 5486SOL    HW228095   1.289   2.812  11.412  1.3745  3.2832 -0.1463
 5487SOL     OW28096   2.365   3.804   0.524 -0.6239 -0.4098  0.2387
 5487SOL    HW128097   2.375   3.757   0.606  0.7575 -1.5865 -0.6044
 5487SOL    HW228098   2.288   3.757   0.492  0.0248  0.0874 -2.0789
 5488SOL     OW28099   1.997   3.915  13.782 -0.1706 -0.0971  0.1271
 5488SOL    HW128100   1.915   3.900  13.830 -1.1200 -2.2048 -2.1731
 5488SOL    HW228101   1.978   4.003  13.749 -1.3986 -0.5141 -0.2784
 5489SOL     OW28102   2.947   3.498  14.801  1.1136 -0.2000 -0.3359
 5489SOL    HW128103   2.987   3.491  14.715 -2.6492 -1.2908 -2.0247
 5489SOL    HW228104   2.932   3.592  14.797  1.8921  0.0020  1.4983
 5490SOL     OW28105   4.547   0.184   0.803  0.1689 -0.2281 -0.1096
 5490SOL    HW128106   4.615   0.244   0.771  0.8401  0.1136  1.9481
 5490SOL    HW228107   4.557   0.106   0.749 -0.1163 -0.1961 -0.2120
 5491SOL     OW28108   0.471   0.765   5.581 -0.3404 -0.2057  0.2266
 5491SOL    HW128109   0.532   0.818   5.531 -1.2214  0.0914 -0.5356
 5491SOL    HW228110   0.473   0.684   5.531 -0.4280  0.1621 -0.3708
 5492SOL     OW28111   4.726   4.489   3.967 -0.5557  0.3632 -0.2216
 5492SOL    HW128112   4.638   4.509   3.934 -0.8366 -1.6429 -0.6783
 5492SOL    HW228113   0.040   4.526   3.896 -1.8122  1.9712 -0.3465
 5493SOL     OW28114   0.813   3.976   9.596 -0.4007 -0.5563 -0.0323
 5493SOL    HW128115   0.723   3.999   9.573 -0.0698 -0.1442 -0.9325
 5493SOL    HW228116   0.860   4.029   9.532 -0.5314 -0.3578  0.0385
 5494SOL     OW28117   2.598   4.348   3.039 -0.1805 -0.0759 -0.5099
 5494SOL    HW128118   2.575   4.362   3.131 -2.7409  0.4896 -1.2525
 5494SOL    HW228119   2.651   4.268   3.049 -1.6439 -0.8671  1.0074
 5495SOL     OW28120   2.194   1.249   8.382 -0.3860  0.2747 -0.7577
 5495SOL    HW128121   2.228   1.189   8.315  1.7156  1.9329 -1.1895
 5495SOL    HW228122   2.256   1.322   8.374  0.4350 -0.4050 -0.5877
 5496SOL     OW28123   4.120   0.208   8.547 -0.3336 -0.2310  0.0923
 5496SOL    HW128124   4.084   0.251   8.469 -0.5647  1.8195  1.3336
 5496SOL    HW228125   4.043   0.202   8.604  0.4032  1.6896  1.2772
 5497SOL     OW28126   0.742   0.896   6.801 -0.1445 -0.6276 -0.0255
 5497SOL    HW128127   0.789   0.976   6.826  0.2787 -1.3489  1.5041
 5497SOL    HW228128   0.708   0.919   6.714  0.3403  0.2425  0.0195
 5498SOL     OW28129   0.194   3.130   6.148 -0.0467  0.1248 -0.1983
 5498SOL    HW128130   0.166   3.137   6.240  2.5196  1.0322  0.5017
 5498SOL    HW228131   0.244   3.048   6.143 -2.4975 -1.2289 -2.5221
 5499SOL     OW28132   0.246   0.880   2.331 -0.0956 -0.7874  0.5075
 5499SOL    HW128133   0.258   0.800   2.383 -0.5610 -0.7474  0.6720
 5499SOL    HW228134   0.250   0.836   2.247 -1.0059  1.0275 -0.4822
 5500SOL     OW28135   0.691   2.800   2.951  0.2302  0.4506  0.2177
 5500SOL    HW128136   0.734   2.715   2.954 -0.6708 -0.0658 -1.7097
 5500SOL    HW228137   0.718   2.827   2.863  3.3121  0.4157  1.1784
 5501SOL     OW28138   3.732   1.448   2.353  0.4026 -0.1973  0.0713
 5501SOL    HW128139   3.652   1.396   2.354  0.6401 -0.5355  0.8375
 5501SOL    HW228140   3.772   1.419   2.435  0.5234  0.0613  0.1031
 5502SOL     OW28141   1.720   1.390   3.156  0.0635  0.1241  0.0281
 5502SOL    HW128142   1.667   1.377   3.235 -1.1269 -1.7486 -1.0797
 5502SOL    HW228143   1.779   1.314   3.157 -0.6573 -0.4783 -4.6399
 5503SOL     OW28144   3.667   1.507   3.927 -0.1417 -0.1152 -0.0718
 5503SOL    HW128145   3.650   1.572   3.859 -0.4542 -0.2439 -0.1160
 5503SOL    HW228146   3.759   1.484   3.913 -0.2417 -0.0683 -0.8261
 5504SOL     OW28147   1.643   0.488   3.897  0.0697 -0.1353 -0.1334
 5504SOL    HW128148   1.724   0.444   3.869  0.2549  0.4249 -0.4736
 5504SOL    HW228149   1.672   0.578   3.882  1.8093 -0.5262  0.9022
 5505SOL     OW28150   3.923   1.371  15.574  0.2602 -0.1579 -0.1740
 5505SOL    HW128151   3.969   1.406  15.498 -0.0783  1.6595  0.4450
 5505SOL    HW228152   3.954   1.433  15.640 -2.5230 -0.4378  1.4015
 5506SOL     OW28153   3.707   2.136   4.366 -0.0142 -1.0183 -0.3078
 5506SOL    HW128154   3.669   2.073   4.305 -1.6129  1.1027 -1.5100
 5506SOL    HW228155   3.784   2.175   4.324  0.3562 -2.5600 -1.0820
 5507SOL     OW28156   3.419   4.447   9.246  0.2573  0.1717 -0.6067
 5507SOL    HW128157   3.456   4.433   9.159  0.0070 -3.1718 -0.1940
 5507SOL    HW228158   3.493   4.458   9.306 -0.9522  1.1963  0.6966
 5508SOL     OW28159   2.279   3.772   4.473 -0.5076 -0.0916 -0.0664
 5508SOL    HW128160   2.280   3.760   4.378 -2.1921  0.8840 -0.2112
 5508SOL    HW228161   2.342   3.843   4.480 -1.2996  0.5956  0.1322
 5509SOL     OW28162   4.003   1.645   3.251  0.3112  0.2349  0.1582
 5509SOL    HW128163   3.937   1.700   3.208  0.8153  0.8583  0.1819
 5509SOL    HW228164   3.956   1.585   3.309  1.4286 -0.4133  0.3962
 5510SOL     OW28165   1.232   3.622   2.105 -0.1662 -0.1871 -0.7951
 5510SOL    HW128166   1.318   3.664   2.098 -0.6831  0.5304 -2.8619
 5510SOL    HW228167   1.173   3.685   2.064 -0.1141  0.7455  0.5425
 5511SOL     OW28168   0.158   0.370   3.536  0.6001  0.3142  0.2461
 5511SOL    HW128169   0.100   0.297   3.512  0.1879  1.1293 -1.2170
 5511SOL    HW228170   0.239   0.324   3.511  0.0178 -0.9976  0.7730
 5512SOL     OW28171   0.445   3.307   7.968 -0.2626  0.3422 -0.4151
 5512SOL    HW128172   0.444   3.401   7.983 -0.3393  0.2111  0.3875
 5512SOL    HW228173   0.462   3.293   7.875 -1.3593 -0.3189 -0.5218
 5513SOL     OW28174   3.520   4.539   6.335 -0.1214 -0.2048 -0.6236
 5513SOL    HW128175   3.546   4.512   6.247  0.5773  0.4172 -0.6012
 5513SOL    HW228176   3.463   4.615   6.321  0.3967 -0.1250 -2.1772
 5514SOL     OW28177   0.379   2.463   9.521 -0.2300 -0.5743  0.1807
 5514SOL    HW128178   0.460   2.509   9.497 -0.1600  0.4882  2.4873
 5514SOL    HW228179   0.406   2.417   9.600  1.3443 -0.5471 -0.3340
 5515SOL     OW28180   4.687   0.884   7.957 -0.7313 -0.4752  0.4754
 5515SOL    HW128181   4.700   0.822   8.029 -1.4350 -0.2075  0.8325
 5515SOL    HW228182   0.035   0.874   7.920 -0.9774 -1.9171  0.2518
 5516SOL     OW28183   0.255   4.281   0.956 -0.0129 -0.2014  0.0232
 5516SOL    HW128184   0.264   4.198   0.909 -0.1290 -1.2025  1.7697
 5516SOL    HW228185   0.292   4.263   1.042  0.9560 -0.4861 -0.4516
 5517SOL     OW28186   1.696   1.330   7.678 -0.3490 -0.5690 -0.4484
 5517SOL    HW128187   1.667   1.299   7.593 -0.8265 -2.4871  0.4098
 5517SOL    HW228188   1.637   1.403   7.696  0.5289  0.1485 -0.4842
 5518SOL     OW28189   2.697   2.898   8.353  0.3025  0.5649 -0.3510
 5518SOL    HW128190   2.706   2.983   8.396  0.0534  1.8791 -2.9153
 5518SOL    HW228191   2.774   2.853   8.389 -0.3332  1.4228  2.0665
 5519SOL     OW28192   2.491   2.587   2.952  0.1640  0.1129  0.0403
 5519SOL    HW128193   2.411   2.551   2.989 -0.8365  1.6981 -0.5764
 5519SOL    HW228194   2.465   2.679   2.953 -0.4365 -0.0532 -0.2248
 5520SOL     OW28195   0.323   1.978  17.518 -0.5657 -0.2945 -0.5962
 5520SOL    HW128196   0.406   1.990  17.564 -0.1140 -1.2618 -1.1421
 5520SOL    HW228197   0.355   1.974  17.428  2.1013 -0.4102  0.3462
 5521SOL     OW28198   2.417   4.454   1.489 -0.2036 -0.2270  0.1863
 5521SOL    HW128199   2.481   4.517   1.459 -0.0334 -0.7417 -0.5456
 5521SOL    HW228200   2.413   4.390   1.418  1.9916  0.0719 -0.2006
 5522SOL     OW28201   0.988   0.746   6.407 -0.2661 -0.0154  0.1616
 5522SOL    HW128202   0.927   0.692   6.357 -1.2993 -0.5337  1.9858
 5522SOL    HW228203   0.948   0.735   6.493 -1.3104 -0.4767 -0.3762
 5523SOL     OW28204   1.522   3.668   7.479  0.1082 -0.1923  0.4877
 5523SOL    HW128205   1.491   3.758   7.471  1.2060  0.0897 -0.6437
 5523SOL    HW228206   1.573   3.677   7.558  1.2628  2.9121 -0.6416
 5524SOL     OW28207   1.612   0.247   5.093 -0.0805 -0.3298  0.3427
 5524SOL    HW128208   1.598   0.339   5.119  0.9521 -0.2169  0.4882
 5524SOL    HW228209   1.526   0.231   5.054 -0.8647  1.3808  1.3345
 5525SOL     OW28210   4.197   2.128   1.967 -0.7626 -0.6274 -0.2815
 5525SOL    HW128211   4.190   2.045   2.015  0.9529 -1.7356 -1.9650
 5525SOL    HW228212   4.129   2.123   1.900  0.2881 -1.7616 -1.2587
 5526SOL     OW28213   0.899   4.649   6.314 -0.0201 -0.8079  0.3139
 5526SOL    HW128214   0.853   4.587   6.259  0.0231  0.3681 -1.0325
 5526SOL    HW228215   0.833   4.710   6.348  1.5437 -0.3001  2.4672
 5527SOL     OW28216   0.280   1.916  13.750 -0.2810  0.1755  0.7776
 5527SOL    HW128217   0.262   1.823  13.737 -1.0796  0.4963 -0.4510
 5527SOL    HW228218   0.369   1.918  13.714 -0.1953  0.4481  1.0118
 5528SOL     OW28219   0.666   1.316   5.893  0.2662  0.5822  0.3460
 5528SOL    HW128220   0.721   1.241   5.871  1.2255  0.5164  2.9989
 5528SOL    HW228221   0.666   1.368   5.812  0.1772  1.5589  0.9737
 5529SOL     OW28222   1.962   2.130   6.183 -0.1159  0.1037  0.2032
 5529SOL    HW128223   1.901   2.181   6.129  0.6022  1.8624  1.0363
 5529SOL    HW228224   2.039   2.148   6.129  1.7709 -3.4983  1.7531
 5530SOL     OW28225   2.780   1.219   7.700  0.4264 -0.4259 -0.8187
 5530SOL    HW128226   2.737   1.133   7.701 -0.3127 -0.0597 -1.2640
 5530SOL    HW228227   2.872   1.191   7.707  0.3912 -1.0495 -2.9798
 5531SOL     OW28228   4.406   3.284   2.985 -0.2701 -0.5864  0.4221
 5531SOL    HW128229   4.350   3.249   2.916  2.4578 -3.5353 -0.2808
 5531SOL    HW228230   4.439   3.205   3.027  0.5937 -0.2653  0.3603
 5532SOL     OW28231   2.553   0.576  13.859  0.0642 -0.8212 -0.5177
 5532SOL    HW128232   2.511   0.618  13.784  1.2668  0.5960 -0.3954
 5532SOL    HW228233   2.633   0.627  13.853 -0.8801  0.5542 -1.2998
 5533SOL     OW28234   3.154   1.926   5.347 -0.2405  0.2049  0.1106
 5533SOL    HW128235   3.169   1.994   5.413  1.7611  0.1177 -0.2782
 5533SOL    HW228236   3.233   1.943   5.296 -0.5203 -0.8549 -0.6802
 5534SOL     OW28237   2.598   2.121   7.733 -0.0810 -0.3687 -0.1063
 5534SOL    HW128238   2.570   2.030   7.728  0.4507 -0.6753  2.3684
 5534SOL    HW228239   2.517   2.160   7.764 -0.9589 -2.5185  0.2762
 5535SOL     OW28240   0.879   4.157   8.830 -0.0893  0.6449  0.3271
 5535SOL    HW128241   0.954   4.202   8.791 -1.5196  1.3474 -1.6116
 5535SOL    HW228242   0.896   4.064   8.822  4.4145  1.4999 -0.1969
 5536SOL     OW28243   2.076   3.623   3.992 -0.2796  0.2622  0.3309
 5536SOL    HW128244   2.146   3.660   3.938 -0.1163 -0.8077 -0.1923
 5536SOL    HW228245   2.123   3.591   4.069 -0.0276 -0.4805 -0.1387
 5537SOL     OW28246   0.029   2.940  12.769 -0.1799 -0.1602  0.1172
 5537SOL    HW128247   4.715   3.019  12.775 -0.1967 -0.1689  0.0849
 5537SOL    HW228248   0.107   2.958  12.821 -0.9387 -1.1690  1.5815
 5538SOL     OW28249   1.400   0.637  14.165 -0.3644 -0.2858 -0.4217
 5538SOL    HW128250   1.305   0.628  14.159 -0.5764  2.3383 -0.8364
 5538SOL    HW228251   1.410   0.680  14.250 -1.3668 -1.4924  0.2968
 5539SOL     OW28252   1.436   3.060   6.068 -0.4130  0.7271  0.6394
 5539SOL    HW128253   1.397   3.131   6.119 -0.0611  2.6421 -1.8116
 5539SOL    HW228254   1.528   3.067   6.095 -0.4400  0.6228  0.7585
 5540SOL     OW28255   2.377   2.998   2.478 -0.4115 -0.8437  0.2077
 5540SOL    HW128256   2.423   2.922   2.443 -0.2971 -0.2176 -0.9947
 5540SOL    HW228257   2.291   2.993   2.434 -0.8706  0.0049  0.9995
 5541SOL     OW28258   1.505   1.473  14.759 -0.1082 -0.4674 -0.4090
 5541SOL    HW128259   1.483   1.565  14.778 -0.4602 -1.0471  1.9579
 5541SOL    HW228260   1.495   1.435  14.846  0.9587  0.6738  0.2133
 5542SOL     OW28261   4.670   3.621   3.845  0.6396  0.7264  0.3450
 5542SOL    HW128262   4.738   3.565   3.806  1.6525  1.4434  1.1069
 5542SOL    HW228263   4.597   3.565   3.818  2.1613 -0.4657 -1.3707
 5543SOL     OW28264   3.113   1.072  12.165  0.2056  0.2221 -0.0496
 5543SOL    HW128265   3.110   1.058  12.260  0.2790  0.5098 -0.0043
 5543SOL    HW228266   3.063   0.997  12.133 -0.2411  0.0496  1.0422
 5544SOL     OW28267   2.460   3.489   7.831 -0.4531  0.1878  0.6660
 5544SOL    HW128268   2.439   3.414   7.775 -0.3447 -0.5726  1.6403
 5544SOL    HW228269   2.390   3.554   7.821 -0.1288  0.5192  0.5397
 5545SOL     OW28270   2.886   2.107   7.802 -0.3721 -0.8539  0.8616
 5545SOL    HW128271   2.851   2.106   7.891 -0.2809 -3.3945  0.8675
 5545SOL    HW228272   2.916   2.197   7.789 -0.5591 -0.7896  0.8691
 5546SOL     OW28273   3.370   2.866   3.319  0.2658 -0.2841  0.2802
 5546SOL    HW128274   3.312   2.908   3.383  0.2158  1.7307 -1.0769
 5546SOL    HW228275   3.423   2.940   3.290  3.9690 -2.8764  0.5424
 5547SOL     OW28276   0.495   1.318   6.675 -0.4049 -0.4124  0.0889
 5547SOL    HW128277   0.490   1.367   6.593 -0.0282  0.3195  0.5003
 5547SOL    HW228278   0.501   1.235   6.628  1.4758  0.3707 -1.0206
 5548SOL     OW28279   4.081   4.472   4.669 -0.5334 -0.9658 -0.1874
 5548SOL    HW128280   3.989   4.450   4.684 -0.1068 -0.8769  2.5366
 5548SOL    HW228281   4.107   4.395   4.618  0.6148 -0.0346 -1.0182
 5549SOL     OW28282   1.867   0.951   2.171 -0.0404  0.0385  0.1805
 5549SOL    HW128283   1.777   0.955   2.139  0.2458  2.1444 -0.3601
 5549SOL    HW228284   1.911   0.880   2.125  1.4883 -0.3591  2.2546
 5550SOL     OW28285   2.376   0.834   5.414  0.8112  0.5789  0.9355
 5550SOL    HW128286   2.301   0.894   5.409  0.8425  0.4584 -0.9255
 5550SOL    HW228287   2.334   0.748   5.411  3.8655 -0.8892 -0.1430
 5551SOL     OW28288   4.398   1.697   7.628 -0.3201  0.2615 -0.4017
 5551SOL    HW128289   4.365   1.761   7.692 -1.9798 -1.9416  0.9487
 5551SOL    HW228290   4.491   1.718   7.634  0.3468 -2.2913 -1.8033
 5552SOL     OW28291   0.267   1.492   5.841 -0.2629 -0.2145 -0.4331
 5552SOL    HW128292   0.242   1.447   5.921  0.2010 -0.4398 -0.4099
 5552SOL    HW228293   0.353   1.522   5.870  0.7793 -0.9254 -2.7041
 5553SOL     OW28294   0.638   4.171   0.553 -0.5305  0.3670 -0.6392
 5553SOL    HW128295   0.712   4.226   0.527  0.5221  0.0067  1.6715
 5553SOL    HW228296   0.655   4.093   0.500 -0.4738  1.5045 -2.2998
 5554SOL     OW28297   3.058   1.366  12.271  0.6585 -0.5219 -0.0813
 5554SOL    HW128298   3.024   1.311  12.341  2.2181 -2.4863 -0.8947
 5554SOL    HW228299   3.061   1.306  12.197 -0.9779 -2.4019  1.3806
 5555SOL     OW28300   4.581   2.797   2.307  0.1110 -0.4752 -0.1085
 5555SOL    HW128301   4.650   2.834   2.362  0.4632  0.5350 -1.2261
 5555SOL    HW228302   4.619   2.792   2.219  0.7260 -1.8351  0.2292
 5556SOL     OW28303   2.881   0.841   8.070 -0.3173  0.0380  0.0428
 5556SOL    HW128304   2.873   0.868   8.162 -1.2337 -0.6895  0.1860
 5556SOL    HW228305   2.960   0.788   8.072  0.4624  1.1819 -0.4658
 5557SOL     OW28306   0.404   2.964   9.169  0.6781 -0.0696  0.4560
 5557SOL    HW128307   0.310   2.982   9.169  0.4014 -1.4870 -0.2464
 5557SOL    HW228308   0.413   2.869   9.158 -0.0603 -0.1955  0.9322
 5558SOL     OW28309   2.416   2.234   4.317 -0.1286 -0.1230  0.1496
 5558SOL    HW128310   2.404   2.235   4.412  1.1692 -1.6945  0.3232
 5558SOL    HW228311   2.488   2.172   4.311 -1.6581 -2.0227  1.4897
 5559SOL     OW28312   3.667   1.827   8.086  0.5913  0.3548 -0.3351
 5559SOL    HW128313   3.743   1.795   8.037 -0.1998  0.6169 -1.7328
 5559SOL    HW228314   3.599   1.770   8.050  0.6203 -0.3494  0.7388
 5560SOL     OW28315   2.770   3.211   6.864  0.0068  0.3392  0.9567
 5560SOL    HW128316   2.828   3.156   6.918 -1.5812  0.2203  2.5452
 5560SOL    HW228317   2.793   3.300   6.893 -1.6554  0.4766  1.8303
 5561SOL     OW28318   1.603   0.223   7.470 -0.6335  0.4931 -0.3069
 5561SOL    HW128319   1.636   0.208   7.381  0.4066 -1.8667  0.4996
 5561SOL    HW228320   1.680   0.250   7.519 -1.4558  2.7472 -0.2516
 5562SOL     OW28321   3.614   3.548   8.149 -0.2201 -0.1375 -0.1397
 5562SOL    HW128322   3.635   3.577   8.237  0.9392 -0.0343 -0.4477
 5562SOL    HW228323   3.638   3.456   8.162 -0.1326 -0.3425 -1.7471
 5563SOL     OW28324   2.711   0.811   2.862 -0.0885  0.0024  0.2446
 5563SOL    HW128325   2.797   0.841   2.834  0.3189 -0.0267  1.4472
 5563SOL    HW228326   2.689   0.895   2.901 -0.9009  0.6329 -1.5799
 5564SOL     OW28327   2.726   4.191   2.769  0.0666 -0.2650  0.0808
 5564SOL    HW128328   2.634   4.186   2.794 -0.0588  1.8534  0.0619
 5564SOL    HW228329   2.726   4.169   2.676 -0.1152  0.4257 -0.0876
 5565SOL     OW28330   0.401   4.711  14.803  0.5228  0.2605 -0.2692
 5565SOL    HW128331   0.447   0.029  14.742 -0.6399  0.6833 -0.7495
 5565SOL    HW228332   0.435   4.622  14.789 -2.8292 -1.6775  3.6686
 5566SOL     OW28333   0.118   0.188   4.681 -0.2623 -0.3095 -0.2063
 5566SOL    HW128334   0.133   0.278   4.708 -0.2726 -0.4275  0.2031
 5566SOL    HW228335   0.026   0.190   4.653 -0.1860 -1.4703 -0.5503
 5567SOL     OW28336   2.494   4.491   6.327 -0.0662  0.1095 -0.2559
 5567SOL    HW128337   2.446   4.488   6.410  0.2520  0.6493 -0.0545
 5567SOL    HW228338   2.513   4.397   6.321 -0.7883 -0.1717  1.8611
 5568SOL     OW28339   1.068   3.255   4.339  0.6803  0.6010 -0.1160
 5568SOL    HW128340   1.080   3.162   4.321 -0.2958  0.2648  0.9886
 5568SOL    HW228341   1.005   3.280   4.271 -0.4734  0.8230  1.0119
 5569SOL     OW28342   3.212   4.228  16.104 -0.1164 -0.1380  0.3246
 5569SOL    HW128343   3.268   4.251  16.029  0.0621  0.1057  0.5321
 5569SOL    HW228344   3.221   4.134  16.116 -2.9149 -0.2921  1.3315
 5570SOL     OW28345   3.226   2.319   7.852  0.1926 -0.0345 -0.1159
 5570SOL    HW128346   3.200   2.269   7.930  1.7696  0.4415  0.7191
 5570SOL    HW228347   3.285   2.257   7.810  1.0576  2.1632 -2.1153
 5571SOL     OW28348   2.215   0.442   3.274  0.0990  0.3440 -0.5167
 5571SOL    HW128349   2.262   0.452   3.191  0.3390 -1.3493 -0.5877
 5571SOL    HW228350   2.276   0.490   3.329  0.6880 -1.5086  0.4158
 5572SOL     OW28351   2.442   2.304   8.405 -0.9393 -0.1539  0.6230
 5572SOL    HW128352   2.403   2.218   8.422 -1.0476 -0.9568 -3.7278
 5572SOL    HW228353   2.368   2.349   8.366  0.8736  1.8614 -0.4736
 5573SOL     OW28354   0.829   4.629  16.354  0.7473 -0.0278  0.7011
 5573SOL    HW128355   0.911   4.598  16.315  1.1298 -0.0076  1.4894
 5573SOL    HW228356   0.816   4.717  16.320  2.7825 -0.4233 -1.0618
 5574SOL     OW28357   0.464   2.480   5.304  0.4536 -0.7388 -0.8336
 5574SOL    HW128358   0.477   2.566   5.343  1.8761 -1.0628 -0.6157
 5574SOL    HW228359   0.479   2.430   5.384 -1.6317  1.6114  1.0425
 5575SOL     OW28360   4.533   0.843   3.862 -0.9449  0.1551  0.3193
 5575SOL    HW128361   4.547   0.748   3.864  3.7801  0.8346 -1.6280
 5575SOL    HW228362   4.587   0.870   3.937 -1.4613  2.6528 -0.2357
 5576SOL     OW28363   3.359   4.632  17.119 -0.5431 -0.1660 -0.3804
 5576SOL    HW128364   3.286   4.689  17.142 -0.4028  0.2783 -1.0339
 5576SOL    HW228365   3.390   4.672  17.038  0.4228  0.5855  0.3588
 5577SOL     OW28366   0.575   3.439   4.227 -0.4876 -0.3569 -0.4474
 5577SOL    HW128367   0.624   3.498   4.170  0.4695 -0.4868  0.2446
 5577SOL    HW228368   0.549   3.371   4.165  0.3877  0.4331 -1.6823
 5578SOL     OW28369   3.719   3.213   4.840 -0.8815 -0.2866 -0.2235
 5578SOL    HW128370   3.638   3.166   4.820 -2.4349  2.4448 -0.3349
 5578SOL    HW228371   3.772   3.215   4.760  0.1625 -1.6260  0.4365
 5579SOL     OW28372   2.139   1.843   8.640  0.3393  0.0616 -0.0284
 5579SOL    HW128373   2.211   1.780   8.632  1.5141  1.1968  1.6429
 5579SOL    HW228374   2.141   1.886   8.554 -0.9848  2.3537  1.1050
 5580SOL     OW28375   4.672   2.954   7.667 -0.2591 -0.2712  0.4528
 5580SOL    HW128376   0.020   2.970   7.703  0.2661 -1.0874 -0.4627
 5580SOL    HW228377   4.689   2.949   7.573 -0.1755  0.4222  0.4317
 5581SOL     OW28378   0.666   1.196   2.840 -0.3168  0.1175  0.4884
 5581SOL    HW128379   0.648   1.260   2.770 -0.3355  1.7784  2.0062
 5581SOL    HW228380   0.748   1.234   2.871 -0.1930  0.0606  0.2334
 5582SOL     OW28381   0.884   2.000   7.617 -0.1114  0.0871  0.2712
 5582SOL    HW128382   0.963   2.040   7.655 -1.4273  1.4409  1.5697
 5582SOL    HW228383   0.868   1.937   7.687 -0.0757  0.6323  0.7737
 5583SOL     OW28384   2.358   3.781   0.147 -0.1750  0.2041  0.4822
 5583SOL    HW128385   2.446   3.767   0.180  0.2794  0.7610 -0.4916
 5583SOL    HW228386   2.314   3.709   0.192 -0.6931  1.8074  2.5403
 5584SOL     OW28387   2.334   4.359   0.865 -0.3930  0.1000 -0.4633
 5584SOL    HW128388   2.298   4.448   0.863  0.9738  0.6757  0.0033
 5584SOL    HW228389   2.343   4.335   0.773 -1.3897  1.0097 -0.7969
 5585SOL     OW28390   2.917   2.525  11.776 -0.0501  0.3622 -0.8280
 5585SOL    HW128391   2.867   2.458  11.729  0.5070 -1.1541  0.7556
 5585SOL    HW228392   3.000   2.534  11.729  0.2902 -2.1501 -0.7055
 5586SOL     OW28393   0.195   0.468   3.793  0.3346 -0.3546 -0.2021
 5586SOL    HW128394   0.185   0.423   3.709  2.9476 -1.1061 -0.1239
 5586SOL    HW228395   0.136   0.543   3.785 -3.2750 -3.1548  0.7380
 5587SOL     OW28396   1.015   1.418   8.496  0.6611  0.6078  0.6837
 5587SOL    HW128397   0.941   1.448   8.549  0.5669 -0.4488  1.1606
 5587SOL    HW228398   0.980   1.423   8.407  3.0823  0.3086 -0.2914
 5588SOL     OW28399   1.920   2.339   6.706 -0.2605  0.3104  0.3588
 5588SOL    HW128400   2.002   2.293   6.723  0.7063  1.0843 -2.1351
 5588SOL    HW228401   1.910   2.305   6.617  1.8172  1.7302 -0.4205
 5589SOL     OW28402   3.287   1.935  10.860  0.3556  0.0693 -0.5051
 5589SOL    HW128403   3.367   1.929  10.912  2.3068 -1.2480 -3.6717
 5589SOL    HW228404   3.218   1.960  10.922  1.3780 -1.0231  1.0889
 5590SOL     OW28405   2.665   3.087  11.889  0.1270 -0.0534 -0.3049
 5590SOL    HW128406   2.625   3.000  11.879  1.6897 -0.8737  0.4148
 5590SOL    HW228407   2.648   3.097  11.983  3.2660 -0.5353  0.3121
 5591SOL     OW28408   3.455   2.158   4.090 -0.9466 -0.4462 -0.4108
 5591SOL    HW128409   3.437   2.142   3.997 -0.2781  0.4534 -0.6890
 5591SOL    HW228410   3.549   2.141   4.097 -0.9910 -0.2852  0.5883
 5592SOL     OW28411   3.353   0.847   3.776  0.2306  0.4645 -0.2187
 5592SOL    HW128412   3.372   0.912   3.708 -3.7459  0.1161 -1.6513
 5592SOL    HW228413   3.420   0.875   3.838  1.0444 -0.8785 -0.4983
 5593SOL     OW28414   1.170   4.401   5.093  0.2353  0.5623  0.2490
 5593SOL    HW128415   1.171   4.477   5.035 -3.3466  0.0022 -0.6010
 5593SOL    HW228416   1.181   4.429   5.183  2.5835  1.2037 -0.2547
 5594SOL     OW28417   1.672   1.946   3.453 -0.0316  0.6920  0.1458
 5594SOL    HW128418   1.606   1.878   3.435 -0.0046  1.2078 -1.8387
 5594SOL    HW228419   1.723   1.930   3.374  1.5820 -1.9236  1.7229
 5595SOL     OW28420   2.646   3.462  10.701  0.1753  0.0448 -0.0269
 5595SOL    HW128421   2.679   3.490  10.616  6.1185 -0.4921  2.1387
 5595SOL    HW228422   2.576   3.524  10.724  0.5127  0.2285  0.4952
 5596SOL     OW28423   0.925   3.753   1.679 -0.3199  0.0260 -0.1823
 5596SOL    HW128424   0.831   3.736   1.666 -0.6323  1.5541  0.1116
 5596SOL    HW228425   0.934   3.847   1.664 -0.6922  0.0457 -0.3003
 5597SOL     OW28426   1.711   0.901   5.118 -0.1598  0.1939  0.8252
 5597SOL    HW128427   1.713   0.837   5.046  0.1871  1.3202 -0.1562
 5597SOL    HW228428   1.718   0.987   5.077  2.2494 -0.0065  0.7951
 5598SOL     OW28429   2.824   2.520   8.329 -0.4736 -0.0356  0.1574
 5598SOL    HW128430   2.734   2.537   8.300 -0.7890  0.5737  1.4545
 5598SOL    HW228431   2.803   2.553   8.417 -0.8131 -2.7808  1.1042
 5599SOL     OW28432   0.345   3.591   4.818 -0.3705 -0.4902 -0.1446
 5599SOL    HW128433   0.345   3.686   4.832 -0.0635 -0.4451 -0.4467
 5599SOL    HW228434   0.331   3.593   4.723 -0.5186  1.3775 -0.0911
 5600SOL     OW28435   0.203   4.724   6.246 -0.1002  0.0793  0.0265
 5600SOL    HW128436   0.218   4.633   6.273  1.0290  0.8012  1.7772
 5600SOL    HW228437   0.228   4.712   6.155  0.1268  3.5663 -0.3564
 5601SOL     OW28438   4.379   1.991   8.710  0.1444  0.4777 -0.1922
 5601SOL    HW128439   4.355   1.931   8.781  0.6949 -1.9133 -2.0401
 5601SOL    HW228440   4.301   2.040   8.686 -0.2605  0.8376  1.8777
 5602SOL     OW28441   0.123   2.117   6.134  0.0553 -0.0828  0.1163
 5602SOL    HW128442   0.206   2.165   6.137 -0.6744  1.3076 -2.0334
 5602SOL    HW228443   0.053   2.181   6.124  1.3892  1.2628 -0.4684
 5603SOL     OW28444   4.031   0.246   3.936  0.2111 -0.1142 -0.3153
 5603SOL    HW128445   3.939   0.238   3.959  0.4596 -3.1479 -0.3958
 5603SOL    HW228446   4.068   0.194   4.007 -1.2178  1.2500  1.4292
 5604SOL     OW28447   2.460   3.117   6.186  0.2774  0.0895  0.4592
 5604SOL    HW128448   2.540   3.151   6.146  0.4093  0.7183  1.2599
 5604SOL    HW228449   2.404   3.188   6.154  0.0481 -1.4085 -2.4616
 5605SOL     OW28450   2.504   3.916   5.098  0.2442 -0.5669  0.1706
 5605SOL    HW128451   2.531   3.988   5.154 -0.1386 -0.1379 -0.1963
 5605SOL    HW228452   2.434   3.893   5.159 -0.8250 -0.1843 -0.9134
 5606SOL     OW28453   2.214   2.652  12.453  0.2124  0.6101 -0.1004
 5606SOL    HW128454   2.186   2.720  12.392 -0.5195 -2.3442 -3.0671
 5606SOL    HW228455   2.131   2.620  12.489  0.3546 -0.9980 -1.1739
 5607SOL     OW28456   2.155   1.039   9.134 -0.5037  0.3132  0.2570
 5607SOL    HW128457   2.191   0.981   9.067  2.1267  2.9378 -0.5849
 5607SOL    HW228458   2.106   1.102   9.081 -0.1687 -1.1675 -1.8566
 5608SOL     OW28459   0.505   0.168   3.725 -0.5091  0.9249  0.4186
 5608SOL    HW128460   0.499   0.264   3.722 -3.1418  0.7063 -0.7182
 5608SOL    HW228461   0.579   0.174   3.786  0.9034 -0.8959 -1.1356
 5609SOL     OW28462   3.064   3.592   4.776  0.2250 -0.6387 -0.5838
 5609SOL    HW128463   3.050   3.558   4.688 -1.7438  0.8395 -0.8410
 5609SOL    HW228464   2.977   3.579   4.815  1.2589 -1.0914  1.5304
 5610SOL     OW28465   0.028   3.157   5.338  0.0108 -0.5970  0.0085
 5610SOL    HW128466   0.115   3.194   5.323 -0.3294  0.1757 -0.0221
 5610SOL    HW228467   0.049   3.064   5.330  0.8713 -0.4745  0.7681
 5611SOL     OW28468   3.041   3.478   4.478 -0.7072 -0.1279  0.0666
 5611SOL    HW128469   3.017   3.539   4.408  1.0631  0.1392 -0.3179
 5611SOL    HW228470   2.962   3.424   4.482  0.2598 -1.5517  0.2045
 5612SOL     OW28471   3.464   1.316   1.602 -0.4773 -0.2696  0.0182
 5612SOL    HW128472   3.418   1.399   1.613 -0.3714 -0.1252 -0.6301
 5612SOL    HW228473   3.523   1.312   1.678 -2.3276 -2.6317  1.3367
 5613SOL     OW28474   2.187   0.006   3.437 -0.6746 -0.2786  0.8943
 5613SOL    HW128475   2.169   0.088   3.391 -0.8567 -0.3189  0.8941
 5613SOL    HW228476   2.101   4.703   3.436 -1.8131  2.0451  1.1885
 5614SOL     OW28477   3.777   2.516   5.587  0.3114  0.1461 -0.5268
 5614SOL    HW128478   3.803   2.608   5.594 -1.3431  0.4809  1.1938
 5614SOL    HW228479   3.700   2.512   5.644  1.4292  2.7735  1.1031
 5615SOL     OW28480   1.967   2.819  12.626  0.1224 -0.2378  0.2918
 5615SOL    HW128481   2.014   2.834  12.708 -1.2682 -2.4105  1.4590
 5615SOL    HW228482   1.980   2.724  12.624 -0.1254 -0.2887  1.4623
 5616SOL     OW28483   3.940   2.575  13.352  0.2613 -0.4281 -0.1531
 5616SOL    HW128484   4.013   2.565  13.414 -0.6735 -0.1286  0.9993
 5616SOL    HW228485   3.868   2.536  13.403  2.5440 -3.2607  0.9409
 5617SOL     OW28486   1.521   0.109  12.237  0.3427  0.1061  0.4068
 5617SOL    HW128487   1.584   0.042  12.261  1.0856 -0.3215 -2.7054
 5617SOL    HW228488   1.517   0.105  12.141 -0.5465 -2.0042  0.5359
 5618SOL     OW28489   3.773   3.220   6.092  0.2564 -0.3628  0.2918
 5618SOL    HW128490   3.779   3.153   6.159  0.2442  1.2148  1.8620
 5618SOL    HW228491   3.752   3.171   6.012 -1.0702 -1.8331  1.5579
 5619SOL     OW28492   2.511   3.722   2.323  0.1353 -0.2746 -0.3387
 5619SOL    HW128493   2.501   3.800   2.378  0.9538  0.2422 -0.9051
 5619SOL    HW228494   2.602   3.703   2.347  0.2887 -0.5132 -1.0906
 5620SOL     OW28495   4.483   2.871   1.004  0.4443  0.1463  0.3224
 5620SOL    HW128496   4.516   2.806   0.942 -1.8721  0.9497 -1.7535
 5620SOL    HW228497   4.542   2.853   1.077  1.0384 -2.5988 -0.8321
 5621SOL     OW28498   1.351   2.412  15.025 -0.7491 -0.1177 -0.3479
 5621SOL    HW128499   1.369   2.366  14.943 -0.4787 -1.5191  0.5071
 5621SOL    HW228500   1.270   2.363  15.037 -0.7733  0.4044  1.5173
 5622SOL     OW28501   2.495   0.713   3.055  0.4774  0.1674  0.5264
 5622SOL    HW128502   2.562   0.766   3.098  0.0432  1.3821 -0.3068
 5622SOL    HW228503   2.424   0.776   3.062  1.0637  0.8162  0.6665
 5623SOL     OW28504   0.793   4.166   2.150 -0.2213  0.1857  0.6273
 5623SOL    HW128505   0.730   4.131   2.087 -0.0919  1.3249 -0.1262
 5623SOL    HW228506   0.750   4.155   2.235  1.7736 -0.3103  1.5745
 5624SOL     OW28507   4.419   4.509   9.945 -0.1567  0.3095  0.3572
 5624SOL    HW128508   4.328   4.511   9.914 -0.1550  1.7790  0.4189
 5624SOL    HW228509   4.420   4.586  10.002  0.5947  0.2460  0.4254
 5625SOL     OW28510   2.217   2.767   6.886  0.0266  0.0535 -0.7011
 5625SOL    HW128511   2.231   2.674   6.868  2.5799  0.3624 -0.3539
 5625SOL    HW228512   2.126   2.770   6.914  0.3579 -1.0452  0.5000
 5626SOL     OW28513   3.379   4.361   2.125 -0.0605 -0.5295 -0.0858
 5626SOL    HW128514   3.330   4.279   2.129  0.1494 -0.6671 -0.3504
 5626SOL    HW228515   3.391   4.370   2.030 -0.3402  1.6739  0.0874
 5627SOL     OW28516   2.417   0.620  17.202 -0.3517  0.1639  0.8081
 5627SOL    HW128517   2.487   0.676  17.169  0.8300 -0.5282  2.1152
 5627SOL    HW228518   2.342   0.655  17.154  0.0018  0.6491  0.6138
 5628SOL     OW28519   1.320   2.795   3.147 -0.6457  0.6397 -0.1819
 5628SOL    HW128520   1.368   2.780   3.066  2.5545  0.8417  1.6872
 5628SOL    HW228521   1.232   2.823   3.120 -1.1189 -0.8573 -0.2007
 5629SOL     OW28522   2.013   0.498   8.129  0.4791 -0.4288 -0.3852
 5629SOL    HW128523   1.921   0.522   8.133  0.5068  0.2947 -3.4454
 5629SOL    HW228524   2.056   0.568   8.179 -0.6814  0.3360 -0.4502
 5630SOL     OW28525   1.790   3.072   7.227 -0.1745  0.2796 -0.2494
 5630SOL    HW128526   1.750   3.010   7.288  4.3001 -0.8993  1.5083
 5630SOL    HW228527   1.779   3.151   7.279 -1.6835  0.5213 -0.9311
 5631SOL     OW28528   2.876   3.635  13.805 -0.1396 -0.0799 -0.1744
 5631SOL    HW128529   2.847   3.578  13.876 -0.6800  1.7461  1.0370
 5631SOL    HW228530   2.892   3.571  13.735  1.0571 -1.9191  1.7736
 5632SOL     OW28531   0.109   3.125   3.298  0.0269  0.1741  0.5058
 5632SOL    HW128532   0.104   3.035   3.265  1.3791  0.5968 -0.8562
 5632SOL    HW228533   0.080   3.181   3.226 -0.6856 -0.4164  0.3259
 5633SOL     OW28534   0.199   3.165  15.342  0.2018 -0.4398  0.0835
 5633SOL    HW128535   0.107   3.173  15.319 -0.1668 -2.5121  0.8388
 5633SOL    HW228536   0.197   3.198  15.431 -0.4863  0.0828 -0.1276
 5634SOL     OW28537   1.964   4.130   3.619  0.2160 -0.0801 -0.7155
 5634SOL    HW128538   1.905   4.110   3.692  1.7207  0.5200  0.6675
 5634SOL    HW228539   1.976   4.223   3.640 -0.8381 -0.2650  0.7748
 5635SOL     OW28540   4.702   4.460   2.979 -0.2402  0.1005 -0.2539
 5635SOL    HW128541   4.695   4.414   3.062 -1.8626  2.4627  0.9060
 5635SOL    HW228542   4.685   4.551   3.002 -0.3931  0.3610 -1.3800
 5636SOL     OW28543   2.454   3.408  11.894  0.2674 -0.2062  0.5152
 5636SOL    HW128544   2.429   3.347  11.825  0.9426  0.5512 -0.3953
 5636SOL    HW228545   2.378   3.403  11.952  0.5806  2.2705  1.1200
 5637SOL     OW28546   1.513   1.076   0.482 -0.2680 -0.4351 -0.0645
 5637SOL    HW128547   1.590   1.101   0.431  0.6070 -2.5885  0.1938
 5637SOL    HW228548   1.551   1.014   0.544 -1.9629 -1.2204  0.2020
 5638SOL     OW28549   1.738   4.479   7.019  0.2665  0.0437 -0.0597
 5638SOL    HW128550   1.766   4.538   7.089  0.0350 -1.5837  1.4183
 5638SOL    HW228551   1.768   4.396   7.056  0.3380 -0.3014 -0.8981
 5639SOL     OW28552   3.509   3.434  17.634  0.2601  0.4419 -0.0395
 5639SOL    HW128553   3.452   3.397  17.702  0.8061 -0.5268 -0.1112
 5639SOL    HW228554   3.492   3.528  17.637 -1.8615  0.0510  0.6749
 5640SOL     OW28555   1.396   4.458   3.598  0.0346 -0.1413 -0.1677
 5640SOL    HW128556   1.365   4.494   3.514 -0.2920  0.9038  0.3978
 5640SOL    HW228557   1.482   4.495   3.617  0.4400 -0.5651 -1.1711
 5641SOL     OW28558   3.722   0.078   6.425 -0.1050  0.0443 -0.8912
 5641SOL    HW128559   3.636   0.106   6.454  0.4390  1.6538 -0.7858
 5641SOL    HW228560   3.734   0.129   6.344 -0.0265 -2.1879 -2.2698
 5642SOL     OW28561   4.380   3.802   9.094  0.0910 -0.6443  0.0049
 5642SOL    HW128562   4.384   3.853   9.175  0.0871  1.9519 -1.6101
 5642SOL    HW228563   4.465   3.827   9.058  0.7479  0.9187  2.6176
 5643SOL     OW28564   3.091   2.678   5.675  0.4763 -0.6013 -0.4725
 5643SOL    HW128565   3.060   2.665   5.585  0.1716 -0.0077 -0.4495
 5643SOL    HW228566   3.117   2.768   5.657 -1.3820 -0.0767 -0.5237
 5644SOL     OW28567   2.097   4.342   6.706  0.1335  0.2303  0.3738
 5644SOL    HW128568   2.165   4.280   6.731 -1.5070 -2.0188 -0.8296
 5644SOL    HW228569   2.068   4.385   6.786  2.3319  2.9613 -0.2873
 5645SOL     OW28570   0.348   1.541   5.575  0.6166  0.1486  0.2219
 5645SOL    HW128571   0.334   1.544   5.669  4.0079 -3.5002  0.8382
 5645SOL    HW228572   0.271   1.492   5.547 -0.3180  1.1949  0.9694
 5646SOL     OW28573   0.765   0.183   3.846 -0.2169 -0.2010  0.4180
 5646SOL    HW128574   0.829   0.185   3.917  2.1607 -0.9313 -1.7080
 5646SOL    HW228575   0.746   0.277   3.851 -0.3677 -0.1588 -1.1278
 5647SOL     OW28576   2.206   0.081   8.055 -0.1737 -0.2693 -0.0711
 5647SOL    HW128577   2.282   0.087   7.996 -0.5271 -2.2653 -0.7243
 5647SOL    HW228578   2.259   0.081   8.135 -1.4788  0.3228  0.7762
 5648SOL     OW28579   0.443   3.856   3.624  0.2604 -0.5096  0.0605
 5648SOL    HW128580   0.419   3.831   3.713  0.7787  0.1642  0.3911
 5648SOL    HW228581   0.458   3.772   3.581 -0.8382 -1.1957  1.0305
 5649SOL     OW28582   3.298   0.063   8.526  0.8676 -0.0408  0.6407
 5649SOL    HW128583   3.339   0.030   8.606  2.7739 -0.5061 -0.5234
 5649SOL    HW228584   3.336   0.009   8.457 -1.0558 -0.7585  0.1566
 5650SOL     OW28585   3.399   0.672   4.405 -0.0224 -0.1195 -0.4469
 5650SOL    HW128586   3.353   0.621   4.339 -1.8633  0.5005  0.3339
 5650SOL    HW228587   3.462   0.717   4.348  0.4488  0.3760  0.4644
 5651SOL     OW28588   1.356   3.044  17.011 -0.1198 -0.5702  0.1845
 5651SOL    HW128589   1.352   2.983  16.937  1.1924 -0.3176 -0.0843
 5651SOL    HW228590   1.270   3.086  17.003 -0.4518 -0.7772  2.6143
 5652SOL     OW28591   4.590   2.017   7.779 -0.3868 -0.0340  0.0546
 5652SOL    HW128592   4.656   1.993   7.844 -1.7676 -0.4334  1.3132
 5652SOL    HW228593   4.605   1.956   7.706  2.0244 -0.8075  1.2200
 5653SOL     OW28594   1.666   1.017   5.994  0.1443  0.1934 -0.0433
 5653SOL    HW128595   1.697   1.014   5.903 -1.0390  3.4572 -0.5354
 5653SOL    HW228596   1.746   1.043   6.039  0.3208  1.0316 -0.8517
 5654SOL     OW28597   0.105   2.121   5.248 -0.4128  0.4689  0.0528
 5654SOL    HW128598   0.118   2.214   5.232 -1.6469  0.6962  0.3527
 5654SOL    HW228599   0.017   2.130   5.284 -0.1696 -0.1954  0.8190
 5655SOL     OW28600   0.508   0.745   9.185 -0.0032  0.0135 -0.2450
 5655SOL    HW128601   0.444   0.687   9.144  1.4004 -1.7926  0.0878
 5655SOL    HW228602   0.480   0.770   9.273  1.7381  0.8608  0.0791
 5656SOL     OW28603   0.928   0.091   7.712  0.5709 -0.1767  0.2737
 5656SOL    HW128604   0.981   0.135   7.645  2.2805 -2.6447 -0.0030
 5656SOL    HW228605   0.947   0.135   7.794  0.1846  1.5419 -0.5641
 5657SOL     OW28606   3.231   1.127   2.988 -0.5208  0.7280 -0.1769
 5657SOL    HW128607   3.192   1.116   3.075 -1.2763  3.3607 -0.1651
 5657SOL    HW228608   3.313   1.165   3.020 -0.3750 -0.0831  0.3962
 5658SOL     OW28609   4.422   1.547   4.166  0.0978 -0.3108 -0.1097
 5658SOL    HW128610   4.366   1.549   4.244 -3.2002  1.0625 -2.5353
 5658SOL    HW228611   4.402   1.633   4.130  1.5498  0.4013  0.7790
 5659SOL     OW28612   2.817   2.490   7.885 -0.3246  0.5233 -0.1436
 5659SOL    HW128613   2.837   2.433   7.959  2.6736 -0.1298 -1.4627
 5659SOL    HW228614   2.768   2.427   7.831  2.8494 -1.4213 -0.7498
 5660SOL     OW28615   2.512   1.754   2.192  0.2792  0.4494  0.0226
 5660SOL    HW128616   2.474   1.717   2.113  2.0245  0.8140 -0.9897
 5660SOL    HW228617   2.583   1.797   2.145  1.0307 -0.2925  0.4695
 5661SOL     OW28618   3.622   2.474   2.099 -0.5786 -0.3568  0.0121
 5661SOL    HW128619   3.676   2.553   2.104 -2.7434  1.1039  0.7450
 5661SOL    HW228620   3.682   2.404   2.072 -0.6054 -0.7245  0.9248
 5662SOL     OW28621   4.661   1.076  14.182 -0.3240  0.8287 -0.3420
 5662SOL    HW128622   4.585   1.021  14.198  0.1081 -0.2798 -2.0647
 5662SOL    HW228623   4.711   1.070  14.263 -0.1653  2.1933 -0.3429
 5663SOL     OW28624   2.665   3.270   7.130 -0.1098 -0.0027  0.7471
 5663SOL    HW128625   2.710   3.203   7.079 -1.2622 -1.6475  1.9297
 5663SOL    HW228626   2.680   3.241   7.219  0.0424 -3.4406 -0.3953
 5664SOL     OW28627   1.088   2.304   1.952  0.5015 -0.2882 -0.2239
 5664SOL    HW128628   0.994   2.286   1.950  0.4124  0.0433  0.8238
 5664SOL    HW228629   1.122   2.215   1.951 -0.1087 -0.5474  1.8668
 5665SOL     OW28630   2.335   1.224   5.370  0.0959  0.0606 -0.0037
 5665SOL    HW128631   2.410   1.168   5.351  0.6272  1.1609 -1.1833
 5665SOL    HW228632   2.265   1.160   5.382  0.1218  0.0374  0.0207
 5666SOL     OW28633   4.639   3.736   0.711 -0.6877  0.0140  0.1007
 5666SOL    HW128634   4.725   3.724   0.671 -1.0646 -1.1841 -0.3330
 5666SOL    HW228635   4.672   3.755   0.799 -0.4084  1.8537 -0.3912
 5667SOL     OW28636   3.232   1.168   8.502 -0.1710  0.0682 -0.0528
 5667SOL    HW128637   3.253   1.169   8.595  0.8806 -2.0790 -0.2569
 5667SOL    HW228638   3.138   1.184   8.504 -0.3942 -1.3373  0.6154
 5668SOL     OW28639   4.356   3.527  15.758 -0.4026  0.4106  0.6684
 5668SOL    HW128640   4.272   3.574  15.761 -1.2493 -0.9996 -1.2098
 5668SOL    HW228641   4.366   3.510  15.664  1.3063  0.1897  0.8954
 5669SOL     OW28642   2.737   1.281  10.169 -0.2412  0.3286 -0.7935
 5669SOL    HW128643   2.832   1.291  10.158 -0.5175  1.4286 -2.1583
 5669SOL    HW228644   2.716   1.232  10.090 -0.6658 -0.7268 -0.0227
 5670SOL     OW28645   1.315   0.017   9.145 -0.3420  0.2957  0.1428
 5670SOL    HW128646   1.345   4.675   9.185  2.2174  1.3158  0.2722
 5670SOL    HW228647   1.393   0.072   9.143 -0.7071  0.7643 -1.1465
 5671SOL     OW28648   3.619   0.912   6.544 -0.0521  0.1521  0.0058
 5671SOL    HW128649   3.544   0.855   6.559 -0.8802  1.4745  0.8952
 5671SOL    HW228650   3.666   0.888   6.624  1.3031  2.8246  0.0223
 5672SOL     OW28651   2.501   0.897   6.148  0.0721 -0.1847 -0.1825
 5672SOL    HW128652   2.430   0.841   6.180 -0.3426 -0.3227 -1.3491
 5672SOL    HW228653   2.567   0.850   6.199 -0.9235  0.6069  1.8487
 5673SOL     OW28654   3.845   2.679  14.276  0.3781 -0.6271 -0.2358
 5673SOL    HW128655   3.880   2.713  14.358 -1.2246  0.5666 -0.0499
 5673SOL    HW228656   3.889   2.599  14.247  0.6223 -0.7451  0.4619
 5674SOL     OW28657   0.015   2.234  12.346 -0.0846  0.3469  0.1351
 5674SOL    HW128658   4.700   2.222  12.424 -0.2901 -1.2321 -0.2488
 5674SOL    HW228659   4.716   2.315  12.313 -0.3167  1.1931  2.4471
 5675SOL     OW28660   3.290   1.582   1.664  0.2737  0.5031 -0.0088
 5675SOL    HW128661   3.222   1.589   1.732  0.4516 -0.3363  0.2591
 5675SOL    HW228662   3.311   1.675   1.658 -2.2452  0.9909 -1.3439
 5676SOL     OW28663   2.626   2.072   9.133  0.6168  0.0925 -0.8291
 5676SOL    HW128664   2.551   2.015   9.112 -0.4993  1.1786  0.1949
 5676SOL    HW228665   2.691   2.005   9.115  0.0842 -0.4761 -0.6529
 5677SOL     OW28666   0.615   3.287   5.974  0.1655  0.1721  0.3024
 5677SOL    HW128667   0.553   3.312   5.906  1.0956  1.2582 -0.1467
 5677SOL    HW228668   0.688   3.349   5.967 -1.6903  2.5658  2.3192
 5678SOL     OW28669   2.767   0.117   1.260  0.2006 -0.3381 -0.3366
 5678SOL    HW128670   2.809   0.170   1.328 -0.5104 -0.8662  0.5031
 5678SOL    HW228671   2.797   0.037   1.304  0.8964  1.1855  1.9275
 5679SOL     OW28672   0.924   0.852   3.720  0.1657  0.1968 -0.4310
 5679SOL    HW128673   0.865   0.844   3.795 -1.1889 -1.6627 -1.7116
 5679SOL    HW228674   0.950   0.944   3.728 -0.8963  0.3749  0.9371
 5680SOL     OW28675   0.557   2.940   7.258 -0.4561 -0.6369  0.0415
 5680SOL    HW128676   0.495   2.904   7.195 -1.5843 -0.6455  1.1470
 5680SOL    HW228677   0.538   2.892   7.339  1.3583 -1.3626  0.0137
 5681SOL     OW28678   0.265   4.114   3.630 -0.3736  0.4978 -0.0418
 5681SOL    HW128679   0.343   4.144   3.677 -0.8935  0.8023  0.6318
 5681SOL    HW228680   0.278   4.019   3.627 -0.9659  0.4170 -0.1128
 5682SOL     OW28681   2.085   1.209  11.442  0.2829  0.3132  0.2831
 5682SOL    HW128682   2.107   1.203  11.535 -0.1294  1.4483  0.4558
 5682SOL    HW228683   2.071   1.119  11.414  1.5847 -0.1691  1.2220
 5683SOL     OW28684   2.290   3.447   4.700 -0.2332  0.2281 -0.0069
 5683SOL    HW128685   2.301   3.456   4.605  0.6811 -2.5063 -0.1342
 5683SOL    HW228686   2.354   3.380   4.721  0.8139  0.8452 -1.2028
 5684SOL     OW28687   1.566   2.700   6.043 -0.0954 -0.2845  0.0774
 5684SOL    HW128688   1.639   2.726   5.987  0.6853 -0.1954  1.1288
 5684SOL    HW228689   1.571   2.765   6.113  2.1282  0.3010 -0.6303
 5685SOL     OW28690   0.534   3.425  16.766 -0.2536  0.1343  0.3282
 5685SOL    HW128691   0.466   3.359  16.775 -1.4951  1.3322 -0.2053
 5685SOL    HW228692   0.599   3.377  16.714 -0.6409 -0.7144  0.6228
 5686SOL     OW28693   4.717   2.383   7.466 -0.3423 -0.4369 -0.4249
 5686SOL    HW128694   4.720   2.378   7.561  2.8147 -0.3319 -0.5359
 5686SOL    HW228695   4.629   2.347   7.454 -0.2557 -1.1362  1.0817
 5687SOL     OW28696   4.561   4.467   2.388  0.0832 -0.6790 -0.2832
 5687SOL    HW128697   4.599   4.525   2.322 -0.3472 -0.8438 -0.6792
 5687SOL    HW228698   4.490   4.417   2.347  0.6094  0.0543 -2.0757
 5688SOL     OW28699   3.949   3.065  15.402 -0.1092 -0.4732  0.2124
 5688SOL    HW128700   3.956   3.154  15.369  0.6732  0.4469  2.8471
 5688SOL    HW228701   3.923   3.018  15.323 -0.5585  0.2856 -0.0838
 5689SOL     OW28702   2.150   3.758   5.073 -0.3898 -0.2399  0.5489
 5689SOL    HW128703   2.163   3.694   5.003  0.6915  0.5718  0.0120
 5689SOL    HW228704   2.172   3.700   5.146 -1.3052 -2.7029 -1.1412
 5690SOL     OW28705   0.118   0.894  10.453 -0.3620 -0.3008  0.5199
 5690SOL    HW128706   0.204   0.852  10.454  0.1433  0.7275  0.2486
 5690SOL    HW228707   0.122   0.938  10.538  0.7452  2.7652 -1.1137
 5691SOL     OW28708   0.055   0.442   8.568  0.0327 -0.4812 -0.5060
 5691SOL    HW128709   0.149   0.449   8.582  0.0752 -2.4140  0.1190
 5691SOL    HW228710   0.030   0.390   8.644 -1.0575  1.0003  0.1393
 5692SOL     OW28711   4.151   3.351   4.692  0.5041  0.7149 -0.5571
 5692SOL    HW128712   4.159   3.396   4.608 -0.5653 -0.1796 -1.1280
 5692SOL    HW228713   4.159   3.260   4.664  0.3533  0.1032  1.3996
 5693SOL     OW28714   1.145   4.604  15.097 -0.2048  0.4110 -0.5736
 5693SOL    HW128715   1.216   4.661  15.129 -1.1213  0.9585  0.4801
 5693SOL    HW228716   1.123   4.641  15.012 -1.8713  1.4291  0.3096
 5694SOL     OW28717   1.912   2.582   4.030 -0.1175  0.3800  0.3970
 5694SOL    HW128718   1.817   2.574   4.037 -0.3209  2.0916 -0.5694
 5694SOL    HW228719   1.933   2.509   4.089  0.9493  1.7898  1.7560
 5695SOL     OW28720   3.728   1.278   7.607  0.1744 -0.1723 -0.8907
 5695SOL    HW128721   3.724   1.201   7.663  3.3393 -2.0134 -3.2400
 5695SOL    HW228722   3.737   1.232   7.524  0.3943  0.6961 -1.3483
 5696SOL     OW28723   3.000   3.861   0.125  0.1616  0.6974  0.2688
 5696SOL    HW128724   2.936   3.836   0.059 -0.7237  2.0219  0.6256
 5696SOL    HW228725   3.054   3.928   0.084  1.2502  0.3677  1.1352
 5697SOL     OW28726   0.299   2.936   6.831  0.1124 -0.0974 -0.3676
 5697SOL    HW128727   0.303   2.854   6.878  0.6247  0.6046  0.8104
 5697SOL    HW228728   0.227   2.920   6.770  0.2675 -0.2828 -0.5033
 5698SOL     OW28729   0.992   2.887   3.478  0.4232 -0.2339 -0.0656
 5698SOL    HW128730   1.054   2.958   3.495 -1.7428  1.6420  0.0780
 5698SOL    HW228731   1.006   2.839   3.560 -0.3369 -1.0595 -0.4193
 5699SOL     OW28732   2.380   0.359  17.190 -0.3901 -0.2651 -0.0685
 5699SOL    HW128733   2.331   0.363  17.108  0.5948 -0.5798 -0.6791
 5699SOL    HW228734   2.424   0.444  17.198 -0.5620 -0.1379 -0.4886
 5700SOL     OW28735   1.936   0.748  11.582 -0.4626  0.1627  0.0038
 5700SOL    HW128736   1.998   0.720  11.650 -1.5144  2.6464  1.9938
 5700SOL    HW228737   1.849   0.720  11.608 -0.8169 -1.2207 -2.6790
 5701SOL     OW28738   0.725   3.555   4.021 -0.3498 -0.0239 -0.1876
 5701SOL    HW128739   0.771   3.637   4.003  1.4332 -1.2731 -1.2328
 5701SOL    HW228740   0.703   3.519   3.935  1.3071  0.2092 -0.7097
 5702SOL     OW28741   2.314   0.067   3.075 -0.3507 -0.5553 -0.2158
 5702SOL    HW128742   2.278   0.104   2.994 -1.1201 -1.4008 -0.2554
 5702SOL    HW228743   2.236   0.062   3.131  0.5022  2.4285  1.2696
 5703SOL     OW28744   2.320   1.721  16.789 -0.1570  0.2786 -0.4838
 5703SOL    HW128745   2.270   1.783  16.736 -2.0126  1.0969  2.2195
 5703SOL    HW228746   2.320   1.759  16.877  1.7649 -2.1850  0.5654
 5704SOL     OW28747   3.526   0.559   6.957 -0.0641  0.0222 -0.0782
 5704SOL    HW128748   3.468   0.635   6.947 -1.1671 -0.7753  0.2486
 5704SOL    HW228749   3.564   0.552   6.869  2.0349 -2.0082  0.9748
 5705SOL     OW28750   4.364   1.262   6.420 -0.0803  0.3663  0.1437
 5705SOL    HW128751   4.310   1.275   6.498  0.0296 -1.8926  0.5865
 5705SOL    HW228752   4.361   1.351   6.385  0.0402 -0.3150 -1.5935
 5706SOL     OW28753   3.716   1.137   7.361 -0.0629 -0.3422 -0.0675
 5706SOL    HW128754   3.716   1.043   7.342  3.3138 -0.8592  2.4582
 5706SOL    HW228755   3.676   1.153   7.275 -0.2396 -0.5957 -0.0324
 5707SOL     OW28756   3.923   0.344   4.224 -0.0115  0.1328  0.1528
 5707SOL    HW128757   3.986   0.380   4.286 -1.5449  0.1693  1.6674
 5707SOL    HW228758   3.975   0.269   4.195 -0.0494  0.0132  0.3932
 5708SOL     OW28759   2.748   2.948  16.687 -0.1491 -0.0679 -0.0062
 5708SOL    HW128760   2.767   2.857  16.666 -2.0502 -0.5138  0.1747
 5708SOL    HW228761   2.735   2.992  16.603  0.0858  0.2255  0.1126
 5709SOL     OW28762   0.081   1.007   6.115 -0.0540  0.6198  0.5677
 5709SOL    HW128763   0.127   1.069   6.171  0.7270 -0.9818  1.7095
 5709SOL    HW228764   0.102   1.045   6.030  0.0314  1.1609  0.8372
 5710SOL     OW28765   1.306   0.100   7.761  0.1569 -0.8067 -0.2940
 5710SOL    HW128766   1.283   0.164   7.828  0.5645  2.0236 -2.8732
 5710SOL    HW228767   1.247   0.136   7.696  0.9364  0.4559 -0.2987
 5711SOL     OW28768   2.883   1.861   4.380 -0.0516  0.2517  0.3587
 5711SOL    HW128769   2.830   1.830   4.454  1.9500 -2.0436  0.8074
 5711SOL    HW228770   2.861   1.955   4.377 -0.5607  0.1522  1.0117
 5712SOL     OW28771   1.706   1.684   1.433 -0.0928 -0.4677  0.7785
 5712SOL    HW128772   1.737   1.627   1.363 -0.6856 -0.5712  0.6011
 5712SOL    HW228773   1.699   1.765   1.384 -2.2528 -1.0831  0.0443
 5713SOL     OW28774   1.547   3.443   7.676 -0.2777  0.4009  0.0761
 5713SOL    HW128775   1.541   3.369   7.617  2.7394  0.2993 -0.1032
 5713SOL    HW228776   1.519   3.506   7.610 -0.4181  1.0527  0.7528
 5714SOL     OW28777   0.935   0.669   2.243 -0.6034 -0.0134  1.0114
 5714SOL    HW128778   0.925   0.762   2.224 -0.4907 -0.7138 -2.4878
 5714SOL    HW228779   0.967   0.660   2.333 -0.5211  0.7953  1.0632
 5715SOL     OW28780   1.306   1.493  12.242  0.6704  0.6764 -0.2909
 5715SOL    HW128781   1.284   1.401  12.227  0.6312  0.2574  2.3095
 5715SOL    HW228782   1.382   1.483  12.299  0.1788  0.1758  0.2672
 5716SOL     OW28783   3.514   3.599   5.286 -0.7344 -0.0137  0.5641
 5716SOL    HW128784   3.433   3.631   5.245 -1.0055  2.2740  2.8786
 5716SOL    HW228785   3.506   3.609   5.381  0.0431  1.3811  0.4759
 5717SOL     OW28786   3.520   4.403   4.172 -0.1451 -0.4361 -0.2888
 5717SOL    HW128787   3.613   4.402   4.151 -0.6134  0.3825 -2.4268
 5717SOL    HW228788   3.478   4.475   4.125 -0.4369 -0.2528  0.2496
 5718SOL     OW28789   0.811   2.023  13.081 -0.2758  0.2363 -0.2662
 5718SOL    HW128790   0.741   2.025  13.015 -0.8640 -1.3166  0.3185
 5718SOL    HW228791   0.771   2.075  13.150  0.8154 -1.1887  1.4261
 5719SOL     OW28792   4.407   2.064   6.094 -0.2788 -0.0013 -0.1193
 5719SOL    HW128793   4.314   2.053   6.117 -0.6994 -0.9055 -2.3179
 5719SOL    HW228794   4.391   2.119   6.017 -0.8897  0.5706  0.4026
 5720SOL     OW28795   2.743   0.222  17.000  0.2605 -0.3155  0.0395
 5720SOL    HW128796   2.699   0.299  16.962  1.3830  0.1732 -0.2834
 5720SOL    HW228797   2.686   0.209  17.075  1.2822 -0.0383  0.8565
 5721SOL     OW28798   2.091   2.017   4.755  0.1336  0.4130  0.7286
 5721SOL    HW128799   2.073   1.937   4.805 -0.1118  0.9969  1.5649
 5721SOL    HW228800   2.084   2.084   4.822 -0.3166 -0.0770  1.1683
 5722SOL     OW28801   0.866   3.026   2.958  0.0989  0.3044 -0.2490
 5722SOL    HW128802   0.785   3.051   2.913 -0.1617  0.1639  0.1341
 5722SOL    HW228803   0.825   2.948   2.994  0.3920  0.2031 -0.1381
 5723SOL     OW28804   4.427   2.541   4.618  0.3953  0.0556  0.1832
 5723SOL    HW128805   4.458   2.473   4.559 -3.1829 -1.6415  0.2477
 5723SOL    HW228806   4.507   2.565   4.665  0.8030  0.5753 -0.7826
 5724SOL     OW28807   1.960   3.398   0.554 -0.3115 -0.4250  0.0671
 5724SOL    HW128808   1.972   3.409   0.460 -1.5104 -0.9706 -0.1465
 5724SOL    HW228809   1.882   3.343   0.554 -1.0367  0.6229  0.9593
 5725SOL     OW28810   1.730   2.697   5.398 -0.6378  0.4625 -0.2264
 5725SOL    HW128811   1.794   2.675   5.330 -0.6543  2.5720 -0.9357
 5725SOL    HW228812   1.689   2.610   5.401 -0.0721  0.1910 -0.4035
 5726SOL     OW28813   3.834   3.208  10.041 -0.1367 -0.5886  0.2729
 5726SOL    HW128814   3.788   3.291  10.048  1.8064  0.6095 -1.0077
 5726SOL    HW228815   3.816   3.172   9.954  1.4036 -1.1873  0.1906
 5727SOL     OW28816   3.222   4.625  17.467  0.0959  0.2927 -0.5129
 5727SOL    HW128817   3.271   4.548  17.438 -0.7726  0.0957 -1.4833
 5727SOL    HW228818   3.217   4.681  17.389  0.3857  2.4287  1.0045
 5728SOL     OW28819   4.687   0.641   3.101  0.3744 -0.3164 -0.1782
 5728SOL    HW128820   4.657   0.631   3.011 -1.1940  1.9138  0.1052
 5728SOL    HW228821   4.606   0.624   3.149 -0.5203 -1.1439 -2.0225
 5729SOL     OW28822   2.955   3.030   7.003  0.3820 -0.0995 -0.0663
 5729SOL    HW128823   2.999   3.106   7.041  0.2471 -0.8499  1.5965
 5729SOL    HW228824   3.031   2.983   6.968  0.4485  0.8461 -1.1766
 5730SOL     OW28825   1.321   0.639   8.876  0.3794  0.3886 -0.7101
 5730SOL    HW128826   1.329   0.559   8.824  1.3665 -0.2324  0.4309
 5730SOL    HW228827   1.407   0.679   8.862  0.5782  0.3425  0.4296
 5731SOL     OW28828   3.206   4.210  10.778 -0.4085  0.1859  0.3646
 5731SOL    HW128829   3.255   4.128  10.768 -0.1407  0.3464  0.3531
 5731SOL    HW228830   3.251   4.238  10.858 -1.3393  0.3723  0.8175
 5732SOL     OW28831   1.089   1.282   9.898 -0.0870 -0.1796  0.3070
 5732SOL    HW128832   1.022   1.272   9.830 -0.3362 -1.9069  0.7998
 5732SOL    HW228833   1.044   1.227   9.963  2.3558 -2.0130  0.4238
 5733SOL     OW28834   1.167   1.791   7.346 -0.0243 -0.1821  0.0615
 5733SOL    HW128835   1.245   1.735   7.347  0.1502  0.0975  1.7416
 5733SOL    HW228836   1.137   1.780   7.255  1.4696  0.2811 -0.4966
 5734SOL     OW28837   4.170   3.389  17.148  0.1035  0.5276 -0.2590
 5734SOL    HW128838   4.212   3.310  17.115 -1.6472  0.4755 -2.3136
 5734SOL    HW228839   4.215   3.386  17.233 -2.4862 -1.3330  1.0336
 5735SOL     OW28840   0.197   1.463  15.309  0.1509 -0.5384  0.3876
 5735SOL    HW128841   0.251   1.534  15.273 -0.0730 -0.2889  0.5421
 5735SOL    HW228842   0.190   1.419  15.224  1.7565  1.5953 -0.8681
 5736SOL     OW28843   4.660   1.941   4.514 -0.7284  0.0685  0.4113
 5736SOL    HW128844   4.702   1.855   4.519 -0.3897  0.2798  1.3313
 5736SOL    HW228845   4.735   1.995   4.539 -0.2440 -0.4578  0.1183
 5737SOL     OW28846   1.805   1.314  11.826 -0.3142  0.6998  0.2177
 5737SOL    HW128847   1.830   1.380  11.761 -3.7477  0.8276 -0.9656
 5737SOL    HW228848   1.786   1.376  11.897 -0.2164  2.4198 -1.2531
 5738SOL     OW28849   4.468   4.287  11.381 -0.3332 -0.1645  0.1874
 5738SOL    HW128850   4.522   4.232  11.325  0.9795 -0.9353  2.2298
 5738SOL    HW228851   4.503   4.268  11.468 -0.3130  1.9360  0.6427
 5739SOL     OW28852   3.486   4.502  15.367  0.2984  0.0038  0.1608
 5739SOL    HW128853   3.410   4.557  15.389  1.8118  2.2807 -0.3131
 5739SOL    HW228854   3.551   4.556  15.411 -0.9511  1.7310 -0.1269
 5740SOL     OW28855   1.688   3.002   8.475  0.5890  0.1785  1.3239
 5740SOL    HW128856   1.735   3.026   8.395  0.4582 -1.3848  0.7769
 5740SOL    HW228857   1.757   3.019   8.539  1.4018 -1.9324  0.9885
 5741SOL     OW28858   2.642   0.214  13.436  0.8386  0.1449  0.0304
 5741SOL    HW128859   2.688   0.162  13.370 -0.9550 -0.7483 -0.5101
 5741SOL    HW228860   2.633   0.292  13.382 -1.2269 -0.3909 -0.3950
 5742SOL     OW28861   3.741   0.134   4.775  0.1965  0.1493 -0.6143
 5742SOL    HW128862   3.668   0.119   4.715 -0.7438 -0.3534  0.6545
 5742SOL    HW228863   3.771   0.211   4.725  2.1541  0.0421  0.4009
 5743SOL     OW28864   3.930   1.072   5.043 -0.1382 -0.0465  0.1055
 5743SOL    HW128865   3.984   1.147   5.067 -0.2450  0.5220 -1.4784
 5743SOL    HW228866   3.928   1.068   4.948  1.6735  2.0602 -0.0058
 5744SOL     OW28867   3.194   0.488   4.596  0.3106  0.0400 -0.1853
 5744SOL    HW128868   3.274   0.453   4.635  1.8063  1.4321 -2.0202
 5744SOL    HW228869   3.196   0.571   4.644  0.8308  0.9925 -1.8150
 5745SOL     OW28870   0.067   3.194   5.691 -0.3280 -0.5493 -0.0487
 5745SOL    HW128871   0.033   3.231   5.773 -0.0556 -4.0978  1.6641
 5745SOL    HW228872   0.100   3.271   5.643 -0.8910  1.8895  3.4522
 5746SOL     OW28873   4.473   4.334   2.680 -0.2069 -0.2036 -0.7552
 5746SOL    HW128874   4.541   4.400   2.662  0.5545  0.0683  3.0973
 5746SOL    HW228875   4.522   4.259   2.645  0.8692 -0.3621  1.0377
 5747SOL     OW28876   1.967   2.757   7.521  0.0133 -0.1394  0.4613
 5747SOL    HW128877   2.019   2.685   7.485  1.6791  1.0894  0.3799
 5747SOL    HW228878   2.021   2.827   7.486 -2.0627  1.1396 -0.1675
 5748SOL     OW28879   3.181   0.011   0.204 -0.3498 -0.1879  0.2050
 5748SOL    HW128880   3.098   0.043   0.169 -1.2545 -1.1053  1.5510
 5748SOL    HW228881   3.208   4.692   0.133 -0.1927 -0.6837  0.6796
 5749SOL     OW28882   1.554   1.696   1.672  0.4278 -0.4437  0.0085
 5749SOL    HW128883   1.606   1.679   1.593 -2.8823 -2.8070 -1.6820
 5749SOL    HW228884   1.619   1.729   1.733  1.3417  0.8811 -1.6705
 5750SOL     OW28885   3.102   4.713   2.857  0.2313  1.2259 -0.1840
 5750SOL    HW128886   3.025   4.700   2.801  1.5387  0.0142 -1.7121
 5750SOL    HW228887   3.172   4.735   2.795  0.5026  3.0565  0.7697
 5751SOL     OW28888   3.890   2.342   3.528 -0.6527 -0.2809  0.2754
 5751SOL    HW128889   3.854   2.430   3.530 -2.9444 -1.2155  0.0911
 5751SOL    HW228890   3.813   2.302   3.487 -0.2682 -0.6194 -0.1244
 5752SOL     OW28891   2.237   0.769   5.678  0.2102  0.3068 -0.0945
 5752SOL    HW128892   2.324   0.757   5.717 -0.2770 -0.6147  0.6803
 5752SOL    HW228893   2.187   0.688   5.684  1.8050 -0.5915  1.4300
 5753SOL     OW28894   1.010   2.981   5.660 -0.6113  0.3927 -0.2184
 5753SOL    HW128895   1.099   2.996   5.691 -1.1364 -1.2352  2.0344
 5753SOL    HW228896   0.987   2.900   5.705 -0.2972 -0.0558 -0.8586
 5754SOL     OW28897   1.838   3.442   4.214 -0.0516 -0.0802  0.3941
 5754SOL    HW128898   1.912   3.466   4.270  0.4569 -0.7577  0.0148
 5754SOL    HW228899   1.820   3.532   4.188  1.2119  0.2441  0.6443
 5755SOL     OW28900   2.400   4.098  15.629 -0.4111  0.0839  0.1272
 5755SOL    HW128901   2.340   4.166  15.659  0.8069  0.1757  2.3037
 5755SOL    HW228902   2.381   4.099  15.535  0.3613 -1.0319 -0.0411
 5756SOL     OW28903   1.073   1.276   5.917  0.5906  0.2981  0.0529
 5756SOL    HW128904   1.154   1.293   5.869 -0.3835  3.9121 -0.3281
 5756SOL    HW228905   1.043   1.362   5.949 -4.8465 -1.7955  0.5272
 5757SOL     OW28906   4.565   2.708   9.000  0.0364  0.6028  0.3888
 5757SOL    HW128907   4.618   2.778   8.963 -2.1782  1.2490 -1.5930
 5757SOL    HW228908   4.624   2.663   9.060 -2.2583 -0.2694  1.9875
 5758SOL     OW28909   0.785   4.489   6.106 -0.1388 -0.3714 -0.3433
 5758SOL    HW128910   0.839   4.420   6.068  0.8414 -0.5525  1.4107
 5758SOL    HW228911   0.757   4.534   6.026 -1.1055 -2.7404 -1.3525
 5759SOL     OW28912   0.216   2.464   7.362 -0.0857  0.6579  0.3775
 5759SOL    HW128913   0.272   2.492   7.434  0.6470 -1.7861  0.7398
 5759SOL    HW228914   0.137   2.434   7.407  0.7764  0.6024  1.8559
 5760SOL     OW28915   2.466   4.241   4.948  0.1688 -0.3377 -0.3125
 5760SOL    HW128916   2.504   4.167   4.901  0.5792 -0.0596 -0.4236
 5760SOL    HW228917   2.371   4.231   4.942 -0.1143  1.0705  1.8962
 5761SOL     OW28918   2.830   3.626   8.899  0.2268  0.2045  0.4201
 5761SOL    HW128919   2.837   3.700   8.839 -3.0785 -1.0613 -1.5086
 5761SOL    HW228920   2.772   3.668   8.963  0.9788 -0.0542  1.2627
 5762SOL     OW28921   0.846   1.843   5.071  0.0887 -0.3438  0.2886
 5762SOL    HW128922   0.756   1.847   5.105  0.2779  3.1382  0.4235
 5762SOL    HW228923   0.835   1.763   5.020  0.0064  0.2535 -0.6131
 5763SOL     OW28924   2.159   0.793   8.015 -0.3435  0.0643 -0.6328
 5763SOL    HW128925   2.157   0.760   8.104  3.7797 -1.9311 -1.3067
 5763SOL    HW228926   2.251   0.778   7.993 -0.5713  0.1131 -1.6484
 5764SOL     OW28927   0.878   1.133   6.846  0.6323  0.0174 -0.2534
 5764SOL    HW128928   0.925   1.145   6.929  0.3437  1.7741 -0.3456
 5764SOL    HW228929   0.820   1.210   6.845  0.2859 -0.2279  1.3720
 5765SOL     OW28930   0.884   0.241   8.142  0.0336 -0.0738 -0.1144
 5765SOL    HW128931   0.851   0.330   8.129 -1.0834 -0.5897 -0.7929
 5765SOL    HW228932   0.966   0.268   8.183 -1.9808  1.7643  2.7202
 5766SOL     OW28933   3.103   2.547   1.704 -0.0787 -0.3717 -0.4816
 5766SOL    HW128934   3.068   2.615   1.762 -0.6108 -0.3668 -0.8086
 5766SOL    HW228935   3.094   2.466   1.754 -2.3871 -0.9010 -1.7853
 5767SOL     OW28936   1.875   3.104   2.750  0.4507  0.2498  0.0555
 5767SOL    HW128937   1.968   3.093   2.771  0.9605  1.4522 -1.4925
 5767SOL    HW228938   1.851   3.184   2.796  0.3006 -0.3513  1.0186
 5768SOL     OW28939   3.004   2.361   6.468  0.5866 -0.3930  0.8502
 5768SOL    HW128940   3.086   2.410   6.453  1.1714 -0.7983  2.7222
 5768SOL    HW228941   2.989   2.326   6.380  0.3892  0.8787  0.3766
 5769SOL     OW28942   0.974   4.000   1.639 -0.3425  0.0597 -0.1657
 5769SOL    HW128943   0.936   4.061   1.576 -0.5415 -0.2238 -0.3163
 5769SOL    HW228944   1.058   4.040   1.662 -1.3879  1.8172  0.6058
 5770SOL     OW28945   3.316   0.261   1.536 -0.3916 -0.1562  0.1210
 5770SOL    HW128946   3.321   0.306   1.620 -0.8543 -0.1933  0.1680
 5770SOL    HW228947   3.339   0.332   1.476 -1.1102 -1.4513 -1.6699
 5771SOL     OW28948   0.617   4.144  11.497 -0.0550 -0.3742  0.3822
 5771SOL    HW128949   0.591   4.104  11.580 -1.6036  1.3102  0.7119
 5771SOL    HW228950   0.664   4.219  11.534 -1.6918 -0.0056  1.7406
 5772SOL     OW28951   0.563   4.110   5.086 -0.0341  0.3274  0.0711
 5772SOL    HW128952   0.516   4.030   5.107  1.8424 -0.6276  0.6235
 5772SOL    HW228953   0.655   4.083   5.088  0.1862  1.1126  0.6566
 5773SOL     OW28954   4.650   3.073  15.369 -0.2024 -0.1747  0.3435
 5773SOL    HW128955   4.569   3.083  15.319  0.6757  1.9627 -0.6229
 5773SOL    HW228956   4.654   2.978  15.355 -1.7236 -0.4390  1.6842
 5774SOL     OW28957   0.399   2.183   4.502  0.2104 -0.0486 -0.1835
 5774SOL    HW128958   0.482   2.184   4.549  0.0445 -1.3719  0.1280
 5774SOL    HW228959   0.395   2.088   4.503 -0.0163 -0.0362 -0.0235
 5775SOL     OW28960   3.213   3.532   5.385 -1.0965 -0.6047 -0.5744
 5775SOL    HW128961   3.150   3.567   5.321 -0.1075  1.8393 -0.2142
 5775SOL    HW228962   3.273   3.605   5.400 -0.3606 -1.3558  0.1026
 5776SOL     OW28963   0.203   0.062  11.906 -0.3105 -0.6661 -0.1938
 5776SOL    HW128964   0.152   0.062  11.986  1.6684  2.5172  1.0689
 5776SOL    HW228965   0.133   0.039  11.845  0.2199 -1.7376 -0.4010
 5777SOL     OW28966   3.765   3.485  10.071 -0.2638 -0.3664 -0.1715
 5777SOL    HW128967   3.703   3.472   9.999 -1.7807 -0.8795  1.2309
 5777SOL    HW228968   3.818   3.557  10.036  0.0636 -0.4367  0.1824
 5778SOL     OW28969   4.272   1.553   4.400  0.2559 -0.4904 -0.4891
 5778SOL    HW128970   4.268   1.646   4.380 -0.6511 -0.5449 -0.5618
 5778SOL    HW228971   4.182   1.546   4.432  0.0639 -0.9709 -1.1349
 5779SOL     OW28972   1.471   0.540   3.143 -0.0134  0.2322  0.3162
 5779SOL    HW128973   1.551   0.578   3.178  0.5231  0.3655 -1.0579
 5779SOL    HW228974   1.413   0.615   3.128 -0.5910 -0.3355 -0.2873
 5780SOL     OW28975   1.929   1.349   7.816 -0.1786 -0.6786  0.1409
 5780SOL    HW128976   1.849   1.362   7.765  0.6797  1.0948 -0.7680
 5780SOL    HW228977   1.902   1.387   7.900 -0.4743  0.6726 -0.5648
 5781SOL     OW28978   1.553   1.955  12.770  0.5517 -0.3623  0.1208
 5781SOL    HW128979   1.524   2.026  12.828 -1.4259 -0.9633 -0.1296
 5781SOL    HW228980   1.476   1.898  12.763  0.0887 -0.0107  2.4087
 5782SOL     OW28981   2.628   2.550   5.418  0.0188 -0.2525 -0.0418
 5782SOL    HW128982   2.636   2.532   5.324 -0.0917 -0.7005  0.0360
 5782SOL    HW228983   2.668   2.637   5.419  2.3916 -1.3523  0.3176
 5783SOL     OW28984   1.348   1.447  17.511  0.4773  0.3892 -0.1775
 5783SOL    HW128985   1.291   1.384  17.467 -0.4413  0.8453  0.3588
 5783SOL    HW228986   1.321   1.529  17.469  0.5988 -0.9927 -2.8926
 5784SOL     OW28987   2.755   3.721  13.540 -0.2536 -0.3530  0.4906
 5784SOL    HW128988   2.759   3.691  13.449 -1.5331  0.8656  0.0278
 5784SOL    HW228989   2.825   3.669  13.579 -0.5781 -0.7626  0.5286
 5785SOL     OW28990   0.541   4.041  17.489 -0.1248 -0.0325 -0.0308
 5785SOL    HW128991   0.547   4.098  17.565 -0.3310 -0.3964  0.2591
 5785SOL    HW228992   0.620   3.986  17.491 -0.2812 -0.2800 -0.5938
 5786SOL     OW28993   0.335   1.983   5.035 -0.1884 -0.1538  0.2257
 5786SOL    HW128994   0.345   2.011   5.126  0.8074  0.6629 -0.1485
 5786SOL    HW228995   0.348   1.889   5.048 -0.6531 -0.3081 -0.4107
 5787SOL     OW28996   4.330   0.491   4.329 -0.3182  0.0239 -0.4065
 5787SOL    HW128997   4.273   0.480   4.253  2.6480 -0.2178 -2.5988
 5787SOL    HW228998   4.385   0.566   4.304 -1.1480  0.3900 -1.1492
 5788SOL     OW28999   4.145   3.117   2.971 -0.0077  0.2198  0.3489
 5788SOL    HW129000   4.119   3.103   2.880 -0.7730  0.0397  0.5919
 5788SOL    HW229001   4.192   3.036   2.991 -1.2729  0.2782  3.5859
 5789SOL     OW29002   3.095   2.389   7.137  0.4247  0.1208 -0.0241
 5789SOL    HW129003   3.065   2.337   7.063  0.9929  2.5110 -1.9367
 5789SOL    HW229004   3.019   2.441   7.163 -0.0918 -0.5443 -0.2312
 5790SOL     OW29005   1.172   0.268   7.918 -0.5712  0.1405  0.2738
 5790SOL    HW129006   1.207   0.275   8.006 -0.2007  0.4772  0.1012
 5790SOL    HW229007   1.081   0.298   7.910 -0.4994  0.8988  2.3251
 5791SOL     OW29008   2.008   0.727   3.842  0.9932  0.0124  0.5897
 5791SOL    HW129009   2.042   0.744   3.929  0.0340 -0.4064  1.0450
 5791SOL    HW229010   2.068   0.656   3.818  0.5300 -0.2209  0.1047
 5792SOL     OW29011   3.129   2.001   7.629 -0.2207  0.7208 -0.1820
 5792SOL    HW129012   3.170   1.934   7.574 -0.6839 -0.9579  1.5518
 5792SOL    HW229013   3.045   2.021   7.588 -0.4873  2.4464  1.2013
 5793SOL     OW29014   3.792   2.257   9.051 -0.2378  0.6220 -0.1604
 5793SOL    HW129015   3.815   2.214   9.134 -1.9772  2.3790  1.2332
 5793SOL    HW229016   3.881   2.265   9.016  0.2373 -0.7507  0.7417
 5794SOL     OW29017   1.542   0.906   1.494 -0.2971 -0.3041  0.2079
 5794SOL    HW129018   1.522   0.939   1.406 -1.4467 -0.3243  0.4585
 5794SOL    HW229019   1.489   0.826   1.495  0.5896 -0.9137 -1.6579
 5795SOL     OW29020   3.017   1.034   4.564 -0.4704 -0.1542 -0.3219
 5795SOL    HW129021   3.106   0.999   4.555  0.6077  2.8256 -0.9769
 5795SOL    HW229022   2.970   0.977   4.504  1.3326  0.6777 -2.5434
 5796SOL     OW29023   4.723   1.818   7.002 -0.5731 -0.2796  0.0548
 5796SOL    HW129024   4.669   1.848   6.930  0.9758 -0.0986 -1.0410
 5796SOL    HW229025   0.060   1.873   6.980 -0.4370 -0.8590 -0.9009
 5797SOL     OW29026   2.201   4.484   5.712 -0.3719 -0.1317  0.0959
 5797SOL    HW129027   2.199   4.408   5.770  2.9492 -0.1890  0.1367
 5797SOL    HW229028   2.111   4.488   5.680 -1.2326 -1.4616  2.4004
 5798SOL     OW29029   1.621   2.789   5.619 -0.1581 -0.6014 -0.2004
 5798SOL    HW129030   1.529   2.778   5.594 -0.9359 -0.3495  2.5209
 5798SOL    HW229031   1.663   2.773   5.534 -0.6694 -1.0185 -0.3765
 5799SOL     OW29032   3.262   4.178   7.049  0.9293  0.3569 -0.1515
 5799SOL    HW129033   3.224   4.113   7.108  2.8584  0.7558  1.5312
 5799SOL    HW229034   3.205   4.167   6.973  0.7647 -2.8612  0.4490
 5800SOL     OW29035   1.101   4.714   3.274  0.2647 -0.0920  0.3821
 5800SOL    HW129036   1.036   4.646   3.293 -0.5335  0.8554  0.9732
 5800SOL    HW229037   1.085   0.051   3.328  2.1315 -0.2084  1.0992
 5801SOL     OW29038   3.781   1.126   1.598 -0.2976  0.5027  0.1843
 5801SOL    HW129039   3.732   1.152   1.677  0.8762  1.5420  0.5877
 5801SOL    HW229040   3.744   1.183   1.531  0.7443 -0.5635 -1.2936
 5802SOL     OW29041   2.167   4.037   7.293  0.5307 -0.0249 -0.0756
 5802SOL    HW129042   2.200   3.949   7.313  3.8632  1.6999  1.8976
 5802SOL    HW229043   2.155   4.023   7.199 -1.1124 -0.0792  0.1474
 5803SOL     OW29044   2.181   3.597  16.754 -0.0221  0.0917  0.3210
 5803SOL    HW129045   2.249   3.538  16.721 -1.9623 -1.9894  0.0385
 5803SOL    HW229046   2.237   3.674  16.763 -1.1373  0.9756 -0.2275
 5804SOL     OW29047   0.333   3.356  11.451 -0.0966  0.1187  0.1651
 5804SOL    HW129048   0.380   3.276  11.476 -0.6332  0.0840  1.0559
 5804SOL    HW229049   0.286   3.313  11.380 -0.7364  0.1409  0.5784
 5805SOL     OW29050   3.996   2.814   2.572 -0.2737 -0.0988  0.2897
 5805SOL    HW129051   3.999   2.910   2.571 -0.6850 -0.1080 -1.6185
 5805SOL    HW229052   4.018   2.809   2.665  1.2682  2.4089  0.0646
 5806SOL     OW29053   3.103   2.692  12.300  0.6138 -0.7716 -0.1302
 5806SOL    HW129054   3.079   2.783  12.315  1.4258 -0.3635 -1.3477
 5806SOL    HW229055   3.018   2.649  12.297  0.5741 -0.5916 -1.3038
 5807SOL     OW29056   0.833   3.252  17.373  0.0658 -0.5438 -0.2272
 5807SOL    HW129057   0.805   3.227  17.461 -0.1549  1.6606  0.3433
 5807SOL    HW229058   0.896   3.324  17.383  1.3270 -1.5288 -1.0189
 5808SOL     OW29059   3.345   1.754   9.059 -0.0088  0.3913 -0.2691
 5808SOL    HW129060   3.426   1.751   9.111 -0.5230  0.1879  0.5270
 5808SOL    HW229061   3.295   1.688   9.108 -0.9042  0.2405 -1.4003
 5809SOL     OW29062   1.357   0.686   2.572  0.4118 -0.1884  0.0374
 5809SOL    HW129063   1.379   0.716   2.660  0.8559 -0.2863 -0.0377
 5809SOL    HW229064   1.311   0.603   2.580  1.3859 -0.6374  0.8918
 5810SOL     OW29065   4.019   3.664   4.265 -0.4587 -0.8577  0.2688
 5810SOL    HW129066   4.095   3.719   4.245 -0.2575 -0.2901  2.6436
 5810SOL    HW229067   4.016   3.596   4.198 -0.4918 -2.6066  2.0453
 5811SOL     OW29068   3.850   2.019   6.486 -0.0324 -0.7985  0.4809
 5811SOL    HW129069   3.943   2.005   6.472 -0.2476  0.8268 -2.4734
 5811SOL    HW229070   3.821   1.927   6.489 -0.7569 -0.6145 -0.9749
 5812SOL     OW29071   0.841   1.196   4.528 -0.2655  0.3235 -0.1938
 5812SOL    HW129072   0.897   1.184   4.604 -0.7603 -2.4775 -0.2591
 5812SOL    HW229073   0.753   1.170   4.556  0.0759 -0.6993 -0.0658
 5813SOL     OW29074   2.137   2.064  11.391  0.8186  0.0677 -0.4033
 5813SOL    HW129075   2.221   2.038  11.351  0.9856 -0.3427  0.2190
 5813SOL    HW229076   2.083   1.987  11.375 -0.4214  0.1732  3.2689
 5814SOL     OW29077   1.364   1.045  12.053  0.3398 -0.1997  0.1618
 5814SOL    HW129078   1.459   1.037  12.066  0.2334 -2.5359 -0.4301
 5814SOL    HW229079   1.355   1.062  11.960 -1.5220  1.3101  0.6277
 5815SOL     OW29080   0.831   0.722   6.152 -0.2188  0.0191  0.4058
 5815SOL    HW129081   0.811   0.815   6.145  3.4947  0.8536  0.8705
 5815SOL    HW229082   0.903   0.720   6.089 -0.4566 -1.1003  0.1705
 5816SOL     OW29083   3.181   2.066   0.066 -0.7820  0.0848 -0.2736
 5816SOL    HW129084   3.146   2.114  17.747  1.0398  0.0033 -1.1863
 5816SOL    HW229085   3.151   2.117   0.142  2.5346 -0.4079  1.3591
 5817SOL     OW29086   0.868   3.776  15.486  0.1981 -0.7996 -0.2039
 5817SOL    HW129087   0.889   3.815  15.401  0.4484 -0.4520  0.0209
 5817SOL    HW229088   0.807   3.710  15.452 -0.0542 -0.4903 -0.3500
 5818SOL     OW29089   0.900   4.231   4.433 -0.0615  0.0803  0.0443
 5818SOL    HW129090   0.938   4.273   4.510 -3.8879  1.6036  1.1242
 5818SOL    HW229091   0.875   4.143   4.463 -1.4127  0.6445  0.5941
 5819SOL     OW29092   0.946   0.565  11.850 -0.8331  0.2326  0.6163
 5819SOL    HW129093   0.875   0.538  11.908  0.7453 -0.6012  2.1529
 5819SOL    HW229094   1.023   0.528  11.892  0.8922  1.1809 -1.7587
 5820SOL     OW29095   3.677   1.092   8.549  0.6406  0.0969 -0.1900
 5820SOL    HW129096   3.700   0.999   8.552 -1.7708 -0.5232 -1.2667
 5820SOL    HW229097   3.597   1.084   8.497  1.1202 -1.0874 -0.7524
 5821SOL     OW29098   2.109   1.721   4.603 -0.4217 -0.1036 -0.0842
 5821SOL    HW129099   2.170   1.786   4.567 -0.1411 -2.2953 -3.5545
 5821SOL    HW229100   2.069   1.768   4.676 -0.8509 -1.3031  0.4523
 5822SOL     OW29101   4.274   3.869   5.099  0.1845 -0.3524 -0.6803
 5822SOL    HW129102   4.258   3.899   5.010 -0.5054 -0.9927 -0.7702
 5822SOL    HW229103   4.258   3.775   5.090 -2.2827 -0.0352  0.3326
 5823SOL     OW29104   2.181   4.736   8.412  0.1071  0.0172  0.3053
 5823SOL    HW129105   2.255   4.734   8.350  0.6406  1.8250  0.8662
 5823SOL    HW229106   2.114   4.690   8.361  0.3443 -1.3176  1.2023
 5824SOL     OW29107   1.775   1.687   7.869 -0.3064  0.2368 -0.0368
 5824SOL    HW129108   1.760   1.621   7.937  2.8370 -1.7223 -1.2366
 5824SOL    HW229109   1.688   1.685   7.830  0.2351  1.9596 -1.3270
 5825SOL     OW29110   1.267   0.717   5.450  0.5439 -0.9464 -0.2154
 5825SOL    HW129111   1.265   0.719   5.546  2.5029 -3.2642 -0.1245
 5825SOL    HW229112   1.288   0.810   5.443 -3.7163  0.0329  0.1036
 5826SOL     OW29113   2.524   1.000  16.899 -0.7558 -0.0996 -0.2682
 5826SOL    HW129114   2.619   1.005  16.884 -1.0489 -1.0841 -2.4345
 5826SOL    HW229115   2.496   1.092  16.894  1.3167  0.5502 -0.0940
 5827SOL     OW29116   2.773   3.317   2.051  0.0427 -0.1372  0.0321
 5827SOL    HW129117   2.716   3.247   2.081  0.1004  0.7008  2.1237
 5827SOL    HW229118   2.852   3.306   2.103 -0.6915  0.2233  1.2399
 5828SOL     OW29119   3.358   2.100   4.834  0.7877 -0.1805 -0.3015
 5828SOL    HW129120   3.414   2.057   4.768  0.9289  1.4009 -1.2112
 5828SOL    HW229121   3.421   2.128   4.899  0.6155 -0.5373  0.0232
 5829SOL     OW29122   4.655   3.375  15.103  0.0756  0.0459 -0.1210
 5829SOL    HW129123   4.712   3.318  15.052 -0.1675 -0.1895 -0.1300
 5829SOL    HW229124   4.578   3.381  15.045 -0.7220  2.1439  1.1576
 5830SOL     OW29125   2.763   3.999   7.222  0.7216  0.0456 -0.2655
 5830SOL    HW129126   2.706   3.999   7.299 -1.6449  0.3197 -2.0193
 5830SOL    HW229127   2.730   4.070   7.167  2.4487  0.7542 -0.3903
 5831SOL     OW29128   3.939   1.876  16.345 -0.3807  0.4873 -0.5852
 5831SOL    HW129129   3.875   1.805  16.340  1.5841 -1.3795  0.8981
 5831SOL    HW229130   4.013   1.819  16.324  0.9510  2.5132 -1.3177
 5832SOL     OW29131   4.247   2.454   7.608  0.5448  0.2747 -0.4024
 5832SOL    HW129132   4.188   2.517   7.650  1.5293 -0.1586  1.6329
 5832SOL    HW229133   4.208   2.370   7.634  1.3030  0.4970  1.4270
 5833SOL     OW29134   2.162   0.449   1.883 -0.0285  0.2146 -0.3554
 5833SOL    HW129135   2.203   0.512   1.943 -1.0282 -1.2628  1.8516
 5833SOL    HW229136   2.100   0.397   1.933 -0.3351  0.0461 -0.9150
 5834SOL     OW29137   1.418   3.822   4.308  0.2223  0.0674 -0.0637
 5834SOL    HW129138   1.417   3.901   4.362  0.0129 -0.0507  0.1064
 5834SOL    HW229139   1.498   3.776   4.333  0.0880  0.2906  0.7896
 5835SOL     OW29140   2.965   0.783   0.535 -0.2342  0.6317 -0.1268
 5835SOL    HW129141   3.011   0.863   0.561 -0.2462  0.2814  0.9298
 5835SOL    HW229142   2.977   0.731   0.614 -0.9310 -1.5427 -1.4526
 5836SOL     OW29143   2.115   2.449   5.750  0.4346  1.0387  0.1653
 5836SOL    HW129144   2.023   2.433   5.770  0.8838 -1.1595  0.4750
 5836SOL    HW229145   2.119   2.442   5.655 -1.9594  1.3645  0.0526
 5837SOL     OW29146   2.577   4.305   0.314  0.2839 -0.6292 -0.4879
 5837SOL    HW129147   2.564   4.216   0.346 -1.9552 -0.4101 -0.7882
 5837SOL    HW229148   2.673   4.309   0.307  0.3517 -2.9013 -0.6883
 5838SOL     OW29149   0.952   1.182   3.237 -0.0118  0.3388 -0.0029
 5838SOL    HW129150   1.004   1.175   3.317  2.7484  0.4740 -1.7923
 5838SOL    HW229151   0.929   1.093   3.214  0.6212 -0.3820  2.0899
 5839SOL     OW29152   1.008   4.285   9.065 -0.1294 -0.0958 -0.0157
 5839SOL    HW129153   0.927   4.238   9.083  0.4902 -0.8682  0.7508
 5839SOL    HW229154   0.975   4.342   8.996  1.1285 -1.0008 -1.3696
 5840SOL     OW29155   2.051   1.534   9.152 -0.2547 -0.0531 -0.2043
 5840SOL    HW129156   2.020   1.620   9.123 -0.4984 -0.3742 -0.9145
 5840SOL    HW229157   1.987   1.513   9.219  0.7824 -1.0809  0.4679
 5841SOL     OW29158   4.548   2.403   6.899 -0.3506  0.1144 -0.3928
 5841SOL    HW129159   4.615   2.339   6.875  1.7476  2.3660 -0.5220
 5841SOL    HW229160   4.552   2.425   6.992  3.3278 -1.7591 -0.0987
 5842SOL     OW29161   0.481   0.753   9.482  0.4517  0.1574 -0.1322
 5842SOL    HW129162   0.477   0.660   9.504  0.8901  0.5709  1.7422
 5842SOL    HW229163   0.536   0.789   9.552 -0.2701  0.5089  0.2590
 5843SOL     OW29164   1.119   1.492   1.054 -0.6343 -0.2476  0.5067
 5843SOL    HW129165   1.098   1.547   0.979 -0.7282 -0.0448  0.6798
 5843SOL    HW229166   1.057   1.420   1.042  0.4947 -1.1284 -0.0742
 5844SOL     OW29167   2.093   2.455  16.978  0.4522 -0.4637  0.0114
 5844SOL    HW129168   2.119   2.388  17.041 -0.9675 -0.6979  0.3453
 5844SOL    HW229169   1.998   2.444  16.967  0.3392  1.4076 -0.8597
 5845SOL     OW29170   3.111   0.753   8.936  0.1126 -0.1796  0.0544
 5845SOL    HW129171   3.104   0.716   8.848  0.0340  1.9486 -0.8399
 5845SOL    HW229172   3.175   0.694   8.976 -0.0010  0.3719  1.0322
 5846SOL     OW29173   2.106   0.382   1.567 -0.1116 -0.2503 -0.3819
 5846SOL    HW129174   2.063   0.300   1.547 -0.1202 -0.2165 -0.5003
 5846SOL    HW229175   2.034   0.423   1.615  2.5766  0.9681  2.6424
 5847SOL     OW29176   0.033   1.723   5.546 -0.5239  0.4503  0.3046
 5847SOL    HW129177   4.678   1.731   5.537 -0.1619  2.8847 -1.3565
 5847SOL    HW229178   0.047   1.722   5.641 -0.1097  0.3215  0.2444
 5848SOL     OW29179   2.452   4.482  16.216  0.2046  0.3055 -0.6459
 5848SOL    HW129180   2.543   4.512  16.215 -0.4902  2.3650 -5.1906
 5848SOL    HW229181   2.454   4.399  16.264 -1.6996  0.3476 -0.4766
 5849SOL     OW29182   3.110   3.192  14.640  0.5264 -0.2431  0.7907
 5849SOL    HW129183   3.048   3.121  14.656  0.8720 -0.3450  1.6802
 5849SOL    HW229184   3.175   3.174  14.709  0.6757 -2.0558  0.1724
 5850SOL     OW29185   2.661   0.129   7.805  0.2009 -0.0276 -0.3105
 5850SOL    HW129186   2.624   0.083   7.880  0.8507  1.0536  0.6687
 5850SOL    HW229187   2.673   0.215   7.844 -1.1955  0.3313 -0.6558
 5851SOL     OW29188   1.376   3.585  11.765 -0.1130 -0.1290  0.0479
 5851SOL    HW129189   1.393   3.496  11.797  0.2085 -0.2178 -0.3698
 5851SOL    HW229190   1.344   3.567  11.677  0.2533  2.9244 -0.7240
 5852SOL     OW29191   1.007   3.239  10.953 -0.1441  0.0048  0.1936
 5852SOL    HW129192   1.023   3.155  10.996 -1.7642 -0.6042 -0.3951
 5852SOL    HW229193   1.099   3.261  10.942 -0.5268  0.4735 -2.0717
 5853SOL     OW29194   0.810   0.897   4.218 -0.1874 -0.2338  0.1836
 5853SOL    HW129195   0.749   0.953   4.170 -0.9731 -1.6149 -0.4143
 5853SOL    HW229196   0.756   0.867   4.290 -0.7305 -0.5074 -0.3419
 5854SOL     OW29197   2.249   3.325   2.313  0.1586  0.0846 -0.7792
 5854SOL    HW129198   2.292   3.410   2.319 -0.8370  0.5120  0.1676
 5854SOL    HW229199   2.320   3.280   2.360 -0.4412  0.3151  0.3401
 5855SOL     OW29200   0.578   2.129   8.811 -0.2472  0.2875 -0.3396
 5855SOL    HW129201   0.639   2.057   8.826 -0.4071  1.0593  4.1760
 5855SOL    HW229202   0.535   2.080   8.742  1.0437 -0.8940 -0.2958
 5856SOL     OW29203   3.707   3.062   7.955  0.0455  0.4771  0.1842
 5856SOL    HW129204   3.712   3.007   7.877 -2.7337  0.7443 -0.1932
 5856SOL    HW229205   3.675   3.000   8.020 -1.0462 -1.3503 -2.1066
 5857SOL     OW29206   0.416   0.348  16.624  0.1972 -0.1098  0.7151
 5857SOL    HW129207   0.380   0.336  16.712  1.4660 -0.8886  1.1326
 5857SOL    HW229208   0.367   0.414  16.575  0.4406 -0.4595  0.0016
 5858SOL     OW29209   3.344   3.744  12.669 -0.0419 -0.3763  0.5258
 5858SOL    HW129210   3.328   3.714  12.580 -0.8353  0.9475  0.2245
 5858SOL    HW229211   3.287   3.820  12.680  0.5774  0.3816 -1.5268
 5859SOL     OW29212   0.616   1.629   0.362 -0.6134 -0.3172  0.0938
 5859SOL    HW129213   0.581   1.640   0.274 -3.0534  0.4485  1.1575
 5859SOL    HW229214   0.623   1.721   0.389  0.6176  0.6807 -3.5537
 5860SOL     OW29215   2.507   4.029  14.429  0.0884 -0.4063  0.3024
 5860SOL    HW129216   2.599   4.044  14.451  0.6820 -3.6041  0.0621
 5860SOL    HW229217   2.500   3.935  14.446 -1.4542  0.1550  2.8204
 5861SOL     OW29218   3.956   3.974   2.520  0.2130  0.0642 -0.3234
 5861SOL    HW129219   3.899   3.898   2.510  0.7446 -0.4655  0.5494
 5861SOL    HW229220   3.956   3.999   2.428  1.5094  0.0422 -0.3292
 5862SOL     OW29221   1.311   3.433   1.777  0.0692 -0.1269 -0.1590
 5862SOL    HW129222   1.377   3.501   1.768  0.3379 -0.3254  0.2962
 5862SOL    HW229223   1.234   3.481   1.747 -1.4860 -3.3626 -1.3621
 5863SOL     OW29224   2.084   1.156   6.299  0.3249  0.1999 -0.3625
 5863SOL    HW129225   2.106   1.065   6.280  1.0271 -0.0347  1.5243
 5863SOL    HW229226   2.083   1.152   6.395 -1.4296 -0.2949 -0.4100
 5864SOL     OW29227   2.612   3.937   4.099 -0.1652 -0.5662 -0.4995
 5864SOL    HW129228   2.532   3.961   4.147  0.3144 -0.7217  0.3877
 5864SOL    HW229229   2.676   3.998   4.136 -1.6022 -0.2389  1.4178
 5865SOL     OW29230   2.222   0.193   7.356  0.2934 -0.0977 -0.0665
 5865SOL    HW129231   2.286   0.262   7.372  0.3877 -0.1665 -0.1546
 5865SOL    HW229232   2.156   0.244   7.309 -1.8101 -1.7080  1.1463
 5866SOL     OW29233   0.647   4.048   2.393  0.0901  0.1066  0.3450
 5866SOL    HW129234   0.668   3.961   2.428  1.1223 -0.5781 -1.9303
 5866SOL    HW229235   0.720   4.103   2.423 -0.7969  2.1340 -1.2135
 5867SOL     OW29236   1.349   3.824  11.219 -0.3750  0.5968  0.3013
 5867SOL    HW129237   1.354   3.918  11.201  0.1534  0.3334 -0.9613
 5867SOL    HW229238   1.373   3.799  11.129 -1.5492 -3.5229  1.1256
 5868SOL     OW29239   0.057   2.774  17.449  0.0909 -0.0930  0.9847
 5868SOL    HW129240   0.137   2.722  17.452  0.1415 -0.0177  0.9592
 5868SOL    HW229241   0.059   2.821  17.365  0.5582  3.3069  2.9147
 5869SOL     OW29242   0.765   2.717   7.134 -0.7019 -0.5619 -0.3550
 5869SOL    HW129243   0.707   2.789   7.159 -1.6128 -1.3733 -0.1023
 5869SOL    HW229244   0.806   2.735   7.050 -2.4677 -0.2106 -1.1317
 5870SOL     OW29245   3.381   3.617  16.079 -0.0653 -0.3093 -0.3793
 5870SOL    HW129246   3.347   3.552  16.018 -1.8081 -0.7788  1.0547
 5870SOL    HW229247   3.438   3.673  16.026  2.8223 -0.0119  3.0351
 5871SOL     OW29248   4.635   4.394  13.862  0.1935 -0.7101  0.5417
 5871SOL    HW129249   4.568   4.459  13.881  0.8948  0.3976 -0.7653
 5871SOL    HW229250   4.652   4.417  13.770  0.9811  0.4325  0.9706
 5872SOL     OW29251   3.675   3.024   2.370 -0.2631  0.0795 -0.0676
 5872SOL    HW129252   3.668   3.110   2.412  0.7404  0.6807 -1.1396
 5872SOL    HW229253   3.713   3.058   2.289 -0.1327  1.4810  0.5769
 5873SOL     OW29254   4.589   1.366   5.305 -0.8052 -0.0055  0.0738
 5873SOL    HW129255   4.565   1.276   5.281 -1.2555  0.5238 -1.4333
 5873SOL    HW229256   4.674   1.342   5.343  0.3669  3.2678 -0.4826
 5874SOL     OW29257   4.620   0.781   2.344  0.0218  0.2176 -0.5374
 5874SOL    HW129258   4.577   0.863   2.371 -2.8626 -1.6011  0.4054
 5874SOL    HW229259   4.566   0.750   2.272  0.0941  0.1764 -0.5740
 5875SOL     OW29260   1.553   3.234   2.216  0.2334 -0.6975  0.5021
 5875SOL    HW129261   1.491   3.289   2.168  0.2434 -1.5363 -0.4973
 5875SOL    HW229262   1.555   3.163   2.152  1.3082  0.3529 -0.6171
 5876SOL     OW29263   2.422   3.459   5.804 -0.0553 -0.2116  0.3860
 5876SOL    HW129264   2.477   3.480   5.729 -0.6388  0.9950  0.2962
 5876SOL    HW229265   2.396   3.369   5.783  0.4430 -0.2021 -0.2867
 5877SOL     OW29266   2.675   2.959   2.580 -0.4336  0.0677 -0.0345
 5877SOL    HW129267   2.699   2.984   2.670 -0.8069  1.3115 -0.2890
 5877SOL    HW229268   2.649   2.868   2.591  0.4969 -0.3827 -1.5914
 5878SOL     OW29269   1.367   1.154  12.449  0.5756  0.3972  0.0506
 5878SOL    HW129270   1.458   1.151  12.419  0.5516 -2.7237  0.2764
 5878SOL    HW229271   1.320   1.155  12.365  0.6849 -0.0756 -0.0163
 5879SOL     OW29272   2.006   0.122   1.564  0.1387  0.1933  0.6048
 5879SOL    HW129273   2.013   0.047   1.505  2.5399 -1.2987  2.8065
 5879SOL    HW229274   1.954   0.081   1.633 -1.9158  2.6806  0.5562
 5880SOL     OW29275   0.815   0.996   6.110 -0.1543 -0.0550 -0.8142
 5880SOL    HW129276   0.904   1.016   6.084  0.5166  0.0211  1.5132
 5880SOL    HW229277   0.813   1.032   6.199  0.6936 -0.0979 -0.7767
 5881SOL     OW29278   0.360   2.878   5.585 -0.5491 -0.0321  0.1299
 5881SOL    HW129279   0.280   2.868   5.637 -0.9953  1.1308 -0.3436
 5881SOL    HW229280   0.393   2.945   5.644 -2.1356  1.0321 -0.1971
 5882SOL     OW29281   2.080   2.785  11.999  0.1695  0.3343 -0.0550
 5882SOL    HW129282   2.039   2.781  11.912  0.0269 -0.2445  0.0419
 5882SOL    HW229283   2.170   2.782  11.966  0.2251  0.7109  0.0584
 5883SOL     OW29284   0.069   3.704   8.281 -0.3971  0.5976  0.3180
 5883SOL    HW129285   0.059   3.756   8.201 -1.4268 -0.7974 -0.4624
 5883SOL    HW229286   0.043   3.618   8.249  0.1622  1.2874 -2.0265
 5884SOL     OW29287   0.929   3.585   2.258 -0.8165  0.5578 -0.3958
 5884SOL    HW129288   0.988   3.510   2.251 -1.8993 -0.1108 -2.2654
 5884SOL    HW229289   0.905   3.596   2.166  1.2440 -0.8767 -1.0968
 5885SOL     OW29290   2.704   0.467   3.645 -0.4874  0.5375  0.2645
 5885SOL    HW129291   2.798   0.476   3.659 -0.4843 -0.1438  0.6962
 5885SOL    HW229292   2.700   0.428   3.557  1.0967 -0.9807  0.8657
 5886SOL     OW29293   2.296   3.750   3.809 -0.3702 -0.3260  0.4752
 5886SOL    HW129294   2.216   3.800   3.794  1.1053  2.5695  2.1885
 5886SOL    HW229295   2.356   3.819   3.781  0.7328 -1.5062 -0.0645
 5887SOL     OW29296   1.735   0.645  11.076  0.7484 -0.1460 -0.3486
 5887SOL    HW129297   1.652   0.688  11.056  1.7129  0.9259 -2.0325
 5887SOL    HW229298   1.797   0.718  11.072  0.9081 -0.3330 -1.2661
 5888SOL     OW29299   2.029   2.515   5.250  0.6586 -0.0403 -0.3518
 5888SOL    HW129300   2.065   2.569   5.179 -0.8516  2.4934  0.7968
 5888SOL    HW229301   2.077   2.554   5.323  1.1122  0.4026 -0.8855
 5889SOL     OW29302   2.223   0.759  17.069 -0.1434  0.0893 -0.2141
 5889SOL    HW129303   2.207   0.841  17.115 -1.1419 -0.0855 -0.2650
 5889SOL    HW229304   2.175   0.762  16.986  1.1513 -0.8458 -1.0036
 5890SOL     OW29305   1.802   2.101   4.030 -0.6505 -0.0330 -0.2396
 5890SOL    HW129306   1.786   2.143   4.115 -1.3591  1.8810 -1.3295
 5890SOL    HW229307   1.854   2.025   4.057 -1.5696  0.0133  1.7130
 5891SOL     OW29308   0.110   3.651   3.041 -0.0243  0.2314 -0.6208
 5891SOL    HW129309   0.068   3.650   3.127 -0.3009 -4.3582 -0.8460
 5891SOL    HW229310   0.034   3.681   2.991 -0.5562  0.5874  0.3894
 5892SOL     OW29311   0.831   1.958   4.575  0.8175 -0.5177 -0.3805
 5892SOL    HW129312   0.780   1.940   4.653 -0.5882  2.4279 -0.5983
 5892SOL    HW229313   0.857   1.868   4.558 -0.8113 -1.0636  0.0344
 5893SOL     OW29314   1.514   3.735   2.039  0.2219 -0.0001  0.3387
 5893SOL    HW129315   1.552   3.723   2.126 -0.2174 -0.5768  0.4500
 5893SOL    HW229316   1.561   3.818   2.026 -1.3929  0.8765  0.0648
 5894SOL     OW29317   0.809   0.434   1.360 -0.4088  0.1017  0.2651
 5894SOL    HW129318   0.820   0.472   1.447 -2.5187  0.1906  0.4921
 5894SOL    HW229319   0.757   0.358   1.387 -0.6377  0.0779 -0.2372
 5895SOL     OW29320   2.883   1.494   8.438  0.2173  0.1229  0.4335
 5895SOL    HW129321   2.847   1.579   8.465  1.6949  1.2625 -1.1801
 5895SOL    HW229322   2.972   1.515   8.409  0.3983 -1.5255 -0.1761
 5896SOL     OW29323   3.333   0.440   7.420  0.3683  0.3916  0.3773
 5896SOL    HW129324   3.352   0.356   7.462 -0.0558  0.0714 -0.0736
 5896SOL    HW229325   3.378   0.436   7.335  0.9890  0.3517  0.7107
 5897SOL     OW29326   4.572   2.510   7.140  0.4755  0.2098 -0.2383
 5897SOL    HW129327   4.646   2.456   7.166  1.1204  0.7485 -0.9722
 5897SOL    HW229328   4.621   2.591   7.150  1.0322 -0.4090  1.9264
 5898SOL     OW29329   2.034   4.172   8.820 -0.0726 -0.3994  0.2238
 5898SOL    HW129330   2.095   4.199   8.752 -0.0299  1.0052  0.8093
 5898SOL    HW229331   1.956   4.228   8.811 -0.9578 -1.4693  1.1741
 5899SOL     OW29332   2.100   1.988   6.480 -0.2864 -0.2178  0.5229
 5899SOL    HW129333   2.010   1.956   6.472 -1.3338  1.7169  4.5537
 5899SOL    HW229334   2.146   1.907   6.460  1.3332  1.1513 -1.2377
 5900SOL     OW29335   0.930   0.011  14.422  0.5422 -0.6666 -0.0578
 5900SOL    HW129336   0.862   0.078  14.431  0.2383 -1.2092  1.6360
 5900SOL    HW229337   0.886   4.678  14.378 -0.9144  1.3116 -1.8985
 5901SOL     OW29338   0.640   3.519   5.369 -0.5061 -0.7024 -0.4560
 5901SOL    HW129339   0.645   3.612   5.390 -0.1210 -0.9003  0.3312
 5901SOL    HW229340   0.722   3.488   5.409 -0.2456 -0.3429 -0.7063
 5902SOL     OW29341   2.980   4.020   7.824  0.6758  0.1283 -0.8532
 5902SOL    HW129342   2.990   3.958   7.896  1.3277 -0.1097 -1.1504
 5902SOL    HW229343   2.887   4.040   7.823  0.2183 -1.8416  0.9400
 5903SOL     OW29344   0.323   4.011   6.029  0.0634 -0.1690 -0.4171
 5903SOL    HW129345   0.287   3.925   6.007 -0.9374  0.4075 -1.0045
 5903SOL    HW229346   0.264   4.042   6.098  0.6773 -1.8482  0.8676
 5904SOL     OW29347   1.977   1.798   4.859  0.9297 -0.3005 -0.0280
 5904SOL    HW129348   1.993   1.706   4.880  0.5684 -0.6010 -1.0523
 5904SOL    HW229349   1.980   1.834   4.947 -0.7399 -0.0652 -0.0626
 5905SOL     OW29350   1.005   4.586   9.352 -0.0772  0.2145 -0.4946
 5905SOL    HW129351   0.973   4.594   9.442 -0.9168 -0.3203 -0.7428
 5905SOL    HW229352   1.053   4.505   9.364 -1.4565 -0.6508 -0.7443
 5906SOL     OW29353   1.679   3.725   7.687  0.2089 -0.1936 -0.4173
 5906SOL    HW129354   1.765   3.700   7.720  0.4011  0.1796 -0.6329
 5906SOL    HW229355   1.699   3.817   7.669 -1.7267 -0.6604 -5.2079
 5907SOL     OW29356   2.992   4.539   4.428 -0.2386 -0.7253 -0.2433
 5907SOL    HW129357   3.031   4.516   4.344  0.1367 -1.5289  0.1452
 5907SOL    HW229358   3.063   4.508   4.484  0.0829  0.0110 -0.2451
 5908SOL     OW29359   4.522   4.701   6.336  0.2234 -0.1300 -0.3650
 5908SOL    HW129360   4.613   4.694   6.365 -0.3908  2.1186  2.1677
 5908SOL    HW229361   4.489   4.632   6.393  0.8822 -1.2425 -1.3312
 5909SOL     OW29362   0.704   3.430   2.460 -0.1891 -0.0973  0.1223
 5909SOL    HW129363   0.749   3.354   2.496 -1.1660  0.0934  1.7525
 5909SOL    HW229364   0.765   3.444   2.388  0.9946  0.1286  1.1568
 5910SOL     OW29365   1.413   1.278   3.591  0.3573 -0.4921  0.0633
 5910SOL    HW129366   1.463   1.219   3.647 -0.0121 -0.3926  0.5023
 5910SOL    HW229367   1.339   1.223   3.563  0.5885 -0.4498 -0.6295
 5911SOL     OW29368   2.512   1.528  11.723 -0.1050  0.0347 -0.5323
 5911SOL    HW129369   2.525   1.476  11.644 -2.8917  1.1641 -1.7402
 5911SOL    HW229370   2.539   1.467  11.792 -0.1826 -0.3874 -0.8759
 5912SOL     OW29371   0.572   0.824   7.802 -0.0210 -0.5304  0.2382
 5912SOL    HW129372   0.543   0.835   7.892 -0.7376 -0.0537 -0.0570
 5912SOL    HW229373   0.516   0.886   7.756  0.8909  0.8206  0.9402
 5913SOL     OW29374   3.607   2.318  11.680 -0.2008 -0.2008 -0.1884
 5913SOL    HW129375   3.604   2.251  11.749  3.3145  0.1766  0.3507
 5913SOL    HW229376   3.651   2.388  11.729 -2.9656  1.7052 -0.4345
 5914SOL     OW29377   4.105   1.262   6.554 -0.0259  0.6429  0.0585
 5914SOL    HW129378   4.011   1.274   6.545 -0.3036 -0.7836  1.1302
 5914SOL    HW229379   4.111   1.187   6.496 -0.6935  0.9437 -0.3941
 5915SOL     OW29380   1.478   2.970   9.769  0.1050 -0.3618  0.1028
 5915SOL    HW129381   1.433   3.027   9.830 -0.9337 -2.4982  1.3132
 5915SOL    HW229382   1.509   3.027   9.698 -0.3654  1.4738  1.3668
 5916SOL     OW29383   1.739   0.321   6.082  0.4891  0.8811 -0.9205
 5916SOL    HW129384   1.775   0.235   6.059 -0.6769 -0.1283  0.9944
 5916SOL    HW229385   1.705   0.296   6.168 -0.0170 -1.8368 -1.9094
 5917SOL     OW29386   0.017   1.719   9.669 -0.3611 -0.1504  0.8663
 5917SOL    HW129387   4.676   1.675   9.696  0.4548 -1.2740  1.4127
 5917SOL    HW229388   4.719   1.761   9.590 -0.0569  1.3778  1.5306
 5918SOL     OW29389   0.823   2.487  14.829 -0.7402 -0.4880 -0.6334
 5918SOL    HW129390   0.905   2.461  14.786 -0.3013 -1.8066  1.0250
 5918SOL    HW229391   0.788   2.551  14.767  0.2409  0.4376 -0.2118
 5919SOL     OW29392   1.904   1.092  12.100  0.3405 -0.0032 -0.4257
 5919SOL    HW129393   1.904   1.043  12.182  0.3575  0.5675 -0.0829
 5919SOL    HW229394   1.949   1.029  12.043  0.8308  0.3216 -0.3979
 5920SOL     OW29395   3.429   4.087   6.371  0.0120  0.7576  1.1117
 5920SOL    HW129396   3.402   4.077   6.280  1.6470  1.4403  0.5594
 5920SOL    HW229397   3.497   4.154   6.366  0.2669  0.5115  1.2555
 5921SOL     OW29398   1.157   4.613   4.054 -0.5185  0.3212 -0.3870
 5921SOL    HW129399   1.209   4.590   3.977 -1.9105  1.6287 -1.7160
 5921SOL    HW229400   1.108   4.531   4.059 -0.1020  0.2187  1.9999
 5922SOL     OW29401   0.598   1.913   0.479 -0.0381 -0.5541  0.0939
 5922SOL    HW129402   0.531   1.972   0.444  1.6987  0.6840 -1.1277
 5922SOL    HW229403   0.552   1.882   0.557  1.1998  0.4294  1.2087
 5923SOL     OW29404   0.394   4.654   4.380 -0.2691  0.2060  0.4320
 5923SOL    HW129405   0.469   4.667   4.323 -0.5984 -1.0437 -0.2827
 5923SOL    HW229406   0.321   4.680   4.323  1.5142  0.6285 -1.6357
 5924SOL     OW29407   0.152   0.475   4.770 -0.2923 -0.0749  0.3496
 5924SOL    HW129408   0.122   0.541   4.708  1.3248  1.4741  1.2070
 5924SOL    HW229409   0.107   0.500   4.851 -2.5382  0.9301 -1.2228
 5925SOL     OW29410   0.669   2.714   3.719 -0.2600 -0.3798  0.3189
 5925SOL    HW129411   0.694   2.642   3.660 -0.0002  0.8691 -1.1098
 5925SOL    HW229412   0.699   2.670   3.799 -1.7276 -0.5742  0.7465
 5926SOL     OW29413   4.494   4.662   2.588 -0.6091  0.5044 -0.9314
 5926SOL    HW129414   4.572   4.621   2.626  1.3147  1.8504 -3.3465
 5926SOL    HW229415   4.462   4.597   2.526 -3.1330  1.8996 -1.0812
 5927SOL     OW29416   4.558   4.624   8.774  0.0342 -0.0079  0.4099
 5927SOL    HW129417   4.589   4.538   8.749  1.9739  0.2300  2.0031
 5927SOL    HW229418   4.464   4.613   8.762 -0.1705  0.1547  1.8644
 5928SOL     OW29419   1.511   0.884   4.071 -0.1998  0.6564  0.5937
 5928SOL    HW129420   1.459   0.961   4.050  0.4293  0.7438 -0.6316
 5928SOL    HW229421   1.596   0.896   4.029 -0.1328  0.8740  0.7938
 5929SOL     OW29422   0.437   0.471   8.806 -0.1825  0.5353  0.5472
 5929SOL    HW129423   0.509   0.423   8.765 -3.5590 -0.6375 -3.9247
 5929SOL    HW229424   0.380   0.515   8.743 -1.5242 -1.3971  0.4095
 5930SOL     OW29425   0.267   3.773   3.877 -0.1191  0.0509  0.1307
 5930SOL    HW129426   0.232   3.684   3.882  0.6346 -0.2228  0.4232
 5930SOL    HW229427   0.348   3.759   3.926 -0.9109 -0.9326  1.1341
 5931SOL     OW29428   4.355   4.535   4.363 -0.6528  0.3854 -0.3324
 5931SOL    HW129429   4.280   4.482   4.334  0.2760 -0.6791 -0.7554
 5931SOL    HW229430   4.415   4.462   4.376  0.5043  1.5457  0.8051
 5932SOL     OW29431   3.191   1.926  16.278  0.2244 -0.3535 -0.0156
 5932SOL    HW129432   3.216   1.981  16.204  0.8338 -0.6979 -0.0628
 5932SOL    HW229433   3.269   1.936  16.331  1.2525  0.6073 -1.7030
 5933SOL     OW29434   2.996   3.602   4.218  0.0920 -0.1973  0.2063
 5933SOL    HW129435   2.959   3.588   4.131 -1.7962  1.2598  0.7625
 5933SOL    HW229436   3.067   3.661   4.192  0.5772 -1.7738 -2.0971
 5934SOL     OW29437   1.606   3.601  13.467  0.3663 -0.3737 -0.5167
 5934SOL    HW129438   1.635   3.540  13.399 -1.3073 -0.8258 -0.8101
 5934SOL    HW229439   1.613   3.546  13.545 -1.0166 -2.2901 -1.7503
 5935SOL     OW29440   0.571   2.352   3.069 -0.6955 -0.0963  0.0352
 5935SOL    HW129441   0.524   2.287   3.018  1.3858 -1.4933 -0.1025
 5935SOL    HW229442   0.604   2.304   3.145 -0.9405  0.6277  0.6004
 5936SOL     OW29443   0.111   0.594   7.262  0.1568  0.0370 -0.4043
 5936SOL    HW129444   0.020   0.563   7.253  0.6314 -1.8328  1.1101
 5936SOL    HW229445   0.125   0.633   7.176 -2.2555  2.7398  0.4424
 5937SOL     OW29446   4.502   1.714   5.524  0.1064 -0.4949 -0.3758
 5937SOL    HW129447   4.540   1.638   5.569 -1.7459 -0.1046  1.8586
 5937SOL    HW229448   4.420   1.671   5.499  0.7953 -0.4793 -2.5736
 5938SOL     OW29449   3.183   1.495   9.060  0.2481 -0.1877 -0.0656
 5938SOL    HW129450   3.139   1.494   8.976  0.5895  0.2540 -0.2470
 5938SOL    HW229451   3.255   1.431   9.056 -0.6249 -1.2312  0.8426
 5939SOL     OW29452   4.023   0.884   0.880  0.3446 -0.1682 -0.0103
 5939SOL    HW129453   4.020   0.979   0.895 -0.1143  0.3086 -3.0006
 5939SOL    HW229454   4.001   0.849   0.966  3.0249 -2.3078 -0.1893
 5940SOL     OW29455   2.709   2.250   6.400  0.2155 -0.1598  0.1180
 5940SOL    HW129456   2.631   2.271   6.451  1.7403  0.8267  2.0447
 5940SOL    HW229457   2.771   2.245   6.473 -0.7107 -1.1569  0.8335
 5941SOL     OW29458   0.750   4.089   3.912  0.2862 -0.5567 -0.4099
 5941SOL    HW129459   0.711   4.170   3.946 -2.1710 -1.2549 -1.5423
 5941SOL    HW229460   0.785   4.063   3.996 -0.6943 -1.8783 -0.4056
 5942SOL     OW29461   4.059   4.146  16.276 -0.4572 -0.2597 -0.2124
 5942SOL    HW129462   4.130   4.198  16.239 -0.5652 -0.1987 -0.3372
 5942SOL    HW229463   4.101   4.107  16.353 -1.6590  1.9066  1.5437
 5943SOL     OW29464   2.995   2.470   0.562 -0.1691 -0.8963  0.8615
 5943SOL    HW129465   3.063   2.536   0.578 -0.1144 -1.1340  1.5782
 5943SOL    HW229466   3.024   2.387   0.600  0.7823 -1.7095 -1.5992
 5944SOL     OW29467   1.789   0.836   4.855  0.0221  0.1663 -0.3494
 5944SOL    HW129468   1.847   0.902   4.818  2.5240 -1.6347  0.4341
 5944SOL    HW229469   1.835   0.753   4.843 -1.1829 -0.4727 -0.6158
 5945SOL     OW29470   2.207   4.228   5.050  0.0727  0.0052  0.0117
 5945SOL    HW129471   2.257   4.179   5.116  0.2189  0.3216  0.1356
 5945SOL    HW229472   2.171   4.147   5.013 -0.7518  0.8134 -0.9492
 5946SOL     OW29473   2.996   0.108   4.123  0.5092  0.2832 -0.7915
 5946SOL    HW129474   2.925   0.044   4.127 -0.1274  0.8641 -2.6959
 5946SOL    HW229475   2.946   0.181   4.160  0.2036 -1.2333  1.7816
 5947SOL     OW29476   2.268   1.560  17.274  0.3657 -0.7448  0.7911
 5947SOL    HW129477   2.222   1.496  17.328 -1.8439  0.3687  0.2317
 5947SOL    HW229478   2.324   1.599  17.341  3.0507 -1.1272 -1.2116
 5948SOL     OW29479   1.150   3.589   4.029  0.1582 -0.1129  0.1571
 5948SOL    HW129480   1.186   3.542   4.104  0.8044 -1.3233 -0.9209
 5948SOL    HW229481   1.096   3.650   4.080 -0.3031  1.2504 -1.9989
 5949SOL     OW29482   4.250   3.813   4.210  0.2327 -0.1517 -1.0884
 5949SOL    HW129483   4.327   3.854   4.171 -0.0262  1.5076  0.1519
 5949SOL    HW229484   4.176   3.867   4.183 -0.9446 -1.4601 -0.4724
 5950SOL     OW29485   2.251   3.082   6.609  0.1446 -0.5049  0.6446
 5950SOL    HW129486   2.258   3.006   6.551  0.8805  0.5124 -0.5900
 5950SOL    HW229487   2.323   3.057   6.667  1.1694 -1.9344 -1.2039
 5951SOL     OW29488   3.831   4.206   3.453  0.8130  0.1936  0.0552
 5951SOL    HW129489   3.880   4.124   3.455 -0.3331 -0.4450  1.5988
 5951SOL    HW229490   3.745   4.199   3.411 -0.2664 -1.0555  2.5236
 5952SOL     OW29491   1.915   3.295  13.577 -0.2965 -0.1128 -0.4121
 5952SOL    HW129492   1.960   3.353  13.639 -2.0570 -1.6859  2.3476
 5952SOL    HW229493   1.983   3.276  13.513  1.3574 -1.4022  1.7049
 5953SOL     OW29494   1.896   4.614   6.629 -0.0420 -0.1298 -0.2772
 5953SOL    HW129495   1.829   4.562   6.673  0.3137 -1.2569 -1.0837
 5953SOL    HW229496   1.915   4.576   6.544 -0.1536 -0.2576 -0.2455
 5954SOL     OW29497   2.153   3.684   1.815 -0.2699 -0.0796  0.3449
 5954SOL    HW129498   2.198   3.600   1.825  0.6807  0.6508  2.1620
 5954SOL    HW229499   2.223   3.739   1.850  1.2297 -1.0783 -1.0771
 5955SOL     OW29500   2.091   4.710   7.427 -0.3442 -0.2557 -0.0633
 5955SOL    HW129501   2.154   0.031   7.389  2.2462 -1.9868  1.4923
 5955SOL    HW229502   2.008   0.008   7.398 -0.1480 -0.8946 -1.4382
 5956SOL     OW29503   4.670   4.699   3.138 -0.4264  0.3263  0.2356
 5956SOL    HW129504   4.591   4.647   3.153  0.4032 -0.7432  0.8650
 5956SOL    HW229505   4.654   0.047   3.173  1.5658  1.1181 -0.7890
 5957SOL     OW29506   2.764   1.204  16.212 -1.0578  0.2782 -0.2254
 5957SOL    HW129507   2.833   1.253  16.257  0.4901  0.5965 -2.9790
 5957SOL    HW229508   2.774   1.230  16.121 -0.7187 -0.6308 -0.4453
 5958SOL     OW29509   1.253   0.276   5.307  0.1379 -0.0996 -0.1679
 5958SOL    HW129510   1.205   0.195   5.287 -0.5771  0.5616 -1.1164
 5958SOL    HW229511   1.179   0.337   5.302 -1.7332 -2.0458  3.3934
 5959SOL     OW29512   4.540   3.542  16.242 -0.1880  0.0270  0.2380
 5959SOL    HW129513   4.493   3.463  16.216 -0.1770  0.3133 -0.6279
 5959SOL    HW229514   4.497   3.601  16.180 -0.5661 -0.0030  0.4676
 5960SOL     OW29515   2.885   4.185   4.779 -0.5930 -0.4373  0.5075
 5960SOL    HW129516   2.908   4.175   4.871 -2.2524 -1.1134  0.8475
 5960SOL    HW229517   2.882   4.096   4.744 -3.4359  1.2153 -3.5342
 5961SOL     OW29518   0.351   0.332   3.192  0.3092 -0.0114  0.2432
 5961SOL    HW129519   0.372   0.267   3.259  1.7025  1.5025  1.2531
 5961SOL    HW229520   0.284   0.383   3.237 -1.1456 -0.6757 -1.1478
 5962SOL     OW29521   3.916   2.414   9.935 -0.3017  0.5196 -0.3733
 5962SOL    HW129522   3.860   2.490   9.945 -0.2352  0.3669  1.0853
 5962SOL    HW229523   3.861   2.336   9.947  2.2068 -1.0626  0.8339
 5963SOL     OW29524   3.612   4.394  14.437 -0.1957 -0.0136 -0.3662
 5963SOL    HW129525   3.546   4.444  14.486  0.1373  0.7277 -0.6735
 5963SOL    HW229526   3.614   4.304  14.468  1.7732 -0.0548 -0.6381
 5964SOL     OW29527   3.439   1.502  17.346 -0.0758  0.3256 -0.0712
 5964SOL    HW129528   3.528   1.532  17.364  0.2295 -0.5876 -0.0685
 5964SOL    HW229529   3.423   1.551  17.265  0.2201 -0.7025 -0.7474
 5965SOL     OW29530   3.790   0.344   4.631  0.5937  0.1143  0.1324
 5965SOL    HW129531   3.862   0.387   4.584 -0.1260  1.2420  0.0577
 5965SOL    HW229532   3.714   0.393   4.601  0.0550 -1.4555 -1.1102
 5966SOL     OW29533   4.256   1.027  13.086 -0.2483 -0.0224  0.5185
 5966SOL    HW129534   4.176   1.074  13.062  0.6809 -0.1693 -2.7942
 5966SOL    HW229535   4.285   0.972  13.013 -0.2760  0.6291  0.0258
 5967SOL     OW29536   0.921   2.946   3.882 -0.5807  0.1086 -0.3916
 5967SOL    HW129537   0.913   3.035   3.918  1.6419  1.0764 -2.3349
 5967SOL    HW229538   0.860   2.959   3.811 -0.4709 -2.6243 -0.9941
 5968SOL     OW29539   0.034   4.188   9.003  0.1954  0.3075  0.5533
 5968SOL    HW129540   0.094   4.245   9.052  0.7843 -0.2417  0.4719
 5968SOL    HW229541   4.701   4.246   8.982 -0.3115 -1.7913 -3.4552
 5969SOL     OW29542   3.274   3.762   3.864 -0.6392  0.5006  0.3856
 5969SOL    HW129543   3.278   3.813   3.783 -0.1379  0.4211  0.3597
 5969SOL    HW229544   3.368   3.753   3.882 -0.3088 -1.0695 -2.1668
 5970SOL     OW29545   0.368   2.947   6.057  0.4684  0.8997 -0.1677
 5970SOL    HW129546   0.455   2.960   6.019  1.1264  0.1974  1.0798
 5970SOL    HW229547   0.332   2.876   6.004  1.5174  1.7411 -2.0223
 5971SOL     OW29548   2.413   3.982   6.209  0.2874 -0.5879  0.3305
 5971SOL    HW129549   2.348   3.912   6.219  1.1113 -1.3705  0.2457
 5971SOL    HW229550   2.481   3.947   6.267 -0.6641 -1.8026  0.7161
 5972SOL     OW29551   2.027   1.814   7.006  0.2519 -0.8956 -0.2002
 5972SOL    HW129552   1.957   1.753   6.982 -1.1566  0.2528  1.0448
 5972SOL    HW229553   2.103   1.767   6.970  1.0143 -1.4856  2.1323
 5973SOL     OW29554   0.939   4.726   4.493 -0.6910  0.2791 -0.0658
 5973SOL    HW129555   1.019   4.724   4.544 -1.7141  0.9389  1.5895
 5973SOL    HW229556   0.977   0.005   4.408 -2.5194  1.5677 -0.6217
 5974SOL     OW29557   1.956   3.408   7.608 -0.2636 -0.3938  0.3160
 5974SOL    HW129558   1.976   3.325   7.565  0.8283 -0.0459  0.1449
 5974SOL    HW229559   2.022   3.462   7.564  0.2573  0.3442  1.9893
 5975SOL     OW29560   3.850   3.163   4.204 -0.3302  0.0985  0.4759
 5975SOL    HW129561   3.864   3.240   4.258  0.9270  0.6522 -0.6244
 5975SOL    HW229562   3.918   3.110   4.243 -0.0414 -0.0578 -0.2342
 5976SOL     OW29563   1.362   0.357   7.478  0.4019 -0.2216 -0.2256
 5976SOL    HW129564   1.367   0.402   7.394 -2.3190  0.1211 -0.2061
 5976SOL    HW229565   1.448   0.318   7.492  1.0727  1.2845 -0.1012
 5977SOL     OW29566   1.778   0.106   8.320 -0.2762  0.0404  0.2308
 5977SOL    HW129567   1.735   0.185   8.286  0.9556  0.4521 -0.3676
 5977SOL    HW229568   1.864   0.129   8.286 -0.4494  0.4888  0.0874
 5978SOL     OW29569   4.302   3.927   9.787 -0.3579  0.4488  0.4515
 5978SOL    HW129570   4.211   3.937   9.812 -0.8539  0.8758 -1.5464
 5978SOL    HW229571   4.335   4.014   9.809 -0.8873  0.4264  1.3401
 5979SOL     OW29572   3.397   2.081   1.722  0.1715 -0.0369  0.3104
 5979SOL    HW129573   3.313   2.105   1.681  0.2274  0.7227  0.6421
 5979SOL    HW229574   3.407   2.141   1.796  1.5665  0.4610 -0.2715
 5980SOL     OW29575   4.276   2.016   7.519 -0.2408  0.1581  0.1859
 5980SOL    HW129576   4.212   1.950   7.545  0.5911 -0.8594 -0.3698
 5980SOL    HW229577   4.290   2.069   7.597  0.8473 -0.0179  0.1203
 5981SOL     OW29578   0.495   3.472   9.494  0.1881  0.3639 -0.0712
 5981SOL    HW129579   0.486   3.417   9.417 -0.1126 -1.8107  1.5036
 5981SOL    HW229580   0.550   3.546   9.467  3.1502 -1.5286  0.7303
 5982SOL     OW29581   2.418   0.969   6.573  0.3317 -0.0876  0.2305
 5982SOL    HW129582   2.456   1.048   6.534  1.7639 -0.8544  0.0753
 5982SOL    HW229583   2.454   0.960   6.661 -1.3577 -1.0725  0.8168
 5983SOL     OW29584   2.487   0.745  11.031 -0.7214  0.0154 -0.1488
 5983SOL    HW129585   2.516   0.832  11.001 -2.1131  0.2703 -0.7413
 5983SOL    HW229586   2.393   0.757  11.018 -0.8790 -1.7868 -0.7133
 5984SOL     OW29587   3.847   3.880   6.354  0.2064 -0.4001  0.1258
 5984SOL    HW129588   3.853   3.948   6.287 -0.0947 -2.1960 -1.7144
 5984SOL    HW229589   3.883   3.916   6.435 -2.3387  0.1434  1.0319
 5985SOL     OW29590   4.129   3.686  15.777 -0.2547 -0.1263 -0.7802
 5985SOL    HW129591   4.104   3.673  15.868  1.9914  0.4075 -0.0908
 5985SOL    HW229592   4.046   3.723  15.745 -0.4862 -0.2634 -0.3305
 5986SOL     OW29593   0.835   4.550  16.606  0.7201  0.3980 -0.0187
 5986SOL    HW129594   0.830   4.557  16.511 -2.7592  0.1630  0.1484
 5986SOL    HW229595   0.747   4.516  16.619  0.9472  0.7641  2.6223
 5987SOL     OW29596   1.203   2.264   8.248 -0.7369  0.4800  0.0327
 5987SOL    HW129597   1.242   2.179   8.270 -1.0464  0.3553  0.0987
 5987SOL    HW229598   1.155   2.292   8.326  1.0598  0.1659  1.2631
 5988SOL     OW29599   2.602   3.522   1.970  0.0599  0.2683 -0.7633
 5988SOL    HW129600   2.680   3.494   2.018  0.4267  2.0599 -0.3097
 5988SOL    HW229601   2.604   3.446   1.912  1.9623  0.0790 -0.4668
 5989SOL     OW29602   0.441   1.320   7.830  0.3844 -0.0016  0.0149
 5989SOL    HW129603   0.533   1.312   7.854  0.4741  0.3004 -0.2208
 5989SOL    HW229604   0.409   1.390   7.887  2.8964  0.9468  0.2314
 5990SOL     OW29605   3.187   1.253   1.945 -0.0549  0.3803  0.0982
 5990SOL    HW129606   3.169   1.164   1.914  0.0020  0.2462  0.4466
 5990SOL    HW229607   3.219   1.236   2.034 -0.8662  0.6595  0.4455
 5991SOL     OW29608   3.026   0.632  10.406  0.4174 -0.9438 -0.3428
 5991SOL    HW129609   3.115   0.656  10.380  1.1698 -0.8647  2.2234
 5991SOL    HW229610   3.024   0.660  10.498  2.3220  1.9205 -1.1899
 5992SOL     OW29611   4.390   3.245   8.319 -0.9020  0.0020  0.3241
 5992SOL    HW129612   4.327   3.309   8.286  1.2916  1.5375 -0.9496
 5992SOL    HW229613   4.458   3.248   8.252 -1.8879  1.1461 -0.6254
 5993SOL     OW29614   4.093   1.299   1.930  0.4251 -0.1372 -0.0399
 5993SOL    HW129615   4.044   1.227   1.889  0.4595 -0.8440  1.1545
 5993SOL    HW229616   4.116   1.352   1.853 -1.2387 -1.3921 -1.3974
 5994SOL     OW29617   2.705   4.123   2.494 -0.4169 -0.2795  0.2559
 5994SOL    HW129618   2.772   4.187   2.470 -0.2900  0.2717  2.1107
 5994SOL    HW229619   2.740   4.044   2.453  3.9412  0.6655  2.1142
 5995SOL     OW29620   1.358   0.075   6.924 -0.4348  0.5803 -0.1606
 5995SOL    HW129621   1.377   0.021   6.847 -1.5059  0.2529 -0.1854
 5995SOL    HW229622   1.365   0.009   6.992  1.2342  1.0926  0.1629
 5996SOL     OW29623   2.802   3.461   1.718 -0.2405  0.1607  0.5754
 5996SOL    HW129624   2.717   3.423   1.740 -0.1297  0.4274  1.4329
 5996SOL    HW229625   2.770   3.509   1.642  0.6445  0.6727  0.5182
 5997SOL     OW29626   1.085   3.170   4.629 -0.2667  0.0388  0.0146
 5997SOL    HW129627   1.010   3.221   4.657 -0.6462 -0.6080  0.1726
 5997SOL    HW229628   1.087   3.191   4.535  0.6454 -1.3159 -0.2730
 5998SOL     OW29629   3.156   1.656   5.474  0.1518  0.6464  0.1229
 5998SOL    HW129630   3.152   1.613   5.388 -1.1719  1.4274 -0.2192
 5998SOL    HW229631   3.217   1.726   5.450  1.4454 -0.6807 -0.4721
 5999SOL     OW29632   2.376   2.174   3.412 -0.3884 -0.1420  0.6441
 5999SOL    HW129633   2.381   2.270   3.412 -1.3923 -0.0729  1.9765
 5999SOL    HW229634   2.358   2.169   3.506  3.7156  0.5343  1.4446
 6000SOL     OW29635   4.099   1.463   6.983 -0.1676 -0.6233 -0.8805
 6000SOL    HW129636   4.048   1.397   7.030 -0.5078  0.2034 -0.0819
 6000SOL    HW229637   4.163   1.490   7.049 -0.1456 -0.6288 -0.8996
 6001SOL     OW29638   0.049   2.808  14.694 -0.3231 -0.0286 -0.0159
 6001SOL    HW129639   4.693   2.809  14.698 -0.3684  0.7224 -1.5905
 6001SOL    HW229640   0.065   2.898  14.668  0.4571 -0.3793 -0.7633
 6002SOL     OW29641   3.171   2.309   4.373  0.0198 -0.5505  0.2255
 6002SOL    HW129642   3.197   2.266   4.455  0.4609 -1.0605 -0.1844
 6002SOL    HW229643   3.242   2.276   4.318 -1.7323 -0.6222 -2.0058
 6003SOL     OW29644   1.694   3.801   9.744 -0.0728 -0.2639  0.9130
 6003SOL    HW129645   1.693   3.811   9.840 -0.3216 -1.2963  1.0189
 6003SOL    HW229646   1.746   3.878   9.721 -0.8150  0.4221  1.5217
 6004SOL     OW29647   4.631   2.163   6.767  0.5176  0.2750  0.3613
 6004SOL    HW129648   4.700   2.186   6.705  0.3122 -2.0193 -0.7342
 6004SOL    HW229649   4.631   2.068   6.752  0.2443  0.0510  1.8195
 6005SOL     OW29650   0.708   4.505   4.492 -0.4271  0.6077 -0.2499
 6005SOL    HW129651   0.769   4.577   4.473 -1.5587  2.0103  1.4630
 6005SOL    HW229652   0.734   4.489   4.583 -0.0583  1.0579 -0.2732
 6006SOL     OW29653   1.927   3.785  12.148 -0.0131 -0.0548  0.1752
 6006SOL    HW129654   1.974   3.777  12.230 -1.8830 -0.3993  1.2172
 6006SOL    HW229655   1.857   3.841  12.183  0.7820 -0.5546  2.5483
 6007SOL     OW29656   0.187   3.218  14.035 -0.0658  0.0506 -0.2996
 6007SOL    HW129657   0.175   3.272  14.113 -2.8653 -0.6317 -0.2236
 6007SOL    HW229658   0.275   3.183  14.049  0.8876  2.5409 -0.0991
 6008SOL     OW29659   4.267   3.727   9.525 -0.0497 -0.2209  0.0599
 6008SOL    HW129660   4.274   3.777   9.606 -2.7652 -0.6105  0.5224
 6008SOL    HW229661   4.287   3.639   9.559  0.7672 -0.8030 -1.8913
 6009SOL     OW29662   0.503   3.356   9.764 -0.0785 -0.2612 -0.3982
 6009SOL    HW129663   0.570   3.294   9.733  0.5396  0.7431 -1.0828
 6009SOL    HW229664   0.476   3.391   9.679 -1.2992 -1.0219 -0.3145
 6010SOL     OW29665   1.421   3.496   5.675  0.0695 -0.4481  0.1622
 6010SOL    HW129666   1.441   3.589   5.687  1.4510 -0.9969  2.1398
 6010SOL    HW229667   1.363   3.482   5.750  1.1106 -0.1562  1.0125
 6011SOL     OW29668   3.344   1.180  13.218  0.1368 -0.1295  0.0943
 6011SOL    HW129669   3.291   1.252  13.185  0.2106  0.2709  0.8313
 6011SOL    HW229670   3.292   1.107  13.187  0.1108 -0.8817  1.9292
 6012SOL     OW29671   1.258   1.953   3.621 -0.6372 -0.5069 -0.0909
 6012SOL    HW129672   1.233   1.861   3.614  0.0211 -0.8870  2.3843
 6012SOL    HW229673   1.334   1.949   3.563 -1.5898 -1.0854 -1.3028
 6013SOL     OW29674   0.363   4.738   1.105  0.3430 -0.2843 -0.2140
 6013SOL    HW129675   0.423   4.697   1.042 -0.4985  1.0007 -1.8772
 6013SOL    HW229676   0.351   4.661   1.160  1.1545  1.3399  2.2261
 6014SOL     OW29677   2.576   3.988   5.973  0.1223 -0.1025 -0.0076
 6014SOL    HW129678   2.527   3.966   6.052 -1.1034 -2.0591 -1.3297
 6014SOL    HW229679   2.655   4.017   6.020 -0.9392  0.7273  1.2565
 6015SOL     OW29680   0.014   2.322   8.625  0.4619  0.1746 -0.5529
 6015SOL    HW129681   0.074   2.249   8.640 -0.0350  0.1201  1.2281
 6015SOL    HW229682   4.676   2.274   8.655  0.4401  0.9755  0.6971
 6016SOL     OW29683   1.898   3.719   5.670  0.1220  0.0450 -0.4105
 6016SOL    HW129684   1.977   3.728   5.616  0.8710  1.6881  0.9432
 6016SOL    HW229685   1.833   3.667   5.623 -1.2790 -0.2018  1.7947
 6017SOL     OW29686   2.384   2.979   3.408 -0.0689 -0.0002  0.0474
 6017SOL    HW129687   2.434   3.057   3.431 -0.3092  1.0703 -3.0559
 6017SOL    HW229688   2.417   2.920   3.476  0.1227  1.8767  1.5701
 6018SOL     OW29689   0.119   2.525   4.912  0.9166 -0.1208  0.3267
 6018SOL    HW129690   0.180   2.558   4.845 -0.8699 -1.4500 -1.9359
 6018SOL    HW229691   0.165   2.464   4.970  2.2014  0.8929  0.3882
 6019SOL     OW29692   3.549   1.095   1.212  0.3682  0.0056 -0.4924
 6019SOL    HW129693   3.466   1.060   1.180  1.8060 -4.4694  0.6821
 6019SOL    HW229694   3.611   1.063   1.146  0.1145 -0.3486 -0.5595
 6020SOL     OW29695   2.422   1.264   7.523  0.0738  1.0305  0.3053
 6020SOL    HW129696   2.384   1.180   7.497 -1.9386  2.2677 -0.7860
 6020SOL    HW229697   2.419   1.246   7.617 -1.6905 -2.8695 -0.5083
 6021SOL     OW29698   0.276   1.611   3.162  0.1079  0.4487 -0.6677
 6021SOL    HW129699   0.320   1.631   3.245  0.8019  1.7176 -1.3282
 6021SOL    HW229700   0.310   1.680   3.104 -1.0106 -0.5232 -2.4691
 6022SOL     OW29701   0.900   2.735   5.124  0.0385  0.7179  0.4454
 6022SOL    HW129702   0.872   2.776   5.206 -0.3383  1.5648 -0.1179
 6022SOL    HW229703   0.829   2.671   5.122  0.1065  0.6357  0.6390
 6023SOL     OW29704   4.182   1.978   4.054 -0.2041  0.5560 -0.6581
 6023SOL    HW129705   4.239   1.979   3.977 -2.2095 -1.0728 -2.1700
 6023SOL    HW229706   4.192   2.064   4.095 -0.9908  0.1713  0.3440
 6024SOL     OW29707   0.626   3.099   2.845  0.6281  0.7887  0.0568
 6024SOL    HW129708   0.546   3.047   2.853  2.9039 -2.8856 -1.2310
 6024SOL    HW229709   0.610   3.161   2.916 -2.4694  0.9800 -0.8103
 6025SOL     OW29710   0.511   3.059   9.383 -0.0683  0.2175 -0.1452
 6025SOL    HW129711   0.492   3.020   9.297 -0.8927 -0.2398  0.2426
 6025SOL    HW229712   0.440   3.122   9.388 -2.1589 -2.1889  0.9840
 6026SOL     OW29713   2.678   0.358   3.397 -0.4079 -0.2157  0.2037
 6026SOL    HW129714   2.686   0.313   3.313  0.3880  1.6222 -0.6924
 6026SOL    HW229715   2.626   0.289   3.439 -0.2561 -0.8413 -0.6363
 6027SOL     OW29716   4.626   2.238   6.131 -0.2972  0.2134  0.1579
 6027SOL    HW129717   4.557   2.174   6.113  0.4081 -0.9614  1.5700
 6027SOL    HW229718   4.612   2.251   6.225 -0.0637 -2.8691  0.6205
 6028SOL     OW29719   3.870   2.105   2.867 -0.4483 -0.0972  0.2389
 6028SOL    HW129720   3.876   2.058   2.784 -1.2948 -0.6211  0.4689
 6028SOL    HW229721   3.884   2.028   2.921  0.0578  0.5263  0.9984
 6029SOL     OW29722   3.668   1.719  13.272 -0.2087 -0.4603 -0.2416
 6029SOL    HW129723   3.617   1.644  13.242  0.4816 -0.4520 -1.4395
 6029SOL    HW229724   3.730   1.677  13.331 -0.9671 -0.1511  0.7681
 6030SOL     OW29725   0.437   2.864  14.014  0.0091 -0.0643  0.3664
 6030SOL    HW129726   0.405   2.955  14.012  0.0712 -0.0504 -0.0509
 6030SOL    HW229727   0.484   2.863  13.931  0.2468 -2.1345  0.5308
 6031SOL     OW29728   1.343   4.647   0.433  0.2070 -0.5794  0.2377
 6031SOL    HW129729   1.354   4.573   0.373  0.2229 -0.3189 -0.0825
 6031SOL    HW229730   1.424   4.694   0.412  0.7395 -1.2570  0.7964
 6032SOL     OW29731   2.433   4.422   6.591 -0.2769 -0.4264 -0.1887
 6032SOL    HW129732   2.362   4.483   6.611 -1.0954 -1.9520  1.5312
 6032SOL    HW229733   2.495   4.446   6.661 -1.1155  0.5950  0.1985
 6033SOL     OW29734   2.510   2.368   4.929  0.4609  0.0201  0.8329
 6033SOL    HW129735   2.441   2.320   4.975  0.8090 -1.0316  0.2366
 6033SOL    HW229736   2.458   2.395   4.853  0.4396 -0.6413  0.6159
 6034SOL     OW29737   2.923   2.758  10.349 -0.1657  0.0484  0.2218
 6034SOL    HW129738   2.901   2.777  10.258  0.9605 -2.1007 -0.4960
 6034SOL    HW229739   2.926   2.845  10.389 -1.6311 -1.1084  2.8483
 6035SOL     OW29740   1.535   3.508   3.863 -0.2421 -0.0093  0.3647
 6035SOL    HW129741   1.487   3.557   3.930 -0.3632  0.5002 -0.0875
 6035SOL    HW229742   1.461   3.494   3.803 -0.3966  0.1058  0.5264
 6036SOL     OW29743   1.841   0.582   2.647  0.4036  0.2452  0.3342
 6036SOL    HW129744   1.844   0.677   2.643  0.2242  0.3110  2.1718
 6036SOL    HW229745   1.778   0.552   2.581  1.1055  1.3330 -0.8485
 6037SOL     OW29746   0.395   2.668   8.239 -0.2904 -0.2769 -0.0018
 6037SOL    HW129747   0.457   2.597   8.257  0.4762 -0.3835 -2.9193
 6037SOL    HW229748   0.449   2.731   8.286 -1.6712  0.6722  0.3047
 6038SOL     OW29749   2.962   2.959   7.694 -0.2531  0.3015  0.4902
 6038SOL    HW129750   2.901   2.888   7.678 -0.5951  0.0348  3.0860
 6038SOL    HW229751   2.996   2.935   7.780 -1.4453  2.2927  1.5187
 6039SOL     OW29752   3.726   1.158   5.678 -0.0835 -0.1181 -0.3633
 6039SOL    HW129753   3.689   1.118   5.599 -0.7499  0.2204 -0.2225
 6039SOL    HW229754   3.660   1.116   5.734  0.0440  0.3153  0.1104
 6040SOL     OW29755   3.995   1.542   4.484  0.1916  0.1401  0.4308
 6040SOL    HW129756   3.969   1.587   4.565  2.4171  0.0590  1.2032
 6040SOL    HW229757   3.942   1.588   4.419 -0.7733 -1.1398  0.3223
 6041SOL     OW29758   0.278   1.076   3.037  0.0078  0.0192  0.0067
 6041SOL    HW129759   0.265   1.069   2.943 -0.0990  1.5937 -0.0910
 6041SOL    HW229760   0.255   1.168   3.051  0.8872  0.0732  1.1748
 6042SOL     OW29761   3.710   4.047  13.573  0.1424  0.3158 -0.0551
 6042SOL    HW129762   3.635   4.099  13.545 -0.4264 -0.9271 -0.8548
 6042SOL    HW229763   3.660   3.965  13.577 -0.5507  0.8638  3.3470
 6043SOL     OW29764   3.517   4.587  13.799 -0.2498  0.1344  0.3077
 6043SOL    HW129765   3.526   4.495  13.777 -0.0757 -0.1953  1.7414
 6043SOL    HW229766   3.496   4.629  13.715  0.8853  1.6348  0.7768
 6044SOL     OW29767   3.320   3.429   2.414 -0.0125 -0.2249 -0.5642
 6044SOL    HW129768   3.322   3.448   2.320  1.4421  3.9150  0.3264
 6044SOL    HW229769   3.397   3.373   2.422  0.0562  0.0530  0.7433
 6045SOL     OW29770   4.690   0.878  17.152 -1.3217 -0.2768 -0.3122
 6045SOL    HW129771   0.011   0.893  17.079 -3.0109 -1.7979 -2.0298
 6045SOL    HW229772   4.683   0.967  17.186 -1.2140 -0.4749  0.2298
 6046SOL     OW29773   3.419   3.609   5.553 -0.1365  0.0408  0.6081
 6046SOL    HW129774   3.367   3.684   5.582  0.0117  0.4078 -0.0659
 6046SOL    HW229775   3.494   3.612   5.612  0.1213  0.8807  0.2408
 6047SOL     OW29776   1.743   4.565   6.175 -0.2392  0.2358 -0.4715
 6047SOL    HW129777   1.730   4.655   6.204  1.4828 -0.1875  1.6645
 6047SOL    HW229778   1.717   4.568   6.083  1.0070 -0.2075 -0.8471
 6048SOL     OW29779   3.754   3.012   8.558  0.4539  0.5160  0.8397
 6048SOL    HW129780   3.835   3.035   8.603  1.2770 -3.5741  1.4243
 6048SOL    HW229781   3.756   2.917   8.567 -0.2643  0.3077 -1.2133
 6049SOL     OW29782   0.446   4.414   4.527 -0.1626  0.2838 -0.1801
 6049SOL    HW129783   0.412   4.495   4.490 -0.0994  0.5548  0.3597
 6049SOL    HW229784   0.535   4.447   4.526 -0.0834  0.0467 -0.8070
 6050SOL     OW29785   0.788   2.571   3.481  0.3409 -0.2901  0.0806
 6050SOL    HW129786   0.878   2.602   3.496 -0.0130  0.8569 -0.1912
 6050SOL    HW229787   0.810   2.487   3.440 -2.1912 -1.0425  0.2845
 6051SOL     OW29788   1.661   0.649  16.099  0.2554 -0.4818 -0.4887
 6051SOL    HW129789   1.646   0.623  16.008 -1.4566 -0.9721 -0.0657
 6051SOL    HW229790   1.753   0.677  16.091 -0.2916  1.0903 -1.2829
 6052SOL     OW29791   1.600   4.699  11.904 -0.3099  0.3395 -0.5808
 6052SOL    HW129792   1.536   0.014  11.859 -1.5528  0.1954  1.0077
 6052SOL    HW229793   1.549   4.618  11.908  1.3362 -0.6862 -0.4911
 6053SOL     OW29794   2.267   0.097   3.965 -0.2493  0.0904  0.2020
 6053SOL    HW129795   2.326   0.145   3.906  0.5192 -3.0282 -1.5446
 6053SOL    HW229796   2.207   0.063   3.898 -1.4840 -0.0683  1.3757
 6054SOL     OW29797   1.021   3.938   6.533  0.1500  0.2013  0.1343
 6054SOL    HW129798   0.982   3.872   6.591 -1.2212  2.2880  1.5574
 6054SOL    HW229799   1.078   3.874   6.490  0.5611  0.5282  0.1976
 6055SOL     OW29800   1.430   1.584   6.641  0.0929  0.2243  0.3372
 6055SOL    HW129801   1.476   1.556   6.562 -1.5879 -1.3158 -0.1018
 6055SOL    HW229802   1.398   1.499   6.670 -1.0221  0.6753  0.4328
 6056SOL     OW29803   3.947   3.338  16.982  0.5079 -0.4630  1.1848
 6056SOL    HW129804   3.906   3.265  17.029  3.9486 -3.2294 -0.1540
 6056SOL    HW229805   4.008   3.356  17.053  0.9880 -0.7266  0.8414
 6057SOL     OW29806   2.001   0.882   9.300  0.3209 -0.2350  0.1464
 6057SOL    HW129807   2.046   0.800   9.281 -1.0517 -0.9770  0.0857
 6057SOL    HW229808   2.031   0.936   9.227  3.0210 -0.8894  0.7604
 6058SOL     OW29809   1.987   2.516  10.916 -0.0567  0.0481 -0.0484
 6058SOL    HW129810   1.906   2.468  10.898  0.9916 -1.3146 -1.2252
 6058SOL    HW229811   1.968   2.603  10.882  0.7674  0.3380  0.2217
 6059SOL     OW29812   1.240   1.278   0.682 -0.1740  0.2369  0.1485
 6059SOL    HW129813   1.176   1.349   0.691 -1.5742 -0.8835 -0.9993
 6059SOL    HW229814   1.286   1.293   0.765 -2.5365  0.3320  1.4210
 6060SOL     OW29815   0.704   2.843  14.964 -0.0407 -0.3751 -0.1573
 6060SOL    HW129816   0.750   2.771  15.009 -0.6034 -0.8982 -0.4128
 6060SOL    HW229817   0.620   2.799  14.975  0.2453 -0.8576  0.1669
 6061SOL     OW29818   2.813   1.670  13.917  0.6621  0.7875 -0.3065
 6061SOL    HW129819   2.853   1.656  14.003  1.2622 -0.6301 -0.8167
 6061SOL    HW229820   2.722   1.639  13.923  1.0396 -0.7321 -2.4515
 6062SOL     OW29821   3.327   4.315  13.483 -0.1408 -0.0812  0.1960
 6062SOL    HW129822   3.384   4.383  13.444  3.3870 -1.1600  3.4395
 6062SOL    HW229823   3.354   4.302  13.574 -1.1940  0.7761  0.6256
 6063SOL     OW29824   2.687   1.296   7.451  0.4638 -0.1047 -0.0923
 6063SOL    HW129825   2.731   1.298   7.536 -0.2563 -1.1523  0.3089
 6063SOL    HW229826   2.592   1.302   7.464  0.5378 -0.7736  0.7701
 6064SOL     OW29827   1.039   0.041   8.013 -0.3573  0.1646  0.7430
 6064SOL    HW129828   1.040   0.137   8.016 -1.1696  0.1074  2.3634
 6064SOL    HW229829   0.964   0.012   8.065  0.8450 -0.7829  1.9587
 6065SOL     OW29830   4.294   4.266   3.585  0.3665 -0.3746 -0.3190
 6065SOL    HW129831   4.334   4.191   3.541  1.1977 -2.2423  3.6242
 6065SOL    HW229832   4.242   4.222   3.652  1.3180  3.4151  2.9219
 6066SOL     OW29833   2.389   0.237   4.868  0.3081  0.4594 -0.4424
 6066SOL    HW129834   2.338   0.203   4.795 -2.8380 -0.4447  2.1666
 6066SOL    HW229835   2.474   0.199   4.846 -0.9342 -3.6673  1.7315
 6067SOL     OW29836   1.539   1.873  13.808 -0.1181  0.0805  0.3917
 6067SOL    HW129837   1.630   1.903  13.800  0.2410 -1.1410 -0.1966
 6067SOL    HW229838   1.536   1.875  13.904  1.9846 -1.8486  0.5221
 6068SOL     OW29839   1.992   3.749   0.125 -0.2226  0.0880 -0.0265
 6068SOL    HW129840   2.027   3.784   0.207 -1.7935 -0.7430  0.9906
 6068SOL    HW229841   2.048   3.672   0.113 -2.7990 -1.7815  0.0439
 6069SOL     OW29842   4.144   1.641   1.545  0.1796  0.0478  0.2842
 6069SOL    HW129843   4.083   1.706   1.509  0.2645  0.9031  1.6931
 6069SOL    HW229844   4.222   1.696   1.548  0.0506  0.2106  0.6320
 6070SOL     OW29845   1.542   1.870   9.196  0.7595 -0.7829  0.1654
 6070SOL    HW129846   1.461   1.825   9.222 -0.0676  0.0079 -1.0103
 6070SOL    HW229847   1.545   1.947   9.253  0.9784  0.4758 -1.5592
 6071SOL     OW29848   4.059   4.512   6.536  0.2679 -0.1365 -0.6024
 6071SOL    HW129849   3.977   4.555   6.559  0.8330 -0.0382  1.2366
 6071SOL    HW229850   4.023   4.435   6.492 -0.6782  0.8287 -1.4837
 6072SOL     OW29851   4.511   4.582  11.721  0.3670  0.3090 -0.0193
 6072SOL    HW129852   4.450   4.547  11.786  1.2828  1.3134  1.3958
 6072SOL    HW229853   4.523   4.671  11.754  1.6631  0.3764 -0.6508
 6073SOL     OW29854   1.460   2.612   3.816 -0.0449  0.4473 -0.2057
 6073SOL    HW129855   1.425   2.560   3.744 -1.3730  0.1225  0.6907
 6073SOL    HW229856   1.452   2.544   3.883 -0.4313  0.5291 -0.1718
 6074SOL     OW29857   0.734   4.620  14.610  0.0767 -0.3330  0.1567
 6074SOL    HW129858   0.823   4.586  14.609 -0.0102 -0.5988  1.3931
 6074SOL    HW229859   0.683   4.540  14.624 -1.0340  0.3686  0.1566
 6075SOL     OW29860   3.945   1.311   7.164  0.0863 -0.4201  0.6398
 6075SOL    HW129861   3.943   1.362   7.245  1.2428  0.5524  0.0614
 6075SOL    HW229862   3.878   1.244   7.181  2.3386 -3.3584 -2.0011
 6076SOL     OW29863   0.418   1.822   3.014  0.3068  0.2401  0.7034
 6076SOL    HW129864   0.488   1.886   3.031 -1.3774  1.7769  1.9001
 6076SOL    HW229865   0.342   1.881   3.010  0.2703  0.1524  0.0782
 6077SOL     OW29866   2.822   1.943   2.788  0.0651  0.4148 -0.2115
 6077SOL    HW129867   2.908   1.908   2.811 -0.1792 -1.0234 -1.4536
 6077SOL    HW229868   2.817   2.010   2.856 -0.4186  0.7639 -0.5893
 6078SOL     OW29869   1.656   2.352  12.932  0.2792  0.2110 -0.5454
 6078SOL    HW129870   1.657   2.297  13.010  1.8937 -1.1834 -1.5301
 6078SOL    HW229871   1.637   2.433  12.979 -0.2070  0.5400 -1.3106
 6079SOL     OW29872   1.884   0.565   9.253 -0.1374  0.4675 -0.0133
 6079SOL    HW129873   1.908   0.472   9.259  0.8273  0.7130 -0.1208
 6079SOL    HW229874   1.967   0.602   9.223  1.4503 -3.7179 -0.7401
 6080SOL     OW29875   2.674   1.396   9.095  0.1480 -0.0788 -0.0763
 6080SOL    HW129876   2.762   1.413   9.130 -0.8570  1.0688  1.8950
 6080SOL    HW229877   2.627   1.439   9.166  1.2923  0.0628  0.5970
 6081SOL     OW29878   4.116   3.820   5.425  0.4205 -0.4970  0.6903
 6081SOL    HW129879   4.107   3.751   5.492  2.0172 -1.2604  0.1055
 6081SOL    HW229880   4.210   3.819   5.410  0.2401  1.6414 -0.5265
 6082SOL     OW29881   2.336   1.152   3.060 -0.4456  0.3052  0.1371
 6082SOL    HW129882   2.432   1.154   3.063 -0.4761  0.6334  0.8892
 6082SOL    HW229883   2.320   1.175   3.152  0.9253  1.0790  0.1734
 6083SOL     OW29884   2.016   3.585  10.825 -0.2562  0.0701 -0.1062
 6083SOL    HW129885   1.925   3.587  10.857 -0.7054 -0.0927 -1.3602
 6083SOL    HW229886   2.039   3.675  10.803  1.0930 -0.1185  0.5230
 6084SOL     OW29887   3.152   2.535   4.719 -0.5111  0.3249 -0.1591
 6084SOL    HW129888   3.062   2.553   4.743 -0.8927 -0.3442 -1.0926
 6084SOL    HW229889   3.145   2.440   4.704  1.4101 -0.0129  1.0335
 6085SOL     OW29890   2.790   1.837   6.530  0.8791  0.4485  0.1857
 6085SOL    HW129891   2.726   1.877   6.589 -1.6959 -0.0725 -2.2414
 6085SOL    HW229892   2.761   1.865   6.443 -0.4369  2.6045  1.3048
 6086SOL     OW29893   2.404   4.397   7.471 -0.6737  0.4766  0.1339
 6086SOL    HW129894   2.325   4.348   7.445  0.8012 -1.3741 -0.8243
 6086SOL    HW229895   2.457   4.407   7.392 -1.4076  0.6765 -0.3342
 6087SOL     OW29896   3.272   3.585   1.781  0.4330  0.3274  0.2625
 6087SOL    HW129897   3.278   3.555   1.691  1.0354 -1.4646  0.9026
 6087SOL    HW229898   3.179   3.580   1.802 -0.0439  1.0493 -1.6751
 6088SOL     OW29899   3.050   0.201  17.318  0.1535  0.0543  0.3117
 6088SOL    HW129900   3.128   0.246  17.351 -0.0095  0.0157  0.7476
 6088SOL    HW229901   2.986   0.269  17.300 -1.1627 -1.4082 -0.5610
 6089SOL     OW29902   1.343   1.257  15.912 -0.7071 -0.2290  0.6018
 6089SOL    HW129903   1.286   1.318  15.864  1.1787  0.0937 -1.2446
 6089SOL    HW229904   1.411   1.307  15.959  3.6684 -1.5930 -4.2364
 6090SOL     OW29905   2.194   2.362   4.351 -0.1818  0.5243  0.0960
 6090SOL    HW129906   2.287   2.365   4.326  0.0294  1.1417  0.9545
 6090SOL    HW229907   2.187   2.292   4.416  0.7559 -0.0709 -0.4417
 6091SOL     OW29908   3.043   0.136   8.576  0.6051 -0.1865  0.0949
 6091SOL    HW129909   3.005   0.056   8.611 -0.5441 -0.2893 -1.3607
 6091SOL    HW229910   3.131   0.106   8.555  0.1706 -1.8543  0.6621
 6092SOL     OW29911   2.540   1.944   5.532 -0.1233 -0.1533 -0.3927
 6092SOL    HW129912   2.569   1.862   5.493 -0.6693 -1.3545  1.7319
 6092SOL    HW229913   2.595   2.011   5.491  4.2255 -1.6422  3.0018
 6093SOL     OW29914   0.402   1.309   7.541 -0.2113 -0.1665  0.2061
 6093SOL    HW129915   0.384   1.353   7.624 -0.9692 -3.1149  1.5950
 6093SOL    HW229916   0.349   1.363   7.483  2.7038  2.8930  0.3192
 6094SOL     OW29917   2.931   4.647   3.579 -0.6917 -0.0945  0.0528
 6094SOL    HW129918   2.885   4.573   3.540 -1.9659  0.9454 -0.4298
 6094SOL    HW229919   3.024   4.631   3.564 -0.9639 -2.2479  0.6780
 6095SOL     OW29920   4.330   3.198   6.021  0.1498  0.1531 -0.0664
 6095SOL    HW129921   4.277   3.262   6.069 -1.2355 -0.5625 -0.6372
 6095SOL    HW229922   4.397   3.176   6.085 -0.5344 -1.4823  0.0886
 6096SOL     OW29923   2.126   3.128   3.198  0.5035  0.1409 -0.4752
 6096SOL    HW129924   2.110   3.208   3.148 -1.6155  0.6783  1.0735
 6096SOL    HW229925   2.182   3.092   3.130  0.9377 -0.2428  0.0845
 6097SOL     OW29926   3.833   1.425  13.016 -0.2544  0.5338 -0.5414
 6097SOL    HW129927   3.831   1.479  13.095  2.4378 -0.0109 -0.1064
 6097SOL    HW229928   3.798   1.341  13.047 -1.3037  1.7466  1.6097
 6098SOL     OW29929   1.526   1.685   3.068  0.0503 -0.1466  0.0713
 6098SOL    HW129930   1.578   1.678   2.988 -0.9468  0.9136 -0.6681
 6098SOL    HW229931   1.591   1.682   3.139  1.2442 -1.7726 -1.0956
 6099SOL     OW29932   0.659   1.258   8.192  0.4506 -0.4527 -0.6444
 6099SOL    HW129933   0.716   1.264   8.269 -0.6415 -0.5436  0.1624
 6099SOL    HW229934   0.716   1.210   8.131  2.2918  2.6572 -1.3800
 6100SOL     OW29935   0.484   0.514   0.866 -0.2048  0.1498 -0.6475
 6100SOL    HW129936   0.579   0.514   0.873 -0.2519  1.6020 -0.0429
 6100SOL    HW229937   0.463   0.597   0.822  3.5949  0.2413 -2.3075
 6101SOL     OW29938   2.302   3.228   4.230  0.2570  0.1839 -0.0671
 6101SOL    HW129939   2.365   3.293   4.202  0.0079 -0.0932 -1.3021
 6101SOL    HW229940   2.221   3.279   4.225 -0.1755 -0.4267  0.7700
 6102SOL     OW29941   1.775   1.035   3.992  0.1070 -0.3155  0.3303
 6102SOL    HW129942   1.830   1.072   3.923 -0.2646  1.2673  0.8888
 6102SOL    HW229943   1.840   1.010   4.057  1.0901  0.3453 -0.4063
 6103SOL     OW29944   3.229   3.817   5.532  0.8657 -0.3349  0.3867
 6103SOL    HW129945   3.150   3.807   5.585  0.0552  1.6364 -0.4757
 6103SOL    HW229946   3.200   3.871   5.459 -0.7260  2.7321  3.2960
 6104SOL     OW29947   1.984   0.286  16.727 -0.1848  0.0434  0.5972
 6104SOL    HW129948   1.904   0.282  16.674 -0.2792 -1.2454  0.8257
 6104SOL    HW229949   1.998   0.380  16.730  1.7538 -0.1847 -2.2551
 6105SOL     OW29950   2.665   0.441  16.896 -0.1044  0.0936  0.3304
 6105SOL    HW129951   2.593   0.446  16.833  1.0478  0.3083 -0.9738
 6105SOL    HW229952   2.680   0.534  16.912  0.5732  0.2518 -1.2071
 6106SOL     OW29953   3.617   2.333   8.846 -0.6920 -0.1982  0.9351
 6106SOL    HW129954   3.561   2.410   8.850 -3.6382 -2.2616 -0.2589
 6106SOL    HW229955   3.679   2.361   8.913  0.8695 -1.3597 -0.0434
 6107SOL     OW29956   1.250   1.712   2.431  0.4371 -0.1582 -0.0107
 6107SOL    HW129957   1.165   1.745   2.459  0.3652 -1.3006  1.1053
 6107SOL    HW229958   1.306   1.729   2.507  1.3761  1.3390 -1.0258
 6108SOL     OW29959   2.350   4.424   1.168  0.1307 -0.4612  0.3208
 6108SOL    HW129960   2.416   4.364   1.203  2.6758  1.1407 -1.7903
 6108SOL    HW229961   2.390   4.436   1.082 -0.7611  0.2837  0.0160
 6109SOL     OW29962   0.524   0.540  16.067  0.4126 -0.3452 -0.1328
 6109SOL    HW129963   0.559   0.515  15.982  1.6837 -2.6164  1.0599
 6109SOL    HW229964   0.468   0.465  16.085  1.6543 -0.8702  1.5841
 6110SOL     OW29965   3.999   1.480   5.901  0.2467  0.0566  0.1540
 6110SOL    HW129966   3.921   1.479   5.957 -0.9991  0.8075 -1.5883
 6110SOL    HW229967   3.941   1.488   5.826  1.6342  0.6568 -0.8447
 6111SOL     OW29968   3.543   4.180  14.606 -0.5701  0.6035  0.4874
 6111SOL    HW129969   3.457   4.146  14.581  0.6194 -2.2020  0.2053
 6111SOL    HW229970   3.519   4.246  14.670 -0.2758 -2.1176  3.4234
 6112SOL     OW29971   0.711   0.031   4.099 -0.0122  0.2550  0.0876
 6112SOL    HW129972   0.714   0.042   4.004  0.6402 -4.6290 -0.4844
 6112SOL    HW229973   0.648   4.701   4.115 -1.5473  1.3391 -1.2715
 6113SOL     OW29974   3.579   1.074  13.304 -0.1879  0.1873 -0.0303
 6113SOL    HW129975   3.502   1.122  13.274  0.2352  0.3700 -0.7955
 6113SOL    HW229976   3.565   1.066  13.399  0.9078 -3.6818 -0.1902
 6114SOL     OW29977   1.196   1.546   7.734 -0.1730  0.1605 -0.1300
 6114SOL    HW129978   1.141   1.535   7.811 -0.7001  0.8361 -0.4117
 6114SOL    HW229979   1.151   1.623   7.700  1.9152  1.1484 -0.6732
 6115SOL     OW29980   2.906   3.839   7.485  0.5154 -0.2304  0.2426
 6115SOL    HW129981   2.843   3.911   7.480  0.9114  0.1068  0.0291
 6115SOL    HW229982   2.853   3.770   7.523 -1.2154  1.6916  1.3328
 6116SOL     OW29983   3.825   3.730   9.167 -0.6050 -0.3035 -0.1658
 6116SOL    HW129984   3.763   3.744   9.238  1.3463  0.6733  1.3294
 6116SOL    HW229985   3.776   3.748   9.086  0.6772 -4.7493 -1.8951
 6117SOL     OW29986   1.023   2.462   8.336 -0.3550 -0.0469  0.5626
 6117SOL    HW129987   1.076   2.531   8.376  0.6033 -0.1383 -0.5345
 6117SOL    HW229988   0.951   2.471   8.397 -0.2763 -0.0909  0.6621
 6118SOL     OW29989   4.729   4.100  10.571  0.1358 -0.0685  0.1627
 6118SOL    HW129990   0.010   4.111  10.664 -1.2873 -3.6093  0.8907
 6118SOL    HW229991   0.036   4.018  10.555  2.1465  1.0897  0.0927
 6119SOL     OW29992   0.862   2.359   4.079 -0.1920 -0.5057 -0.0746
 6119SOL    HW129993   0.795   2.337   4.144  1.8824  2.1220  2.9583
 6119SOL    HW229994   0.904   2.277   4.052 -0.7500 -0.4285 -1.1620
 6120SOL     OW29995   2.387   2.028   2.707  0.1862 -0.3984 -0.3757
 6120SOL    HW129996   2.439   2.107   2.720  3.4061 -2.6624  0.4993
 6120SOL    HW229997   2.322   2.057   2.643 -2.6062 -0.3148  2.5024
 6121SOL     OW29998   4.606   3.359   8.857  0.1171 -0.6397 -0.1609
 6121SOL    HW129999   4.549   3.427   8.820 -0.5192 -1.6081 -0.9686
 6121SOL    HW230000   4.691   3.376   8.816 -0.1338  1.2176  0.1127
 6122SOL     OW30001   1.170   2.994   4.270  0.3732 -0.6848 -0.6800
 6122SOL    HW130002   1.206   3.063   4.214  0.2658  1.1870  1.5431
 6122SOL    HW230003   1.118   2.948   4.205 -0.6024  1.1334 -1.1959
 6123SOL     OW30004   2.321   1.946   2.324 -0.0866 -0.2972  0.0239
 6123SOL    HW130005   2.389   1.879   2.315  0.0529 -0.1777  0.2029
 6123SOL    HW230006   2.363   2.032   2.323 -1.3831  0.3424  0.2402
 6124SOL     OW30007   2.283   3.640   3.468 -0.8740  0.0084 -0.0518
 6124SOL    HW130008   2.212   3.675   3.414 -1.7378 -1.5427  0.0547
 6124SOL    HW230009   2.278   3.698   3.544 -2.9210  0.3956 -0.4759
 6125SOL     OW30010   0.552   1.652   2.245  0.0432  0.1406  0.5883
 6125SOL    HW130011   0.520   1.614   2.327 -1.1537 -1.4907 -0.6343
 6125SOL    HW230012   0.553   1.573   2.191  2.4161 -1.3122  2.7558
 6126SOL     OW30013   3.154   3.934  11.815 -0.3168 -0.8300 -0.0972
 6126SOL    HW130014   3.114   3.984  11.744 -0.1114 -0.3727  0.1125
 6126SOL    HW230015   3.198   3.863  11.768  0.0003  0.6805 -2.0785
 6127SOL     OW30016   2.521   4.229   6.345  0.2303 -0.5726 -0.2397
 6127SOL    HW130017   2.540   4.196   6.257  1.7479  0.9593 -0.4816
 6127SOL    HW230018   2.600   4.214   6.397  0.8560  0.3480 -0.9074
 6128SOL     OW30019   2.545   3.534  16.202  0.4443  0.0496 -0.2326
 6128SOL    HW130020   2.602   3.550  16.127 -1.3671 -2.0619 -2.0402
 6128SOL    HW230021   2.601   3.548  16.279 -0.2067  1.9794 -0.1171
 6129SOL     OW30022   1.045   0.184   8.479  0.3555  0.2942 -0.4875
 6129SOL    HW130023   1.035   0.181   8.384 -1.3573 -0.3373 -0.2838
 6129SOL    HW230024   1.113   0.116   8.489  0.0619  0.0303 -0.2786
 6130SOL     OW30025   4.246   2.841  15.875 -0.0733 -0.0053 -0.1873
 6130SOL    HW130026   4.199   2.768  15.834 -0.8784  1.1856 -1.3710
 6130SOL    HW230027   4.174   2.903  15.887 -1.0935 -1.0126 -1.1496
 6131SOL     OW30028   3.455   1.922   6.043  0.3606 -0.0776 -0.1379
 6131SOL    HW130029   3.535   1.915   6.095 -0.1890 -2.1117  0.4439
 6131SOL    HW230030   3.470   1.851   5.980  2.0163 -0.7267  0.9905
 6132SOL     OW30031   0.102   4.597   5.149 -0.2652 -0.6415  0.3429
 6132SOL    HW130032   0.188   4.558   5.130 -1.1371 -2.2670 -0.3127
 6132SOL    HW230033   0.117   4.672   5.092  6.0406 -1.0776  1.4093
 6133SOL     OW30034   4.483   1.764   8.569  0.1529  0.0018  0.5879
 6133SOL    HW130035   4.429   1.831   8.611  4.1204  3.3554  0.4304
 6133SOL    HW230036   4.421   1.692   8.562 -2.4835  2.1905  1.5390
 6134SOL     OW30037   1.868   0.353   1.429 -0.0098 -0.0503  0.2573
 6134SOL    HW130038   1.780   0.318   1.441 -1.1470  2.4660 -0.7888
 6134SOL    HW230039   1.917   0.271   1.426 -0.6746 -0.4050 -1.0046
 6135SOL     OW30040   4.319   0.848   0.606  0.4982 -0.4977  0.1758
 6135SOL    HW130041   4.350   0.823   0.693 -1.3081 -0.4309  0.8360
 6135SOL    HW230042   4.398   0.860   0.553 -1.0543  3.2149 -1.2947
 6136SOL     OW30043   1.744   2.541   1.224 -0.1827  0.1335  0.5698
 6136SOL    HW130044   1.708   2.605   1.163  2.1937  1.3690  0.4402
 6136SOL    HW230045   1.669   2.497   1.263 -0.4647 -0.8583 -1.1110
 6137SOL     OW30046   2.887   0.568   7.770 -1.1525  0.2080  0.0329
 6137SOL    HW130047   2.898   0.480   7.735 -0.2782  0.8557 -1.3130
 6137SOL    HW230048   2.889   0.620   7.690  0.2465 -0.3376 -0.2869
 6138SOL     OW30049   1.698   0.900   7.284  0.0068 -0.8160 -0.1237
 6138SOL    HW130050   1.701   0.968   7.352  0.8215 -0.1625 -0.8153
 6138SOL    HW230051   1.615   0.926   7.245  1.5195  1.9908 -1.4179
 6139SOL     OW30052   2.551   0.050   0.642 -0.4448  0.4238 -0.1612
 6139SOL    HW130053   2.645   0.049   0.622 -0.5820 -3.0922 -0.6360
 6139SOL    HW230054   2.505   0.064   0.559 -0.7227  0.7154  0.0436
 6140SOL     OW30055   0.627   0.361   8.659 -0.1008 -0.0358 -0.2204
 6140SOL    HW130056   0.608   0.388   8.569  0.2348  4.1702  0.9901
 6140SOL    HW230057   0.702   0.305   8.639 -0.5124 -1.1487  1.3588
 6141SOL     OW30058   2.196   1.767   2.498 -0.4679 -0.3394  0.0342
 6141SOL    HW130059   2.266   1.710   2.531 -0.4586  0.0825  0.7389
 6141SOL    HW230060   2.236   1.841   2.454  0.5306 -0.6971  0.3425
 6142SOL     OW30061   0.317   2.150   8.917  0.4038 -0.4896  0.0339
 6142SOL    HW130062   0.285   2.140   8.827 -0.8719  1.6092  0.2592
 6142SOL    HW230063   0.405   2.184   8.905 -0.5747  2.1253  0.2843
 6143SOL     OW30064   1.013   4.597  16.969  0.0671 -0.0552 -0.1031
 6143SOL    HW130065   1.020   4.679  16.920 -1.8929  0.8619  1.1810
 6143SOL    HW230066   0.998   4.531  16.901  0.1975  2.9597 -3.0943
 6144SOL     OW30067   1.848   4.150   3.149 -0.2473  0.4715  0.0392
 6144SOL    HW130068   1.766   4.100   3.145  0.2833 -0.2650 -1.8803
 6144SOL    HW230069   1.848   4.187   3.060  2.2764  2.0377  0.7197
 6145SOL     OW30070   0.478   4.485   9.301 -0.5357  0.3754  0.6722
 6145SOL    HW130071   0.462   4.464   9.393  3.9214 -2.3692  0.8554
 6145SOL    HW230072   0.533   4.409   9.280  0.3038  1.4210 -0.9130
 6146SOL     OW30073   1.072   3.071  16.979  0.0864 -0.2688 -0.0221
 6146SOL    HW130074   1.024   3.000  16.934 -1.6673  0.6663  0.3715
 6146SOL    HW230075   1.012   3.143  16.959  0.5000  0.2131  0.4832
 6147SOL     OW30076   3.775   3.387   5.028  0.3430  0.5134 -0.1227
 6147SOL    HW130077   3.755   3.330   4.953  1.0370 -1.5901  1.3163
 6147SOL    HW230078   3.690   3.392   5.072 -0.0033  0.5645 -0.7828
 6148SOL     OW30079   3.027   1.009   1.054 -0.5492  0.0417  0.0911
 6148SOL    HW130080   3.100   1.071   1.060  0.4764 -1.2223  0.6525
 6148SOL    HW230081   2.947   1.062   1.060 -0.5199 -0.0843  1.8679
 6149SOL     OW30082   1.717   0.737   3.011  0.7550 -0.2575  0.0391
 6149SOL    HW130083   1.642   0.732   2.951 -0.7605 -1.6101  2.0346
 6149SOL    HW230084   1.727   0.832   3.017  0.8495 -0.3409  1.2243
 6150SOL     OW30085   0.904   3.189  13.829  0.4957  0.2635 -0.2711
 6150SOL    HW130086   0.937   3.180  13.918  0.9890  0.5031 -0.4288
 6150SOL    HW230087   0.898   3.098  13.802 -0.8041  0.3312 -0.2297
 6151SOL     OW30088   3.013   0.304   7.243 -0.9920  0.0572  0.4151
 6151SOL    HW130089   3.092   0.261   7.276 -1.6266 -0.7160  0.9297
 6151SOL    HW230090   2.998   0.345   7.329 -0.5405 -1.1045  1.0536
 6152SOL     OW30091   4.573   2.113   1.909 -0.4802 -0.2976 -0.3299
 6152SOL    HW130092   4.511   2.184   1.892  1.7491  2.0208  1.1061
 6152SOL    HW230093   4.586   2.128   2.003 -3.0181  1.9019 -0.3552
 6153SOL     OW30094   1.561   3.894   1.674  0.0978  0.0911  0.0203
 6153SOL    HW130095   1.578   3.981   1.637  0.7692  0.9574  2.3624
 6153SOL    HW230096   1.623   3.841   1.624  1.9406  0.6024  1.7324
 6154SOL     OW30097   3.374   0.447   1.356  0.0776 -0.2296 -0.4671
 6154SOL    HW130098   3.355   0.536   1.326  1.0377  0.0934 -0.1208
 6154SOL    HW230099   3.403   0.401   1.278  0.1816  2.8128 -2.2419
 6155SOL     OW30100   1.654   4.737   9.410 -0.0113  0.3526 -0.1857
 6155SOL    HW130101   1.621   0.017   9.498  0.4850 -1.2985  0.3602
 6155SOL    HW230102   1.601   4.660   9.389  1.0006 -1.0448  2.4738
 6156SOL     OW30103   3.469   1.328   3.963 -0.1168  0.2540  0.3931
 6156SOL    HW130104   3.553   1.367   3.936  0.2428 -0.0510  1.0742
 6156SOL    HW230105   3.478   1.330   4.058 -2.3879  0.4985  0.5980
 6157SOL     OW30106   2.406   1.474  17.071  0.2360 -0.4062 -0.0952
 6157SOL    HW130107   2.434   1.561  17.043 -0.5274 -0.4616 -1.0055
 6157SOL    HW230108   2.354   1.490  17.150  0.7137 -0.9027  0.3268
 6158SOL     OW30109   2.773   0.475   7.434  0.1672  0.0113 -0.0868
 6158SOL    HW130110   2.694   0.512   7.474  1.2949  1.2734  0.9605
 6158SOL    HW230111   2.747   0.501   7.345 -1.2555 -2.1954 -0.3296
 6159SOL     OW30112   2.636   0.408   4.479  0.1935  0.9499  0.0573
 6159SOL    HW130113   2.594   0.340   4.425  1.4263 -0.1237  0.4397
 6159SOL    HW230114   2.568   0.421   4.546 -1.1521  1.8800 -1.4876
 6160SOL     OW30115   3.486   2.774   9.655 -0.2093 -0.2393  0.5829
 6160SOL    HW130116   3.481   2.750   9.748  0.0980  1.9844  1.1783
 6160SOL    HW230117   3.515   2.865   9.650  0.4388 -0.4891 -0.0951
 6161SOL     OW30118   2.827   1.973   8.669 -0.4970 -0.7755 -0.4410
 6161SOL    HW130119   2.902   2.007   8.620 -0.1467 -1.3091 -0.2823
 6161SOL    HW230120   2.769   2.048   8.681 -0.9759 -0.7524 -2.9646
 6162SOL     OW30121   0.481   1.524   2.464 -0.0783 -0.4451  0.1100
 6162SOL    HW130122   0.395   1.566   2.462 -0.4983 -1.3553 -0.8283
 6162SOL    HW230123   0.460   1.431   2.454  0.6025 -0.4987 -0.7874
 6163SOL     OW30124   2.948   0.365  16.834 -0.6827  0.5582  0.3829
 6163SOL    HW130125   2.922   0.457  16.831  4.4358  1.9500 -2.2562
 6163SOL    HW230126   2.863   0.323  16.847 -1.0751  1.8583  1.9890
 6164SOL     OW30127   2.878   0.660  17.098  0.4563 -0.5037 -0.2801
 6164SOL    HW130128   2.968   0.634  17.078  0.3163 -1.8715  0.9233
 6164SOL    HW230129   2.880   0.672  17.193  0.4826 -0.1002 -0.3306
 6165SOL     OW30130   0.148   4.579   6.686 -0.1821  0.0844 -0.2477
 6165SOL    HW130131   0.176   4.665   6.719  0.3817 -0.4449  0.6626
 6165SOL    HW230132   0.195   4.520   6.745  1.4145 -0.9414 -2.5808
 6166SOL     OW30133   0.582   1.039  15.149  0.5510  0.1708  0.3950
 6166SOL    HW130134   0.626   1.072  15.071 -0.4990  0.1553 -0.1986
 6166SOL    HW230135   0.588   0.944  15.145 -0.7567 -0.0062  2.5178
 6167SOL     OW30136   2.882   0.324   4.276  0.4303  0.4299 -0.1289
 6167SOL    HW130137   2.948   0.390   4.299 -1.5586  2.2772  0.2099
 6167SOL    HW230138   2.830   0.326   4.356 -1.6532  2.2492 -1.5320
 6168SOL     OW30139   0.434   1.970   2.458 -0.2976  0.0015 -0.1071
 6168SOL    HW130140   0.353   1.993   2.413 -0.8708  0.7637  1.3109
 6168SOL    HW230141   0.499   1.952   2.389 -0.3320 -0.3593 -0.0429
 6169SOL     OW30142   0.395   4.176  12.397  0.7937  0.4816 -0.4552
 6169SOL    HW130143   0.463   4.180  12.330 -0.4293  0.5382 -1.6787
 6169SOL    HW230144   0.380   4.081  12.404 -0.0132  0.3905 -3.6202
 6170SOL     OW30145   0.508   2.635   4.913  0.1259 -0.0501 -0.3745
 6170SOL    HW130146   0.595   2.638   4.952 -0.0518  1.6328 -0.1185
 6170SOL    HW230147   0.534   2.597   4.829  3.7113 -1.0434  1.2135
 6171SOL     OW30148   0.481   0.832   8.062  0.6634 -0.1788  0.2139
 6171SOL    HW130149   0.429   0.910   8.043 -0.8596 -1.1357  0.4689
 6171SOL    HW230150   0.544   0.865   8.126  0.1974  1.6267 -0.2583
 6172SOL     OW30151   3.268   0.857   7.217  0.5506  0.2659 -0.2035
 6172SOL    HW130152   3.190   0.880   7.166 -2.4496  1.0549  4.7341
 6172SOL    HW230153   3.280   0.936   7.270 -3.4432  0.6221  0.1540
 6173SOL     OW30154   3.228   2.410   2.430  0.2185  0.4270  0.3086
 6173SOL    HW130155   3.265   2.427   2.517 -1.7767  0.6095  1.1277
 6173SOL    HW230156   3.210   2.316   2.432  0.6266  0.3141 -1.3655
 6174SOL     OW30157   2.419   0.685  11.802  0.3865 -0.0145 -0.3568
 6174SOL    HW130158   2.397   0.693  11.709  0.5127 -0.3099 -0.4100
 6174SOL    HW230159   2.493   0.746  11.807  0.4002 -0.1896  1.5310
 6175SOL     OW30160   4.200   0.604   9.374  0.2949 -0.1177  0.2973
 6175SOL    HW130161   4.256   0.673   9.408 -0.3807  0.2494  0.6618
 6175SOL    HW230162   4.132   0.611   9.441 -1.1288 -4.1710 -0.7171
 6176SOL     OW30163   2.773   1.880   7.720 -0.4176 -0.1317  0.4160
 6176SOL    HW130164   2.720   1.899   7.642  0.7115 -0.2727 -0.3871
 6176SOL    HW230165   2.804   1.966   7.748  1.6481  0.3583 -3.2990
 6177SOL     OW30166   0.920   3.458   5.446 -0.0874  0.9192  0.0795
 6177SOL    HW130167   0.969   3.376   5.450 -1.1243  0.2337 -1.4593
 6177SOL    HW230168   0.993   3.520   5.447  0.9407 -0.3198  1.1938
 6178SOL     OW30169   3.812   3.006  10.228 -0.0076 -0.1417  0.4775
 6178SOL    HW130170   3.829   3.085  10.176 -0.6400 -0.9723 -0.9784
 6178SOL    HW230171   3.900   2.991  10.263 -0.3477 -0.5904  1.1465
 6179SOL     OW30172   4.020   0.174   0.049 -0.0751  0.0723  0.1663
 6179SOL    HW130173   3.937   0.221   0.040 -1.1106 -1.7923 -0.0617
 6179SOL    HW230174   4.075   0.251   0.064  0.1461 -0.4699  2.1185
 6180SOL     OW30175   1.054   0.061   9.029 -0.0577  0.0269  0.1985
 6180SOL    HW130176   1.081   0.066   8.937 -1.9071  0.5753 -0.3029
 6180SOL    HW230177   1.139   0.045   9.072 -0.0378 -0.6443 -0.0886
 6181SOL     OW30178   2.398   2.265   7.062  0.1633  0.1083 -0.5407
 6181SOL    HW130179   2.402   2.276   6.967  0.6204  1.1434 -0.3976
 6181SOL    HW230180   2.341   2.189   7.075  1.0751 -0.4384  0.2271
 6182SOL     OW30181   4.158   3.297  14.508 -0.2360 -0.1507  0.1630
 6182SOL    HW130182   4.167   3.333  14.420 -1.8231 -0.7584 -0.2541
 6182SOL    HW230183   4.075   3.251  14.496 -0.5616  0.3237  0.6469
 6183SOL     OW30184   0.105   1.908   9.012 -0.3289 -0.3153  0.4406
 6183SOL    HW130185   0.026   1.868   8.977  1.0605 -2.8108  0.2106
 6183SOL    HW230186   0.062   1.970   9.071 -1.7936 -1.1179  0.2078
 6184SOL     OW30187   0.591   4.125   7.704  0.3344 -0.1342  0.0282
 6184SOL    HW130188   0.682   4.126   7.735  0.7591  0.4811 -1.2409
 6184SOL    HW230189   0.559   4.205   7.747  4.4939  0.6891  1.6417
 6185SOL     OW30190   1.994   2.155   2.310  0.1646  0.5636 -0.0954
 6185SOL    HW130191   2.075   2.106   2.304 -1.2124 -1.5120 -1.6603
 6185SOL    HW230192   1.985   2.177   2.217 -0.5369 -0.1087 -0.1868
 6186SOL     OW30193   0.460   1.724   9.969 -0.0178  0.6207 -0.2094
 6186SOL    HW130194   0.535   1.709   9.911  0.0317 -0.1805  0.0604
 6186SOL    HW230195   0.386   1.719   9.908 -0.4741 -1.3742  0.5258
 6187SOL     OW30196   2.355   0.712   1.368  0.1727  0.0584  0.3357
 6187SOL    HW130197   2.394   0.727   1.455 -1.2763 -2.5688  1.4404
 6187SOL    HW230198   2.406   0.638   1.336 -0.0090  0.4156 -0.7845
 6188SOL     OW30199   0.135   1.043   5.833  0.1594  0.4982 -0.0547
 6188SOL    HW130200   0.083   1.004   5.762  2.0319  1.6733 -2.0879
 6188SOL    HW230201   0.222   1.018   5.803 -0.1263 -1.1439  0.4959
 6189SOL     OW30202   1.756   4.257   5.362 -0.9179  0.2380 -0.3454
 6189SOL    HW130203   1.805   4.284   5.285  0.1529 -1.3535 -0.2168
 6189SOL    HW230204   1.823   4.193   5.387 -2.6521 -1.3567  0.1637
 6190SOL     OW30205   1.632   0.358   4.682  0.2604  0.0501 -0.0299
 6190SOL    HW130206   1.605   0.390   4.596  0.6125  0.4375  0.0015
 6190SOL    HW230207   1.666   0.275   4.649  2.2898 -0.0497  2.2549
 6191SOL     OW30208   4.325   2.327   8.527 -0.2948  0.2649 -0.0798
 6191SOL    HW130209   4.386   2.324   8.600  0.6684 -1.3495 -0.9401
 6191SOL    HW230210   4.353   2.248   8.481  1.5304  1.2070 -0.5730
 6192SOL     OW30211   2.714   3.259   4.496  0.2927 -0.2625 -0.1904
 6192SOL    HW130212   2.786   3.228   4.551  1.8054  0.8818 -1.5028
 6192SOL    HW230213   2.659   3.183   4.479  0.0812 -0.1021 -0.2133
 6193SOL     OW30214   2.772   2.857   4.546  0.2136  0.7270  0.1255
 6193SOL    HW130215   2.683   2.822   4.539  1.5569 -3.2789  2.8621
 6193SOL    HW230216   2.811   2.812   4.471  1.4462  0.8066  0.7133
 6194SOL     OW30217   3.775   0.857   6.760  0.6057  0.7376 -0.1127
 6194SOL    HW130218   3.774   0.929   6.823  0.6696  1.2934 -0.7485
 6194SOL    HW230219   3.803   0.783   6.814 -0.4498  0.3608 -0.0772
 6195SOL     OW30220   1.499   2.008   2.878  0.4896 -0.3793 -0.2641
 6195SOL    HW130221   1.407   1.983   2.870  0.2827 -0.1637  1.3939
 6195SOL    HW230222   1.497   2.043   2.967 -1.0872  0.5436 -0.6756
 6196SOL     OW30223   2.234   2.389  16.101 -0.3035 -0.5759  0.1833
 6196SOL    HW130224   2.221   2.433  16.185 -1.3134  0.0483 -0.3012
 6196SOL    HW230225   2.188   2.307  16.121 -0.0029 -1.3428 -2.3434
 6197SOL     OW30226   4.269   0.587   0.353 -0.2589  0.0721  0.0344
 6197SOL    HW130227   4.282   0.653   0.285 -0.5468  2.4139  2.2396
 6197SOL    HW230228   4.339   0.525   0.334 -1.5046 -0.6419 -2.2101
 6198SOL     OW30229   2.809   2.356   3.782 -0.3011  0.6594 -0.4775
 6198SOL    HW130230   2.856   2.352   3.866 -0.7292 -0.5346 -0.2894
 6198SOL    HW230231   2.726   2.389   3.816 -0.3637 -1.5565  1.5471
 6199SOL     OW30232   0.396   0.827   6.663  0.1614  0.0545  0.1181
 6199SOL    HW130233   0.443   0.776   6.597  1.6441  1.4412  0.1052
 6199SOL    HW230234   0.313   0.840   6.616 -0.8379  0.6638  2.0492
 6200SOL     OW30235   2.045   0.885  11.955  0.4448  0.3025  0.0185
 6200SOL    HW130236   2.132   0.880  11.994  0.9430  0.5483 -1.0455
 6200SOL    HW230237   2.025   0.791  11.959 -1.8694  0.7833 -0.2874
 6201SOL     OW30238   4.724   2.271  16.657 -0.2680 -0.5534  0.3269
 6201SOL    HW130239   4.682   2.266  16.743 -2.4656  0.0061 -0.7082
 6201SOL    HW230240   4.688   2.350  16.618  2.3848  1.9415  2.9765
 6202SOL     OW30241   4.122   0.432  15.674  0.1345 -0.2089 -0.3757
 6202SOL    HW130242   4.166   0.419  15.590 -1.2642  0.3762 -1.2019
 6202SOL    HW230243   4.044   0.480  15.648 -0.2182 -0.2260  0.6481
 6203SOL     OW30244   1.493   4.307   4.911 -0.2306  0.0662  0.3090
 6203SOL    HW130245   1.567   4.317   4.969 -0.9662 -2.6803  1.7215
 6203SOL    HW230246   1.500   4.395   4.873  1.0886 -0.0500  0.2847
 6204SOL     OW30247   1.549   0.890   2.118  0.2867  0.4628 -0.5924
 6204SOL    HW130248   1.517   0.979   2.106  3.1443  1.3954 -1.4329
 6204SOL    HW230249   1.560   0.898   2.212 -1.4946 -0.1419 -0.3265
 6205SOL     OW30250   2.281   1.302  13.776 -0.0091  0.2848 -0.5062
 6205SOL    HW130251   2.236   1.304  13.861  2.5259 -0.7579  0.8640
 6205SOL    HW230252   2.242   1.224  13.735 -0.1200 -1.0397  2.1134
 6206SOL     OW30253   2.493   0.508   5.287 -0.7817 -0.5008  0.2295
 6206SOL    HW130254   2.464   0.516   5.196 -0.2490 -0.7372  0.0367
 6206SOL    HW230255   2.569   0.565   5.280 -1.1165 -0.0622  0.2005
 6207SOL     OW30256   4.433   3.363   8.550  0.6509 -0.2109  0.5330
 6207SOL    HW130257   4.454   3.440   8.496  1.6724  0.8781  2.4719
 6207SOL    HW230258   4.393   3.302   8.488  2.4653 -0.6212 -0.2503
 6208SOL     OW30259   1.297   2.963   5.817 -0.5841  0.1643 -0.0427
 6208SOL    HW130260   1.303   2.871   5.792 -0.4848  0.1638 -0.0166
 6208SOL    HW230261   1.364   2.968   5.885 -2.2318 -0.1141  1.5839
 6209SOL     OW30262   0.390   0.661  17.693 -0.3674  0.0507  0.1341
 6209SOL    HW130263   0.383   0.566  17.707  0.5662 -0.1163 -0.5365
 6209SOL    HW230264   0.430   0.669  17.607 -0.9851  1.9567  0.0156
 6210SOL     OW30265   3.730   4.705  17.666  0.4752 -0.0538  0.1977
 6210SOL    HW130266   3.689   4.626  17.631  1.9510 -0.1756 -1.2283
 6210SOL    HW230267   3.715   0.032  17.600  2.8514 -0.4384 -0.7518
 6211SOL     OW30268   1.488   0.806   4.315 -0.2176 -0.0145  0.1836
 6211SOL    HW130269   1.433   0.728   4.313  1.2828 -1.1423  4.3150
 6211SOL    HW230270   1.485   0.828   4.222 -0.9219  0.4939  0.3286
 6212SOL     OW30271   2.841   1.003   1.782 -0.5009 -0.0327  0.5342
 6212SOL    HW130272   2.774   0.935   1.788 -1.2203  0.7589  1.2382
 6212SOL    HW230273   2.813   1.049   1.861 -0.3748  3.1703 -1.3071
 6213SOL     OW30274   3.254   1.065   7.398  0.1177 -0.1493  0.3503
 6213SOL    HW130275   3.244   1.159   7.384 -0.3373 -0.0495  1.3261
 6213SOL    HW230276   3.163   1.037   7.397  0.2358 -0.4966 -0.2780
 6214SOL     OW30277   3.301   1.821   6.494  0.3405  0.2405 -0.3980
 6214SOL    HW130278   3.255   1.812   6.411  1.7228 -3.8824 -0.7119
 6214SOL    HW230279   3.225   1.827   6.552 -0.8940 -2.7154 -1.7261
 6215SOL     OW30280   2.988   0.387   3.682 -0.3767 -0.5795  0.7512
 6215SOL    HW130281   2.987   0.314   3.620  1.0407 -2.0985  2.5054
 6215SOL    HW230282   3.076   0.360   3.709  0.6934  0.0516 -2.0961
 6216SOL     OW30283   3.277   1.470   4.951 -0.4062 -0.3056 -0.4734
 6216SOL    HW130284   3.251   1.384   4.983  1.9511 -0.1837  1.7435
 6216SOL    HW230285   3.220   1.469   4.874  0.1521 -0.4134 -0.8806
 6217SOL     OW30286   4.674   1.231   9.247 -0.1570 -0.3241  0.5122
 6217SOL    HW130287   4.628   1.188   9.319 -1.0660  3.0583  1.9813
 6217SOL    HW230288   4.615   1.192   9.182  0.2409 -1.8209  1.0471
 6218SOL     OW30289   2.495   2.774   5.897 -0.2176  0.4770 -0.1351
 6218SOL    HW130290   2.425   2.792   5.961 -0.0914 -2.3977  0.7959
 6218SOL    HW230291   2.552   2.719   5.950  1.1642 -0.0883 -2.2318
 6219SOL     OW30292   1.210   2.015   6.666 -0.6434  0.0182 -0.2176
 6219SOL    HW130293   1.195   2.044   6.576  0.3315 -1.3022 -0.7999
 6219SOL    HW230294   1.138   1.951   6.661 -1.8953  1.1316  3.2828
 6220SOL     OW30295   2.870   1.104   7.960  0.3564  0.4647 -0.6857
 6220SOL    HW130296   2.875   1.015   7.995  1.3018  0.0002 -1.9870
 6220SOL    HW230297   2.803   1.095   7.894 -1.6418  1.8379  1.1578
 6221SOL     OW30298   3.968   0.659   4.375 -0.6384  0.5844 -0.0605
 6221SOL    HW130299   3.882   0.698   4.388 -0.2815  0.4795  2.6169
 6221SOL    HW230300   3.990   0.694   4.288  1.1242 -0.1649  0.0691
 6222SOL     OW30301   1.337   2.028   0.599  0.0030  0.0175 -0.1830
 6222SOL    HW130302   1.289   1.946   0.590  0.4375 -0.2544 -0.0342
 6222SOL    HW230303   1.268   2.085   0.564  0.8365  0.4838 -1.0625
 6223SOL     OW30304   1.694   3.855  11.599  0.4264  0.4655 -0.2928
 6223SOL    HW130305   1.777   3.841  11.554  1.0812  0.6890  0.8337
 6223SOL    HW230306   1.657   3.928  11.549  0.6250  0.9081  0.1932
 6224SOL     OW30307   2.686   1.555   5.207  0.8992 -0.2726 -0.0744
 6224SOL    HW130308   2.627   1.516   5.142  2.2268 -0.5739 -1.1159
 6224SOL    HW230309   2.741   1.486   5.245  2.1307  1.3168  0.9822
 6225SOL     OW30310   3.729   2.847  14.767 -0.4647  0.2280  0.1638
 6225SOL    HW130311   3.816   2.879  14.741 -0.6412  0.4651 -0.1484
 6225SOL    HW230312   3.690   2.832  14.681 -0.6419  2.4106 -0.1507
 6226SOL     OW30313   4.424   4.273  10.082  0.1043 -0.4467 -0.2988
 6226SOL    HW130314   4.427   4.347  10.023  0.5615 -1.2167 -1.2327
 6226SOL    HW230315   4.424   4.207  10.012 -1.0667 -1.9548  1.1028
 6227SOL     OW30316   1.224   2.606   6.708 -0.0141  0.0238  0.3595
 6227SOL    HW130317   1.144   2.554   6.703 -2.5314  3.9161 -0.5230
 6227SOL    HW230318   1.198   2.666   6.778 -1.2558 -0.9709  0.7511
 6228SOL     OW30319   1.577   3.671   6.659 -0.1532 -0.1603  0.2284
 6228SOL    HW130320   1.576   3.707   6.570 -0.5158 -2.6042 -0.7395
 6228SOL    HW230321   1.644   3.732   6.692  1.2322 -1.7432  0.3225
 6229SOL     OW30322   4.502   3.165   7.088  0.0866 -0.4657  0.3181
 6229SOL    HW130323   4.435   3.096   7.085 -1.0259  0.7925 -3.6056
 6229SOL    HW230324   4.569   3.122   7.035  1.3368 -2.2872  3.4090
 6230SOL     OW30325   3.845   4.233   4.429  0.1107 -0.0034 -0.6881
 6230SOL    HW130326   3.826   4.236   4.523  1.2232  1.1076 -0.4934
 6230SOL    HW230327   3.760   4.209   4.392 -0.1922  0.5389 -0.3602
 6231SOL     OW30328   0.317   2.857  12.534  0.4361  0.3188 -0.0742
 6231SOL    HW130329   0.376   2.783  12.519  0.3867  0.3706 -0.5226
 6231SOL    HW230330   0.309   2.852  12.629  2.4635  1.0082  0.1390
 6232SOL     OW30331   0.290   1.163   2.162 -0.3793 -0.1886  0.0036
 6232SOL    HW130332   0.342   1.127   2.091  0.7220  2.3378 -0.4676
 6232SOL    HW230333   0.348   1.164   2.238 -1.3007 -1.2050  0.7206
 6233SOL     OW30334   1.709   3.201   5.327  0.1566  0.0082  0.1788
 6233SOL    HW130335   1.725   3.218   5.419  0.3506 -0.4135  0.2247
 6233SOL    HW230336   1.644   3.132   5.338  0.5242 -0.1248  1.4652
 6234SOL     OW30337   2.771   4.535   4.976  0.1437  0.3451  0.1373
 6234SOL    HW130338   2.861   4.559   4.953  0.5042 -1.6493 -0.5234
 6234SOL    HW230339   2.726   4.617   4.997 -0.8313 -0.3766  0.8766
 6235SOL     OW30340   0.221   1.210  14.884 -0.4378  0.0489  0.3054
 6235SOL    HW130341   0.229   1.222  14.979  0.4567 -1.9168  0.4731
 6235SOL    HW230342   0.126   1.221  14.874 -0.8316 -1.5575  2.1564
 6236SOL     OW30343   3.921   1.458   7.415  0.3361  0.2115  0.5106
 6236SOL    HW130344   3.868   1.459   7.495 -0.1657  0.7299  0.1760
 6236SOL    HW230345   3.999   1.503   7.446  0.9428 -0.9983  0.7364
 6237SOL     OW30346   3.307   2.196   2.764  0.3426 -0.2042  0.7038
 6237SOL    HW130347   3.280   2.137   2.835  0.6064 -1.0935  0.0655
 6237SOL    HW230348   3.285   2.147   2.685  1.0843 -3.0126  2.2427
 6238SOL     OW30349   3.831   0.364  17.181  0.5911  0.2590 -0.4854
 6238SOL    HW130350   3.852   0.356  17.274 -0.2829  0.5787 -0.2632
 6238SOL    HW230351   3.760   0.300  17.173 -0.3399  1.4255 -1.6270
 6239SOL     OW30352   4.033   3.082   8.959  0.2747  0.7489  0.0163
 6239SOL    HW130353   4.022   2.988   8.945 -0.3146  0.7036  0.7482
 6239SOL    HW230354   4.015   3.082   9.053 -0.3638  0.8550 -0.0993
 6240SOL     OW30355   1.107   4.611   6.481 -0.3351  0.4105  0.6852
 6240SOL    HW130356   1.073   4.571   6.561 -0.4299 -2.2574 -0.7078
 6240SOL    HW230357   1.045   4.625   6.409 -1.5453 -1.8094  1.2926
 6241SOL     OW30358   0.530   0.696   3.617  0.6332  0.2493  0.0585
 6241SOL    HW130359   0.531   0.791   3.621 -0.9023  0.3582 -2.0454
 6241SOL    HW230360   0.520   0.689   3.522  1.0054  2.1506 -0.1263
 6242SOL     OW30361   1.588   4.665   1.865  0.4145 -0.3150  0.6332
 6242SOL    HW130362   1.565   4.579   1.899 -1.3082 -0.2343 -0.3194
 6242SOL    HW230363   1.586   4.724   1.940  0.6593 -0.2373  0.5787
 6243SOL     OW30364   1.366   0.663   0.535  0.0371  0.2799  0.2762
 6243SOL    HW130365   1.321   0.602   0.594  0.0106 -2.4935 -2.6214
 6243SOL    HW230366   1.302   0.673   0.466  0.4168 -0.0365 -0.1218
 6244SOL     OW30367   1.888   2.348   2.421 -0.1820  0.6090  0.1021
 6244SOL    HW130368   1.807   2.334   2.372  0.9090 -5.8543  0.2663
 6244SOL    HW230369   1.926   2.272   2.379  3.4036  2.3322  0.2122
 6245SOL     OW30370   3.222   3.930   6.873  0.1820 -0.7359 -0.0073
 6245SOL    HW130371   3.177   3.848   6.853  0.8960 -1.2667  0.5561
 6245SOL    HW230372   3.274   3.946   6.794 -0.6106  2.4156  0.0839
 6246SOL     OW30373   3.292   4.625   7.278 -0.0979  0.1205  0.4390
 6246SOL    HW130374   3.381   4.631   7.243 -0.2570  0.6371  0.1334
 6246SOL    HW230375   3.279   4.530   7.278 -0.2497  0.1448 -1.2813
 6247SOL     OW30376   0.222   0.007   2.688  0.8934  0.1611  0.3987
 6247SOL    HW130377   0.184   0.057   2.760  0.8765 -1.2228  1.3526
 6247SOL    HW230378   0.173   0.046   2.616 -0.4414  0.6489  1.5814
 6248SOL     OW30379   2.009   3.954   9.597 -0.6558  0.2806  0.2611
 6248SOL    HW130380   1.916   3.973   9.606 -0.9327  0.0130 -2.0021
 6248SOL    HW230381   2.013   3.863   9.626  0.7835  0.3579  0.3014
 6249SOL     OW30382   1.233   2.412   4.767  0.1855  0.3076  0.1865
 6249SOL    HW130383   1.321   2.377   4.750  0.5021  1.6279 -0.8868
 6249SOL    HW230384   1.249   2.452   4.852  0.3637  1.1494 -0.2448
 6250SOL     OW30385   0.075   4.242   8.178  0.6862 -0.0635 -0.1499
 6250SOL    HW130386   0.146   4.222   8.239  0.0918 -0.8848  0.2689
 6250SOL    HW230387   0.000   4.203   8.223  0.5526 -2.1157 -2.1104
 6251SOL     OW30388   3.009   1.775   2.464 -0.2546 -0.2569  0.6424
 6251SOL    HW130389   3.075   1.802   2.528  0.2328  0.1172 -0.0233
 6251SOL    HW230390   2.931   1.749   2.513  1.5117 -1.6872  2.7271
 6252SOL     OW30391   1.459   3.891   3.704 -0.6827 -0.0587  0.1023
 6252SOL    HW130392   1.374   3.876   3.745 -0.4260  0.8573  0.9550
 6252SOL    HW230393   1.515   3.898   3.782 -2.2583  1.4559  1.0838
 6253SOL     OW30394   0.383   3.389   5.532  0.3584  0.5157 -0.0426
 6253SOL    HW130395   0.288   3.386   5.528  0.3593  0.9595 -0.3348
 6253SOL    HW230396   0.387   3.367   5.625  0.4116  1.6247  0.2128
 6254SOL     OW30397   3.075   3.248   5.125 -0.4708 -0.5383 -0.7656
 6254SOL    HW130398   3.048   3.170   5.076 -0.6443 -0.4662 -0.7848
 6254SOL    HW230399   3.020   3.312   5.080 -0.9116  0.6947  1.5369
 6255SOL     OW30400   1.888   2.908  12.382 -0.1232  0.2586  0.0728
 6255SOL    HW130401   1.797   2.894  12.407 -0.6166 -2.3325 -3.2497
 6255SOL    HW230402   1.929   2.899  12.468  0.1936 -1.5858 -0.2822
 6256SOL     OW30403   3.917   1.631   3.572  0.2128  0.0970 -0.2454
 6256SOL    HW130404   3.975   1.698   3.537  1.4560 -0.1629  1.3145
 6256SOL    HW230405   3.966   1.549   3.563 -1.8863 -1.4195  1.9382
 6257SOL     OW30406   0.930   2.120  17.327 -0.4062  0.4464 -0.0147
 6257SOL    HW130407   0.869   2.150  17.260 -1.3520 -2.3487 -0.3932
 6257SOL    HW230408   0.945   2.193  17.387 -0.7806  0.4005  0.1351
 6258SOL     OW30409   4.118   4.113   6.830  0.0182  0.0786 -0.0478
 6258SOL    HW130410   4.196   4.150   6.789 -1.1594  3.2608  0.5837
 6258SOL    HW230411   4.116   4.148   6.919  2.1552 -0.5871  0.2423
 6259SOL     OW30412   2.229   3.206   1.504 -0.2449 -0.2146 -0.2243
 6259SOL    HW130413   2.279   3.287   1.489  1.2557 -0.9439  0.9609
 6259SOL    HW230414   2.233   3.196   1.599 -1.9457 -0.5456 -0.1881
 6260SOL     OW30415   1.153   4.226   6.456  0.1066 -0.0631 -0.1608
 6260SOL    HW130416   1.109   4.302   6.495 -0.5286 -0.8252  0.6074
 6260SOL    HW230417   1.081   4.164   6.444  0.9631 -0.9317 -0.7645
 6261SOL     OW30418   3.798   3.487  11.290 -0.0685  0.1665  0.5635
 6261SOL    HW130419   3.875   3.517  11.339 -0.5749  1.3219  0.6412
 6261SOL    HW230420   3.789   3.395  11.313  0.8732 -0.1388 -0.2724
 6262SOL     OW30421   3.684   3.990   8.438  0.1418 -0.6289  0.2954
 6262SOL    HW130422   3.672   3.989   8.532 -1.1047 -3.5949  0.0808
 6262SOL    HW230423   3.611   4.047   8.414 -0.4575 -1.0261  1.2288
 6263SOL     OW30424   2.002   0.149   4.333 -0.1822  0.0790  0.2260
 6263SOL    HW130425   2.083   0.193   4.361 -0.8409  1.7942 -0.5570
 6263SOL    HW230426   1.961   0.233   4.312  0.8670  0.1287 -1.6299
 6264SOL     OW30427   4.691   2.819   6.332 -0.1068  0.3768 -0.5760
 6264SOL    HW130428   0.042   2.849   6.343  0.4654 -1.6362  0.2383
 6264SOL    HW230429   4.709   2.741   6.280 -1.3914 -0.6672  0.5348
 6265SOL     OW30430   0.457   3.780  17.416  0.6065 -0.0042  0.5004
 6265SOL    HW130431   0.409   3.786  17.498 -3.4019  2.0328 -1.9703
 6265SOL    HW230432   0.456   3.872  17.389  1.2885 -1.3771 -4.2881
 6266SOL     OW30433   0.131   2.116  13.440 -0.4925 -0.0051 -0.2266
 6266SOL    HW130434   0.048   2.154  13.469  0.1477  1.3855 -0.2529
 6266SOL    HW230435   0.195   2.176  13.478 -2.7959  0.8552  2.2763
 6267SOL     OW30436   0.717   4.483   3.073 -0.2421 -0.6608  0.6644
 6267SOL    HW130437   0.760   4.407   3.114 -0.0996 -0.9990 -0.1059
 6267SOL    HW230438   0.694   4.433   2.994  1.8360 -0.5377 -0.0083
 6268SOL     OW30439   1.670   4.700   9.987  0.0112  0.3565  0.1964
 6268SOL    HW130440   1.605   4.699  10.057  0.9302 -0.5958  1.0270
 6268SOL    HW230441   1.729   0.018  10.036 -0.7969  2.8838 -1.7856
 6269SOL     OW30442   0.156   0.197   3.886 -0.0675  0.3061  0.5637
 6269SOL    HW130443   0.206   0.212   3.966 -1.0135  0.5199  1.1142
 6269SOL    HW230444   0.169   0.281   3.843  1.2352 -0.3834 -0.3942
 6270SOL     OW30445   1.173   4.678   3.609 -0.0164 -0.2608 -0.1430
 6270SOL    HW130446   1.091   4.715   3.575 -0.2982  0.2945  1.1250
 6270SOL    HW230447   1.138   4.599   3.649 -0.8309 -1.1085 -2.5294
 6271SOL     OW30448   4.008   3.246   5.456 -0.1183 -0.0346 -0.0614
 6271SOL    HW130449   4.103   3.231   5.450 -0.4162 -1.5262 -0.8199
 6271SOL    HW230450   3.973   3.169   5.412  1.7548 -0.2776 -1.1486
 6272SOL     OW30451   3.350   3.258   9.178 -0.5311  0.5231 -0.0410
 6272SOL    HW130452   3.417   3.197   9.208 -0.8305  0.0401 -0.3450
 6272SOL    HW230453   3.283   3.251   9.245 -0.9737  2.7131 -0.2669
 6273SOL     OW30454   2.694   1.368   2.721  0.0579 -0.0652 -0.4363
 6273SOL    HW130455   2.643   1.339   2.796 -1.2343  0.6458 -1.0402
 6273SOL    HW230456   2.776   1.369   2.771 -0.5756  1.4878  0.5759
 6274SOL     OW30457   1.075   1.432   3.211  0.6689 -0.7965 -0.6247
 6274SOL    HW130458   1.018   1.368   3.167  1.5110 -1.8166 -0.2205
 6274SOL    HW230459   1.136   1.458   3.142  0.5305  2.3750  0.4659
 6275SOL     OW30460   4.128   1.382   6.252 -0.4433 -0.3714 -0.1839
 6275SOL    HW130461   4.039   1.349   6.238  0.3950 -1.2943 -3.4735
 6275SOL    HW230462   4.125   1.403   6.345 -2.2562 -0.7311 -0.1647
 6276SOL     OW30463   2.395   4.101   0.939  0.6907 -0.5108  0.3610
 6276SOL    HW130464   2.402   4.196   0.933  0.8775 -0.5015  0.6835
 6276SOL    HW230465   2.465   4.077   1.001 -0.7570 -1.5497  1.6196
 6277SOL     OW30466   1.859   3.067   9.233  0.0545  0.3548 -0.2722
 6277SOL    HW130467   1.885   3.108   9.150  0.9562 -0.4827 -0.4034
 6277SOL    HW230468   1.766   3.054   9.213  0.5106 -1.2237 -1.3396
 6278SOL     OW30469   0.767   4.347   8.493 -0.5586 -0.0479 -0.1455
 6278SOL    HW130470   0.772   4.289   8.417 -0.4385 -1.2343  0.7695
 6278SOL    HW230471   0.861   4.361   8.486 -0.1413 -1.7532  1.8939
 6279SOL     OW30472   0.395   2.795   2.336  0.0824 -0.1453 -0.1245
 6279SOL    HW130473   0.423   2.873   2.384  1.4543  0.4053 -1.7983
 6279SOL    HW230474   0.478   2.746   2.334  0.6497  0.8745 -2.3969
 6280SOL     OW30475   1.986   4.640   1.795 -0.3181  0.2846 -0.4235
 6280SOL    HW130476   1.913   4.701   1.796 -0.8908 -0.4141  0.8639
 6280SOL    HW230477   2.053   4.681   1.850 -1.0677  1.3136 -0.2856
 6281SOL     OW30478   0.249   0.560  10.650 -0.1320 -0.0669 -0.2705
 6281SOL    HW130479   0.340   0.556  10.677  0.0770  0.8358 -0.8566
 6281SOL    HW230480   0.259   0.637  10.594  0.9527 -0.2258 -0.2939
 6282SOL     OW30481   4.559   1.590   9.813  0.5139  0.2851  0.1302
 6282SOL    HW130482   4.524   1.619   9.898  0.4160  1.5700 -0.3535
 6282SOL    HW230483   4.482   1.552   9.772 -0.1250  0.5839  1.0507
 6283SOL     OW30484   3.808   0.730  10.252 -0.3713 -0.1009  0.0297
 6283SOL    HW130485   3.814   0.760  10.342 -0.1790  0.3985 -0.1506
 6283SOL    HW230486   3.740   0.663  10.247 -0.6203  0.0966  0.8555
 6284SOL     OW30487   2.788   0.763   5.771  0.5119  0.1605  0.2300
 6284SOL    HW130488   2.811   0.844   5.725 -2.1895  2.0011  2.0807
 6284SOL    HW230489   2.869   0.714   5.761  0.1845 -0.4702  0.7158
 6285SOL     OW30490   4.508   1.784   5.119  0.3246  0.5672  0.1327
 6285SOL    HW130491   4.594   1.825   5.135  1.8585 -2.0144 -1.5851
 6285SOL    HW230492   4.529   1.691   5.113 -0.2689  0.4543 -0.1676
 6286SOL     OW30493   0.650   4.054   1.928  0.3653 -0.5648 -0.1736
 6286SOL    HW130494   0.653   4.035   1.834  0.2806  3.6415 -0.9958
 6286SOL    HW230495   0.590   4.128   1.934  1.4567  0.3027 -0.0059
 6287SOL     OW30496   0.478   3.465  17.535 -0.0273  0.2225  0.1852
 6287SOL    HW130497   0.402   3.467  17.477  1.1824  1.0751 -1.3497
 6287SOL    HW230498   0.553   3.492  17.482  0.1841 -1.2902 -0.3000
 6288SOL     OW30499   0.312   4.556   7.325  0.2628 -0.2338  0.6542
 6288SOL    HW130500   0.320   4.628   7.387  0.8749  0.1981  0.0814
 6288SOL    HW230501   0.222   4.528   7.338 -0.5289  1.3333 -1.2740
 6289SOL     OW30502   0.952   1.605   0.859 -0.2393  0.4539  0.0125
 6289SOL    HW130503   0.946   1.667   0.932 -0.0889  2.4595 -1.6720
 6289SOL    HW230504   0.861   1.597   0.832 -0.8172  2.7975  1.2402
 6290SOL     OW30505   3.739   2.984  15.006 -0.2857 -0.6184  0.2433
 6290SOL    HW130506   3.758   3.075  14.981 -0.9593 -0.7061 -0.5664
 6290SOL    HW230507   3.735   2.948  14.918 -1.5433  2.9056 -1.1484
 6291SOL     OW30508   0.051   2.634   9.408 -0.2418 -0.6727  0.3956
 6291SOL    HW130509   0.080   2.716   9.368 -0.2496 -0.5639  0.6161
 6291SOL    HW230510   4.697   2.654   9.404  0.3454  1.6793 -1.1989
 6292SOL     OW30511   2.588   2.500   3.901 -0.5832  0.4703 -0.1530
 6292SOL    HW130512   2.520   2.438   3.925  0.4040 -1.1628 -1.5915
 6292SOL    HW230513   2.543   2.552   3.834  1.5450 -1.4760 -3.0712
 6293SOL     OW30514   4.506   0.441   8.732 -0.1211 -0.3723  0.0295
 6293SOL    HW130515   4.444   0.433   8.805  1.0916  0.3316  1.1446
 6293SOL    HW230516   4.475   0.364   8.685  2.5742 -0.0300 -2.3532
 6294SOL     OW30517   4.652   1.181  13.782 -0.1218 -0.1617  0.3368
 6294SOL    HW130518   4.596   1.254  13.757  0.2934 -0.6244 -1.8709
 6294SOL    HW230519   4.596   1.137  13.846 -0.3179 -0.0663  0.2288
 6295SOL     OW30520   1.083   3.130   5.433  0.3279 -0.2736  1.1219
 6295SOL    HW130521   1.065   3.053   5.488  0.2514 -0.3287  1.0205
 6295SOL    HW230522   1.130   3.178   5.501  1.1705  0.7576 -0.1928
 6296SOL     OW30523   0.721   0.708   2.834 -0.0509 -0.2559 -0.2060
 6296SOL    HW130524   0.687   0.652   2.765 -0.5473  0.3907 -0.4824
 6296SOL    HW230525   0.639   0.754   2.849  0.2704  0.3356 -0.2603
 6297SOL     OW30526   4.695   1.716   2.632  0.5613 -0.1074 -0.1921
 6297SOL    HW130527   4.667   1.791   2.685  2.1400 -2.0879  3.4948
 6297SOL    HW230528   4.624   1.655   2.654  0.8168 -0.6203 -0.7900
 6298SOL     OW30529   0.459   2.505   5.844 -0.1092  0.3861  0.5472
 6298SOL    HW130530   0.549   2.494   5.876  0.3221 -0.8681 -1.1563
 6298SOL    HW230531   0.413   2.429   5.880 -1.2732  0.7721 -0.1379
 6299SOL     OW30532   4.711   4.120   5.894  0.0597 -0.1827  0.3818
 6299SOL    HW130533   0.054   4.169   5.892 -0.2624  0.3465  0.1978
 6299SOL    HW230534   4.678   4.146   5.808  2.2997  1.8459  0.1160
 6300SOL     OW30535   0.280   0.042   2.170  0.6262 -0.0198 -0.1282
 6300SOL    HW130536   0.202   0.058   2.222  0.4478 -0.9151 -0.1186
 6300SOL    HW230537   0.258   4.695   2.136 -0.1663  0.7055 -1.4479
 6301SOL     OW30538   2.852   0.896  17.292  0.7342 -0.3729 -0.2809
 6301SOL    HW130539   2.888   0.916  17.205 -0.2668 -0.6689 -0.7676
 6301SOL    HW230540   2.830   0.983  17.327  0.9066 -0.5617  0.2958
 6302SOL     OW30541   4.093   1.976   9.828  0.7894 -0.2675  0.4016
 6302SOL    HW130542   4.132   2.049   9.876  0.5593 -0.3118  0.6577
 6302SOL    HW230543   4.115   1.909   9.893  2.6431 -1.0035 -1.0046
 6303SOL     OW30544   1.302   2.691  12.319 -0.4058 -0.0330 -0.1299
 6303SOL    HW130545   1.330   2.668  12.407 -0.0072 -2.0804 -0.8046
 6303SOL    HW230546   1.385   2.685  12.273 -0.4456 -1.3300 -0.0394
 6304SOL     OW30547   1.633   1.357   5.814  0.7626 -0.5837  0.0056
 6304SOL    HW130548   1.653   1.288   5.750  0.1396 -0.8558  0.1014
 6304SOL    HW230549   1.683   1.428   5.774  1.0883  0.5688  2.4688
 6305SOL     OW30550   3.604   3.658  14.343  0.0710  0.4978 -0.6760
 6305SOL    HW130551   3.662   3.630  14.272  0.9873  0.8641 -0.0724
 6305SOL    HW230552   3.569   3.743  14.317  0.7878  1.2213  0.7159
 6306SOL     OW30553   3.240   2.074  15.129  0.0460  0.0129 -0.4504
 6306SOL    HW130554   3.159   2.069  15.180  0.7163 -0.5054  0.5655
 6306SOL    HW230555   3.212   2.140  15.067  0.0832  0.6319  0.1886
 6307SOL     OW30556   1.248   3.639   7.969 -0.4117  0.3872  0.0180
 6307SOL    HW130557   1.287   3.666   7.885 -3.0236 -0.3380 -1.4095
 6307SOL    HW230558   1.322   3.598   8.014 -2.1749 -3.5056 -0.6068
 6308SOL     OW30559   0.975   3.933   2.372  0.1556 -0.0708 -0.0514
 6308SOL    HW130560   0.960   3.899   2.284  0.0641  1.4941 -0.6421
 6308SOL    HW230561   1.070   3.936   2.382  0.3648 -0.0468 -2.0556
 6309SOL     OW30562   0.442   4.672   6.102 -0.0732  0.0627 -0.0837
 6309SOL    HW130563   0.468   4.599   6.159  1.0016  0.5950  0.1019
 6309SOL    HW230564   0.501   4.646   6.031  0.8729  0.2898  0.6193
 6310SOL     OW30565   4.398   1.448   1.259  0.5453  0.3321  0.2165
 6310SOL    HW130566   4.404   1.527   1.312 -0.1594 -0.4234  1.4246
 6310SOL    HW230567   4.350   1.479   1.182  0.5815  1.8774  0.8259
 6311SOL     OW30568   4.634   0.222   4.480  0.0366  0.5005  0.2168
 6311SOL    HW130569   4.587   0.250   4.559 -0.0576 -2.0868  1.0646
 6311SOL    HW230570   4.634   0.127   4.477 -0.4917  0.5568 -2.0072
 6312SOL     OW30571   1.959   0.697  10.172  0.6244 -0.3761  0.3250
 6312SOL    HW130572   2.013   0.645  10.231 -1.3979 -0.1780  2.3217
 6312SOL    HW230573   1.874   0.655  10.182  1.7393 -3.2389 -2.0392
 6313SOL     OW30574   2.025   0.256   4.898  0.3761  0.0344 -0.1770
 6313SOL    HW130575   1.968   0.188   4.862 -0.8057 -0.3406  2.4275
 6313SOL    HW230576   1.970   0.331   4.878  0.1032 -0.3195 -0.7685
 6314SOL     OW30577   2.600   0.795   7.166 -0.2607 -0.1745 -1.0660
 6314SOL    HW130578   2.605   0.855   7.091  1.9468 -0.7692 -1.4096
 6314SOL    HW230579   2.585   0.713   7.120 -0.2687 -0.4301 -0.6084
 6315SOL     OW30580   4.343   4.315   1.287  0.5882  0.5220 -0.2259
 6315SOL    HW130581   4.355   4.377   1.216 -1.4872  0.1416 -0.8812
 6315SOL    HW230582   4.260   4.268   1.276  0.4523  0.7635 -0.2267
 6316SOL     OW30583   0.083   1.683   8.714 -0.1091 -0.0969  0.2331
 6316SOL    HW130584   0.104   1.590   8.703  2.0394  0.4369 -0.1520
 6316SOL    HW230585   0.171   1.720   8.710  0.2205 -0.8519  0.4573
 6317SOL     OW30586   3.822   0.988   3.584  0.3908 -0.4619  0.0819
 6317SOL    HW130587   3.806   1.079   3.608 -2.3120 -0.7063 -0.7850
 6317SOL    HW230588   3.841   1.001   3.491  2.2698 -2.3460  0.2075
 6318SOL     OW30589   3.028   2.405  12.050 -0.5542 -0.2859  0.0595
 6318SOL    HW130590   2.950   2.455  12.025 -0.9341 -1.2257 -0.6275
 6318SOL    HW230591   3.102   2.463  12.031 -1.8196  1.1077 -0.6806
 6319SOL     OW30592   2.675   1.031   5.091 -0.7840  0.6728  0.0664
 6319SOL    HW130593   2.597   0.990   5.129  0.0295 -0.2236  0.7810
 6319SOL    HW230594   2.733   1.040   5.167 -0.6541  1.6109 -0.1471
 6320SOL     OW30595   2.412   2.582  11.144 -0.1369 -0.3592  0.3300
 6320SOL    HW130596   2.457   2.632  11.076 -1.0260 -1.4943 -1.0890
 6320SOL    HW230597   2.320   2.606  11.134 -0.2616 -1.0869 -0.2191
 6321SOL     OW30598   0.558   0.878   2.199  0.1264 -0.5564  0.7111
 6321SOL    HW130599   0.630   0.816   2.199 -0.9113 -1.7469  2.0332
 6321SOL    HW230600   0.483   0.829   2.232 -0.7097  0.4526  0.3217
 6322SOL     OW30601   1.123   1.235   9.017  0.4640  0.5214  0.3748
 6322SOL    HW130602   1.076   1.191   9.088 -0.4733  1.4868  0.3667
 6322SOL    HW230603   1.211   1.214   9.048  0.8852  1.3388 -0.2409
 6323SOL     OW30604   4.576   0.318   9.351  0.1689 -0.1033 -0.5451
 6323SOL    HW130605   4.606   0.241   9.301 -2.8090 -1.3391 -0.4312
 6323SOL    HW230606   4.657   0.368   9.356  0.5620 -0.8096  0.3110
 6324SOL     OW30607   0.772   3.709   8.137 -0.0835 -0.7356 -0.1898
 6324SOL    HW130608   0.825   3.632   8.117 -0.3035 -0.7084 -0.8939
 6324SOL    HW230609   0.743   3.699   8.227  0.8657 -4.0825 -0.2540
 6325SOL     OW30610   3.313   1.468  10.574 -0.6205 -0.1817  0.8998
 6325SOL    HW130611   3.401   1.451  10.539  0.0903  3.0077  1.1344
 6325SOL    HW230612   3.327   1.550  10.621  1.5859 -0.1098  0.1517
 6326SOL     OW30613   4.051   2.847   9.742  0.8494  0.8429 -0.1178
 6326SOL    HW130614   4.024   2.939   9.742 -1.7597  0.0695  1.2526
 6326SOL    HW230615   4.123   2.856   9.680  0.7539  1.0816 -0.1955
 6327SOL     OW30616   0.880   3.853   5.515  0.3594 -0.5939  0.9516
 6327SOL    HW130617   0.902   3.802   5.593 -1.9528 -0.7680  1.5082
 6327SOL    HW230618   0.966   3.866   5.476 -0.2942  2.0658  0.3457
 6328SOL     OW30619   1.996   2.573   1.278  0.1679  0.2961  0.1438
 6328SOL    HW130620   1.904   2.584   1.254  0.0373  1.7907  1.3097
 6328SOL    HW230621   1.981   2.537   1.365 -1.5667  2.6550  0.8242
 6329SOL     OW30622   3.453   1.749   7.643  0.3350  0.1823  0.5532
 6329SOL    HW130623   3.397   1.751   7.720 -0.9078 -1.9583 -0.2808
 6329SOL    HW230624   3.491   1.664   7.667 -1.8833 -1.0391 -0.2773
 6330SOL     OW30625   2.732   2.285   7.525  0.2210  0.9629  0.7806
 6330SOL    HW130626   2.644   2.312   7.502 -0.3944 -2.1662 -0.5397
 6330SOL    HW230627   2.717   2.221   7.594 -0.6361  1.0956  0.7080
 6331SOL     OW30628   3.298   2.376   7.326  0.0861  0.0687 -0.7280
 6331SOL    HW130629   3.213   2.378   7.283 -0.0741 -0.2678 -0.4370
 6331SOL    HW230630   3.359   2.383   7.252  0.4319 -0.4565 -0.4980
 6332SOL     OW30631   0.286   3.557   8.949  0.2099  0.6283  0.0924
 6332SOL    HW130632   0.241   3.603   9.020  0.0505  1.5435 -0.6009
 6332SOL    HW230633   0.254   3.602   8.871  0.8236 -0.3603 -0.7293
 6333SOL     OW30634   3.524   2.334   9.536 -0.0425  0.1471  0.2439
 6333SOL    HW130635   3.499   2.359   9.625 -0.3753 -1.0118  0.4652
 6333SOL    HW230636   3.487   2.410   9.490  0.0698 -0.5221 -0.9410
 6334SOL     OW30637   4.739   3.421   7.499  0.0923 -0.6729 -0.0242
 6334SOL    HW130638   0.065   3.403   7.432  0.5717 -0.3784  0.3667
 6334SOL    HW230639   0.028   3.510   7.517 -1.9765 -0.8806  4.1828
 6335SOL     OW30640   1.612   4.698   0.330 -0.4500  0.1685  0.1227
 6335SOL    HW130641   1.661   4.626   0.291  0.2172  0.4594  0.4303
 6335SOL    HW230642   1.682   0.017   0.358  0.8295 -0.0725 -2.5379
 6336SOL     OW30643   0.847   4.636   3.356  0.5180 -0.5517 -0.4366
 6336SOL    HW130644   0.817   4.545   3.354  2.8000 -1.3359  1.9679
 6336SOL    HW230645   0.771   4.685   3.325  1.3245  0.7403 -0.3665
 6337SOL     OW30646   2.307   0.761  16.222 -0.1134 -0.4098 -0.1438
 6337SOL    HW130647   2.400   0.756  16.201 -0.3276 -1.4759 -0.8329
 6337SOL    HW230648   2.306   0.826  16.292 -1.3536 -1.5719  0.9327
 6338SOL     OW30649   3.225   0.966   6.837 -0.3506  0.4266 -0.7617
 6338SOL    HW130650   3.166   0.895   6.812 -0.0500  0.2579 -1.0041
 6338SOL    HW230651   3.164   1.037   6.855  0.2830  0.5991  0.6695
 6339SOL     OW30652   2.266   4.161   6.822  0.2149 -0.3993  0.3205
 6339SOL    HW130653   2.252   4.093   6.887 -0.5196  1.1018  1.7085
 6339SOL    HW230654   2.343   4.142   6.768 -0.1525 -0.7965 -0.0635
 6340SOL     OW30655   3.110   3.355   8.144 -0.3203  0.1962  0.2346
 6340SOL    HW130656   3.193   3.307   8.140 -0.4326 -0.0170  0.4675
 6340SOL    HW230657   3.054   3.280   8.166  0.1966 -0.8198 -1.8864
 6341SOL     OW30658   3.006   2.736   4.947  0.0584 -0.3047  0.7529
 6341SOL    HW130659   3.070   2.758   5.014  0.7562  0.0417 -0.0246
 6341SOL    HW230660   2.945   2.810   4.953 -0.2863 -0.2563 -3.1735
 6342SOL     OW30661   0.166   0.816  11.283  0.3443  0.1162  0.0975
 6342SOL    HW130662   0.128   0.865  11.210  0.5126  2.0749  1.3090
 6342SOL    HW230663   0.189   0.739  11.231 -0.1734 -0.7728  1.2000
 6343SOL     OW30664   0.727   0.311   5.028  0.3826 -0.4098  0.2360
 6343SOL    HW130665   0.636   0.293   5.053 -0.2147  0.0006 -1.6196
 6343SOL    HW230666   0.773   0.237   5.067  0.0725 -0.9864 -0.4787
 6344SOL     OW30667   3.591   1.942   3.524  0.2487 -0.4373 -0.6269
 6344SOL    HW130668   3.564   2.032   3.538  1.1416  0.0426 -1.9801
 6344SOL    HW230669   3.518   1.913   3.469  0.5338 -0.1142 -1.1750
 6345SOL     OW30670   0.072   0.338   2.997 -1.1348  0.3850  0.3569
 6345SOL    HW130671   0.163   0.367   2.992 -0.7071 -1.6261 -3.7437
 6345SOL    HW230672   0.038   0.420   2.960 -2.0662 -0.4327 -0.5970
 6346SOL     OW30673   1.876   1.782   8.649 -0.2344  0.2632 -0.5990
 6346SOL    HW130674   1.963   1.817   8.672  0.3396 -0.1875 -2.1187
 6346SOL    HW230675   1.867   1.804   8.557  1.5591  0.9939 -0.6007
 6347SOL     OW30676   4.240   3.918   3.361  0.3188 -0.2684  0.1476
 6347SOL    HW130677   4.275   3.867   3.288  2.3124 -0.1756  1.0266
 6347SOL    HW230678   4.318   3.954   3.404  1.6662 -2.8925 -0.0383
 6348SOL     OW30679   2.727   1.168   5.512 -0.0850 -0.5065  0.3114
 6348SOL    HW130680   2.806   1.120   5.535  0.9047  0.5097 -0.9669
 6348SOL    HW230681   2.667   1.136   5.580  0.2461 -2.3664 -0.2791
 6349SOL     OW30682   4.362   4.403   9.426  0.2418 -0.6358 -0.0208
 6349SOL    HW130683   4.315   4.386   9.344 -1.2520  0.7289  0.5309
 6349SOL    HW230684   4.373   4.498   9.435  0.3935 -0.3950 -2.6670
 6350SOL     OW30685   1.570   0.407   9.386 -0.5960  0.2207  0.0230
 6350SOL    HW130686   1.636   0.437   9.449  1.7729 -1.9961 -1.4090
 6350SOL    HW230687   1.547   0.493   9.350  1.6785  0.2810 -1.3489
 6351SOL     OW30688   4.737   2.675   3.826 -0.1264  0.5236  0.0402
 6351SOL    HW130689   4.711   2.753   3.778  1.7865  1.1791  0.1042
 6351SOL    HW230690   4.701   2.605   3.771  0.0499  0.9741 -0.6464
 6352SOL     OW30691   3.434   1.202   6.185  0.4813 -0.4470  0.0289
 6352SOL    HW130692   3.402   1.253   6.259  1.3030 -0.8876  0.7017
 6352SOL    HW230693   3.522   1.177   6.214  0.8553  0.1964 -0.5617
 6353SOL     OW30694   0.492   0.744   7.366 -0.0885 -0.1783 -0.5378
 6353SOL    HW130695   0.457   0.718   7.281  3.2672  0.6011 -2.1574
 6353SOL    HW230696   0.569   0.687   7.373  0.3007  0.2349 -1.4442
 6354SOL     OW30697   4.078   1.058   5.377  0.4360 -0.1023  0.0237
 6354SOL    HW130698   4.148   1.120   5.356  2.1434 -1.9918  0.1580
 6354SOL    HW230699   4.038   1.107   5.450  1.2740 -0.0463  0.4500
 6355SOL     OW30700   4.412   1.339   9.515  0.3298  0.1906  0.4642
 6355SOL    HW130701   4.435   1.283   9.589 -0.4355 -1.7908 -0.8009
 6355SOL    HW230702   4.443   1.279   9.447 -1.6919  0.3734 -0.6192
 6356SOL     OW30703   3.647   2.180  13.825  0.0089  0.1999  0.1990
 6356SOL    HW130704   3.552   2.178  13.817 -0.0023 -0.3235  0.4287
 6356SOL    HW230705   3.654   2.131  13.907 -1.8812 -2.3548 -1.1434
 6357SOL     OW30706   2.703   2.087   2.541 -0.1425 -0.6060  0.2560
 6357SOL    HW130707   2.719   2.049   2.627  1.2073 -0.3330  0.1160
 6357SOL    HW230708   2.738   2.175   2.557  2.2937 -1.3787 -1.0232
 6358SOL     OW30709   0.507   3.284   7.677  0.0231  0.6669 -0.0099
 6358SOL    HW130710   0.443   3.349   7.646  0.5734  1.6074  0.8099
 6358SOL    HW230711   0.578   3.310   7.618  0.1560 -1.0589 -0.6212
 6359SOL     OW30712   1.377   0.170  13.400  0.4339  0.3154 -0.1861
 6359SOL    HW130713   1.300   0.161  13.344 -0.8036  3.2980  1.0596
 6359SOL    HW230714   1.330   0.168  13.484  0.0152  1.8487 -0.3914
 6360SOL     OW30715   4.544   2.008  16.881 -0.0311  0.0883  0.1369
 6360SOL    HW130716   4.627   1.962  16.895 -0.3290 -1.4595 -3.2199
 6360SOL    HW230717   4.567   2.098  16.903  0.1793 -0.4060  1.9611
 6361SOL     OW30718   0.467   1.011   0.756  0.2314 -0.7996  0.1324
 6361SOL    HW130719   0.523   1.085   0.778  0.0609 -1.1627  1.8305
 6361SOL    HW230720   0.537   0.945   0.753 -1.5870 -2.5925 -3.2030
 6362SOL     OW30721   2.885   2.579   4.759 -0.8124  0.1000 -0.6404
 6362SOL    HW130722   2.846   2.650   4.708  1.1161  1.1092 -0.7060
 6362SOL    HW230723   2.909   2.618   4.843 -1.0371  0.3524 -0.6937
 6363SOL     OW30724   0.507   0.987   3.621 -0.1760 -0.2488  0.4154
 6363SOL    HW130725   0.456   1.040   3.560 -0.5680  0.1349  1.0832
 6363SOL    HW230726   0.587   1.040   3.624  0.1218 -0.7038  0.5335
 6364SOL     OW30727   0.082   1.749  14.171 -0.1852  0.3663  0.1768
 6364SOL    HW130728   0.047   1.700  14.245  1.9252  0.5316  1.2626
 6364SOL    HW230729   0.132   1.681  14.125  0.6437  0.1859  1.3395
 6365SOL     OW30730   3.121   0.590   7.534 -0.1404  0.2596  0.4179
 6365SOL    HW130731   3.166   0.617   7.614 -0.2987 -1.1507  0.9903
 6365SOL    HW230732   3.191   0.557   7.477  0.3383  0.9916  0.5871
 6366SOL     OW30733   0.441   4.548  10.392 -0.4514 -0.3203 -0.0436
 6366SOL    HW130734   0.487   4.625  10.358 -3.6941  1.9911  0.7051
 6366SOL    HW230735   0.482   4.546  10.479 -1.0120 -1.3806  0.1889
 6367SOL     OW30736   4.607   1.283   3.529 -0.2525  0.3599 -1.0965
 6367SOL    HW130737   4.611   1.306   3.622  0.6580  1.6381 -1.4537
 6367SOL    HW230738   4.668   1.351   3.504  0.9147 -1.1588 -2.3851
 6368SOL     OW30739   0.430   3.358  17.015 -0.5725  0.5530  0.6434
 6368SOL    HW130740   0.454   3.427  16.953 -2.0852 -0.8543 -1.4854
 6368SOL    HW230741   0.510   3.333  17.061  0.3390  1.7424 -0.2901
 6369SOL     OW30742   0.926   0.863   4.887 -0.4516  0.2664 -0.4515
 6369SOL    HW130743   0.925   0.812   4.968 -0.6217  0.8248 -0.1009
 6369SOL    HW230744   1.017   0.893   4.878 -0.5011  0.4018 -0.4958
 6370SOL     OW30745   3.861   1.215   7.931  0.7769 -0.1783  0.2320
 6370SOL    HW130746   3.913   1.261   7.997 -0.0641  0.6636  0.3254
 6370SOL    HW230747   3.776   1.227   7.975  0.7613 -0.2737  0.2266
 6371SOL     OW30748   3.818   0.663   5.903  0.7921 -0.4498 -0.3594
 6371SOL    HW130749   3.782   0.720   5.834  1.7312  0.3396 -0.1974
 6371SOL    HW230750   3.747   0.599   5.895  0.2823  0.4994 -3.3336
 6372SOL     OW30751   2.245   0.450   6.046  0.0979  0.2857 -0.4581
 6372SOL    HW130752   2.243   0.361   6.080 -0.3691  0.3354 -0.3436
 6372SOL    HW230753   2.243   0.433   5.952  0.7740  0.9998 -0.6062
 6373SOL     OW30754   1.352   3.227   6.259 -0.2588 -0.9962 -0.4938
 6373SOL    HW130755   1.420   3.236   6.326  1.0723 -1.9315 -1.7301
 6373SOL    HW230756   1.269   3.203   6.301 -0.5541  0.0616 -0.4813
 6374SOL     OW30757   3.676   2.621   6.796 -0.2567  0.5627 -0.2001
 6374SOL    HW130758   3.756   2.647   6.842  0.4755 -0.5510 -0.8418
 6374SOL    HW230759   3.677   2.660   6.709  1.4882 -3.2192 -1.8669
 6375SOL     OW30760   0.760   2.631  15.135 -0.6037 -0.6507 -0.2616
 6375SOL    HW130761   0.813   2.582  15.198 -2.4812  0.4184  2.1551
 6375SOL    HW230762   0.704   2.559  15.108 -1.4142 -0.0861 -0.0744
 6376SOL     OW30763   0.826   1.450   6.566  0.3635  0.1074 -0.0188
 6376SOL    HW130764   0.822   1.389   6.492 -0.2349 -0.0229  0.1165
 6376SOL    HW230765   0.889   1.517   6.539  1.0756 -0.6114 -0.1324
 6377SOL     OW30766   2.878   2.312   2.621 -0.2906 -0.5405 -0.3424
 6377SOL    HW130767   2.863   2.325   2.714  1.2458 -0.9405 -0.0464
 6377SOL    HW230768   2.910   2.398   2.593 -2.1565  0.6419  1.2172
 6378SOL     OW30769   2.173   2.372   3.504  0.1678 -0.1678  0.0215
 6378SOL    HW130770   2.130   2.289   3.523  0.1352 -0.4726 -1.3713
 6378SOL    HW230771   2.106   2.427   3.462  1.9371  2.2255  0.2999
 6379SOL     OW30772   4.434   0.933   7.978  0.5182 -0.0127 -0.0987
 6379SOL    HW130773   4.528   0.917   7.982  0.6741  0.7780 -0.5577
 6379SOL    HW230774   4.414   0.978   7.896 -0.0875 -0.5809 -0.2665
 6380SOL     OW30775   0.473   2.383  12.365 -0.4424  0.1157  0.1274
 6380SOL    HW130776   0.395   2.433  12.339 -0.3811  1.2836  2.2319
 6380SOL    HW230777   0.502   2.357  12.277  2.0961 -2.7999  1.8374
 6381SOL     OW30778   4.470   0.870   9.660  0.1430 -0.2383  0.4252
 6381SOL    HW130779   4.487   0.776   9.666 -1.1385 -0.5207 -0.4334
 6381SOL    HW230780   4.399   0.851   9.599 -0.8469 -1.0962  1.8732
 6382SOL     OW30781   2.685   0.057   4.205  0.0759 -0.2116  0.3735
 6382SOL    HW130782   2.710   4.707   4.226  1.5624  0.0646 -0.2104
 6382SOL    HW230783   2.638   0.079   4.286  0.4303 -1.1230  0.8205
 6383SOL     OW30784   2.337   1.550  16.514 -0.8431 -0.3964 -0.4941
 6383SOL    HW130785   2.270   1.603  16.556 -1.0772 -0.8679 -0.2750
 6383SOL    HW230786   2.391   1.615  16.469  0.5090 -0.5610  0.9035
 6384SOL     OW30787   3.220   0.506   6.804 -0.3114 -0.0220  0.2321
 6384SOL    HW130788   3.181   0.520   6.890 -1.5890 -1.6596 -0.0644
 6384SOL    HW230789   3.288   0.570   6.824  1.2890 -1.3936 -0.8316
 6385SOL     OW30790   3.339   0.946   1.337  0.4677 -0.5681 -0.0976
 6385SOL    HW130791   3.279   1.016   1.315  0.3669 -0.7536 -0.4192
 6385SOL    HW230792   3.372   0.983   1.418 -0.3681  2.2137 -1.0499
 6386SOL     OW30793   2.887   4.008  12.062 -0.3005  0.5719 -0.4803
 6386SOL    HW130794   2.843   3.924  12.077 -1.0923  0.7528 -1.7730
 6386SOL    HW230795   2.830   4.079  12.092 -0.9150 -0.4945  0.8822
 6387SOL     OW30796   4.256   0.300   6.562  0.2533 -0.0890  0.1640
 6387SOL    HW130797   4.194   0.355   6.610  2.1429  1.4904  0.7768
 6387SOL    HW230798   4.205   0.293   6.482  1.5044 -1.9221 -0.4783
 6388SOL     OW30799   4.522   3.398   0.886  0.3779 -0.1569 -0.1003
 6388SOL    HW130800   4.521   3.444   0.971 -3.3237  1.6940 -1.1487
 6388SOL    HW230801   4.431   3.393   0.859 -0.3742 -0.9863  2.5510
 6389SOL     OW30802   3.110   3.944   8.585  0.1978  0.1987  0.1305
 6389SOL    HW130803   3.165   3.876   8.546  0.1842  0.3598 -0.1741
 6389SOL    HW230804   3.138   3.942   8.676 -1.5687 -1.6703  0.6424
 6390SOL     OW30805   2.517   2.834   7.526  0.0900  0.7541 -0.0740
 6390SOL    HW130806   2.590   2.804   7.579 -0.3419 -1.9641 -1.0432
 6390SOL    HW230807   2.567   2.879   7.458 -0.4690  1.0570 -0.2848
 6391SOL     OW30808   1.027   0.356   9.201  0.1158 -0.4624  0.0501
 6391SOL    HW130809   1.056   0.279   9.250 -3.9975 -2.8933 -1.3074
 6391SOL    HW230810   1.108   0.406   9.208 -1.2037  2.0468 -2.5818
 6392SOL     OW30811   3.110   0.565  17.694 -0.2375  0.1542  0.7830
 6392SOL    HW130812   3.031   0.609  17.662  0.5220 -0.1731 -1.5127
 6392SOL    HW230813   3.168   0.638  17.717  0.5446  0.4245 -1.9819
 6393SOL     OW30814   2.011   4.510  10.246 -0.0896  0.2420 -0.0740
 6393SOL    HW130815   2.069   4.489  10.173 -1.4093 -1.0662 -0.7379
 6393SOL    HW230816   2.064   4.516  10.326 -3.0379 -0.4465  1.9583
 6394SOL     OW30817   2.058   2.783  11.690 -0.2835  0.2333  0.1672
 6394SOL    HW130818   2.010   2.715  11.643 -1.1755  2.1348 -1.6669
 6394SOL    HW230819   2.016   2.861  11.655  2.6189  0.1993 -3.3934
 6395SOL     OW30820   0.861   1.039   1.958 -0.1543  0.0908 -0.2139
 6395SOL    HW130821   0.822   0.952   1.948  1.0908 -0.8241  2.7832
 6395SOL    HW230822   0.868   1.040   2.054 -0.9794 -1.9865 -0.1247
 6396SOL     OW30823   1.681   4.077   2.269  0.1228 -0.4941  0.4601
 6396SOL    HW130824   1.722   4.163   2.278  1.5102 -1.2126  1.1427
 6396SOL    HW230825   1.670   4.064   2.363 -1.5150 -0.2044  0.2963
 6397SOL     OW30826   2.416   0.019   8.263 -0.0241 -0.4859 -0.1954
 6397SOL    HW130827   2.476   4.685   8.271 -1.0128 -1.4877 -2.2231
 6397SOL    HW230828   2.479   0.081   8.301  0.6046 -0.3972 -1.3735
 6398SOL     OW30829   0.908   1.181   4.268 -0.0471  0.0554 -0.3386
 6398SOL    HW130830   0.869   1.094   4.275 -2.5189  1.2495  0.6481
 6398SOL    HW230831   0.880   1.219   4.352 -1.4470 -0.9954 -0.3421
 6399SOL     OW30832   1.154   4.264  11.423  0.2222 -0.7670 -0.6490
 6399SOL    HW130833   1.153   4.290  11.515  1.3433  2.2960 -1.4974
 6399SOL    HW230834   1.223   4.197  11.419  2.7278  1.7725 -0.2905
 6400SOL     OW30835   4.175   4.178   0.472  0.2305  0.4171  0.5351
 6400SOL    HW130836   4.231   4.180   0.394 -0.8053 -0.1407 -0.2187
 6400SOL    HW230837   4.106   4.125   0.433 -0.2702  2.7784 -1.8067
 6401SOL     OW30838   3.557   0.503   4.514  0.1959 -0.2054  0.2569
 6401SOL    HW130839   3.487   0.559   4.480  0.6400 -0.1051 -0.4785
 6401SOL    HW230840   3.574   0.451   4.436  1.7790  3.8534 -2.0511
 6402SOL     OW30841   4.585   1.118   6.739 -0.2478  0.1932 -0.0010
 6402SOL    HW130842   4.635   1.165   6.806 -1.0949 -0.9176  1.4043
 6402SOL    HW230843   4.523   1.179   6.698 -1.0155 -0.5047  0.1314
 6403SOL     OW30844   2.730   2.650   2.446 -0.0576 -0.6265  0.3317
 6403SOL    HW130845   2.813   2.604   2.431  1.4193  2.0719  0.2596
 6403SOL    HW230846   2.723   2.642   2.541 -1.4466  0.6203  0.3193
 6404SOL     OW30847   0.542   3.262   1.273 -0.7543 -0.2861  0.0790
 6404SOL    HW130848   0.623   3.299   1.237 -0.6005 -0.0015  0.7287
 6404SOL    HW230849   0.484   3.331   1.241 -0.2306  0.2962  0.4026
 6405SOL     OW30850   1.701   1.536   4.184 -0.0452  0.0663 -0.1931
 6405SOL    HW130851   1.774   1.556   4.241 -0.9689 -3.1485  2.1583
 6405SOL    HW230852   1.739   1.461   4.138 -1.1141 -0.9316  0.5248
 6406SOL     OW30853   1.976   4.155  17.590 -0.0949  0.3298 -0.0884
 6406SOL    HW130854   1.959   4.239  17.547 -0.7031  0.1008 -0.2861
 6406SOL    HW230855   1.948   4.182  17.678 -0.3453 -2.6906  0.7606
 6407SOL     OW30856   3.083   1.717   1.822 -0.3731 -0.2615 -0.0273
 6407SOL    HW130857   3.020   1.733   1.752 -0.1449 -0.5361 -0.2953
 6407SOL    HW230858   3.019   1.671   1.876 -1.0653  1.2156  0.4083
 6408SOL     OW30859   2.980   3.242   2.267  0.0648  0.0669 -0.2634
 6408SOL    HW130860   3.043   3.170   2.271 -1.7217 -1.2543  3.6260
 6408SOL    HW230861   2.922   3.213   2.337 -0.5628 -0.3594 -0.9607
 6409SOL     OW30862   1.757   0.193  16.923  0.3239 -0.0351 -0.2433
 6409SOL    HW130863   1.815   0.267  16.944  0.3069  0.1190 -0.7392
 6409SOL    HW230864   1.821   0.122  16.918 -0.1287 -0.4336 -0.3729
 6410SOL     OW30865   0.443   2.700   9.095 -0.7240  0.2943 -0.2063
 6410SOL    HW130866   0.355   2.690   9.058 -0.6453  1.2685 -0.6731
 6410SOL    HW230867   0.453   2.607   9.115  0.9839  1.0574  2.5023
 6411SOL     OW30868   0.785   1.343   3.072  0.1228  0.1040 -0.3379
 6411SOL    HW130869   0.695   1.338   3.103 -0.1031 -1.6096 -1.2591
 6411SOL    HW230870   0.823   1.256   3.081 -0.6347 -0.3041 -1.1092
 6412SOL     OW30871   4.070   0.633   1.573  0.5937  0.0113  0.1219
 6412SOL    HW130872   4.108   0.689   1.641  0.1343 -1.2472  1.4372
 6412SOL    HW230873   4.030   0.568   1.631  0.7751  2.5480  3.1422
 6413SOL     OW30874   2.851   0.015   3.818 -0.3938 -0.3578 -0.1434
 6413SOL    HW130875   2.887   4.722   3.735  0.9271 -0.9719  0.6816
 6413SOL    HW230876   2.872   4.685   3.880 -1.2729 -0.6094 -0.1230
 6414SOL     OW30877   4.454   0.940   5.951 -0.4722  0.2425 -0.4927
 6414SOL    HW130878   4.504   0.890   6.016  0.9381  0.3626 -1.4794
 6414SOL    HW230879   4.465   1.025   5.993 -0.7802  0.6834 -1.3003
 6415SOL     OW30880   0.158   0.848   6.538  0.2574  0.2675 -0.3784
 6415SOL    HW130881   0.160   0.761   6.498  0.2678  0.4905 -0.8589
 6415SOL    HW230882   0.091   0.837   6.606 -0.7087 -1.1899 -1.5624
 6416SOL     OW30883   1.065   1.043   6.028 -0.0760 -0.1167 -0.0039
 6416SOL    HW130884   1.073   1.131   5.993 -4.6936  1.5864  3.2956
 6416SOL    HW230885   1.145   1.031   6.080  0.5389 -0.0351 -0.9361
 6417SOL     OW30886   0.403   1.405   8.256  0.1667  0.0722  0.0370
 6417SOL    HW130887   0.418   1.471   8.189  0.7245  0.0856  0.1724
 6417SOL    HW230888   0.493   1.376   8.276 -0.3488 -2.3741 -1.1208
 6418SOL     OW30889   1.855   1.505   7.389  0.1312  0.1636  0.1308
 6418SOL    HW130890   1.898   1.431   7.345 -1.3433 -0.8891  0.4250
 6418SOL    HW230891   1.924   1.533   7.448  0.1764  0.7648 -0.2136
 6419SOL     OW30892   4.564   4.465   6.154  0.2808  0.1406 -0.0067
 6419SOL    HW130893   4.554   4.511   6.070 -1.7070 -1.5376 -0.6841
 6419SOL    HW230894   4.565   4.547   6.203  0.0925 -1.3491  2.4791
 6420SOL     OW30895   1.302   1.736   1.569 -0.1198 -0.4134 -0.2303
 6420SOL    HW130896   1.292   1.831   1.575  2.3447 -0.1346 -0.3721
 6420SOL    HW230897   1.386   1.719   1.612 -0.0719  0.6118  0.0711
 6421SOL     OW30898   3.546   0.626   7.518 -0.1460  0.2858 -0.5910
 6421SOL    HW130899   3.464   0.589   7.484  1.2856 -0.4439 -3.2771
 6421SOL    HW230900   3.614   0.561   7.497 -0.4321 -0.3444  0.4477
 6422SOL     OW30901   3.461   0.490  11.871 -0.1909 -0.4224  0.3187
 6422SOL    HW130902   3.490   0.578  11.896 -4.4046  1.3342 -0.8727
 6422SOL    HW230903   3.377   0.481  11.916 -0.2945 -1.7408 -0.1360
 6423SOL     OW30904   4.289   3.659   8.672  0.0830 -0.2457 -0.2558
 6423SOL    HW130905   4.350   3.707   8.616 -1.5121 -0.0925 -1.8488
 6423SOL    HW230906   4.346   3.631   8.743 -0.2437 -2.1595 -0.7619
 6424SOL     OW30907   0.722   3.867   1.197  0.6401  0.2792  0.4719
 6424SOL    HW130908   0.680   3.942   1.154 -0.1160 -0.4576 -0.0659
 6424SOL    HW230909   0.668   3.806   1.147  2.3894 -0.7358 -0.1600
 6425SOL     OW30910   0.081   0.071   2.914 -0.3162 -0.0271 -0.2517
 6425SOL    HW130911   0.066   0.159   2.949 -0.7891 -0.0980 -0.2757
 6425SOL    HW230912   0.055   0.013   2.985  1.8896  1.8697  2.0960
 6426SOL     OW30913   2.137   3.728  12.600  0.5211  0.3250 -0.8615
 6426SOL    HW130914   2.203   3.742  12.533  1.1500  1.6070  0.0391
 6426SOL    HW230915   2.148   3.807  12.653 -1.4834  0.4156 -0.5725
 6427SOL     OW30916   3.038   3.710  13.383  0.4467  0.1828 -0.1026
 6427SOL    HW130917   2.958   3.657  13.375  1.0752 -0.4518 -2.2943
 6427SOL    HW230918   3.002   3.798  13.390 -0.0598 -0.1241  1.0526
 6428SOL     OW30919   3.326   1.830   7.404  0.2081  0.8902  0.7272
 6428SOL    HW130920   3.363   1.799   7.486 -0.6245  2.5119  1.7061
 6428SOL    HW230921   3.360   1.919   7.398  2.5204  0.0716  1.8531
 6429SOL     OW30922   3.179   0.427  17.461  0.6108 -0.4103 -0.1386
 6429SOL    HW130923   3.190   0.469  17.546  0.7407 -0.9142  0.0937
 6429SOL    HW230924   3.152   0.508  17.419 -0.4818 -0.1900  1.0012
 6430SOL     OW30925   2.139   2.566   5.504  0.3801  0.1814  0.3955
 6430SOL    HW130926   2.230   2.564   5.533  1.1403  0.0018 -1.9852
 6430SOL    HW230927   2.102   2.635   5.559  2.2890  2.8442 -1.6564
 6431SOL     OW30928   1.599   2.701   2.401  0.0541 -0.0132 -0.1707
 6431SOL    HW130929   1.680   2.663   2.434 -0.3746 -0.5683  0.2403
 6431SOL    HW230930   1.593   2.679   2.308  1.5777 -1.0580 -0.0225
 6432SOL     OW30931   3.455   0.581   0.999  1.1521  0.5438  0.4910
 6432SOL    HW130932   3.442   0.492   1.031  0.7589  0.0767 -0.9863
 6432SOL    HW230933   3.413   0.632   1.068 -0.8722  3.2061 -2.6753
 6433SOL     OW30934   4.665   0.823  10.309 -0.1619 -0.2020  0.2306
 6433SOL    HW130935   4.733   0.848  10.372 -1.2252 -0.1821  1.3623
 6433SOL    HW230936   4.592   0.867  10.352 -2.3028 -0.1661 -3.4523
 6434SOL     OW30937   2.957   0.925   2.483  0.0801 -0.6196 -0.3540
 6434SOL    HW130938   2.924   0.964   2.564  0.3080 -0.5764 -0.2802
 6434SOL    HW230939   3.036   0.979   2.475  0.4842 -1.3957 -1.6217
 6435SOL     OW30940   0.172   1.224   5.179  0.1655  0.5032 -0.0680
 6435SOL    HW130941   0.204   1.136   5.157 -1.3615 -0.4256  1.3502
 6435SOL    HW230942   0.118   1.229   5.100  0.7824  1.0703 -0.4530
 6436SOL     OW30943   4.172   4.151   6.292  0.6467 -0.3955 -0.0305
 6436SOL    HW130944   4.214   4.196   6.366 -2.3925 -2.3195  2.8475
 6436SOL    HW230945   4.218   4.187   6.216  0.3616 -1.9461 -0.9426
 6437SOL     OW30946   2.788   1.106   3.018 -0.8364 -0.5188 -0.1824
 6437SOL    HW130947   2.862   1.166   3.030 -0.6734 -1.1815  2.0985
 6437SOL    HW230948   2.711   1.163   3.013 -1.3577 -1.0436  1.8755
 6438SOL     OW30949   1.799   2.689   5.841 -0.3383  0.0405  0.3746
 6438SOL    HW130950   1.753   2.724   5.764 -0.0947 -0.2201  0.1100
 6438SOL    HW230951   1.812   2.595   5.832 -1.4346 -0.2049  1.4004
 6439SOL     OW30952   1.653   2.620   8.286 -0.3104  0.5203  0.2477
 6439SOL    HW130953   1.734   2.573   8.270 -1.1961 -0.4851 -1.2288
 6439SOL    HW230954   1.593   2.552   8.315  2.1983 -2.5991 -1.9556
 6440SOL     OW30955   1.496   3.484   6.901  0.7296 -0.1290  0.1610
 6440SOL    HW130956   1.468   3.396   6.926  1.2897 -0.1224  0.7849
 6440SOL    HW230957   1.426   3.508   6.840  0.3162  0.2702  0.8011
 6441SOL     OW30958   3.588   3.201   6.605  0.0482 -0.0946 -0.0415
 6441SOL    HW130959   3.549   3.186   6.692  1.5348 -1.0746  0.4513
 6441SOL    HW230960   3.568   3.118   6.562 -2.7188 -0.5715  2.1365
 6442SOL     OW30961   2.587   3.709   3.646 -0.1055 -0.6916  0.1237
 6442SOL    HW130962   2.620   3.738   3.731  2.1573 -1.0024 -0.6239
 6442SOL    HW230963   2.524   3.779   3.632 -1.6772 -1.9891  0.6662
 6443SOL     OW30964   3.593   3.975   3.923  0.3472 -0.7055 -0.1620
 6443SOL    HW130965   3.610   4.069   3.920 -1.1164 -0.4242  0.6694
 6443SOL    HW230966   3.646   3.965   4.002 -0.5265  1.4102  0.6869
 6444SOL     OW30967   4.403   0.873   3.144 -0.4577 -0.3699 -0.1777
 6444SOL    HW130968   4.361   0.848   3.062 -0.0519 -0.3713 -0.3858
 6444SOL    HW230969   4.415   0.792   3.194  1.6472  0.4542  0.6598
 6445SOL     OW30970   1.368   0.844   8.566  0.1492 -0.3862 -0.0851
 6445SOL    HW130971   1.438   0.887   8.615 -0.7903  1.2374 -0.2019
 6445SOL    HW230972   1.307   0.825   8.637 -0.7367  0.8833 -0.5195
 6446SOL     OW30973   1.855   1.111   7.456  0.2978 -0.0688 -0.3588
 6446SOL    HW130974   1.939   1.130   7.497  0.0962  1.0119 -0.4515
 6446SOL    HW230975   1.820   1.195   7.428  2.2176  0.6054 -0.7371
 6447SOL     OW30976   4.329   0.411   5.002  0.0150  0.1530  0.5158
 6447SOL    HW130977   4.251   0.399   5.057  0.4484 -1.6242  0.7453
 6447SOL    HW230978   4.350   0.319   4.988 -0.5795 -0.0516  0.9708
 6448SOL     OW30979   3.602   0.455  15.905 -0.2248 -0.4259 -0.2719
 6448SOL    HW130980   3.596   0.547  15.932 -1.0277 -0.0438 -1.7388
 6448SOL    HW230981   3.514   0.447  15.866 -0.6608 -0.2656  0.6818
 6449SOL     OW30982   1.932   2.376  14.342  0.2203  0.1549 -0.2872
 6449SOL    HW130983   1.858   2.404  14.396  0.0827 -1.4864  0.3541
 6449SOL    HW230984   1.888   2.336  14.267 -1.3985  0.4364  0.4935
 6450SOL     OW30985   3.945   0.336   9.385  0.1527  0.6091 -0.1234
 6450SOL    HW130986   3.998   0.258   9.372  0.5911  0.9053 -0.1225
 6450SOL    HW230987   3.934   0.364   9.294  0.1740 -0.9682 -0.6018
 6451SOL     OW30988   2.525   0.773   2.035 -0.0683 -0.5370  0.1316
 6451SOL    HW130989   2.595   0.765   1.970 -0.4858  0.4247 -0.4388
 6451SOL    HW230990   2.566   0.827   2.103 -1.2717 -0.1827  0.5742
 6452SOL     OW30991   1.076   4.462   7.093 -0.3621 -0.4823 -0.4655
 6452SOL    HW130992   0.983   4.455   7.070 -0.6297 -2.4113  1.1547
 6452SOL    HW230993   1.068   4.482   7.187  0.5188 -0.9766 -0.2888
 6453SOL     OW30994   2.713   4.129   3.136 -0.2424 -0.1163  0.3683
 6453SOL    HW130995   2.804   4.112   3.159 -0.4337 -0.4911  0.8489
 6453SOL    HW230996   2.663   4.081   3.202 -0.9532  0.1462  0.0243
 6454SOL     OW30997   0.495   4.225   6.020 -0.2068 -0.2380 -0.0987
 6454SOL    HW130998   0.476   4.307   6.065 -0.2685  0.5383 -1.5412
 6454SOL    HW230999   0.436   4.159   6.056 -2.1672  1.6522  0.0921
 6455SOL     OW31000   0.006   0.150   6.851 -0.3189  0.3916  0.1459
 6455SOL    HW131001   0.094   0.112   6.855  0.4846  2.0969 -1.5802
 6455SOL    HW231002   0.003   0.223   6.790  1.0078  0.3623  0.0419
 6456SOL     OW31003   3.234   1.590  10.100 -0.6959  0.3104  0.0229
 6456SOL    HW131004   3.196   1.667  10.058 -3.5750 -1.5636 -0.7567
 6456SOL    HW231005   3.210   1.603  10.192 -1.5704 -1.6396  0.0703
 6457SOL     OW31006   4.739   2.902   8.983  0.4925 -0.2831  0.1900
 6457SOL    HW131007   4.722   2.981   8.931 -0.9617 -0.0252  1.0335
 6457SOL    HW231008   0.009   2.943   9.069  1.3513 -0.0235 -0.0309
 6458SOL     OW31009   1.632   3.929   5.083  0.0950 -0.6632  0.3964
 6458SOL    HW131010   1.664   3.967   5.001 -0.9207 -0.1102  0.2514
 6458SOL    HW231011   1.595   3.852   5.040 -1.0486  0.7555 -1.1604
 6459SOL     OW31012   0.720   2.003   9.663 -0.4483  0.0125 -0.3953
 6459SOL    HW131013   0.661   1.935   9.695 -0.6364 -0.5166 -1.8998
 6459SOL    HW231014   0.754   2.040   9.745 -0.5284 -3.0359  0.9980
 6460SOL     OW31015   1.306   4.498   6.098  0.4400  0.0107 -0.6075
 6460SOL    HW131016   1.314   4.403   6.106  1.4244  0.1582  0.3069
 6460SOL    HW231017   1.304   4.517   6.192  2.1174 -1.8351 -0.1944
 6461SOL     OW31018   1.685   1.371  16.514  0.2357  0.4285  0.2272
 6461SOL    HW131019   1.692   1.445  16.575  0.8761  0.5927 -0.0402
 6461SOL    HW231020   1.605   1.332  16.547 -0.7154  0.0938 -2.4849
 6462SOL     OW31021   3.197   2.517   9.332 -0.2352 -0.5585 -0.0414
 6462SOL    HW131022   3.190   2.434   9.380 -0.1544  0.1414  1.1754
 6462SOL    HW231023   3.268   2.560   9.379  0.0697  1.4071 -2.3413
 6463SOL     OW31024   0.910   0.314   4.835  0.7602  0.3736 -0.1267
 6463SOL    HW131025   0.960   0.235   4.856  0.0650  0.0601  0.3274
 6463SOL    HW231026   0.849   0.318   4.909  0.8170 -2.0832  0.0402
 6464SOL     OW31027   2.878   1.213   7.126 -0.2025 -0.3649  0.4394
 6464SOL    HW131028   2.968   1.246   7.130  0.6175 -2.8250  2.3013
 6464SOL    HW231029   2.840   1.298   7.106 -1.7717 -1.1038  0.2530
 6465SOL     OW31030   1.706   3.847  13.389  0.1225  0.0488 -0.0749
 6465SOL    HW131031   1.724   3.847  13.295  1.3405 -0.0279  0.1683
 6465SOL    HW231032   1.662   3.765  13.413 -0.1561  0.7064  1.6995
 6466SOL     OW31033   4.506   1.049   7.581 -0.0741  0.6875 -0.2893
 6466SOL    HW131034   4.476   0.958   7.575 -1.6342  1.0740  1.7485
 6466SOL    HW231035   4.470   1.093   7.504 -0.0376  1.5934  0.2236
 6467SOL     OW31036   3.587   4.153   9.150  0.0635  0.0224 -0.5164
 6467SOL    HW131037   3.579   4.061   9.177 -1.0976 -0.1507 -1.4566
 6467SOL    HW231038   3.604   4.197   9.233 -1.8340 -2.3934  1.1519
 6468SOL     OW31039   3.121   0.121   5.602 -0.1032  0.3375 -0.2694
 6468SOL    HW131040   3.180   0.093   5.672 -0.7198  1.0739  0.5474
 6468SOL    HW231041   3.103   0.034   5.565 -2.2636  0.4733  0.4532
 6469SOL     OW31042   0.491   1.952   3.367  0.0293 -0.3732  0.9117
 6469SOL    HW131043   0.486   1.977   3.274  1.6799  0.0732  0.9326
 6469SOL    HW231044   0.448   2.031   3.400  0.7498  0.5772 -0.4107
 6470SOL     OW31045   1.061   2.156   7.750 -0.1565 -0.2575 -0.4074
 6470SOL    HW131046   1.094   2.133   7.837 -0.6125 -0.7583 -0.3705
 6470SOL    HW231047   1.139   2.195   7.710  0.1891  0.1381  0.6423
 6471SOL     OW31048   4.310   2.585   3.254  0.4774  0.3410 -0.2074
 6471SOL    HW131049   4.400   2.578   3.288  0.8370 -1.7678 -1.6406
 6471SOL    HW231050   4.251   2.590   3.329  0.7406 -0.1731  0.0288
 6472SOL     OW31051   1.007   0.659   2.510 -0.0005  0.4643  0.6484
 6472SOL    HW131052   1.070   0.596   2.474 -1.1623  0.8457 -2.0198
 6472SOL    HW231053   1.015   0.651   2.605  0.7515 -2.2736  0.3483
 6473SOL     OW31054   0.084   4.060  17.505  0.1575 -0.0550  0.0189
 6473SOL    HW131055   0.056   4.071  17.414 -1.1488 -2.9430  0.0572
 6473SOL    HW231056   0.003   4.048  17.555  0.5140  1.6999  0.9962
 6474SOL     OW31057   2.455   0.695  13.616 -0.5948 -0.1944 -0.0627
 6474SOL    HW131058   2.493   0.655  13.537 -2.0762 -0.5082 -0.6235
 6474SOL    HW231059   2.413   0.767  13.568 -0.5509 -0.3060 -0.2707
 6475SOL     OW31060   2.091   2.672   2.506 -0.5327 -0.5381  0.0462
 6475SOL    HW131061   2.178   2.636   2.491 -0.4104  0.1290 -0.8641
 6475SOL    HW231062   2.097   2.673   2.601  2.7594 -3.0710 -0.1398
 6476SOL     OW31063   1.822   0.943   8.658 -0.7394 -0.1861  0.0808
 6476SOL    HW131064   1.782   0.869   8.611 -2.2259  1.8263 -1.8420
 6476SOL    HW231065   1.799   1.012   8.595  0.5024  0.0440 -0.1117
 6477SOL     OW31066   0.017   1.372  10.426 -0.5567  0.2042  0.3168
 6477SOL    HW131067   0.104   1.333  10.427 -0.8323 -0.3550  2.2438
 6477SOL    HW231068   4.721   1.333  10.346  0.4530 -2.0510  0.9761
 6478SOL     OW31069   1.375   2.585   7.824 -0.0248  0.6803 -0.3628
 6478SOL    HW131070   1.431   2.510   7.802  0.2804  0.7611  0.1441
 6478SOL    HW231071   1.332   2.542   7.898  2.2815  0.0927  0.6315
 6479SOL     OW31072   3.280   0.690   5.698  0.4677  0.0979 -0.2445
 6479SOL    HW131073   3.351   0.695   5.761  1.4311 -0.2332 -1.2963
 6479SOL    HW231074   3.326   0.721   5.620 -2.5532  0.1490 -1.9806
 6480SOL     OW31075   2.246   0.897   8.366 -0.3032 -0.3633  0.4083
 6480SOL    HW131076   2.286   0.963   8.310 -0.3917 -0.6959 -0.0389
 6480SOL    HW231077   2.215   0.945   8.443 -0.9636  2.0115 -1.3687
 6481SOL     OW31078   2.781   1.814   7.183  0.1754  0.2568 -0.0727
 6481SOL    HW131079   2.780   1.751   7.255 -1.3458  0.4851  0.1004
 6481SOL    HW231080   2.768   1.762   7.104  1.1648  1.2742 -0.8941
 6482SOL     OW31081   1.421   0.066   3.579 -0.4092  0.5594 -0.2681
 6482SOL    HW131082   1.435   0.067   3.484 -0.5448 -0.7845 -0.3075
 6482SOL    HW231083   1.339   0.020   3.597  0.3187 -0.3780  0.6516
 6483SOL     OW31084   0.063   4.020  13.413  0.0454 -0.2728  0.1567
 6483SOL    HW131085   0.003   3.948  13.396 -0.1003 -0.2130  0.4081
 6483SOL    HW231086   0.019   4.079  13.474  0.0882  0.1699 -0.2390
 6484SOL     OW31087   1.408   2.702   0.671 -0.7361  0.1724  1.0398
 6484SOL    HW131088   1.398   2.781   0.725  2.7225 -0.2549  2.3318
 6484SOL    HW231089   1.503   2.692   0.680 -0.8743 -1.8941  0.2747
 6485SOL     OW31090   2.733   3.350   3.076 -0.3867  0.9302  0.6079
 6485SOL    HW131091   2.700   3.271   3.119 -0.4757  0.4933 -0.2419
 6485SOL    HW231092   2.730   3.418   3.143  0.9627 -0.3500  1.9564
 6486SOL     OW31093   4.032   3.777   7.775 -0.0214  0.7697 -0.9620
 6486SOL    HW131094   3.987   3.848   7.820 -1.2432 -0.3125 -0.4750
 6486SOL    HW231095   3.953   3.726   7.754  1.2851 -1.3451 -0.7080
 6487SOL     OW31096   1.982   1.800  12.006  0.5850 -0.6571 -0.3536
 6487SOL    HW131097   2.040   1.830  11.936  0.1490  2.9682  0.8265
 6487SOL    HW231098   1.989   1.705  12.000 -0.0172 -0.7825  0.8333
 6488SOL     OW31099   2.000   2.493   9.443 -0.1243  0.2937 -0.8125
 6488SOL    HW131100   1.938   2.564   9.425 -1.5679 -0.2400  1.9930
 6488SOL    HW231101   1.951   2.416   9.472 -1.4599  0.6180 -2.1827
 6489SOL     OW31102   1.483   1.581  14.495 -0.6121  0.4880  0.0089
 6489SOL    HW131103   1.502   1.538  14.579  0.3338  1.4224  0.2709
 6489SOL    HW231104   1.422   1.515  14.463  1.4569 -0.2671 -2.3543
 6490SOL     OW31105   1.821   3.765   3.582  0.4320 -0.4890 -0.5151
 6490SOL    HW131106   1.867   3.683   3.564 -0.8069 -1.3126  0.0818
 6490SOL    HW231107   1.736   3.758   3.537  1.2555 -0.3720 -2.0864
 6491SOL     OW31108   4.568   2.820   5.198  0.3479  0.1179 -0.2263
 6491SOL    HW131109   4.510   2.876   5.250 -0.9371 -1.0980 -0.3681
 6491SOL    HW231110   4.547   2.729   5.219  1.0694  0.1642  0.7011
 6492SOL     OW31111   1.580   1.311   1.153  0.0254  0.0126 -0.2177
 6492SOL    HW131112   1.599   1.295   1.246  0.6354  0.6692 -0.2289
 6492SOL    HW231113   1.548   1.402   1.159  0.2412  0.1363 -0.9766
 6493SOL     OW31114   0.326   1.318  10.794 -0.7442 -0.3145  0.3488
 6493SOL    HW131115   0.337   1.407  10.759  0.7681 -0.1404  1.2801
 6493SOL    HW231116   0.371   1.280  10.718  1.6229  3.1461  0.0353
 6494SOL     OW31117   0.055   4.662   9.818 -0.1267  0.2708 -0.4196
 6494SOL    HW131118   0.129   4.654   9.759 -0.6150  1.3345 -1.1700
 6494SOL    HW231119   0.084   4.632   9.905  0.0952  1.1062 -0.2038
 6495SOL     OW31120   0.307   0.119  10.090  0.2804 -0.0589  0.0752
 6495SOL    HW131121   0.237   0.181  10.112 -0.7537 -0.9808 -0.5578
 6495SOL    HW231122   0.370   0.180  10.053  0.0230  1.2684  1.8126
 6496SOL     OW31123   3.635   4.668  15.534  0.1537  0.1664 -0.4317
 6496SOL    HW131124   3.677   4.604  15.590 -0.6280  0.6740  0.7393
 6496SOL    HW231125   3.712   4.683  15.480  0.7464 -1.1601  0.0569
 6497SOL     OW31126   3.106   2.672   6.664  0.1260 -0.0693 -0.2621
 6497SOL    HW131127   3.187   2.660   6.614  0.3998  0.4511  0.0653
 6497SOL    HW231128   3.142   2.645   6.749 -2.3328 -0.7132  0.6038
 6498SOL     OW31129   0.842   4.254   6.801 -0.3491 -0.2277 -0.0008
 6498SOL    HW131130   0.752   4.229   6.824  0.1324 -2.2929 -0.3412
 6498SOL    HW231131   0.830   4.337   6.755 -1.8783  0.5654  1.8354
 6499SOL     OW31132   1.535   2.394   2.869 -0.1093 -0.2940  0.2669
 6499SOL    HW131133   1.573   2.477   2.841  0.7592 -0.2048  1.7460
 6499SOL    HW231134   1.577   2.383   2.954 -1.1487 -2.3892  0.4984
 6500SOL     OW31135   1.024   0.939   2.222 -0.6480 -0.3702  0.2040
 6500SOL    HW131136   1.087   0.899   2.282  1.0646 -0.8314 -1.8946
 6500SOL    HW231137   0.980   1.006   2.274  2.0318  1.7509 -0.2994
 6501SOL     OW31138   2.645   3.956   7.485 -0.6265  0.2654  0.1504
 6501SOL    HW131139   2.618   3.926   7.572  2.6637  0.6436  1.2836
 6501SOL    HW231140   2.648   4.050   7.502  0.1616  0.4499 -1.0172
 6502SOL     OW31141   4.266   0.525   6.298  0.2062 -0.5812 -0.0547
 6502SOL    HW131142   4.187   0.571   6.328  0.0950  1.4112 -3.3246
 6502SOL    HW231143   4.238   0.434   6.293 -1.2781 -0.1813  0.7974
 6503SOL     OW31144   2.363   1.624   9.490 -0.1602 -0.0710  0.2057
 6503SOL    HW131145   2.451   1.587   9.499  0.6203  1.9242  0.7689
 6503SOL    HW231146   2.363   1.681   9.566 -2.5501  0.2468 -0.0258
 6504SOL     OW31147   4.359   2.064   9.461 -0.3328  0.7700 -0.0658
 6504SOL    HW131148   4.307   2.112   9.397 -1.0577  1.8297  1.3346
 6504SOL    HW231149   4.337   2.114   9.539  0.9403 -2.1461  2.1713
 6505SOL     OW31150   0.861   0.476  15.930  0.2603  0.6524 -0.2090
 6505SOL    HW131151   0.954   0.498  15.930  1.0038 -2.5638  0.9575
 6505SOL    HW231152   0.838   0.471  16.023  0.1582 -2.3410 -0.4127
 6506SOL     OW31153   2.311   2.817   7.354 -0.5997 -0.2894  0.2474
 6506SOL    HW131154   2.233   2.859   7.388 -1.5421 -2.7909  1.1713
 6506SOL    HW231155   2.379   2.820   7.421  0.5486 -1.0375 -0.8806
 6507SOL     OW31156   0.437   2.475   8.842 -0.0178  0.4509 -0.2811
 6507SOL    HW131157   0.420   2.458   8.935  1.9432 -0.4314 -0.0882
 6507SOL    HW231158   0.352   2.462   8.801  0.2939  0.6700 -0.9914
 6508SOL     OW31159   3.116   1.331   6.009 -0.0287  0.0185  0.7027
 6508SOL    HW131160   3.134   1.416   5.969 -0.1822 -0.6348 -0.7706
 6508SOL    HW231161   3.204   1.293   6.011  0.0569  0.2438  1.2541
 6509SOL     OW31162   1.947   2.253  11.459 -0.0506  0.4636 -0.1139
 6509SOL    HW131163   2.010   2.323  11.443  0.7331 -0.4062 -0.8482
 6509SOL    HW231164   1.998   2.181  11.422  0.5325  1.0536 -0.4661
 6510SOL     OW31165   1.059   2.836   4.077  0.2031  0.2460 -0.4085
 6510SOL    HW131166   1.130   2.788   4.033 -0.1759 -2.4130  1.8404
 6510SOL    HW231167   1.001   2.870   4.008 -0.2210 -0.0323 -0.1896
 6511SOL     OW31168   1.615   1.923   8.682 -0.3815 -0.1391 -0.3333
 6511SOL    HW131169   1.594   1.886   8.768 -2.8923  1.1408 -0.3622
 6511SOL    HW231170   1.704   1.892   8.668 -1.0365 -0.6795 -3.1826
 6512SOL     OW31171   0.058   0.561   5.047 -1.1625  0.3170  0.0247
 6512SOL    HW131172   4.705   0.585   5.055 -0.5062  2.2021  2.1014
 6512SOL    HW231173   0.087   0.586   5.135 -0.7360  1.4618 -0.4506
 6513SOL     OW31174   3.408   2.204   8.219 -0.5084  0.8539 -0.6005
 6513SOL    HW131175   3.430   2.151   8.142  1.8899 -0.7282  1.1728
 6513SOL    HW231176   3.317   2.228   8.205 -0.9678 -0.2107  0.6259
 6514SOL     OW31177   0.565   0.560  10.642  0.0018  0.3531 -0.0861
 6514SOL    HW131178   0.645   0.528  10.600  0.5900  0.7451  0.7630
 6514SOL    HW231179   0.514   0.479  10.647 -1.0198  1.1191  1.6664
 6515SOL     OW31180   3.774   4.107   4.681 -0.2909 -0.1627 -0.0091
 6515SOL    HW131181   3.806   4.131   4.768 -1.7776  1.2476  0.1571
 6515SOL    HW231182   3.685   4.079   4.700  0.1615 -1.3734  0.2815
 6516SOL     OW31183   0.636   2.501   8.281 -0.7658  0.6660  0.4463
 6516SOL    HW131184   0.655   2.410   8.256 -0.0040  0.3887  2.0626
 6516SOL    HW231185   0.687   2.511   8.361 -0.0907  2.3293 -0.2064
 6517SOL     OW31186   0.434   0.307  10.655  0.0577  0.6305 -0.1407
 6517SOL    HW131187   0.511   0.251  10.661  0.4927  1.1617 -0.7546
 6517SOL    HW231188   0.405   0.297  10.564  0.3705 -0.4971 -0.1139
 6518SOL     OW31189   0.426   1.010   2.503 -0.1173  0.0213  0.6411
 6518SOL    HW131190   0.358   0.978   2.444 -1.2200 -0.7565  2.3502
 6518SOL    HW231191   0.467   0.930   2.536 -0.5981 -1.3902 -2.1765
 6519SOL     OW31192   2.401   0.750  12.064 -0.8390  0.1751 -0.7802
 6519SOL    HW131193   2.365   0.838  12.055  1.7011  1.2564 -0.3344
 6519SOL    HW231194   2.388   0.722  11.974 -1.4270  2.0225 -1.2643
 6520SOL     OW31195   3.848   4.518   9.925  0.1260 -0.2254 -0.0877
 6520SOL    HW131196   3.772   4.526   9.983 -0.1550  0.6483 -0.5771
 6520SOL    HW231197   3.898   4.458   9.980  0.8313  0.9179  0.5067
 6521SOL     OW31198   2.496   0.756   2.426  0.1116 -0.3492  0.5111
 6521SOL    HW131199   2.584   0.723   2.411 -0.0498 -0.5038 -0.1046
 6521SOL    HW231200   2.515   0.847   2.448 -2.8119  0.6131 -0.9340
 6522SOL     OW31201   2.262   4.122  15.368  0.0846  0.9675  0.2615
 6522SOL    HW131202   2.297   4.192  15.314 -0.7951  0.2053 -1.3129
 6522SOL    HW231203   2.266   4.044  15.312 -0.7016  0.5588  0.7675
 6523SOL     OW31204   0.326   2.081   6.712 -0.4927  0.4465 -0.5835
 6523SOL    HW131205   0.320   2.127   6.628  0.5745  0.9736 -0.3693
 6523SOL    HW231206   0.417   2.106   6.724 -0.0863 -0.4763 -1.7522
 6524SOL     OW31207   0.138   2.560   6.697  0.3227  0.0359  0.0493
 6524SOL    HW131208   0.122   2.478   6.651  1.5528 -0.2314  0.1071
 6524SOL    HW231209   0.051   2.600   6.702 -0.9095 -2.5604 -0.9185
 6525SOL     OW31210   3.951   1.995   1.033 -0.1602 -0.1399 -0.5719
 6525SOL    HW131211   3.939   1.904   1.006 -0.1146 -0.0493 -0.8983
 6525SOL    HW231212   3.909   1.991   1.119  2.5980  0.6234  0.8121
 6526SOL     OW31213   0.919   0.356   7.866 -0.6174 -0.1145 -0.9582
 6526SOL    HW131214   0.852   0.369   7.933  0.1863  1.6496 -0.5004
 6526SOL    HW231215   0.914   0.439   7.818 -1.3611  0.9575  0.9864
 6527SOL     OW31216   0.773   3.376   7.548  0.2511 -0.0817 -0.5548
 6527SOL    HW131217   0.789   3.324   7.469  0.6365  1.3722 -1.4295
 6527SOL    HW231218   0.862   3.365   7.583 -0.1900  0.3053  0.6881
 6528SOL     OW31219   2.437   1.707   5.893 -0.8172 -0.1566  0.2805
 6528SOL    HW131220   2.530   1.717   5.874 -0.9229  0.6451  0.1728
 6528SOL    HW231221   2.411   1.666   5.810  1.7188  2.4841 -1.7984
 6529SOL     OW31222   0.958   0.194   0.458 -0.0324 -0.2905 -0.3210
 6529SOL    HW131223   0.871   0.159   0.478 -0.7345  2.0409  0.8001
 6529SOL    HW231224   1.003   0.130   0.404 -1.0625 -0.9339 -0.4205
 6530SOL     OW31225   1.138   4.515   1.993  0.3985  0.0332  0.0303
 6530SOL    HW131226   1.097   4.429   1.982 -1.9047  0.9537  1.5070
 6530SOL    HW231227   1.185   4.529   1.910  0.8237  0.7127  0.3850
 6531SOL     OW31228   3.152   3.795   4.102 -0.4269  0.7600  0.4267
 6531SOL    HW131229   3.241   3.800   4.138 -1.1617 -1.3559  2.5209
 6531SOL    HW231230   3.175   3.791   4.009  0.0043  0.6490  0.5345
 6532SOL     OW31231   3.307   0.486   4.233 -0.3983  0.1198  0.1041
 6532SOL    HW131232   3.319   0.474   4.138  0.2344  2.5403 -0.1347
 6532SOL    HW231233   3.298   0.391   4.241  1.7077 -0.0786  0.1362
 6533SOL     OW31234   1.035   4.288   8.466 -0.5411 -0.1094 -0.1359
 6533SOL    HW131235   1.060   4.290   8.559 -5.1065  1.0660  1.0676
 6533SOL    HW231236   1.108   4.331   8.422 -0.5520  0.6631  0.6034
 6534SOL     OW31237   4.522   1.880   9.290  0.1738  0.4828 -0.3327
 6534SOL    HW131238   4.603   1.844   9.326  0.2007  1.4313  0.5483
 6534SOL    HW231239   4.480   1.897   9.375  0.6413 -0.4712  0.0921
 6535SOL     OW31240   1.787   3.265   2.974 -0.5897 -0.2924 -0.8200
 6535SOL    HW131241   1.763   3.173   2.970  1.6406 -0.8563 -0.7667
 6535SOL    HW231242   1.741   3.291   3.054 -0.7197 -1.1230 -0.6245
 6536SOL     OW31243   1.013   0.157  12.401 -0.0105 -0.5813 -0.0473
 6536SOL    HW131244   0.948   0.130  12.337 -2.2516 -0.4524  2.1664
 6536SOL    HW231245   1.097   0.152  12.356 -0.2767  2.4405 -0.8724
 6537SOL     OW31246   0.849   1.921   3.990  0.5293 -0.4326  0.0825
 6537SOL    HW131247   0.822   1.836   4.024  0.0226 -0.3675 -0.1582
 6537SOL    HW231248   0.897   1.899   3.910 -0.1267 -2.0913  0.1572
 6538SOL     OW31249   2.793   0.482  14.850 -0.7893  0.2022  0.3881
 6538SOL    HW131250   2.794   0.388  14.830 -0.2466  0.5042 -1.0190
 6538SOL    HW231251   2.698   0.482  14.867 -0.2613 -0.8169  3.2289
 6539SOL     OW31252   4.391   2.948   8.765 -0.7670  0.4249 -0.0868
 6539SOL    HW131253   4.385   2.988   8.677 -0.3483 -1.3628 -0.9219
 6539SOL    HW231254   4.448   3.010   8.810 -0.7927  0.8585 -0.6484
 6540SOL     OW31255   0.176   3.340  17.116  0.0050  0.4507  0.5986
 6540SOL    HW131256   0.270   3.339  17.101 -0.5616 -1.8886 -3.0109
 6540SOL    HW231257   0.179   3.413  17.178 -0.4176  0.5894  0.4588
 6541SOL     OW31258   2.261   2.499   3.090  0.1292  0.1925  0.3602
 6541SOL    HW131259   2.239   2.415   3.130  0.8321 -0.6305 -1.0115
 6541SOL    HW231260   2.211   2.563   3.141  0.1255 -1.4062  2.4081
 6542SOL     OW31261   1.979   0.240  17.441 -0.7948  0.3660 -0.1272
 6542SOL    HW131262   1.999   0.241  17.534 -1.4924 -0.6570  0.0243
 6542SOL    HW231263   1.886   0.217  17.439 -0.6207 -0.3373  0.0832
 6543SOL     OW31264   1.188   3.062   8.366 -0.0030  0.2178 -0.0985
 6543SOL    HW131265   1.215   2.981   8.322 -0.1838  1.9539 -3.4611
 6543SOL    HW231266   1.106   3.026   8.400  0.6023 -0.4041  0.6988
 6544SOL     OW31267   3.579   3.475   4.787  0.5356  0.1212  0.1617
 6544SOL    HW131268   3.488   3.500   4.802  0.7351  0.1355  1.3119
 6544SOL    HW231269   3.607   3.428   4.865  0.3979  0.0082  0.1435
 6545SOL     OW31270   2.939   1.187  12.440 -0.7132  0.1651 -0.0883
 6545SOL    HW131271   2.875   1.246  12.479 -0.0522 -0.1365  1.4492
 6545SOL    HW231272   2.901   1.109  12.479  0.3499 -0.5161 -0.4083
 6546SOL     OW31273   0.669   4.088  12.308  0.0927  0.0881 -0.0994
 6546SOL    HW131274   0.750   4.050  12.344 -0.2246  1.3877  2.0054
 6546SOL    HW231275   0.686   4.083  12.214  0.5812 -1.9012  0.0737
 6547SOL     OW31276   3.175   3.470   3.988  0.0130  0.3310  0.4075
 6547SOL    HW131277   3.190   3.529   3.914  0.6307  0.7190  0.8330
 6547SOL    HW231278   3.262   3.472   4.029  1.6143 -0.3058 -2.8756
 6548SOL     OW31279   2.353   2.376   5.307  0.6721  0.0905  0.4683
 6548SOL    HW131280   2.291   2.355   5.237  0.3069  0.6016  0.6363
 6548SOL    HW231281   2.420   2.421   5.255 -0.0006  2.1316  1.3750
 6549SOL     OW31282   4.425   4.168   9.841  0.3971  0.6262 -0.1152
 6549SOL    HW131283   4.400   4.212   9.760 -0.7885 -2.1184 -1.2499
 6549SOL    HW231284   4.519   4.159   9.828  0.2375 -1.5182  0.1368
 6550SOL     OW31285   3.474   1.920  13.151  0.0994  0.6445  0.2682
 6550SOL    HW131286   3.412   1.899  13.220 -0.5786 -0.1364 -0.5860
 6550SOL    HW231287   3.416   1.975  13.097  1.0986  0.6991 -0.7592
 6551SOL     OW31288   3.332   1.599  11.988 -0.3537 -0.0241  0.5034
 6551SOL    HW131289   3.311   1.669  11.927 -0.6981 -0.4289  0.1620
 6551SOL    HW231290   3.320   1.636  12.076  0.5496  0.0964  0.5788
 6552SOL     OW31291   1.418   4.040  13.539  0.1063 -0.3292 -0.0407
 6552SOL    HW131292   1.392   3.950  13.519 -1.5882  0.6892 -2.3644
 6552SOL    HW231293   1.463   4.033  13.624  0.6348 -1.6709 -0.4225
 6553SOL     OW31294   0.483   0.080   2.384 -0.3676  0.5689 -0.3201
 6553SOL    HW131295   0.523   0.160   2.351 -0.9844  1.0214  0.0449
 6553SOL    HW231296   0.402   0.081   2.333  0.6852 -0.2683 -2.0088
 6554SOL     OW31297   0.281   0.216   9.195  0.2456 -0.9578  0.2042
 6554SOL    HW131298   0.185   0.214   9.186  0.3192  2.4190 -1.2612
 6554SOL    HW231299   0.300   0.303   9.159 -0.9935  0.0919  2.0278
 6555SOL     OW31300   4.407   1.870  10.297 -0.1180  0.3635 -0.0738
 6555SOL    HW131301   4.326   1.920  10.292 -1.3053 -1.6023 -0.4720
 6555SOL    HW231302   4.469   1.942  10.288  1.0543 -0.7200 -0.7243
 6556SOL     OW31303   1.009   0.591   2.772 -0.2311  0.2355 -0.2115
 6556SOL    HW131304   0.923   0.591   2.815  0.1677  1.1128  0.5926
 6556SOL    HW231305   1.016   0.499   2.747 -2.0085  0.0322  0.0368
 6557SOL     OW31306   4.196   1.548   7.509  0.4264 -0.3057 -0.5333
 6557SOL    HW131307   4.182   1.463   7.550 -2.7700  0.8587  0.8118
 6557SOL    HW231308   4.265   1.582   7.566 -0.6296  2.3140 -0.8046
 6558SOL     OW31309   2.807   4.420   3.486 -0.1088 -0.1936 -0.2232
 6558SOL    HW131310   2.790   4.441   3.578 -0.2806 -2.8304  0.3344
 6558SOL    HW231311   2.722   4.436   3.446 -0.2443 -0.0261  0.1298
 6559SOL     OW31312   1.760   0.744   8.029 -0.6680 -0.1523  0.0387
 6559SOL    HW131313   1.745   0.790   8.112 -0.4353  3.9898 -2.1743
 6559SOL    HW231314   1.810   0.808   7.978 -0.5243  1.2025  1.8734
 6560SOL     OW31315   2.498   4.687  13.618  0.0138 -0.5834  0.3184
 6560SOL    HW131316   2.562   4.726  13.558 -0.7536 -2.1129 -1.5129
 6560SOL    HW231317   2.417   4.716  13.576 -0.3648  1.6340  2.6083
 6561SOL     OW31318   2.441   2.643  17.720  0.6460  0.4521  0.2096
 6561SOL    HW131319   2.534   2.639  17.699  0.3671  0.1311 -0.9663
 6561SOL    HW231320   2.436   2.606   0.053 -1.7179 -1.3126 -0.6657
 6562SOL     OW31321   1.075   2.310   2.521 -0.7369  0.2857  0.4126
 6562SOL    HW131322   1.122   2.289   2.440 -1.8762  1.4481 -0.5541
 6562SOL    HW231323   1.104   2.399   2.540  3.2190 -0.5173 -1.8481
 6563SOL     OW31324   3.698   0.151   8.400  0.2963 -0.2585  0.6044
 6563SOL    HW131325   3.684   0.245   8.406 -0.4884 -0.3691  0.4070
 6563SOL    HW231326   3.609   0.118   8.405 -0.4014  1.6626  0.7969
 6564SOL     OW31327   0.253   0.100   3.345 -0.8464 -0.4422  0.8466
 6564SOL    HW131328   0.168   0.141   3.360 -0.1228  1.5139 -0.4082
 6564SOL    HW231329   0.278   0.069   3.432  4.1714 -0.7660 -0.7110
 6565SOL     OW31330   3.564   1.870   6.480  0.0539  0.5048  0.0527
 6565SOL    HW131331   3.471   1.855   6.466 -0.2645  1.7909  0.8196
 6565SOL    HW231332   3.553   1.957   6.517  1.6577  1.1007 -0.8464
 6566SOL     OW31333   0.119   4.015   3.971 -0.4326  0.2517 -0.1086
 6566SOL    HW131334   0.170   3.934   3.980  1.5858  1.1922 -3.1668
 6566SOL    HW231335   0.032   3.988   3.941 -0.1464 -0.2931 -0.4487
 6567SOL     OW31336   4.435   4.087   5.170 -0.5292 -0.0252 -0.2315
 6567SOL    HW131337   4.355   4.122   5.208  0.0269  1.3336 -0.3208
 6567SOL    HW231338   4.408   3.997   5.153 -2.9975  1.1596 -2.5929
 6568SOL     OW31339   0.669   3.054   3.224 -0.4558 -0.5487  0.4633
 6568SOL    HW131340   0.644   2.970   3.186 -0.0581 -0.8581  0.8966
 6568SOL    HW231341   0.641   3.121   3.162 -0.7196  0.4952  1.7116
 6569SOL     OW31342   4.463   3.482   3.326 -0.0708  0.5042 -0.1429
 6569SOL    HW131343   4.424   3.545   3.266 -2.5566 -0.7464  0.1453
 6569SOL    HW231344   4.386   3.463   3.379 -2.4809  2.2502 -3.0614
 6570SOL     OW31345   3.219   2.462   8.239  0.5115  0.1337 -0.2779
 6570SOL    HW131346   3.165   2.523   8.189  0.6193  0.9784  0.6293
 6570SOL    HW231347   3.155   2.423   8.299  1.4937 -0.1448  0.5927
 6571SOL     OW31348   3.814   4.342  14.102 -0.4449  0.1265  0.0444
 6571SOL    HW131349   3.836   4.264  14.153 -2.0512 -0.9206 -0.8643
 6571SOL    HW231350   3.803   4.405  14.174 -0.6416 -0.0523  0.1698
 6572SOL     OW31351   3.127   0.737   7.856  0.3442  0.2403  0.0882
 6572SOL    HW131352   3.147   0.744   7.949 -2.0791  1.4050  0.5350
 6572SOL    HW231353   3.129   0.642   7.849  0.9016  0.1022  2.2672
 6573SOL     OW31354   1.120   3.860  15.605 -0.7527 -0.4451 -0.4336
 6573SOL    HW131355   1.027   3.868  15.580 -0.1100  2.6517 -1.8410
 6573SOL    HW231356   1.142   3.770  15.580  3.2521  1.0035 -1.9776
 6574SOL     OW31357   2.387   2.596   5.553 -0.3704 -0.2626 -0.0294
 6574SOL    HW131358   2.408   2.546   5.631  1.6932  0.2973 -0.2025
 6574SOL    HW231359   2.458   2.562   5.499  1.6214  1.7511  1.2710
 6575SOL     OW31360   1.510   2.710   4.201 -0.4669  0.3458  0.2292
 6575SOL    HW131361   1.559   2.789   4.221  3.2297 -1.9332  0.2720
 6575SOL    HW231362   1.471   2.680   4.284  0.0232 -2.4548 -0.5271
 6576SOL     OW31363   2.932   0.407   4.553 -0.0247  0.2334 -0.4079
 6576SOL    HW131364   3.022   0.437   4.568 -0.5826  1.0967  1.1821
 6576SOL    HW231365   2.894   0.494   4.563 -0.3578  0.1488 -0.9606
 6577SOL     OW31366   4.063   1.871   1.421 -0.1301  0.2259  0.1002
 6577SOL    HW131367   4.001   1.943   1.431 -0.4772  0.0255 -0.6810
 6577SOL    HW231368   4.061   1.855   1.327  2.2400 -1.0896  0.2554
 6578SOL     OW31369   0.731   0.539   2.101  0.6932 -0.1115  0.2575
 6578SOL    HW131370   0.788   0.600   2.148 -1.2808  0.7764  1.5225
 6578SOL    HW231371   0.713   0.588   2.021  1.1567 -1.8079 -0.8739
 6579SOL     OW31372   0.780   1.185   8.704  0.2472 -0.1041 -0.6368
 6579SOL    HW131373   0.772   1.142   8.619  0.6708  1.5362 -1.5005
 6579SOL    HW231374   0.706   1.244   8.692  0.6150  0.0908 -1.9206
 6580SOL     OW31375   1.595   2.175   7.396 -0.5966 -0.4177  0.5236
 6580SOL    HW131376   1.637   2.166   7.310  0.0445  2.7094  0.4909
 6580SOL    HW231377   1.517   2.220   7.363  0.3032  0.9733  0.2687
 6581SOL     OW31378   3.124   2.563   2.958 -0.3849  0.5316 -0.2761
 6581SOL    HW131379   3.155   2.611   3.034 -0.2090  3.5414 -2.2513
 6581SOL    HW231380   3.033   2.592   2.953 -0.0817  1.2868 -1.4413
 6582SOL     OW31381   3.829   0.261   3.438  0.1839  0.2362 -0.0543
 6582SOL    HW131382   3.864   0.288   3.523  0.8230 -2.1442  0.4589
 6582SOL    HW231383   3.912   0.249   3.391  0.8719 -2.4400  1.8218
 6583SOL     OW31384   1.179   0.355   5.768 -0.3858 -0.6256  0.1955
 6583SOL    HW131385   1.222   0.374   5.685 -0.1606 -2.0573 -0.0166
 6583SOL    HW231386   1.231   0.282   5.803  1.0053  0.2972  0.0177
 6584SOL     OW31387   1.619   1.674  13.590  0.3099 -0.0408  0.0275
 6584SOL    HW131388   1.532   1.653  13.556 -0.2506 -1.1323  2.1297
 6584SOL    HW231389   1.608   1.757  13.637 -0.3194  0.7640 -1.5404
 6585SOL     OW31390   3.778   4.610  15.303 -0.0376 -0.2716  0.1646
 6585SOL    HW131391   3.716   4.621  15.231  2.1770  0.4452 -1.5927
 6585SOL    HW231392   3.846   4.557  15.262  0.9384  1.6101 -0.6505
 6586SOL     OW31393   3.685   2.901   2.047 -0.6027 -0.1403  0.5538
 6586SOL    HW131394   3.687   2.949   1.964 -0.9178 -0.5251  0.3229
 6586SOL    HW231395   3.591   2.880   2.048 -0.3758 -1.0789  1.1348
 6587SOL     OW31396   1.153   1.544  16.593  0.2739 -0.2218 -0.3041
 6587SOL    HW131397   1.097   1.614  16.625  0.8898 -0.0593  0.4260
 6587SOL    HW231398   1.095   1.469  16.607 -0.3865  0.0659 -1.5412
 6588SOL     OW31399   1.048   0.723   9.145 -0.3780  0.1048  0.1995
 6588SOL    HW131400   1.116   0.682   9.199  1.9364  1.1543 -1.9249
 6588SOL    HW231401   1.097   0.763   9.074  0.7221 -0.5495  0.5967
 6589SOL     OW31402   4.573   4.066   4.387  0.3269 -0.3214  0.3591
 6589SOL    HW131403   4.501   4.027   4.438 -0.0624  0.5302  0.4585
 6589SOL    HW231404   4.628   4.081   4.464 -0.0105  1.1678  0.3016
 6590SOL     OW31405   0.419   1.333  17.332 -0.5083  0.2873  0.3627
 6590SOL    HW131406   0.379   1.420  17.329 -0.1361  0.4305 -0.2987
 6590SOL    HW231407   0.471   1.348  17.411  1.6598 -0.9493 -0.8247
 6591SOL     OW31408   4.323   2.847   9.028 -0.6732 -0.4860  0.4078
 6591SOL    HW131409   4.407   2.802   9.032 -1.2549 -1.4899  1.2743
 6591SOL    HW231410   4.327   2.881   8.938 -0.8540 -1.4896  0.0251
 6592SOL     OW31411   3.868   0.655   7.726  0.3422 -0.3695  0.0060
 6592SOL    HW131412   3.824   0.726   7.773  0.5485 -0.7407  0.7623
 6592SOL    HW231413   3.869   0.598   7.803 -1.6896  1.7585  1.6209
 6593SOL     OW31414   2.385   3.760   5.311 -0.1305 -0.2977  0.4201
 6593SOL    HW131415   2.334   3.680   5.328 -1.2701  0.9577  2.8340
 6593SOL    HW231416   2.329   3.835   5.332 -0.9538 -0.1796 -2.1635
 6594SOL     OW31417   3.091   0.620   4.356  0.6265 -0.4014  0.0147
 6594SOL    HW131418   3.135   0.590   4.436  0.3009 -2.0477 -0.4347
 6594SOL    HW231419   3.165   0.606   4.297  0.5406 -0.0021 -0.1870
 6595SOL     OW31420   0.302   4.261   4.277  0.2656 -0.0454 -0.0824
 6595SOL    HW131421   0.288   4.199   4.205 -0.1030  1.0497 -0.9508
 6595SOL    HW231422   0.368   4.318   4.238 -0.0502 -0.2667 -0.9588
 6596SOL     OW31423   0.792   0.931   5.583  0.0287 -0.2242  0.0290
 6596SOL    HW131424   0.826   0.852   5.625 -2.8534 -1.4305  0.0478
 6596SOL    HW231425   0.816   1.004   5.640 -0.3398  0.2691 -0.4532
 6597SOL     OW31426   2.559   2.218  11.321  0.6628 -0.5300  0.2968
 6597SOL    HW131427   2.468   2.200  11.341  0.2450  3.3003  1.8986
 6597SOL    HW231428   2.606   2.165  11.386  1.6699  0.5545  0.4664
 6598SOL     OW31429   1.375   3.019  15.959 -1.2057  0.0776  0.8140
 6598SOL    HW131430   1.317   3.020  16.034  1.2726 -2.8694  2.7637
 6598SOL    HW231431   1.346   2.940  15.914 -2.5004  1.3917 -0.6404
 6599SOL     OW31432   1.921   0.743   7.366 -0.1022  0.7841  0.1694
 6599SOL    HW131433   1.837   0.786   7.351 -0.5349 -0.2852 -0.4636
 6599SOL    HW231434   1.891   0.652   7.373  0.0030  0.9125  2.2207
 6600SOL     OW31435   2.515   0.245  17.641 -0.5142 -0.2493 -0.3148
 6600SOL    HW131436   2.566   0.324  17.621  0.3593 -1.2915 -2.1602
 6600SOL    HW231437   2.541   0.181  17.575 -0.7197  0.4350 -1.0533
 6601SOL     OW31438   3.460   1.410   5.844 -0.4979  0.1500  0.0026
 6601SOL    HW131439   3.471   1.319   5.874  1.0397  0.0318 -0.9352
 6601SOL    HW231440   3.404   1.400   5.767  1.3687 -3.1571 -0.9264
 6602SOL     OW31441   1.563   0.479   4.446 -0.1916  0.7519 -0.5521
 6602SOL    HW131442   1.630   0.512   4.386 -0.2544  1.0127 -0.4790
 6602SOL    HW231443   1.520   0.413   4.392 -0.2600 -0.8114  1.4221
 6603SOL     OW31444   3.005   0.025   7.894 -0.1791 -0.0656 -0.5717
 6603SOL    HW131445   3.087   0.071   7.911 -0.5826  0.4187  0.0800
 6603SOL    HW231446   3.000   0.034   7.799  1.3992 -1.0674 -0.7386
 6604SOL     OW31447   4.419   4.385   2.047 -0.3243 -0.5905 -0.4502
 6604SOL    HW131448   4.370   4.411   2.125 -0.2287  0.5776 -0.7878
 6604SOL    HW231449   4.379   4.300   2.030  1.2579 -1.7237  1.3509
 6605SOL     OW31450   2.013   2.895   0.468 -0.1109 -0.5492 -0.1375
 6605SOL    HW131451   1.949   2.825   0.484 -2.7710  2.1961  1.3328
 6605SOL    HW231452   2.095   2.850   0.447  0.1715 -0.2154  0.2654
 6606SOL     OW31453   3.068   0.052   3.260 -0.3069 -0.5938 -0.3458
 6606SOL    HW131454   3.072   0.126   3.199 -1.4914  0.8657  1.3699
 6606SOL    HW231455   3.052   4.722   3.195 -0.5181 -0.1131 -0.8084
 6607SOL     OW31456   2.102   4.717  11.753  0.4147 -0.2113  0.0041
 6607SOL    HW131457   2.028   0.037  11.766 -0.5454 -0.9740 -2.1002
 6607SOL    HW231458   2.057   4.636  11.779  0.8521 -1.3582 -2.8751
 6608SOL     OW31459   1.439   2.619   5.289  0.2664 -0.0037  0.0943
 6608SOL    HW131460   1.404   2.707   5.302  1.0252  0.2113  0.6997
 6608SOL    HW231461   1.362   2.568   5.265  0.1094  1.0832 -1.6753
 6609SOL     OW31462   0.573   3.558  17.291 -0.4542 -0.3437  0.2117
 6609SOL    HW131463   0.513   3.632  17.309 -0.3167 -0.8529  2.7845
 6609SOL    HW231464   0.644   3.604  17.246 -3.0438  1.2851 -2.2160
 6610SOL     OW31465   1.635   1.114   8.032 -0.1889 -0.2123 -0.6287
 6610SOL    HW131466   1.636   1.068   7.948 -3.9061 -0.3597 -0.5994
 6610SOL    HW231467   1.603   1.201   8.009 -2.0504 -1.3005 -2.2041
 6611SOL     OW31468   3.957   3.320  15.659 -0.0604 -0.0216  0.1735
 6611SOL    HW131469   3.990   3.234  15.686 -0.2397 -0.4506 -0.9839
 6611SOL    HW231470   3.867   3.327  15.690  0.0544 -2.2509  0.9922
 6612SOL     OW31471   4.005   0.636  17.111  0.1269 -0.3371 -0.0555
 6612SOL    HW131472   3.935   0.577  17.139  1.3767 -0.8549  1.9881
 6612SOL    HW231473   3.992   0.624  17.017  0.0932  1.6914 -0.3122
 6613SOL     OW31474   1.855   1.515   6.324  0.3705 -0.0231  0.1518
 6613SOL    HW131475   1.890   1.483   6.407  0.0428  0.7560  0.5882
 6613SOL    HW231476   1.939   1.505   6.280 -0.8892 -3.5891 -1.3545
 6614SOL     OW31477   0.062   2.411   2.876 -0.4499  0.3938  0.1685
 6614SOL    HW131478   0.054   2.365   2.793  0.2322  1.3596 -0.4304
 6614SOL    HW231479   0.033   2.501   2.864  2.2166  1.1199 -0.7866
 6615SOL     OW31480   1.305   3.179  14.136  0.1418  0.3519 -0.1014
 6615SOL    HW131481   1.269   3.266  14.154 -1.4888 -0.2889 -0.2226
 6615SOL    HW231482   1.391   3.195  14.099  0.9832  2.3067  2.6547
 6616SOL     OW31483   0.849   3.151   1.206  0.0938 -0.0387  0.2787
 6616SOL    HW131484   0.850   3.117   1.295 -2.1639  0.3744  0.4668
 6616SOL    HW231485   0.943   3.160   1.191  0.0645 -1.2017 -0.6154
 6617SOL     OW31486   0.640   2.688   2.271 -0.1940 -0.0121 -0.4437
 6617SOL    HW131487   0.690   2.607   2.264 -1.6805 -1.0626  1.1863
 6617SOL    HW231488   0.706   2.746   2.308  0.0564 -1.0241  0.6789
 6618SOL     OW31489   3.932   2.028   9.438  0.3934  0.0266 -0.3090
 6618SOL    HW131490   3.922   2.101   9.498 -0.7336  0.2233 -0.7344
 6618SOL    HW231491   3.992   1.962   9.473  0.4622  0.0801 -0.3264
 6619SOL     OW31492   0.095   3.749  14.932  0.1325  0.2019  0.1968
 6619SOL    HW131493   0.152   3.771  15.006 -1.5804 -0.6144  1.7498
 6619SOL    HW231494   0.086   3.833  14.886 -0.4610  1.1067  1.9789
 6620SOL     OW31495   0.012   2.230   0.202  0.1817 -0.0330 -0.6187
 6620SOL    HW131496   0.072   2.303   0.187 -0.7802  0.9011  0.1067
 6620SOL    HW231497   0.063   2.150   0.186 -2.6589 -2.2351  1.2870
 6621SOL     OW31498   4.284   0.421  17.623 -0.3146  0.0644  0.3439
 6621SOL    HW131499   4.245   0.489  17.679 -2.9695 -2.1299  1.1592
 6621SOL    HW231500   4.288   0.475  17.544  0.0506  0.4437  0.6196
 6622SOL     OW31501   2.946   3.651   2.059  0.1037  0.3500  0.0128
 6622SOL    HW131502   2.948   3.605   1.975  0.8960  1.0242 -0.3302
 6622SOL    HW231503   2.895   3.730   2.040 -1.4076 -0.6603 -0.1797
 6623SOL     OW31504   0.903   1.391  17.471 -0.3691  0.5211 -0.2224
 6623SOL    HW131505   0.842   1.416  17.402  0.4658  1.9849 -0.4415
 6623SOL    HW231506   0.853   1.395  17.553 -1.3628 -0.0953 -0.8165
 6624SOL     OW31507   3.899   1.181   8.420 -0.0824  0.0006 -0.2253
 6624SOL    HW131508   3.899   1.275   8.402  1.9460  0.1707  0.7250
 6624SOL    HW231509   3.809   1.157   8.442 -0.0233 -1.1491 -1.2048
 6625SOL     OW31510   2.999   3.377  13.957  0.3415 -0.3032  0.4381
 6625SOL    HW131511   2.911   3.411  13.972  1.2126  2.4224 -0.6065
 6625SOL    HW231512   3.039   3.379  14.044 -1.7657 -2.2500  1.4779
 6626SOL     OW31513   4.258   1.247   6.795 -0.1654 -0.0937 -0.4313
 6626SOL    HW131514   4.194   1.224   6.727  1.0547 -1.7555 -1.0271
 6626SOL    HW231515   4.283   1.338   6.783 -3.6922  0.7160 -1.7230
 6627SOL     OW31516   4.002   3.623   4.579 -0.1175  0.7329 -0.0112
 6627SOL    HW131517   4.018   3.620   4.673 -0.2203  0.5484  0.0017
 6627SOL    HW231518   3.968   3.711   4.563  0.2167  1.2261  2.0095
 6628SOL     OW31519   1.660   3.817  10.024  0.6724 -0.1486 -0.1344
 6628SOL    HW131520   1.736   3.840  10.077 -0.3294 -0.8758  1.6040
 6628SOL    HW231521   1.591   3.852  10.081  1.0642  1.3884 -0.6020
 6629SOL     OW31522   1.079   3.879   6.062 -0.3077  0.1273 -0.0986
 6629SOL    HW131523   1.026   3.944   6.109 -0.4353  0.8473 -1.2530
 6629SOL    HW231524   1.034   3.873   5.979  1.4544  0.1936 -1.0655
 6630SOL     OW31525   3.310   2.101   0.844 -0.0781 -0.4614 -0.7758
 6630SOL    HW131526   3.368   2.061   0.779  0.1081 -1.6503  0.1254
 6630SOL    HW231527   3.339   2.191   0.835  0.3587 -0.2323  2.9669
 6631SOL     OW31528   1.717   2.997   1.898 -0.4321  0.1880  0.0781
 6631SOL    HW131529   1.782   3.043   1.951 -0.0516 -1.7547  1.2877
 6631SOL    HW231530   1.707   3.061   1.827 -1.8136 -1.4318 -1.1924
 6632SOL     OW31531   1.699   3.246   2.452 -0.3117 -0.8447 -0.0802
 6632SOL    HW131532   1.662   3.241   2.364 -0.8026  1.6226 -0.0188
 6632SOL    HW231533   1.768   3.309   2.434 -2.0571  1.1944  0.3401
 6633SOL     OW31534   3.239   3.304   2.945  0.0845 -0.1389 -0.2073
 6633SOL    HW131535   3.187   3.318   3.024  2.0161 -0.0025  1.0375
 6633SOL    HW231536   3.198   3.368   2.887 -0.2076 -0.6476 -0.5641
 6634SOL     OW31537   0.031   0.550   2.753 -0.0374  0.1460  0.1346
 6634SOL    HW131538   4.730   0.637   2.758  2.1580  1.1963 -0.2056
 6634SOL    HW231539   4.733   0.523   2.669 -0.2187  3.2464 -0.7893
 6635SOL     OW31540   4.698   3.654   5.593 -0.2674 -0.2663  0.1758
 6635SOL    HW131541   4.662   3.741   5.581 -0.6918 -0.8665 -3.0350
 6635SOL    HW231542   4.676   3.643   5.686 -2.5500  0.4422 -0.2892
 6636SOL     OW31543   0.674   2.297   5.012  0.4202 -0.1898 -0.1799
 6636SOL    HW131544   0.686   2.218   5.064 -0.8518 -0.3665 -0.1545
 6636SOL    HW231545   0.601   2.271   4.955  1.7117  1.2677 -2.4868
 6637SOL     OW31546   3.312   1.980   9.468 -0.4409 -0.5369  0.0737
 6637SOL    HW131547   3.268   1.909   9.420  0.9051 -0.8333 -0.7143
 6637SOL    HW231548   3.262   1.984   9.550 -0.1493 -2.3105  0.3449
 6638SOL     OW31549   1.158   4.624   7.817 -0.2284 -0.1416 -0.3699
 6638SOL    HW131550   1.115   4.675   7.886 -1.0838  0.4519 -1.3429
 6638SOL    HW231551   1.205   4.702   7.788 -0.0599 -0.7801 -1.7878
 6639SOL     OW31552   4.473   0.522   6.463 -0.4959 -0.2758  0.1064
 6639SOL    HW131553   4.460   0.430   6.485 -1.5058  0.4265  2.5557
 6639SOL    HW231554   4.407   0.537   6.395  1.3097 -0.8785 -1.7537
 6640SOL     OW31555   1.953   4.402  12.365 -0.0776  0.2309  0.0888
 6640SOL    HW131556   1.884   4.427  12.303 -0.2137 -1.5249 -0.4746
 6640SOL    HW231557   1.951   4.307  12.357  1.8698  0.3767 -2.2707
 6641SOL     OW31558   4.243   0.816   2.934 -0.2783  0.1340 -0.4457
 6641SOL    HW131559   4.188   0.788   2.860 -0.9617 -0.9305  0.4735
 6641SOL    HW231560   4.206   0.904   2.933 -1.9129 -0.5480 -2.8762
 6642SOL     OW31561   1.626   4.168  17.743 -0.1705  0.0009  0.2115
 6642SOL    HW131562   1.705   4.158   0.039 -0.0894 -0.2618  0.0385
 6642SOL    HW231563   1.601   4.258   0.010 -2.3339 -1.2817  2.8084
 6643SOL     OW31564   1.769   4.451   7.450  0.6652  0.0105 -0.2220
 6643SOL    HW131565   1.711   4.516   7.411  2.2621  1.3623 -0.3414
 6643SOL    HW231566   1.763   4.473   7.543 -0.7634  0.7047 -0.4861
 6644SOL     OW31567   1.306   1.904  14.677  0.3613 -0.3426 -0.6359
 6644SOL    HW131568   1.290   1.815  14.709  0.4699 -0.4071 -0.7576
 6644SOL    HW231569   1.393   1.903  14.715 -0.5333 -0.2781  1.3799
 6645SOL     OW31570   2.239   4.110   3.548 -0.1164 -0.6496  0.3576
 6645SOL    HW131571   2.213   4.077   3.461 -2.9648 -0.3531  1.0776
 6645SOL    HW231572   2.148   4.113   3.578 -0.1063 -1.0628  0.4314
 6646SOL     OW31573   0.675   3.393   7.091 -0.2270  0.7712 -0.1829
 6646SOL    HW131574   0.666   3.326   7.023  1.1526  1.1812 -0.7707
 6646SOL    HW231575   0.600   3.369   7.146 -0.1624 -1.8647 -1.2271
 6647SOL     OW31576   3.277   2.630   3.206 -0.6764  0.6061 -0.1428
 6647SOL    HW131577   3.321   2.700   3.254 -0.9767  0.5541  0.2141
 6647SOL    HW231578   3.204   2.614   3.266 -0.4817  0.3146  0.0197
 6648SOL     OW31579   2.319   1.301   6.283  0.7136  0.3089 -0.4270
 6648SOL    HW131580   2.237   1.253   6.270 -0.0218  1.3048  0.5009
 6648SOL    HW231581   2.371   1.230   6.321 -0.4451 -0.2268  0.1791
 6649SOL     OW31582   0.729   1.348   6.824 -0.5048 -0.5162  0.2409
 6649SOL    HW131583   0.760   1.403   6.751 -0.7338 -0.7069 -0.0003
 6649SOL    HW231584   0.639   1.343   6.793 -0.5221 -2.5761  0.6280
 6650SOL     OW31585   1.744   1.349  15.294  0.7649 -0.0946  0.8040
 6650SOL    HW131586   1.660   1.377  15.258  0.0289 -0.7988  1.9929
 6650SOL    HW231587   1.732   1.338  15.388  0.5751 -0.1099  0.7782
 6651SOL     OW31588   2.097   0.771   2.076  0.2548 -0.1390 -0.4882
 6651SOL    HW131589   2.076   0.746   1.987  0.3392 -3.1519  0.3453
 6651SOL    HW231590   2.183   0.728   2.083  0.3851  0.5274  2.0460
 6652SOL     OW31591   1.695   0.624  11.662  0.3768 -0.1912 -0.3512
 6652SOL    HW131592   1.669   0.553  11.721  0.4110  1.5531  1.7628
 6652SOL    HW231593   1.613   0.674  11.658  0.2175 -0.4500 -0.2698
 6653SOL     OW31594   1.628   4.512   3.143  0.0699  0.2085 -0.3432
 6653SOL    HW131595   1.559   4.549   3.198 -1.5332  1.1767 -2.9745
 6653SOL    HW231596   1.596   4.551   3.062 -0.9245 -0.5505 -0.3225
 6654SOL     OW31597   1.240   1.725  16.860 -0.7571 -0.1155  0.1427
 6654SOL    HW131598   1.237   1.709  16.955 -0.1522  1.8098  0.4695
 6654SOL    HW231599   1.179   1.798  16.854 -0.4607  0.1733  0.6915
 6655SOL     OW31600   4.427   0.110  10.784 -0.2277  0.0221  0.5337
 6655SOL    HW131601   4.481   0.139  10.711 -1.1077 -1.1831 -0.5936
 6655SOL    HW231602   4.398   0.024  10.754 -0.1770  0.7268 -1.5291
 6656SOL     OW31603   0.697   3.953   0.392  0.6283  1.0742  0.2642
 6656SOL    HW131604   0.680   3.992   0.306 -0.5857  2.0868  0.9581
 6656SOL    HW231605   0.682   3.861   0.372 -1.7794  1.1184  1.8597
 6657SOL     OW31606   4.194   2.337  13.470 -0.1531 -0.1245  0.2668
 6657SOL    HW131607   4.123   2.287  13.432  0.7555 -0.0415 -1.5147
 6657SOL    HW231608   4.151   2.413  13.509 -1.9053  0.0615 -2.0537
 6658SOL     OW31609   2.300   3.850  11.450 -0.5588 -0.1026 -0.0830
 6658SOL    HW131610   2.386   3.876  11.417 -0.6760 -1.0723 -1.1627
 6658SOL    HW231611   2.310   3.758  11.474  2.2153  0.5678  1.3027
 6659SOL     OW31612   2.534   4.653   1.306 -0.4713  0.3256 -0.5977
 6659SOL    HW131613   2.441   4.676   1.301 -0.4627  0.1227 -1.7745
 6659SOL    HW231614   2.563   4.731   1.352  0.9027 -0.7626  0.3540
 6660SOL     OW31615   2.788   2.858   5.797  0.0450  0.4631  0.7175
 6660SOL    HW131616   2.816   2.769   5.816 -1.7108 -0.4734 -1.0498
 6660SOL    HW231617   2.699   2.851   5.761 -0.3261 -0.0890  1.7537
 6661SOL     OW31618   1.419   3.287   7.881 -0.7143 -0.1849 -0.7824
 6661SOL    HW131619   1.443   3.208   7.834  1.1397 -0.8668  1.3158
 6661SOL    HW231620   1.459   3.357   7.829 -0.2706 -0.3908 -0.7227
 6662SOL     OW31621   2.497   3.723  10.116 -0.5379 -0.1869 -0.3300
 6662SOL    HW131622   2.487   3.628  10.118  1.1520 -0.3357  1.1287
 6662SOL    HW231623   2.509   3.738  10.022 -0.0775  1.6853  0.0292
 6663SOL     OW31624   2.849   1.565   3.233 -0.4848 -0.4238  0.1392
 6663SOL    HW131625   2.771   1.514   3.212 -1.8256  1.8693 -0.4165
 6663SOL    HW231626   2.811   1.649   3.260  1.7983 -0.0387  2.2383
 6664SOL     OW31627   0.244   3.903   2.457  0.0953 -0.1390 -0.0245
 6664SOL    HW131628   0.159   3.919   2.415  0.8480  0.5483 -1.3044
 6664SOL    HW231629   0.292   3.983   2.435 -0.2494 -0.2303 -1.1198
 6665SOL     OW31630   4.285   2.585   7.207 -0.1876  0.7046  0.1810
 6665SOL    HW131631   4.369   2.555   7.172 -1.1845 -0.4558 -1.2127
 6665SOL    HW231632   4.221   2.533   7.158 -1.6094  1.3548  1.3485
 6666SOL     OW31633   4.296   0.569  12.471 -0.2015  0.1588  0.5066
 6666SOL    HW131634   4.316   0.507  12.401 -1.0335 -0.1117  0.5084
 6666SOL    HW231635   4.352   0.544  12.544  0.5929 -1.7060 -0.7236
 6667SOL     OW31636   0.849   4.606   9.115  0.3481 -0.2896  0.2057
 6667SOL    HW131637   0.894   4.682   9.078 -0.0424  0.1786  0.6933
 6667SOL    HW231638   0.909   4.579   9.184  0.9231  1.4647  0.3947
 6668SOL     OW31639   4.639   3.577  12.250  0.1881  0.2718 -0.3297
 6668SOL    HW131640   4.718   3.601  12.202  0.5116 -3.0192 -1.4382
 6668SOL    HW231641   4.572   3.593  12.184 -1.7720  0.8764  1.8133
 6669SOL     OW31642   2.041   3.053  11.590 -0.2249  0.0838 -0.4040
 6669SOL    HW131643   1.959   3.091  11.620 -0.4823 -1.8828  1.3669
 6669SOL    HW231644   2.040   3.093  11.503  0.8858  0.1798 -0.3749
 6670SOL     OW31645   1.955   1.020   6.018  0.6284  0.2521 -0.2372
 6670SOL    HW131646   1.981   0.971   6.096 -1.8194 -0.4898  0.0881
 6670SOL    HW231647   1.958   0.952   5.951  2.0207  0.1866 -0.1210
 6671SOL     OW31648   2.251   1.013   8.635  0.2613  0.2409  0.7337
 6671SOL    HW131649   2.199   1.093   8.628  0.4019  0.3444  0.8635
 6671SOL    HW231650   2.196   0.946   8.676  0.7102 -1.0251 -0.7413
 6672SOL     OW31651   1.358   3.527   6.360 -0.6004  0.1122  0.9475
 6672SOL    HW131652   1.370   3.578   6.280 -3.1522  0.3780  0.7233
 6672SOL    HW231653   1.440   3.478   6.364  0.9523  2.7504  1.0149
 6673SOL     OW31654   3.212   1.000  10.592 -0.2880  0.3547  0.4525
 6673SOL    HW131655   3.180   1.046  10.671 -0.6437 -0.6795  0.9052
 6673SOL    HW231656   3.138   0.940  10.586  0.7663 -1.0747  1.7105
 6674SOL     OW31657   0.384   3.311   5.807  0.4689  0.8102 -0.4602
 6674SOL    HW131658   0.356   3.402   5.804  0.5402  0.9372  2.7164
 6674SOL    HW231659   0.316   3.279   5.867  0.5950 -0.5772 -1.0522
 6675SOL     OW31660   3.849   1.308   4.906  0.4914 -0.0047  0.3320
 6675SOL    HW131661   3.849   1.311   5.001  0.9129 -2.2855  0.4246
 6675SOL    HW231662   3.933   1.350   4.891 -1.3093  3.3143 -0.3395
 6676SOL     OW31663   0.036   0.901  11.673 -0.7832  0.2261 -0.0089
 6676SOL    HW131664   4.713   0.968  11.644 -2.7101 -2.3532 -1.9412
 6676SOL    HW231665   4.735   0.876  11.756 -1.0965 -2.0450 -0.8355
 6677SOL     OW31666   0.390   0.026   7.475  0.1637 -0.0471 -0.8759
 6677SOL    HW131667   0.479   0.054   7.495  0.5702 -1.1902 -1.0956
 6677SOL    HW231668   0.345   0.065   7.549  0.5963 -0.9096 -0.1571
 6678SOL     OW31669   3.831   4.616   6.587  0.1107 -0.3883  0.0321
 6678SOL    HW131670   3.802   4.681   6.522  0.5082 -2.0418 -1.8019
 6678SOL    HW231671   3.813   4.654   6.673  1.8852 -1.7462  0.9843
 6679SOL     OW31672   1.127   0.756   8.038  0.6401  0.0544 -0.4165
 6679SOL    HW131673   1.048   0.810   8.030 -1.1005 -2.3140  0.6460
 6679SOL    HW231674   1.192   0.825   8.051  0.7729  0.0589 -1.1167
 6680SOL     OW31675   0.988   3.812   5.165 -0.3240  0.1923  0.6620
 6680SOL    HW131676   1.078   3.791   5.190 -0.0021  0.3794 -0.3403
 6680SOL    HW231677   0.941   3.729   5.166  2.5885 -1.4227  2.7137
 6681SOL     OW31678   4.494   2.532   7.769  0.0778  0.6182 -0.0890
 6681SOL    HW131679   4.427   2.579   7.819  0.4720 -0.4653  1.4664
 6681SOL    HW231680   4.426   2.490   7.715 -0.6336  0.6776  0.7602
 6682SOL     OW31681   1.840   0.875  11.008 -0.1804  0.0945  0.0636
 6682SOL    HW131682   1.786   0.903  10.934 -0.7412  0.5262  0.6285
 6682SOL    HW231683   1.845   0.963  11.046 -0.0614 -1.3934  3.5349
 6683SOL     OW31684   2.948   2.680   5.380 -0.2796 -0.0548 -0.7585
 6683SOL    HW131685   3.013   2.724   5.325  0.0718 -1.4238 -1.4313
 6683SOL    HW231686   2.903   2.753   5.423 -0.4979 -1.0114  0.6285
 6684SOL     OW31687   0.830   3.579   8.792  0.4584 -0.3555 -0.1964
 6684SOL    HW131688   0.800   3.499   8.751 -1.1193 -0.9145  2.0664
 6684SOL    HW231689   0.765   3.641   8.756  0.1178 -2.5037 -3.2939
 6685SOL     OW31690   2.289   3.733   7.317  0.3305  0.1741  0.0579
 6685SOL    HW131691   2.292   3.712   7.224  1.3529 -2.9241  0.7918
 6685SOL    HW231692   2.382   3.724   7.339  0.0350  0.7774  1.6019
 6686SOL     OW31693   0.602   3.699   0.323  0.6944  0.0642 -0.2437
 6686SOL    HW131694   0.541   3.652   0.265  2.1449 -1.5164 -0.4780
 6686SOL    HW231695   0.555   3.697   0.406 -0.6707 -0.0009 -1.0222
 6687SOL     OW31696   4.595   0.776  13.043  0.2844 -0.3770 -0.2410
 6687SOL    HW131697   4.600   0.837  12.970 -1.6134  0.2797  0.1622
 6687SOL    HW231698   4.659   0.820  13.099  1.2568 -0.7840 -1.0430
 6688SOL     OW31699   1.589   2.016   0.418 -0.3437 -0.0513  0.2373
 6688SOL    HW131700   1.515   2.012   0.479 -1.1174  1.8546 -0.5720
 6688SOL    HW231701   1.658   2.048   0.476  1.5182 -2.2254 -0.8072
 6689SOL     OW31702   3.862   2.487   8.309  0.0914 -0.0363 -0.1367
 6689SOL    HW131703   3.930   2.455   8.368 -0.5858 -0.2694  0.5151
 6689SOL    HW231704   3.789   2.481   8.371 -0.0028 -0.8129 -0.3219
 6690SOL     OW31705   3.987   0.976   7.946  0.1334 -0.4016 -0.5177
 6690SOL    HW131706   3.947   1.059   7.922 -0.4963 -0.4330  0.4288
 6690SOL    HW231707   3.919   0.934   7.999  0.2121 -0.7138 -0.6653
 6691SOL     OW31708   3.398   3.958   5.227 -0.2443 -0.0404 -0.2353
 6691SOL    HW131709   3.372   3.868   5.205  0.4934 -0.3885  0.2941
 6691SOL    HW231710   3.320   4.009   5.249  0.7891  0.3474  2.5926
 6692SOL     OW31711   2.387   0.457  12.404  0.4547 -0.2593 -0.0886
 6692SOL    HW131712   2.454   0.390  12.420  2.0960  0.8705 -2.0791
 6692SOL    HW231713   2.344   0.409  12.333  2.0047 -0.7263 -0.7166
 6693SOL     OW31714   1.962   1.204   2.291 -0.2270  0.0126 -0.1511
 6693SOL    HW131715   1.937   1.128   2.239  3.2118 -0.0129 -1.8069
 6693SOL    HW231716   1.886   1.261   2.278 -0.2983  0.0726  0.5410
 6694SOL     OW31717   1.714   1.878   2.671 -0.2003  0.1775 -0.0653
 6694SOL    HW131718   1.809   1.891   2.676 -0.3463  2.1431 -2.7763
 6694SOL    HW231719   1.692   1.967   2.642  1.8103 -0.8457 -4.5853
 6695SOL     OW31720   0.061   4.345   2.259 -0.3923  0.1789  0.0347
 6695SOL    HW131721   4.718   4.366   2.302 -1.0933  0.1262 -1.3062
 6695SOL    HW231722   0.128   4.386   2.314 -2.1135  0.9319  1.5602
 6696SOL     OW31723   1.722   0.473   8.495 -0.2800  0.4546  0.2947
 6696SOL    HW131724   1.791   0.540   8.496 -0.9839  1.1964 -1.0173
 6696SOL    HW231725   1.690   0.476   8.405  1.4610  0.1322 -0.3297
 6697SOL     OW31726   2.351   4.710   6.667 -0.1828  0.2661 -0.1855
 6697SOL    HW131727   2.432   0.006   6.703  0.1331  0.5932 -1.2327
 6697SOL    HW231728   2.321   4.661   6.744  0.7225 -0.8010 -0.5223
 6698SOL     OW31729   4.131   3.013   1.227 -0.2290 -0.0059 -0.6729
 6698SOL    HW131730   4.195   2.977   1.288  1.4901 -0.8236 -2.9575
 6698SOL    HW231731   4.181   3.050   1.154 -2.3244 -0.1229 -2.1596
 6699SOL     OW31732   4.625   3.751   5.084  0.0873  0.1835  0.3638
 6699SOL    HW131733   4.591   3.714   5.165 -1.5182 -1.2874 -0.9936
 6699SOL    HW231734   4.691   3.685   5.063  0.3508  0.4698  0.2890
 6700SOL     OW31735   4.171   3.545   7.600  0.8786 -0.2585  0.3374
 6700SOL    HW131736   4.114   3.551   7.523  0.7859  0.5648  0.4708
 6700SOL    HW231737   4.129   3.597   7.667  0.8924 -1.3211  1.1708
 6701SOL     OW31738   0.180   1.671   9.868  0.8430  0.3140 -0.0440
 6701SOL    HW131739   0.111   1.717   9.915 -1.5176 -1.2000 -2.0567
 6701SOL    HW231740   0.142   1.676   9.780 -0.7876 -1.3636  0.5614
 6702SOL     OW31741   4.467   2.170  14.158  0.0723  0.2840 -0.2986
 6702SOL    HW131742   4.430   2.198  14.075 -1.7555  2.4508  1.2440
 6702SOL    HW231743   4.516   2.092  14.131  2.8867  2.0699 -0.3080
 6703SOL     OW31744   4.641   2.012   3.918  0.1498 -0.0244 -0.2220
 6703SOL    HW131745   4.595   2.095   3.905 -1.3828 -0.6041  1.5312
 6703SOL    HW231746   4.572   1.952   3.890  0.5851 -0.1203 -1.1124
 6704SOL     OW31747   3.113   3.812   4.967 -0.1756 -0.7618 -0.2022
 6704SOL    HW131748   3.081   3.780   4.882  1.0410 -2.3909 -0.0277
 6704SOL    HW231749   3.166   3.889   4.945 -0.0279 -0.7819  0.0856
 6705SOL     OW31750   0.372   0.944   4.444 -0.0200 -0.0846 -0.4976
 6705SOL    HW131751   0.301   1.007   4.453  0.5765  0.4808  0.2674
 6705SOL    HW231752   0.331   0.884   4.381 -1.1042  0.8933 -0.7286
 6706SOL     OW31753   0.699   1.993   3.613  0.6176  0.0751 -0.4799
 6706SOL    HW131754   0.656   1.923   3.565 -2.3002  1.1919  0.5136
 6706SOL    HW231755   0.666   2.080   3.589  1.0308  0.7148  1.2351
 6707SOL     OW31756   1.755   3.435   7.044 -0.4695 -0.8545  0.0310
 6707SOL    HW131757   1.754   3.476   7.131  0.5996 -0.9317  0.0799
 6707SOL    HW231758   1.680   3.479   7.003 -0.7190 -2.1502 -0.8887
 6708SOL     OW31759   2.750   3.491  14.002  0.2960 -0.4457  0.4245
 6708SOL    HW131760   2.748   3.532  14.089  0.8924 -1.5431  0.9507
 6708SOL    HW231761   2.660   3.463  13.988  0.5675 -1.2868  0.3799
 6709SOL     OW31762   1.206   2.132   9.144  0.2642  0.2787 -0.8846
 6709SOL    HW131763   1.218   2.066   9.213 -0.8045  1.4729  0.4354
 6709SOL    HW231764   1.127   2.178   9.171 -0.1027 -0.6067 -0.4459
 6710SOL     OW31765   3.537   2.092   9.430 -0.0053 -0.0812  0.1103
 6710SOL    HW131766   3.447   2.063   9.441 -0.3585  0.9586 -0.0066
 6710SOL    HW231767   3.534   2.169   9.486 -0.6888  0.1455 -0.2439
 6711SOL     OW31768   3.140   1.488   4.715 -0.0240 -0.0646 -0.0996
 6711SOL    HW131769   3.170   1.526   4.632  2.6483 -0.8936  0.4896
 6711SOL    HW231770   3.079   1.420   4.687 -1.1635 -0.4596  3.3121
 6712SOL     OW31771   0.664   3.940   2.749  0.4699 -0.0905  0.1498
 6712SOL    HW131772   0.747   3.985   2.739 -0.1028  0.8118 -0.5443
 6712SOL    HW231773   0.606   4.016   2.756  0.4744 -0.3346  2.6742
 6713SOL     OW31774   4.125   4.105  16.910  0.3783 -0.5465  0.0549
 6713SOL    HW131775   4.216   4.080  16.894  0.3645  1.0109 -2.5040
 6713SOL    HW231776   4.141   4.161  16.986 -0.9899 -1.5481  1.0829
 6714SOL     OW31777   1.163   0.362   9.493 -0.1409  0.0136  0.5006
 6714SOL    HW131778   1.145   0.287   9.436  0.6456 -1.2262  1.8871
 6714SOL    HW231779   1.181   0.428   9.426 -0.5980  0.4432  0.8038
 6715SOL     OW31780   4.598   1.956  15.087 -0.1889 -0.5714 -0.6343
 6715SOL    HW131781   4.682   2.004  15.093  0.1683 -1.2895  0.1293
 6715SOL    HW231782   4.622   1.871  15.123 -0.2319  0.1786  1.2118
 6716SOL     OW31783   2.020   4.438   0.161  0.0473  0.5387  0.0062
 6716SOL    HW131784   2.074   4.403   0.232  1.1035  0.5756 -0.7932
 6716SOL    HW231785   2.024   4.534   0.172  1.5492  0.5012 -0.2309
 6717SOL     OW31786   1.656   0.374   7.016  0.5540  0.0305  0.2517
 6717SOL    HW131787   1.707   0.445   7.054  0.3595  1.3128 -1.8490
 6717SOL    HW231788   1.701   0.361   6.932 -1.9209 -2.1028 -0.7515
 6718SOL     OW31789   2.230   4.409  11.552  0.1536  0.6001  0.1191
 6718SOL    HW131790   2.171   4.418  11.628  0.4228 -2.0552  0.6402
 6718SOL    HW231791   2.230   4.498  11.516  1.5832  0.1454 -1.0025
 6719SOL     OW31792   3.075   1.716   6.924 -0.4416  0.1269 -0.4599
 6719SOL    HW131793   3.120   1.794   6.956  0.3502 -0.4219 -0.2214
 6719SOL    HW231794   3.020   1.684   6.995  0.5108 -2.1979 -0.7556
 6720SOL     OW31795   4.100   1.051   2.917 -0.0901 -0.2406 -0.0841
 6720SOL    HW131796   4.177   1.105   2.937  1.1701 -2.1206  0.1101
 6720SOL    HW231797   4.093   1.072   2.824  1.3893  4.1105  0.7959
 6721SOL     OW31798   4.132   3.825   6.538  0.0058 -0.2747 -0.3152
 6721SOL    HW131799   4.203   3.877   6.503  0.0280  0.0034  0.1406
 6721SOL    HW231800   4.179   3.772   6.602  1.8298 -0.4824 -1.8507
 6722SOL     OW31801   0.967   0.107   6.682 -0.0295 -0.1694 -0.0228
 6722SOL    HW131802   1.007   0.062   6.757 -1.1076 -1.1559 -0.0433
 6722SOL    HW231803   0.874   0.095   6.702  0.3823 -1.3271  1.1680
 6723SOL     OW31804   1.722   0.387  11.167 -0.5212 -0.1901 -0.3874
 6723SOL    HW131805   1.699   0.463  11.114  0.1673 -0.0100 -0.4202
 6723SOL    HW231806   1.730   0.409  11.260  0.5801  0.7638 -0.7069
 6724SOL     OW31807   0.088   3.069   2.211 -0.0218 -0.1326 -0.3115
 6724SOL    HW131808   0.014   3.115   2.171  0.6529  1.0173 -0.2491
 6724SOL    HW231809   0.137   3.025   2.143  1.2007  1.3451 -0.3961
 6725SOL     OW31810   3.017   1.744   5.709  0.4886  0.3403 -0.4100
 6725SOL    HW131811   2.976   1.816   5.662 -0.2082 -0.0135 -0.3365
 6725SOL    HW231812   3.085   1.718   5.647  0.7391  0.7253 -0.2936
 6726SOL     OW31813   1.705   1.426   5.339  0.7363 -0.2819  0.5337
 6726SOL    HW131814   1.757   1.362   5.389  0.9890 -1.6634 -1.5218
 6726SOL    HW231815   1.772   1.472   5.288 -0.1658 -0.2976 -0.6487
 6727SOL     OW31816   2.938   1.040  17.069 -0.0886 -0.1977 -0.4049
 6727SOL    HW131817   3.012   1.095  17.093  0.6294 -0.4597 -2.0579
 6727SOL    HW231818   2.866   1.101  17.050 -0.2342  0.0332  0.9257
 6728SOL     OW31819   2.198   2.121   3.888 -0.2378 -0.2369 -0.2004
 6728SOL    HW131820   2.197   2.053   3.955 -1.7193  1.9218  1.9860
 6728SOL    HW231821   2.135   2.089   3.824  0.4056 -0.4971 -0.7048
 6729SOL     OW31822   0.512   0.671   1.254 -0.0324 -0.7709  0.0653
 6729SOL    HW131823   0.491   0.579   1.240 -2.7350 -0.4376  1.7217
 6729SOL    HW231824   0.466   0.709   1.179 -2.0947 -1.6461  0.8751
 6730SOL     OW31825   1.379   4.278  13.348 -0.4796 -0.0426 -0.0502
 6730SOL    HW131826   1.375   4.204  13.410 -0.2269 -2.1160 -2.4997
 6730SOL    HW231827   1.387   4.347  13.414  1.1664 -0.5629  0.3092
 6731SOL     OW31828   4.731   1.192  11.936  0.1854 -0.7196 -0.4047
 6731SOL    HW131829   4.649   1.236  11.957 -0.9315 -1.5857 -2.9595
 6731SOL    HW231830   4.694   1.108  11.909 -2.1118 -0.1896  1.0778
 6732SOL     OW31831   3.784   3.841   5.897  0.0590 -0.7278  0.5720
 6732SOL    HW131832   3.716   3.822   5.833 -0.4529  1.2726  0.5290
 6732SOL    HW231833   3.857   3.846   5.836  1.8245 -1.7610  2.5865
 6733SOL     OW31834   2.925   2.371   2.133  0.1907 -0.3626 -0.2059
 6733SOL    HW131835   3.001   2.425   2.154  2.0809 -2.2405 -2.1887
 6733SOL    HW231836   2.919   2.308   2.205 -0.5072  1.5323  1.3835
 6734SOL     OW31837   0.477   3.265   4.026  0.0636  0.0867 -0.1759
 6734SOL    HW131838   0.455   3.176   4.056  1.8584  0.6179  2.7525
 6734SOL    HW231839   0.529   3.246   3.948 -0.8914  0.5497 -0.9213
 6735SOL     OW31840   3.538   0.979   3.240 -0.0792  0.1944 -0.0710
 6735SOL    HW131841   3.511   0.901   3.192 -0.4812  0.7071 -0.6685
 6735SOL    HW231842   3.634   0.976   3.246  0.0392  0.3415 -1.7794
 6736SOL     OW31843   2.371   2.238   9.197  0.2223  0.1782 -0.7616
 6736SOL    HW131844   2.443   2.216   9.256  0.9055 -0.1333 -1.7249
 6736SOL    HW231845   2.351   2.323   9.238  1.4734 -1.1537  2.6258
 6737SOL     OW31846   3.561   0.095   4.580  0.3260  0.1771 -0.0733
 6737SOL    HW131847   3.569   0.090   4.485  4.0051  3.5683  0.0600
 6737SOL    HW231848   3.470   0.112   4.603  0.1806 -0.0751 -0.4657
 6738SOL     OW31849   1.776   0.010   7.696  0.0695 -0.0484  0.1072
 6738SOL    HW131850   1.769   0.059   7.777 -0.5974 -0.1703  0.1274
 6738SOL    HW231851   1.761   0.089   7.644 -1.1838  0.9966  2.0636
 6739SOL     OW31852   2.374   0.229   7.827 -0.6023  0.7391  0.4609
 6739SOL    HW131853   2.455   0.190   7.796  0.5095  2.7048  0.8770
 6739SOL    HW231854   2.308   0.183   7.775  1.2245 -0.3214 -0.9025
 6740SOL     OW31855   3.887   2.396   7.473 -0.2812  0.0018  0.3714
 6740SOL    HW131856   3.940   2.471   7.446 -2.3578  1.4380  0.3105
 6740SOL    HW231857   3.947   2.354   7.535  2.6050  0.7037 -1.9469
 6741SOL     OW31858   3.782   1.835   5.504  0.4373  0.0283  0.1018
 6741SOL    HW131859   3.805   1.828   5.597 -2.7360 -0.9426  0.8263
 6741SOL    HW231860   3.863   1.811   5.460  0.6648 -2.1527  1.6768
 6742SOL     OW31861   0.926   2.327  17.541  0.1452  0.4577 -0.2351
 6742SOL    HW131862   0.902   2.292  17.628  0.4676 -1.2154 -0.8128
 6742SOL    HW231863   0.982   2.400  17.568  1.3751 -0.5016 -0.1861
 6743SOL     OW31864   2.457   0.428  14.057 -0.4409  0.1511  0.1293
 6743SOL    HW131865   2.533   0.427  14.115 -1.6230  0.3948  1.6923
 6743SOL    HW231866   2.479   0.487  13.985 -0.9247 -0.2186 -0.3152
 6744SOL     OW31867   3.015   0.093   4.470 -0.6675  0.2118  0.0190
 6744SOL    HW131868   2.989   0.184   4.488  3.1166  1.4823 -1.0128
 6744SOL    HW231869   2.943   0.049   4.516  0.8860 -1.2703  1.0136
 6745SOL     OW31870   0.053   0.830  13.197  0.6311 -0.2327  0.7771
 6745SOL    HW131871   0.064   0.925  13.199 -0.3711 -0.1044  0.1867
 6745SOL    HW231872   0.058   0.809  13.290 -0.1076 -1.8345  0.4649
 6746SOL     OW31873   0.757   4.003   8.506 -0.0395  0.0688  0.1190
 6746SOL    HW131874   0.714   4.055   8.573 -1.1745  2.8590 -2.7489
 6746SOL    HW231875   0.713   4.026   8.424 -1.7009  2.7059  1.7863
 6747SOL     OW31876   2.517   4.004   4.493  0.6002  0.0124  0.0764
 6747SOL    HW131877   2.540   3.999   4.400 -1.4619 -0.4323 -0.4046
 6747SOL    HW231878   2.517   4.099   4.500  1.7379  0.0326 -0.1696
 6748SOL     OW31879   0.904   4.126  10.076  0.2960  0.3585  0.4255
 6748SOL    HW131880   0.985   4.083  10.104 -0.4574 -2.6436 -1.8917
 6748SOL    HW231881   0.933   4.195  10.016  2.0009 -1.9577 -1.4239
 6749SOL     OW31882   2.134   1.447   1.056  0.3417  0.8176 -0.4731
 6749SOL    HW131883   2.146   1.352   1.053  0.0025  0.7975 -1.3072
 6749SOL    HW231884   2.155   1.469   0.965  1.3310 -0.8174 -0.6335
 6750SOL     OW31885   2.105   0.695  14.681  0.3431  0.1243 -0.4013
 6750SOL    HW131886   2.076   0.616  14.635 -3.5608  0.7422  1.0047
 6750SOL    HW231887   2.199   0.697  14.663  0.4653 -0.7429  0.1227
 6751SOL     OW31888   2.488   2.859   5.628 -0.1679 -0.7329 -0.6305
 6751SOL    HW131889   2.417   2.921   5.649 -2.3074 -3.5825  0.5156
 6751SOL    HW231890   2.500   2.821   5.715  3.0429 -2.8258 -1.9942
 6752SOL     OW31891   3.936   1.650   4.758 -0.6665  0.6391 -0.2286
 6752SOL    HW131892   3.917   1.707   4.833 -0.1408  0.0493  0.3455
 6752SOL    HW231893   3.990   1.580   4.795 -0.7215  1.9530  2.3171
 6753SOL     OW31894   3.242   0.182   7.287  0.0343 -0.2732 -0.2207
 6753SOL    HW131895   3.238   0.104   7.231 -0.4414 -1.1145  0.9953
 6753SOL    HW231896   3.321   0.170   7.340  0.7548  0.5588 -1.1107
 6754SOL     OW31897   3.853   0.614   6.914 -0.0787 -0.3509 -0.5634
 6754SOL    HW131898   3.850   0.566   6.997  1.3824 -0.6969 -0.7071
 6754SOL    HW231899   3.939   0.584   6.884 -0.1839 -0.0269 -1.1725
 6755SOL     OW31900   2.654   0.070  17.462  0.0756  0.7130 -0.5022
 6755SOL    HW131901   2.739   0.026  17.466 -0.4402 -0.4913 -3.2505
 6755SOL    HW231902   2.602   4.732  17.487  1.3607 -0.5473 -1.7922
 6756SOL     OW31903   0.590   0.014  10.229  0.2030  0.2364 -0.3080
 6756SOL    HW131904   0.680   0.006  10.198 -0.5035  0.5122 -2.4775
 6756SOL    HW231905   0.548   0.046  10.149  1.1271  0.7833 -0.5760
 6757SOL     OW31906   0.017   2.036   2.757 -0.3381 -0.0454  0.1750
 6757SOL    HW131907   0.065   2.119   2.762 -2.0917  1.0113 -0.2622
 6757SOL    HW231908   4.728   2.039   2.849  0.4922  1.6069  0.3823
 6758SOL     OW31909   3.434   2.613  14.379 -0.0938 -0.2708 -0.3933
 6758SOL    HW131910   3.443   2.599  14.473  0.8464 -0.4347 -0.5135
 6758SOL    HW231911   3.338   2.606  14.378 -0.0408 -1.0309 -0.3811
 6759SOL     OW31912   2.330   1.749   9.132  0.1222 -0.1218  0.0617
 6759SOL    HW131913   2.415   1.780   9.164  0.4195  0.3665 -1.2121
 6759SOL    HW231914   2.275   1.797   9.194 -0.1071  0.1644 -0.3605
 6760SOL     OW31915   2.612   1.742   0.645 -0.0785 -0.4404 -0.3882
 6760SOL    HW131916   2.677   1.796   0.600  1.5745 -3.1449 -1.2749
 6760SOL    HW231917   2.630   1.653   0.612 -0.3247 -0.7154  0.2191
 6761SOL     OW31918   1.331   0.334   5.555  0.0290  0.2477  0.2279
 6761SOL    HW131919   1.371   0.256   5.594  2.3925  1.2680 -0.1687
 6761SOL    HW231920   1.278   0.299   5.484 -1.3651  0.3487  1.2141
 6762SOL     OW31921   4.602   4.549   1.931  0.0550  0.1673 -0.4170
 6762SOL    HW131922   4.531   4.499   1.973  1.6045 -1.9650 -0.3176
 6762SOL    HW231923   4.595   4.505   1.846  0.9557 -1.5963  0.4222
 6763SOL     OW31924   2.402   3.460   4.150  0.6488  0.1705  0.4059
 6763SOL    HW131925   2.482   3.458   4.097 -0.9895  0.1261 -2.0881
 6763SOL    HW231926   2.372   3.547   4.123  1.3118 -0.2491 -1.6862
 6764SOL     OW31927   2.711   2.378   4.363  0.2122  0.0506  0.1626
 6764SOL    HW131928   2.712   2.325   4.283 -0.5544  1.9140 -1.0889
 6764SOL    HW231929   2.765   2.320   4.417 -1.5164 -1.0264  0.7251
 6765SOL     OW31930   3.728   3.439   7.644 -0.0128 -1.0483  0.5445
 6765SOL    HW131931   3.687   3.497   7.707  0.5565  0.5015 -0.5135
 6765SOL    HW231932   3.760   3.364   7.695 -0.4051 -0.8794  1.0351
 6766SOL     OW31933   3.034   1.602  12.063 -0.0788  0.3268  0.7351
 6766SOL    HW131934   3.114   1.630  12.019 -0.1288  0.9197  1.0214
 6766SOL    HW231935   3.068   1.542  12.130  1.8492 -0.3020 -0.7977
 6767SOL     OW31936   0.763   2.535   2.904 -0.2234 -0.3170  0.1373
 6767SOL    HW131937   0.765   2.519   2.809 -3.6062  0.2902 -0.0262
 6767SOL    HW231938   0.682   2.484   2.911  0.2832 -0.6989  2.8660
 6768SOL     OW31939   2.004   0.590  16.715  0.4640  0.0249 -0.0767
 6768SOL    HW131940   1.999   0.664  16.775  0.8912 -0.4768  0.5659
 6768SOL    HW231941   2.054   0.627  16.642 -2.0743  0.3559 -1.6951
 6769SOL     OW31942   2.360   0.048   2.538 -0.2325 -0.0395 -0.6395
 6769SOL    HW131943   2.335   0.095   2.617  0.1547  0.6316 -0.9105
 6769SOL    HW231944   2.419   4.720   2.573  0.1282  0.8444  0.4394
 6770SOL     OW31945   1.278   4.010  11.476 -0.6145 -0.4823  0.6364
 6770SOL    HW131946   1.300   3.945  11.543  2.0511 -2.3353 -2.0511
 6770SOL    HW231947   1.353   3.995  11.419 -0.1887  2.8764  0.3011
 6771SOL     OW31948   1.183   2.504   1.277  0.1259  0.2301  0.5181
 6771SOL    HW131949   1.154   2.542   1.195  0.6819  2.1248  1.2159
 6771SOL    HW231950   1.228   2.426   1.244  0.4752  1.3112 -1.5060
 6772SOL     OW31951   4.374   2.235   3.657  0.0230  0.4468 -0.4225
 6772SOL    HW131952   4.285   2.211   3.633  0.1604 -0.6404  0.1257
 6772SOL    HW231953   4.419   2.215   3.575  0.0676 -0.0770 -0.2704
 6773SOL     OW31954   3.712   1.091   9.090 -0.0276 -0.0595  0.0882
 6773SOL    HW131955   3.790   1.037   9.106 -0.6603 -0.1955  2.5922
 6773SOL    HW231956   3.731   1.119   9.000 -0.5001 -0.3482 -0.1024
 6774SOL     OW31957   4.221   3.971   8.066  0.1094  0.1578 -0.1630
 6774SOL    HW131958   4.257   4.055   8.037 -0.1162  0.4421  0.3823
 6774SOL    HW231959   4.127   3.981   8.047 -0.4753 -3.0261  1.0572
 6775SOL     OW31960   1.654   4.169   6.924 -0.1424  0.1904  0.3357
 6775SOL    HW131961   1.716   4.159   6.851 -1.3440  0.3147 -0.6996
 6775SOL    HW231962   1.581   4.201   6.870  1.8304  1.3597 -1.6578
 6776SOL     OW31963   4.270   1.601  10.838 -0.0250  0.6860 -0.3402
 6776SOL    HW131964   4.343   1.590  10.899 -2.0289 -4.5479  1.1441
 6776SOL    HW231965   4.229   1.515  10.827  2.3085 -0.7143  1.8176
 6777SOL     OW31966   1.225   0.858   8.994 -0.0875  0.6954  0.3957
 6777SOL    HW131967   1.274   0.787   8.951 -1.8100  1.2712 -2.4739
 6777SOL    HW231968   1.182   0.890   8.915 -0.2690 -1.1107 -0.2345
 6778SOL     OW31969   1.577   1.328   1.442  0.4232  0.3161 -0.1622
 6778SOL    HW131970   1.637   1.403   1.443  1.0922 -0.2206 -0.0462
 6778SOL    HW231971   1.603   1.273   1.516 -1.0608  0.4242  0.4389
 6779SOL     OW31972   0.600   1.494  10.448 -0.2897 -0.2518 -0.1864
 6779SOL    HW131973   0.672   1.432  10.462 -0.1464 -0.4120 -1.6547
 6779SOL    HW231974   0.585   1.493  10.353  2.0030 -2.4261 -0.5103
 6780SOL     OW31975   2.599   4.361   5.252  0.1643  0.4185  0.4325
 6780SOL    HW131976   2.654   4.439   5.242  0.5375  0.1582  0.4944
 6780SOL    HW231977   2.541   4.355   5.176  1.3538 -3.8296 -0.0992
 6781SOL     OW31978   3.895   2.748  17.226 -0.6002 -0.5252 -0.1797
 6781SOL    HW131979   3.838   2.786  17.159  0.5433 -0.8168 -1.2997
 6781SOL    HW231980   3.978   2.728  17.185 -0.7806  1.2856 -1.4447
 6782SOL     OW31981   1.467   1.270  15.448 -0.3218 -0.0539 -0.0122
 6782SOL    HW131982   1.445   1.205  15.515 -1.0241  0.5824  0.3826
 6782SOL    HW231983   1.553   1.301  15.475 -0.2334  1.0298 -1.5338
 6783SOL     OW31984   0.769   4.324   7.496 -0.3055  0.1005  0.4019
 6783SOL    HW131985   0.745   4.394   7.557  1.9279  1.8999 -0.7793
 6783SOL    HW231986   0.683   4.302   7.461  0.9535 -1.9540 -1.4080
 6784SOL     OW31987   4.161   3.135   4.113 -0.4279 -0.4382 -0.4683
 6784SOL    HW131988   4.255   3.151   4.119 -0.3773  0.3326 -3.3739
 6784SOL    HW231989   4.154   3.058   4.169 -2.7851 -1.3102 -1.9545
 6785SOL     OW31990   3.322   3.450  13.719 -0.2782 -0.5378 -0.2418
 6785SOL    HW131991   3.251   3.389  13.703  0.6382 -1.6650 -0.0284
 6785SOL    HW231992   3.388   3.394  13.679  0.6837  0.1108  0.4337
 6786SOL     OW31993   0.538   0.275   9.492 -0.2882 -0.3370 -0.2065
 6786SOL    HW131994   0.535   0.188   9.451 -1.6162 -1.1790  1.6797
 6786SOL    HW231995   0.593   0.325   9.432 -1.3203 -1.8170 -2.3849
 6787SOL     OW31996   4.657   0.991  10.084 -0.1430  0.3592  0.5801
 6787SOL    HW131997   0.008   1.011  10.061 -0.1714 -0.8117 -0.5644
 6787SOL    HW231998   4.671   0.929  10.156  0.7884 -0.7659 -0.5792
 6788SOL     OW31999   2.545   3.685   6.675 -0.4770  0.5162  0.3378
 6788SOL    HW132000   2.542   3.590   6.668 -2.8144  0.4557  2.0733
 6788SOL    HW232001   2.628   3.703   6.719  0.6931  0.1162 -1.6929
 6789SOL     OW32002   3.177   0.511   9.600  0.4617 -0.2823 -0.1908
 6789SOL    HW132003   3.092   0.474   9.627  0.2019  0.8427  0.5464
 6789SOL    HW232004   3.203   0.459   9.524 -0.4591  0.9861 -1.3835
 6790SOL     OW32005   0.820   2.212   3.182  0.0411 -0.3249  0.6880
 6790SOL    HW132006   0.809   2.295   3.136 -1.9326 -1.7938 -1.4873
 6790SOL    HW232007   0.853   2.155   3.112  0.8508  1.0433 -0.0564
 6791SOL     OW32008   2.020   0.166   5.718 -0.2737 -0.4873 -1.4227
 6791SOL    HW132009   2.000   0.254   5.686 -1.0683  0.6573  2.2306
 6791SOL    HW232010   2.078   0.181   5.792 -1.5283  1.9168 -0.9151
 6792SOL     OW32011   3.638   4.225  15.400  0.4475 -0.1753  0.1618
 6792SOL    HW132012   3.627   4.308  15.355  0.1807 -0.5983 -0.5515
 6792SOL    HW232013   3.723   4.202  15.363 -1.0774 -2.0776 -2.2254
 6793SOL     OW32014   2.949   4.088  10.875 -0.1377 -0.0658 -0.2112
 6793SOL    HW132015   2.924   4.164  10.928  1.4058 -1.7018  2.8242
 6793SOL    HW232016   3.018   4.129  10.823  0.2401 -1.5333 -0.8414
 6794SOL     OW32017   0.324   2.193   5.929 -0.2811 -0.0032  0.3569
 6794SOL    HW132018   0.312   2.180   5.835 -3.7299  0.3069  0.7226
 6794SOL    HW232019   0.360   2.108   5.954  1.3792  0.3041 -1.0313
 6795SOL     OW32020   3.742   2.752   6.269  0.5737 -0.2878 -0.4326
 6795SOL    HW132021   3.811   2.805   6.229 -0.2194  0.5420 -0.6848
 6795SOL    HW232022   3.784   2.667   6.282  0.0605 -0.3064  1.1090
 6796SOL     OW32023   2.413   3.553  10.837 -0.6138  0.7897  0.6179
 6796SOL    HW132024   2.376   3.499  10.906  1.3399 -1.0840  0.2092
 6796SOL    HW232025   2.397   3.640  10.872 -0.4633 -0.2617  3.3059
 6797SOL     OW32026   0.714   3.485   3.719 -0.0663  0.0936 -0.1704
 6797SOL    HW132027   0.705   3.395   3.751 -1.5233 -0.0897 -1.0653
 6797SOL    HW232028   0.707   3.464   3.626  0.4526 -0.8658  0.0131
 6798SOL     OW32029   1.194   4.254  16.907 -0.7183 -0.5577  0.5080
 6798SOL    HW132030   1.187   4.212  16.993 -2.0522 -0.2110  0.5649
 6798SOL    HW232031   1.139   4.332  16.908  0.6831  0.4318 -0.2178
 6799SOL     OW32032   4.075   1.842   3.490  0.6208 -0.1500  0.3453
 6799SOL    HW132033   4.055   1.828   3.397  0.6192  0.3978  0.2605
 6799SOL    HW232034   4.007   1.903   3.518 -1.2400 -1.4627 -1.3063
 6800SOL     OW32035   4.266   2.685   5.487 -0.3300  0.6462 -0.2423
 6800SOL    HW132036   4.325   2.622   5.529 -0.2338  1.8124  1.3597
 6800SOL    HW232037   4.226   2.629   5.420  2.6162 -0.2428 -1.2579
 6801SOL     OW32038   3.437   2.465   1.777  0.0210  0.3147 -0.4073
 6801SOL    HW132039   3.382   2.542   1.762 -2.0696 -1.1286 -0.1400
 6801SOL    HW232040   3.507   2.480   1.713 -0.7759 -2.9128 -2.0367
 6802SOL     OW32041   1.620   3.342   4.949  0.2389 -0.5007  0.3544
 6802SOL    HW132042   1.696   3.396   4.929 -0.0873 -0.1947 -0.0591
 6802SOL    HW232043   1.566   3.362   4.873  1.7930 -1.3670 -0.9860
 6803SOL     OW32044   0.328   1.487   7.344 -0.2530 -0.0853  0.1587
 6803SOL    HW132045   0.379   1.561   7.309  0.5087 -1.7460 -2.2493
 6803SOL    HW232046   0.243   1.500   7.302 -1.4686 -1.4343  2.2280
 6804SOL     OW32047   0.819   2.648   4.483 -0.8047  0.5659 -0.3612
 6804SOL    HW132048   0.866   2.728   4.506  0.1083  0.9195 -3.5029
 6804SOL    HW232049   0.828   2.629   4.390  0.5676  4.4544 -1.0147
 6805SOL     OW32050   2.058   2.902   9.293  0.2528  0.4635 -0.5480
 6805SOL    HW132051   2.057   2.903   9.389  1.7142 -1.5008 -0.5067
 6805SOL    HW232052   1.991   2.969   9.279  0.5048  1.3491  2.4098
 6806SOL     OW32053   2.323   4.408  16.867  0.1162  0.2696  0.1542
 6806SOL    HW132054   2.322   4.457  16.949 -0.2844 -1.7167  1.3411
 6806SOL    HW232055   2.360   4.323  16.891  0.9016  0.3718 -0.7001
 6807SOL     OW32056   1.667   1.551  16.731 -0.0842  0.2107 -0.0256
 6807SOL    HW132057   1.674   1.463  16.768  1.0886  0.4817  0.3830
 6807SOL    HW232058   1.579   1.566  16.764 -0.1802  0.7872 -0.5464
 6808SOL     OW32059   1.302   1.284   0.422 -0.1995  0.0214  0.5434
 6808SOL    HW132060   1.284   1.283   0.516 -0.4665 -2.2792  0.4785
 6808SOL    HW232061   1.377   1.224   0.429 -0.9950 -0.7857  2.1782
 6809SOL     OW32062   0.438   1.484   4.011 -0.0025  0.0674  0.2393
 6809SOL    HW132063   0.457   1.519   4.098  1.8768 -0.5231  0.0565
 6809SOL    HW232064   0.393   1.401   4.027  0.4405 -0.0212  0.9756
 6810SOL     OW32065   0.187   2.482   8.738  0.4508  0.0552 -0.0941
 6810SOL    HW132066   0.165   2.575   8.736 -0.2753 -0.1600 -1.8516
 6810SOL    HW232067   0.103   2.445   8.713 -0.1011  0.1977  1.4973
 6811SOL     OW32068   1.130   2.326   3.141  0.5120  0.0624  0.0617
 6811SOL    HW132069   1.174   2.354   3.061  2.7850 -2.5102  0.4207
 6811SOL    HW232070   1.053   2.383   3.148  0.4607  0.0109 -0.0757
 6812SOL     OW32071   0.478   0.397   4.633 -0.0828  0.1211 -0.9137
 6812SOL    HW132072   0.536   0.471   4.650 -0.2306  0.2402 -0.9284
 6812SOL    HW232073   0.538   0.323   4.620 -2.9201 -2.0719 -1.4956
 6813SOL     OW32074   4.574   0.841   8.990  0.8650 -0.0004 -0.2147
 6813SOL    HW132075   4.541   0.775   9.051 -1.8431  0.0390 -1.6261
 6813SOL    HW232076   4.582   0.802   8.903 -0.2765  2.2003 -1.2950
 6814SOL     OW32077   0.543   1.860   5.831 -0.3529 -0.3330  0.1758
 6814SOL    HW132078   0.502   1.775   5.846  1.9929 -1.9880 -2.8888
 6814SOL    HW232079   0.564   1.891   5.919 -1.6561  0.0599  0.3539
 6815SOL     OW32080   1.146   1.877   4.943 -0.5677 -0.5896 -0.6235
 6815SOL    HW132081   1.168   1.911   4.857 -2.3854  0.6852 -0.5908
 6815SOL    HW232082   1.093   1.801   4.920  0.1997 -1.6681  1.1588
 6816SOL     OW32083   4.565   2.854   7.290  0.0495  0.4784 -0.2759
 6816SOL    HW132084   4.655   2.833   7.267 -1.0190 -1.5541 -2.6367
 6816SOL    HW232085   4.537   2.884   7.203 -0.4824  0.3418 -0.1561
 6817SOL     OW32086   3.695   0.738  16.065 -0.0599 -0.2182  0.7006
 6817SOL    HW132087   3.627   0.783  16.115  0.6698 -0.8867  2.3149
 6817SOL    HW232088   3.712   0.799  15.994 -0.0391 -0.0338  0.8660
 6818SOL     OW32089   0.296   4.135   4.541  0.9826 -0.4693  0.7000
 6818SOL    HW132090   0.353   4.076   4.491  0.1050  0.3722 -1.2865
 6818SOL    HW232091   0.308   4.219   4.497 -0.5232 -0.4715  0.3011
 6819SOL     OW32092   2.070   4.230  13.653  0.3639 -0.2835  0.2699
 6819SOL    HW132093   2.111   4.214  13.568 -1.7746 -1.7685 -0.4763
 6819SOL    HW232094   2.134   4.293  13.687 -1.2205  1.2074  0.4981
 6820SOL     OW32095   4.437   0.561   3.486  0.2461  0.2044  0.2742
 6820SOL    HW132096   4.503   0.629   3.485  0.5739 -0.1125 -0.4245
 6820SOL    HW232097   4.442   0.518   3.571  2.3470 -1.6661 -0.7881
 6821SOL     OW32098   1.849   3.937   2.806 -0.5676  0.2000 -0.0342
 6821SOL    HW132099   1.939   3.935   2.775 -0.8631 -0.2591 -0.8514
 6821SOL    HW232100   1.853   3.911   2.898 -0.4527  2.6538  0.6510
 6822SOL     OW32101   1.759   2.387  10.828  0.1531 -0.0680  0.5059
 6822SOL    HW132102   1.819   2.315  10.808  1.0856  1.4310 -2.0629
 6822SOL    HW232103   1.674   2.349  10.805 -0.1392 -0.3893  2.1097
 6823SOL     OW32104   1.130   3.357   0.938  0.1613 -0.2360  0.1438
 6823SOL    HW132105   1.162   3.392   0.856 -2.5802  2.4669  0.2373
 6823SOL    HW232106   1.054   3.413   0.957  0.1807 -1.0942  2.8829
 6824SOL     OW32107   3.269   1.095  17.379  0.2031  0.1760 -0.7584
 6824SOL    HW132108   3.173   1.103  17.378 -0.0631 -2.9983 -1.9417
 6824SOL    HW232109   3.291   1.177  17.423  0.3105  0.0322 -0.5480
 6825SOL     OW32110   4.249   3.566   4.492  0.3946  0.1546  0.4679
 6825SOL    HW132111   4.298   3.602   4.566 -0.7624  1.9361  0.3764
 6825SOL    HW232112   4.162   3.601   4.509  0.3550  0.4630 -0.3185
 6826SOL     OW32113   2.730   1.618  13.128 -0.0328 -0.2410  0.2463
 6826SOL    HW132114   2.739   1.642  13.220  0.6013 -0.4360  0.2356
 6826SOL    HW232115   2.776   1.688  13.082  0.7651  0.5957  2.3266
 6827SOL     OW32116   0.748   3.804   7.896 -0.1584 -0.3475 -0.0497
 6827SOL    HW132117   0.740   3.791   7.991 -0.1520 -1.1037 -0.1567
 6827SOL    HW232118   0.818   3.740   7.884 -1.8280 -1.8695 -1.7290
 6828SOL     OW32119   2.136   1.184  13.570  0.0166 -0.1129  0.5430
 6828SOL    HW132120   2.121   1.132  13.492 -0.7059  1.5779 -0.4409
 6828SOL    HW232121   2.048   1.202  13.603  0.6267  0.6566  1.8002
 6829SOL     OW32122   2.168   3.942   4.221  0.5457  0.3838 -0.9871
 6829SOL    HW132123   2.075   3.948   4.200  0.5605  1.6219 -0.7016
 6829SOL    HW232124   2.185   4.013   4.283 -1.5252 -1.0044  1.1884
 6830SOL     OW32125   2.838   0.121   0.627 -0.2330  0.7774 -0.2266
 6830SOL    HW132126   2.876   0.035   0.642 -2.0424 -0.1968 -1.2875
 6830SOL    HW232127   2.876   0.151   0.544 -1.0360 -0.3945 -1.0026
 6831SOL     OW32128   3.300   2.307  12.396  0.2424  0.1077  0.1257
 6831SOL    HW132129   3.315   2.218  12.428  1.4911 -0.1965 -1.3322
 6831SOL    HW232130   3.211   2.296  12.362  0.7841  1.6429 -1.8303
 6832SOL     OW32131   0.528   1.169   8.997  0.1610  0.0661  0.1853
 6832SOL    HW132132   0.591   1.099   8.982 -0.3226 -0.1073 -1.0564
 6832SOL    HW232133   0.461   1.119   9.045 -2.0998  0.8953 -2.0725
 6833SOL     OW32134   3.730   2.912   5.481 -0.0869 -0.7097  0.1976
 6833SOL    HW132135   3.695   2.823   5.486 -1.3798 -0.1035  2.0201
 6833SOL    HW232136   3.743   2.928   5.575 -2.3342 -0.5820  0.4828
 6834SOL     OW32137   1.253   2.310   2.324  0.7667 -1.0276 -0.5220
 6834SOL    HW132138   1.319   2.331   2.389 -1.7689  2.8112  0.8039
 6834SOL    HW232139   1.305   2.257   2.263  1.4440  1.2835 -1.9508
 6835SOL     OW32140   0.518   0.700  10.028  0.1336 -0.0862  0.1484
 6835SOL    HW132141   0.548   0.646   9.954  1.2535  2.5774 -1.3467
 6835SOL    HW232142   0.464   0.769   9.992 -0.4360  0.1719  1.5163
 6836SOL     OW32143   4.480   2.992  12.984 -0.1874  0.2447  0.0609
 6836SOL    HW132144   4.393   3.010  12.948  0.3081  1.5897 -0.4575
 6836SOL    HW232145   4.526   3.060  12.934 -1.8063  1.1487 -0.2158
 6837SOL     OW32146   1.140   0.644   4.550  0.1207  0.2310  0.2922
 6837SOL    HW132147   1.210   0.647   4.616  2.5060  0.1597 -2.2162
 6837SOL    HW232148   1.111   0.553   4.553  0.2128  0.1775 -0.3578
 6838SOL     OW32149   3.119   0.102   1.453  0.1526 -0.4354 -0.3048
 6838SOL    HW132150   3.062   0.175   1.429  0.7256  0.3774  0.8473
 6838SOL    HW232151   3.196   0.138   1.497  0.2765 -0.2907 -0.6414
 6839SOL     OW32152   1.168   0.613  14.055  0.0852 -0.7819  0.3093
 6839SOL    HW132153   1.090   0.605  13.999  0.5869  2.5078 -0.8401
 6839SOL    HW232154   1.212   0.537  14.018 -1.3720 -1.1871 -0.6128
 6840SOL     OW32155   3.956   0.989   9.182  0.2117 -0.2149  0.3000
 6840SOL    HW132156   4.011   0.955   9.111 -0.4638 -1.3261  0.3009
 6840SOL    HW232157   3.914   0.914   9.223 -0.3941 -0.2159 -0.3129
 6841SOL     OW32158   2.395   3.049   9.706 -0.5280  1.2145  0.4462
 6841SOL    HW132159   2.350   3.038   9.790  0.7292 -0.1442  0.9436
 6841SOL    HW232160   2.336   2.992   9.656  0.6418 -1.3980  2.0242
 6842SOL     OW32161   3.532   4.581   2.512  0.4816 -0.6239  0.0851
 6842SOL    HW132162   3.592   4.567   2.585  1.5110 -0.3826 -0.7178
 6842SOL    HW232163   3.575   4.540   2.437 -0.5851 -0.7983 -0.4343
 6843SOL     OW32164   3.725   3.577   8.401  0.1557 -0.4121  0.3009
 6843SOL    HW132165   3.792   3.510   8.390  1.0268  0.3868  0.7067
 6843SOL    HW232166   3.701   3.560   8.492 -4.4304 -0.3649 -0.8820
 6844SOL     OW32167   4.512   3.369   2.285  0.4921 -0.0171 -0.6912
 6844SOL    HW132168   4.601   3.400   2.297  0.4311 -0.2759  0.4712
 6844SOL    HW232169   4.510   3.279   2.251 -0.8754 -0.1737 -0.2318
 6845SOL     OW32170   0.532   3.350   8.374  0.2303  0.3129  0.4889
 6845SOL    HW132171   0.460   3.304   8.331  1.4593  0.5534 -1.8519
 6845SOL    HW232172   0.592   3.280   8.398 -0.1917  0.7401  2.7988
 6846SOL     OW32173   4.054   0.482   8.879  0.2580 -0.2346  0.5918
 6846SOL    HW132174   4.143   0.446   8.878  0.8834  1.3264  0.3562
 6846SOL    HW232175   4.054   0.542   8.805  0.4260 -1.1658 -0.1687
 6847SOL     OW32176   1.089   3.829   8.168 -0.1254  0.1981  0.4234
 6847SOL    HW132177   1.120   3.779   8.092 -0.5475  0.4877  0.0602
 6847SOL    HW232178   1.107   3.768   8.239 -0.8817 -0.2408  0.2394
 6848SOL     OW32179   2.519   0.561   7.497 -0.3354 -0.2100 -0.6397
 6848SOL    HW132180   2.473   0.628   7.447 -1.0613 -0.0226  0.2858
 6848SOL    HW232181   2.446   0.501   7.484  0.6028 -1.3933 -0.4594
 6849SOL     OW32182   3.062   2.201  11.214  0.0800  0.3512  0.1596
 6849SOL    HW132183   3.062   2.165  11.126  2.1288  1.1961 -0.1802
 6849SOL    HW232184   3.019   2.285  11.199 -0.7766 -0.4138 -1.6551
 6850SOL     OW32185   1.643   1.528  17.625 -0.6414  0.3573 -0.1074
 6850SOL    HW132186   1.597   1.554  17.545  1.5915 -1.1677 -1.9103
 6850SOL    HW232187   1.633   1.434  17.613  2.0828 -0.1203  1.2890
 6851SOL     OW32188   3.095   0.626  12.415 -0.1826 -0.1861  0.4935
 6851SOL    HW132189   3.165   0.562  12.413 -0.7375 -0.7857  0.2068
 6851SOL    HW232190   3.032   0.590  12.351 -0.2820 -0.5624  0.8057
 6852SOL     OW32191   0.979   2.099   5.086  0.9628  0.4185  0.4234
 6852SOL    HW132192   1.014   2.121   5.000  0.2634  1.9551  0.5435
 6852SOL    HW232193   0.927   2.022   5.062  2.6097 -0.3702 -0.6531
 6853SOL     OW32194   3.174   3.842  14.156  0.4893 -0.1070 -0.0189
 6853SOL    HW132195   3.128   3.845  14.072 -1.8681  1.1912  1.3128
 6853SOL    HW232196   3.264   3.824  14.129 -0.2518  0.2633 -2.7101
 6854SOL     OW32197   1.925   3.703   6.522 -0.5235  0.1991  0.4338
 6854SOL    HW132198   1.958   3.739   6.605 -1.1345 -1.3471  1.3549
 6854SOL    HW232199   2.004   3.658   6.494  0.1468  0.4858  1.8593
 6855SOL     OW32200   1.749   2.144  12.726  0.3644 -0.6285  0.1604
 6855SOL    HW132201   1.758   2.192  12.808 -2.0738  0.8191 -0.4335
 6855SOL    HW232202   1.723   2.057  12.757  0.5139 -0.6887  0.1191
 6856SOL     OW32203   1.231   1.680   3.300 -0.5823 -0.8686  0.6428
 6856SOL    HW132204   1.210   1.587   3.292  0.7035 -0.9376 -1.7707
 6856SOL    HW232205   1.158   1.710   3.245  0.7166  1.2383  0.0552
 6857SOL     OW32206   1.807   4.696  10.326 -0.9946  0.0359 -0.0188
 6857SOL    HW132207   1.733   4.636  10.329 -0.3149 -0.7257  1.5440
 6857SOL    HW232208   1.886   4.644  10.311  1.4292  3.0908  2.2632
 6858SOL     OW32209   2.527   3.359   1.716 -0.0906  0.1166  0.0189
 6858SOL    HW132210   2.567   3.336   1.632  0.8089  0.5613  0.3322
 6858SOL    HW232211   2.554   3.279   1.761 -1.9245 -0.3511  0.2912
 6859SOL     OW32212   2.859   3.319  10.502 -0.5075  0.5881  0.3561
 6859SOL    HW132213   2.915   3.242  10.501 -0.0347  0.9287  1.3503
 6859SOL    HW232214   2.929   3.380  10.478  0.3483 -0.1689  0.9378
 6860SOL     OW32215   3.815   1.011  11.165 -0.7476 -0.4152  1.1156
 6860SOL    HW132216   3.813   0.973  11.078 -1.4990 -1.2647  1.5032
 6860SOL    HW232217   3.858   1.095  11.150  0.4035 -1.3230 -0.6539
 6861SOL     OW32218   1.419   2.666  11.425 -0.1791  0.6270 -0.0893
 6861SOL    HW132219   1.422   2.693  11.517  0.3200 -0.7304  0.2927
 6861SOL    HW232220   1.504   2.697  11.396  0.1778 -0.0886  0.1947
 6862SOL     OW32221   4.519   4.100   6.075  0.7542 -0.3593 -0.0982
 6862SOL    HW132222   4.566   4.131   6.152 -0.1791  0.5028  0.1270
 6862SOL    HW232223   4.592   4.112   6.015 -0.1196  3.1748 -0.4499
 6863SOL     OW32224   4.486   2.884   4.545 -0.3449  0.6701  0.2989
 6863SOL    HW132225   4.522   2.802   4.510 -0.2864  0.1015  1.6783
 6863SOL    HW232226   4.421   2.852   4.608 -1.5817  0.9422 -0.8421
 6864SOL     OW32227   2.394   4.669   7.499 -0.1442  0.1104  0.2651
 6864SOL    HW132228   2.464   4.685   7.436 -0.1868 -0.4592  0.0679
 6864SOL    HW232229   2.391   4.573   7.506  0.0219  0.0395 -0.7229
 6865SOL     OW32230   0.605   0.121   9.707 -0.2123  0.5184  0.1172
 6865SOL    HW132231   0.593   0.197   9.651 -0.3796  0.4133  0.0123
 6865SOL    HW232232   0.527   0.128   9.762 -0.9293 -0.3124 -0.7991
 6866SOL     OW32233   4.499   1.431   0.301 -0.1686  0.1566 -0.8232
 6866SOL    HW132234   4.584   1.392   0.282  1.2723  1.5321  2.9372
 6866SOL    HW232235   4.433   1.369   0.268  2.2745 -2.8671  0.0015
 6867SOL     OW32236   4.267   0.864   1.742  0.2709  0.1291  0.0178
 6867SOL    HW132237   4.326   0.794   1.770  1.6059  0.7394 -1.2366
 6867SOL    HW232238   4.311   0.945   1.768  0.6463 -0.2670  0.6239
 6868SOL     OW32239   0.174   0.732   6.996  0.4566  0.0277  0.1445
 6868SOL    HW132240   0.133   0.819   6.994  1.7244  0.5870 -2.4377
 6868SOL    HW232241   0.113   0.678   6.946 -1.1419 -0.7936  3.0014
 6869SOL     OW32242   3.733   0.664   9.663 -0.4522  0.0056 -0.4586
 6869SOL    HW132243   3.743   0.655   9.758  1.2300 -0.6848 -0.7079
 6869SOL    HW232244   3.671   0.593   9.645  1.2445 -1.2802 -1.2552
 6870SOL     OW32245   2.225   1.768   1.760  0.2373  0.0310  0.4165
 6870SOL    HW132246   2.195   1.732   1.677 -0.8700 -0.3621  0.9834
 6870SOL    HW232247   2.214   1.694   1.820  0.6823 -0.1756  0.2447
 6871SOL     OW32248   0.637   1.408   7.260  0.5252  0.1478  0.0378
 6871SOL    HW132249   0.680   1.468   7.321  0.9498 -1.3016  1.1776
 6871SOL    HW232250   0.568   1.358   7.304  1.1288 -0.2308  0.5512
 6872SOL     OW32251   4.492   1.808  14.309 -0.3411  0.0344  0.0414
 6872SOL    HW132252   4.557   1.860  14.261  1.3904 -1.2953  0.9110
 6872SOL    HW232253   4.492   1.737  14.244  1.8509 -0.2474  0.3349
 6873SOL     OW32254   2.344   2.461   7.262  0.1557 -0.2530  0.0282
 6873SOL    HW132255   2.373   2.384   7.214 -0.6289 -1.0044  0.7756
 6873SOL    HW232256   2.387   2.447   7.346  0.4348 -0.1870 -0.1044
 6874SOL     OW32257   0.239   1.418   4.712 -0.2337  0.2678  0.0725
 6874SOL    HW132258   0.232   1.333   4.755  0.1325  0.7018  0.9891
 6874SOL    HW232259   0.174   1.410   4.642  0.8058  2.5087 -1.1509
 6875SOL     OW32260   2.607   1.404   3.246  0.1961  0.2509  0.4535
 6875SOL    HW132261   2.622   1.382   3.338 -2.8141  0.2153  0.9245
 6875SOL    HW232262   2.558   1.483   3.267  2.1770  1.7018 -0.3331
 6876SOL     OW32263   3.009   0.847   2.037 -0.2313 -0.3969 -0.0540
 6876SOL    HW132264   3.044   0.889   1.959 -0.1161 -1.4034 -0.5551
 6876SOL    HW232265   3.072   0.888   2.096  1.1877 -1.5314 -0.7547
 6877SOL     OW32266   1.211   2.080   7.009  0.1648 -0.3497  0.0308
 6877SOL    HW132267   1.240   2.139   6.939 -2.6694  0.1405 -0.7606
 6877SOL    HW232268   1.179   2.140   7.077 -0.2572  0.0698 -0.5295
 6878SOL     OW32269   3.991   1.360   8.107  0.1729 -0.0416  0.2150
 6878SOL    HW132270   3.931   1.398   8.171  1.2086  0.7109  0.7329
 6878SOL    HW232271   4.076   1.358   8.151 -0.8618 -1.6965  2.1329
 6879SOL     OW32272   2.952   1.088   4.223  0.1956  0.4387  0.2495
 6879SOL    HW132273   2.889   1.031   4.266  2.8687 -2.8529 -0.2730
 6879SOL    HW232274   2.951   1.047   4.136  0.1776 -0.2311  0.5685
 6880SOL     OW32275   2.160   0.375   5.138  0.3292 -0.8294 -0.5520
 6880SOL    HW132276   2.109   0.335   5.068 -1.5343  1.1847 -0.3335
 6880SOL    HW232277   2.247   0.386   5.100  1.5354  3.3574  3.3453
 6881SOL     OW32278   3.581   4.739   3.233  0.2351 -0.5371  0.8390
 6881SOL    HW132279   3.640   4.693   3.173 -2.6246 -0.7451 -1.8064
 6881SOL    HW232280   3.565   4.664   3.289 -2.3210 -1.1428 -0.7018
 6882SOL     OW32281   3.022   3.972   5.915  0.2675 -0.0825 -0.1008
 6882SOL    HW132282   2.951   3.926   5.961 -1.4947  2.1982 -0.5632
 6882SOL    HW232283   3.041   4.033   5.986 -1.0184  0.8016 -0.5148
 6883SOL     OW32284   0.384   1.095   8.531 -0.0190 -0.3227 -0.2808
 6883SOL    HW132285   0.432   1.091   8.448 -0.0736 -2.3213 -0.2241
 6883SOL    HW232286   0.334   1.175   8.516  0.6397  0.4308  1.5397
 6884SOL     OW32287   4.646   4.200   6.304  0.1694  0.2888 -0.2754
 6884SOL    HW132288   4.640   4.293   6.285  2.0688  0.7517  1.3923
 6884SOL    HW232289   4.642   4.201   6.400  2.6678 -1.6132 -0.1411
 6885SOL     OW32290   3.030   4.134   6.158 -0.3860  0.6056  0.2868
 6885SOL    HW132291   3.078   4.061   6.196  0.3569  0.9591  0.0218
 6885SOL    HW232292   3.075   4.208   6.199  0.0921  0.1658  0.5518
 6886SOL     OW32293   4.251   2.272  10.228 -0.4961 -0.1391  0.0154
 6886SOL    HW132294   4.314   2.269  10.300 -0.5011 -0.0159  0.0256
 6886SOL    HW232295   4.268   2.362  10.200  1.5359 -0.4988  0.0974
 6887SOL     OW32296   0.715   1.409   2.606  0.0187 -0.0294  0.0034
 6887SOL    HW132297   0.768   1.450   2.673  1.1688 -1.4161 -0.0643
 6887SOL    HW232298   0.639   1.467   2.608 -0.6081 -0.8463 -0.0460
 6888SOL     OW32299   3.546   3.005   1.518  0.3543  1.0363  0.0739
 6888SOL    HW132300   3.490   2.934   1.485 -1.1449  2.4127 -0.3481
 6888SOL    HW232301   3.483   3.069   1.551  1.8594  2.2569  0.5645
 6889SOL     OW32302   1.729   0.693  14.839  0.1461 -0.1320 -0.2797
 6889SOL    HW132303   1.797   0.694  14.906  2.6327  0.9366 -2.8038
 6889SOL    HW232304   1.670   0.621  14.861 -1.5746  0.8707 -1.5937
 6890SOL     OW32305   4.469   0.597   5.155 -0.4775  0.3147  0.4822
 6890SOL    HW132306   4.395   0.592   5.216 -1.5232  3.8704 -0.4704
 6890SOL    HW232307   4.440   0.530   5.094 -2.0283 -0.1503  1.7382
 6891SOL     OW32308   0.719   0.044   8.095 -0.1143  0.1134 -0.2508
 6891SOL    HW132309   0.758   0.128   8.117 -1.3156  0.9916 -1.4388
 6891SOL    HW232310   0.717   4.736   8.178  2.4438  1.3979  0.5583
 6892SOL     OW32311   2.671   0.543   4.119 -0.5059  0.0182  0.3836
 6892SOL    HW132312   2.763   0.546   4.095 -0.4210 -2.7002  0.3126
 6892SOL    HW232313   2.636   0.503   4.039 -1.8567 -0.3454  1.1478
 6893SOL     OW32314   1.254   3.398   6.560 -0.4568  0.1470 -0.0750
 6893SOL    HW132315   1.284   3.436   6.478 -1.4464 -0.9687 -0.9502
 6893SOL    HW232316   1.265   3.480   6.608  0.0607 -0.2223  0.4356
 6894SOL     OW32317   2.378   0.504  13.374 -0.0324 -0.1821 -0.5003
 6894SOL    HW132318   2.423   0.509  13.289  3.1932  0.3445  1.2170
 6894SOL    HW232319   2.316   0.577  13.370 -0.1199 -0.1311  2.2030
 6895SOL     OW32320   3.847   2.654  15.112  0.0703 -0.0065 -0.1282
 6895SOL    HW132321   3.916   2.667  15.045  1.3723 -0.4536  1.1271
 6895SOL    HW232322   3.772   2.638  15.055  0.0847 -0.1323 -0.1126
 6896SOL     OW32323   3.354   3.731   7.173  0.0266  0.1427  0.2511
 6896SOL    HW132324   3.351   3.794   7.102  1.0067 -0.7930 -0.6222
 6896SOL    HW232325   3.414   3.775   7.232  0.1023 -1.2288  1.1991
 6897SOL     OW32326   1.411   3.727   4.049  0.5252  0.2786  0.2982
 6897SOL    HW132327   1.391   3.752   4.139  1.7148 -0.2788  0.7121
 6897SOL    HW232328   1.327   3.683   4.033 -0.7109  3.0718 -0.8198
 6898SOL     OW32329   1.766   0.076   4.966 -0.1456  0.3596 -0.4822
 6898SOL    HW132330   1.795   0.017   5.036 -0.5508  1.7778  0.8769
 6898SOL    HW232331   1.714   0.144   5.007  0.2238  1.1150 -1.2673
 6899SOL     OW32332   0.885   2.376  10.669 -0.1493  0.4248 -0.0886
 6899SOL    HW132333   0.909   2.407  10.581  0.0828  0.2993 -0.0690
 6899SOL    HW232334   0.959   2.318  10.689  0.1665  0.9643  0.3115
 6900SOL     OW32335   1.399   3.967  14.484  0.0627 -1.0284 -0.3078
 6900SOL    HW132336   1.372   3.987  14.395  0.9883 -0.5359 -0.4767
 6900SOL    HW232337   1.350   4.032  14.534  0.5824  0.0385 -1.1980
 6901SOL     OW32338   4.277   2.521   6.580  0.6205 -0.1970  0.3687
 6901SOL    HW132339   4.291   2.429   6.602 -0.3629  0.1229  2.3240
 6901SOL    HW232340   4.322   2.535   6.497 -0.4033 -0.4580 -0.2310
 6902SOL     OW32341   2.426   1.084   1.141  0.3554 -0.0781 -0.5455
 6902SOL    HW132342   2.365   1.049   1.206  1.4197 -1.3395 -0.2056
 6902SOL    HW232343   2.463   1.008   1.095 -1.1121  0.1723 -2.1528
 6903SOL     OW32344   4.175   0.919  14.115 -0.1601 -0.2526  0.3113
 6903SOL    HW132345   4.100   0.936  14.172 -1.9994 -2.4572 -1.4620
 6903SOL    HW232346   4.140   0.862  14.047 -1.6251  1.0525 -0.0109
 6904SOL     OW32347   0.866   3.985   8.181 -0.0843  0.1463  0.3202
 6904SOL    HW132348   0.843   3.910   8.125  1.4006  0.5832 -0.8804
 6904SOL    HW232349   0.961   3.974   8.190 -0.2495 -1.9325 -0.3955
 6905SOL     OW32350   2.053   0.121  14.951  0.7503  0.4318  0.0350
 6905SOL    HW132351   1.978   0.175  14.975  2.1655  2.0374  0.9039
 6905SOL    HW232352   2.062   0.128  14.856  2.1232 -0.4552  0.0937
 6906SOL     OW32353   0.097   0.508   5.725 -0.2155  0.1941 -0.1204
 6906SOL    HW132354   0.165   0.473   5.668 -0.2031 -0.0494  0.0463
 6906SOL    HW232355   0.147   0.565   5.783 -0.5347  0.8572 -0.4893
 6907SOL     OW32356   3.424   4.052  12.380 -0.4573  0.0669  0.4809
 6907SOL    HW132357   3.352   4.114  12.374 -1.1975 -1.0298 -1.9109
 6907SOL    HW232358   3.387   3.982  12.327  1.2564 -0.6156  0.1605
 6908SOL     OW32359   3.739   1.934  10.789 -0.2828 -0.4236 -0.4691
 6908SOL    HW132360   3.763   2.016  10.746  1.2063 -0.5279  0.1659
 6908SOL    HW232361   3.656   1.967  10.822  1.5525  1.2667  2.4698
 6909SOL     OW32362   3.665   2.069  11.834  0.2554  0.4231  0.3035
 6909SOL    HW132363   3.671   2.112  11.919  0.5285  0.6825  0.1496
 6909SOL    HW232364   3.634   1.985  11.867  0.7158 -0.0842 -0.5498
 6910SOL     OW32365   0.909   0.987   5.182  0.3388  0.6948 -0.0993
 6910SOL    HW132366   0.899   0.933   5.261  2.8726  1.7204  0.9220
 6910SOL    HW232367   0.825   0.964   5.142 -0.4071  1.6077  0.9165
 6911SOL     OW32368   4.494   1.844   5.949  0.1312 -0.4160  0.1360
 6911SOL    HW132369   4.441   1.840   5.870 -0.2133  0.9603  0.2973
 6911SOL    HW232370   4.455   1.919   5.995  0.3833  0.6226 -1.3684
 6912SOL     OW32371   3.346   0.280   6.803 -0.3809  0.5415 -0.0823
 6912SOL    HW132372   3.299   0.363   6.800  0.2815  0.9347  0.4170
 6912SOL    HW232373   3.391   0.289   6.719 -0.2856 -1.2682 -0.2236
 6913SOL     OW32374   1.178   0.791  12.444  0.0210  0.4325  0.0594
 6913SOL    HW132375   1.239   0.846  12.492  1.3600  0.6674 -1.9020
 6913SOL    HW232376   1.188   0.830  12.357 -0.6301  1.6833  0.5442
 6914SOL     OW32377   0.212   2.969   5.072  0.0021 -0.9196  0.9295
 6914SOL    HW132378   0.254   2.884   5.060  0.1645 -0.8616  1.0857
 6914SOL    HW232379   0.204   2.976   5.168  1.6953 -2.7211  1.1941
 6915SOL     OW32380   2.024   1.332  14.535 -0.1574 -0.1157  0.1569
 6915SOL    HW132381   2.009   1.243  14.567 -0.2686  0.0762  0.6469
 6915SOL    HW232382   1.952   1.376  14.581 -0.2272 -1.7296  1.6003
 6916SOL     OW32383   2.254   0.748  13.379 -0.2079 -0.2889  0.5213
 6916SOL    HW132384   2.281   0.802  13.304  3.3861 -1.5255  0.9339
 6916SOL    HW232385   2.216   0.818  13.432  0.3235 -0.4250  1.0859
 6917SOL     OW32386   4.270   4.312  16.218  0.0856  0.3037 -0.1240
 6917SOL    HW132387   4.222   4.365  16.154  0.4720  1.7329  0.7571
 6917SOL    HW232388   4.304   4.370  16.287  2.5258 -1.6078  0.2427
 6918SOL     OW32389   1.129   1.027   4.950 -0.1133  0.3661 -0.1672
 6918SOL    HW132390   1.187   1.094   4.912  0.8078 -0.2284  0.1931
 6918SOL    HW232391   1.054   1.081   4.972  0.5067  1.8252 -1.5677
 6919SOL     OW32392   4.382   3.788   6.649  0.2666  0.0325  0.2528
 6919SOL    HW132393   4.396   3.811   6.741  1.6460  0.7563 -0.1489
 6919SOL    HW232394   4.417   3.867   6.609  0.4466  0.5505  1.4172
 6920SOL     OW32395   4.098   0.936  11.195  0.5187  0.8449  0.3215
 6920SOL    HW132396   4.069   0.854  11.155 -0.9124  1.7564 -0.5057
 6920SOL    HW232397   4.167   0.956  11.131 -0.7156 -1.4093 -1.7432
 6921SOL     OW32398   1.030   3.770  14.138 -0.5368 -0.5547  0.4712
 6921SOL    HW132399   1.122   3.759  14.115 -1.4469 -2.4316 -2.1921
 6921SOL    HW232400   1.038   3.812  14.224  0.5685 -2.6624  1.3950
 6922SOL     OW32401   3.947   4.276   6.384 -0.0346 -0.2469  0.2184
 6922SOL    HW132402   3.960   4.239   6.471  1.8988 -0.3115 -0.1055
 6922SOL    HW232403   4.011   4.239   6.324  0.9021  4.0006 -1.4514
 6923SOL     OW32404   2.858   1.913   8.086  0.0078 -0.3728  0.1670
 6923SOL    HW132405   2.851   1.868   8.002  1.5867 -0.7946  0.2553
 6923SOL    HW232406   2.921   1.864   8.139  1.0716  1.9500  1.0527
 6924SOL     OW32407   2.402   2.272   6.781 -0.2114 -0.2847  0.3836
 6924SOL    HW132408   2.425   2.327   6.706 -0.2773  1.3694  1.5698
 6924SOL    HW232409   2.493   2.249   6.802 -0.0094  0.6392  0.5355
 6925SOL     OW32410   3.265   3.121   4.156 -0.0287 -0.1222 -0.4683
 6925SOL    HW132411   3.191   3.085   4.205 -0.0430  0.0683 -0.3516
 6925SOL    HW232412   3.323   3.170   4.215  0.5503 -2.2603  0.7427
 6926SOL     OW32413   2.976   2.131   9.836 -0.4744 -0.0333  0.6055
 6926SOL    HW132414   2.890   2.131   9.877 -0.2815 -2.0675  1.0226
 6926SOL    HW232415   2.978   2.204   9.775  2.0831 -1.3635 -0.8995
 6927SOL     OW32416   2.175   1.106  16.172  0.1728 -0.3886  0.8333
 6927SOL    HW132417   2.206   1.084  16.085  1.6138  0.7739  1.0587
 6927SOL    HW232418   2.212   1.193  16.178  0.8704 -0.7525  1.9023
 6928SOL     OW32419   1.220   1.213   7.345 -0.2623  0.3257  0.0607
 6928SOL    HW132420   1.250   1.201   7.255 -0.4931 -2.5434  0.3798
 6928SOL    HW232421   1.272   1.285   7.380 -0.6053  1.3138 -1.4589
 6929SOL     OW32422   2.807   0.317   4.804 -0.3975 -0.3368 -0.1809
 6929SOL    HW132423   2.793   0.344   4.714 -1.5837 -2.8017 -0.7449
 6929SOL    HW232424   2.815   0.403   4.846  0.7492 -0.1696 -0.7710
 6930SOL     OW32425   0.525   2.478   7.736 -0.3140  0.0641 -0.2445
 6930SOL    HW132426   0.543   2.409   7.800  0.1704  0.5564  0.1538
 6930SOL    HW232427   0.552   2.552   7.791  0.4446 -0.8668  0.6505
 6931SOL     OW32428   4.320   3.716  14.789  0.2835 -0.7166  0.0304
 6931SOL    HW132429   4.403   3.732  14.834  0.0639  0.3237  0.0638
 6931SOL    HW232430   4.348   3.643  14.734 -0.8456 -1.4902  0.4879
 6932SOL     OW32431   1.383   4.368   3.325 -0.5388 -0.2898  0.0837
 6932SOL    HW132432   1.375   4.318   3.244 -0.2927  0.1824 -0.2342
 6932SOL    HW232433   1.450   4.317   3.369 -1.3141 -0.0556  1.5266
 6933SOL     OW32434   4.671   3.688   3.259  0.4540 -0.1358 -0.0983
 6933SOL    HW132435   4.597   3.632   3.238  1.2104 -0.8387 -0.8654
 6933SOL    HW232436   4.656   3.704   3.352  0.8767  0.9357 -0.2036
 6934SOL     OW32437   4.681   1.437   3.775  0.3096  0.5454 -0.0116
 6934SOL    HW132438   4.715   1.393   3.853  2.9972  1.3086 -0.7470
 6934SOL    HW232439   4.695   1.528   3.802 -0.4455  0.4522  0.7052
 6935SOL     OW32440   0.197   1.526   4.242  0.5502 -0.0686 -0.4384
 6935SOL    HW132441   0.277   1.556   4.286 -0.3600  1.5964  0.0808
 6935SOL    HW232442   0.151   1.608   4.224  0.1053 -0.1973  0.1317
 6936SOL     OW32443   1.262   1.792  12.244  0.2652 -0.1806  0.2413
 6936SOL    HW132444   1.277   1.698  12.228 -1.1413  0.2916 -4.0749
 6936SOL    HW232445   1.235   1.810  12.154  1.5144  0.4034 -0.0197
 6937SOL     OW32446   3.077   1.075  13.793 -0.1486 -0.2924  0.4827
 6937SOL    HW132447   3.157   1.028  13.768  0.3563  0.2102  1.1553
 6937SOL    HW232448   3.122   1.146  13.839  1.1803 -0.9505  0.2154
 6938SOL     OW32449   4.008   2.775   7.160  0.4288 -0.4217 -0.1942
 6938SOL    HW132450   3.971   2.786   7.247 -0.9686  0.3806 -0.8795
 6938SOL    HW232451   4.038   2.687   7.178 -0.5640 -0.7112  0.0552
 6939SOL     OW32452   0.850   2.326   6.168  0.3627 -0.1697 -0.5188
 6939SOL    HW132453   0.867   2.243   6.124  0.4783 -0.0853 -0.6310
 6939SOL    HW232454   0.940   2.357   6.178  0.1759  0.8990 -1.9999
 6940SOL     OW32455   4.690   3.128   7.362 -0.2947 -0.1666 -0.2388
 6940SOL    HW132456   4.595   3.122   7.348 -0.5773  1.0199  1.2464
 6940SOL    HW232457   4.694   3.208   7.414 -0.1702 -1.0134  1.0439
 6941SOL     OW32458   1.914   3.296   5.761  0.0991 -0.5552  0.2366
 6941SOL    HW132459   1.823   3.309   5.788  0.0944  3.3140 -1.7014
 6941SOL    HW232460   1.959   3.370   5.804 -0.6058 -1.0264  1.8001
 6942SOL     OW32461   1.774   4.733   5.693  0.1712  0.5822  0.2561
 6942SOL    HW132462   1.849   0.043   5.663  1.3341 -1.4922 -0.2799
 6942SOL    HW232463   1.743   0.062   5.751 -0.8698  1.4919 -1.3636
 6943SOL     OW32464   3.430   2.761   5.566  0.4216  0.4016 -0.0011
 6943SOL    HW132465   3.450   2.706   5.490 -1.3148 -1.9636  1.2663
 6943SOL    HW232466   3.437   2.705   5.644  4.1288  1.7256  0.6089
 6944SOL     OW32467   4.269   2.155   2.945 -0.9856  0.9845  0.0872
 6944SOL    HW132468   4.249   2.192   3.031  0.4223  0.5464  0.6085
 6944SOL    HW232469   4.217   2.079   2.921 -1.7209  1.5667 -0.1742
 6945SOL     OW32470   2.938   1.968  12.342 -0.8404  0.1833  0.2242
 6945SOL    HW132471   2.991   2.019  12.403 -0.3275 -0.0324 -0.0428
 6945SOL    HW232472   2.971   1.880  12.362 -0.7374  0.8578  2.9588
 6946SOL     OW32473   4.310   2.251   6.582 -0.7024 -0.2893  0.3711
 6946SOL    HW132474   4.259   2.211   6.511 -1.4968  1.8959 -0.2667
 6946SOL    HW232475   4.395   2.224   6.546 -0.7137  0.1039  0.0528
 6947SOL     OW32476   4.722   2.472   4.522 -0.6391 -0.3978  0.5574
 6947SOL    HW132477   0.018   2.451   4.608 -2.8473 -0.2024  1.5226
 6947SOL    HW232478   0.017   2.401   4.467  0.4467 -1.0913  2.1563
 6948SOL     OW32479   0.206   2.828   2.092 -0.1279  0.2175  0.8839
 6948SOL    HW132480   0.272   2.846   2.159 -0.0034 -0.2421  0.8822
 6948SOL    HW232481   0.251   2.770   2.030 -0.3738  2.3667 -1.3372
 6949SOL     OW32482   3.720   4.465  15.735  1.3057 -0.4758 -0.9774
 6949SOL    HW132483   3.701   4.373  15.714  0.1733 -0.5255  0.2659
 6949SOL    HW232484   3.693   4.459  15.827  2.8475 -0.0851 -0.5025
 6950SOL     OW32485   3.215   1.148  17.116  0.1324  0.2146 -0.2978
 6950SOL    HW132486   3.231   1.114  17.205  1.9489  1.1519 -0.2904
 6950SOL    HW232487   3.196   1.238  17.142  0.4700  0.5155 -1.1273
 6951SOL     OW32488   1.540   0.422   5.926  0.7908  0.1908  0.0412
 6951SOL    HW132489   1.612   0.401   5.986  1.0027  1.9853  0.4102
 6951SOL    HW232490   1.463   0.415   5.983  0.6896  2.1702  0.1297
 6952SOL     OW32491   2.241   0.103   6.993 -0.4257  0.1580  0.3478
 6952SOL    HW132492   2.165   0.069   6.946 -0.5215  0.7092  0.1032
 6952SOL    HW232493   2.306   0.033   6.993  0.0386  0.5890 -2.4564
 6953SOL     OW32494   2.806   0.669   1.013  0.2459 -0.1853  0.0725
 6953SOL    HW132495   2.719   0.670   0.972  0.0149 -0.2663  0.5572
 6953SOL    HW232496   2.843   0.597   0.962  0.5891 -1.3518  1.9564
 6954SOL     OW32497   0.708   4.411   6.615  0.4598  0.0455 -0.3355
 6954SOL    HW132498   0.711   4.505   6.595  0.1689  0.1388  0.0816
 6954SOL    HW232499   0.624   4.392   6.575  0.5863 -0.8977 -0.1489
 6955SOL     OW32500   4.246   4.430   9.100 -0.3669  0.2111 -0.2293
 6955SOL    HW132501   4.237   4.376   9.021 -0.1362  1.8189 -1.3563
 6955SOL    HW232502   4.167   4.402   9.145  0.6698 -1.5363  0.5256
 6956SOL     OW32503   0.294   3.277  12.894  0.1249 -0.7154 -0.5176
 6956SOL    HW132504   0.367   3.265  12.834 -1.1516 -1.2043 -1.9514
 6956SOL    HW232505   0.232   3.324  12.838  0.7205  2.1604  1.2244
 6957SOL     OW32506   3.622   2.461   8.532 -0.1055 -0.6373  0.0312
 6957SOL    HW132507   3.535   2.496   8.511 -0.1152  0.2759  1.6254
 6957SOL    HW232508   3.621   2.379   8.482 -0.3451  0.5991 -2.0175
 6958SOL     OW32509   3.493   0.531  16.305  0.1107 -0.1887 -0.4523
 6958SOL    HW132510   3.551   0.581  16.362 -2.2859  1.5679  0.4520
 6958SOL    HW232511   3.448   0.602  16.259  0.6646 -0.7452 -1.8488
 6959SOL     OW32512   4.058   3.528   8.702 -0.3327 -0.2120  0.0450
 6959SOL    HW132513   4.139   3.575   8.682 -1.1592  1.6000  0.9519
 6959SOL    HW232514   4.006   3.605   8.727  2.3849  1.7798 -0.3629
 6960SOL     OW32515   3.502   2.648   3.597 -0.0966  0.0553  0.4584
 6960SOL    HW132516   3.469   2.736   3.613  0.8304  0.4709  0.0747
 6960SOL    HW232517   3.445   2.593   3.650 -0.6913  1.7606  1.5668
 6961SOL     OW32518   4.188   0.889   4.707  0.4986 -0.0557  0.2100
 6961SOL    HW132519   4.218   0.884   4.616  1.1662 -1.8376  0.5255
 6961SOL    HW232520   4.206   0.800   4.737  1.0713 -1.1366 -3.2877
 6962SOL     OW32521   0.904   1.739  11.086  0.2687 -0.2888  0.0385
 6962SOL    HW132522   0.832   1.677  11.095  0.6117 -0.8663 -1.1690
 6962SOL    HW232523   0.861   1.821  11.109 -0.3430 -1.1433  1.9051
 6963SOL     OW32524   1.590   3.740   5.449 -0.1882 -0.4526  0.0942
 6963SOL    HW132525   1.624   3.829   5.436 -0.7416 -0.4048 -1.0293
 6963SOL    HW232526   1.548   3.756   5.534 -0.4077 -0.1291 -0.0730
 6964SOL     OW32527   2.774   3.649   2.343 -0.4268 -0.5334  0.4656
 6964SOL    HW132528   2.846   3.590   2.364  0.2221 -0.1509 -0.7212
 6964SOL    HW232529   2.809   3.684   2.261 -1.1609  0.2365  0.4718
 6965SOL     OW32530   2.193   0.487  16.501 -0.2357 -0.0612 -0.1542
 6965SOL    HW132531   2.210   0.580  16.519  0.6279 -1.0968  4.4567
 6965SOL    HW232532   2.111   0.493  16.451 -0.2513 -0.3059 -0.1549
 6966SOL     OW32533   0.297   3.208   9.412 -0.2509  0.0473  0.2729
 6966SOL    HW132534   0.231   3.146   9.441  0.5756 -0.8088  0.3221
 6966SOL    HW232535   0.244   3.260   9.351 -0.2666 -1.7939 -1.2658
 6967SOL     OW32536   2.817   4.544   3.140 -0.0618 -0.2497  0.2196
 6967SOL    HW132537   2.795   4.631   3.174  2.0473  0.2556  0.3350
 6967SOL    HW232538   2.736   4.493   3.132 -1.0644  1.5253 -0.7876
 6968SOL     OW32539   3.597   2.670   6.047  0.3657  0.1975  0.1932
 6968SOL    HW132540   3.511   2.664   6.088  0.1232 -0.6406 -0.4498
 6968SOL    HW232541   3.640   2.732   6.106 -1.4155 -0.3481  2.0672
 6969SOL     OW32542   3.284   2.565  17.107 -0.0318  0.0160 -0.6343
 6969SOL    HW132543   3.337   2.489  17.082  0.0068 -0.2852  0.3475
 6969SOL    HW232544   3.236   2.566  17.024  1.0017 -2.1825 -1.2699
 6970SOL     OW32545   1.554   3.922   2.888  0.0704 -0.4080  0.5074
 6970SOL    HW132546   1.488   3.983   2.854 -1.2162 -2.2769 -0.3901
 6970SOL    HW232547   1.638   3.963   2.869 -0.3798  0.3393  0.1336
 6971SOL     OW32548   1.546   4.092   5.274  0.5674  0.2498 -0.4228
 6971SOL    HW132549   1.578   4.033   5.205 -0.6213 -0.9250  0.0259
 6971SOL    HW232550   1.616   4.155   5.288 -0.3631  1.0914  0.4155
 6972SOL     OW32551   0.143   0.720   9.859  0.4647  0.0369 -0.1022
 6972SOL    HW132552   0.132   0.633   9.821 -0.8146 -0.1487  0.6917
 6972SOL    HW232553   0.071   0.714   9.922  1.2808 -1.7002  0.6680
 6973SOL     OW32554   1.742   2.608   7.355  0.6165 -0.1310 -0.6643
 6973SOL    HW132555   1.803   2.675   7.324  1.8368 -0.1410  1.7220
 6973SOL    HW232556   1.719   2.575   7.268  0.6343 -1.1856 -0.2670
 6974SOL     OW32557   2.990   3.278   7.131 -0.2165 -0.1608 -0.7910
 6974SOL    HW132558   3.027   3.290   7.218 -0.4452 -0.4037 -0.6608
 6974SOL    HW232559   2.942   3.361   7.130  0.0502  0.0234  1.5813
 6975SOL     OW32560   2.434   1.154  16.440 -0.2626  0.1298 -0.0918
 6975SOL    HW132561   2.488   1.077  16.419  0.8778  1.5504 -2.2906
 6975SOL    HW232562   2.348   1.115  16.456  0.1288 -1.0152 -0.7315
 6976SOL     OW32563   2.005   2.163   2.971 -0.3350 -0.0627  0.3757
 6976SOL    HW132564   1.929   2.125   3.014  0.4551 -0.7478  1.1534
 6976SOL    HW232565   2.019   2.087   2.913 -1.8697 -0.3247  0.3504
 6977SOL     OW32566   1.802   4.624   5.170  0.2536  0.1520  0.1567
 6977SOL    HW132567   1.878   4.578   5.205 -0.2957 -0.9254 -0.0714
 6977SOL    HW232568   1.765   4.549   5.124  1.4359  0.7072 -1.6781
 6978SOL     OW32569   1.469   2.531   5.647  0.7114  0.3736  0.3328
 6978SOL    HW132570   1.401   2.477   5.688  0.3846 -0.9994 -2.0419
 6978SOL    HW232571   1.522   2.532   5.727  1.8233 -1.9549 -0.3905
 6979SOL     OW32572   4.342   2.274  14.368 -0.2720  0.4985  0.0880
 6979SOL    HW132573   4.396   2.226  14.304  1.6803  0.2408  1.9428
 6979SOL    HW232574   4.315   2.198  14.420  0.0832  0.4041  0.1385
 6980SOL     OW32575   1.585   4.270   2.985  0.2272 -0.0515  0.1400
 6980SOL    HW132576   1.599   4.331   2.913  1.7923  0.8879  1.2386
 6980SOL    HW232577   1.598   4.329   3.059 -1.4432 -0.2957  0.6407
 6981SOL     OW32578   2.120   1.690   8.298 -0.3792 -0.4692  0.5728
 6981SOL    HW132579   2.184   1.623   8.321 -0.3032  0.1711  2.2003
 6981SOL    HW232580   2.133   1.687   8.203  0.5464  0.6829  0.6709
 6982SOL     OW32581   0.725   4.686   7.847 -0.0871 -0.7940 -0.3418
 6982SOL    HW132582   0.805   4.719   7.805 -1.3044  1.4385 -0.8590
 6982SOL    HW232583   0.722   4.699   7.942  2.7912 -2.2387 -0.0318
 6983SOL     OW32584   0.278   0.063   5.693  0.1849  0.5518  0.9360
 6983SOL    HW132585   0.214   0.046   5.762 -2.1759  1.7993 -0.9403
 6983SOL    HW232586   0.253   4.733   5.632  3.3489 -0.9822  1.3850
 6984SOL     OW32587   2.789   2.584   6.856  0.1616 -0.5353  0.6387
 6984SOL    HW132588   2.855   2.528   6.815  0.8333  0.0957  0.8523
 6984SOL    HW232589   2.806   2.549   6.943 -0.6770 -1.3107  0.4869
 6985SOL     OW32590   2.392   3.209  11.731  0.2822  0.1326 -0.1145
 6985SOL    HW132591   2.370   3.252  11.648 -2.4396 -0.5050  0.2681
 6985SOL    HW232592   2.467   3.155  11.706 -0.5065 -0.5545 -1.0535
 6986SOL     OW32593   3.839   4.021   6.097 -0.1819 -0.3070 -0.7103
 6986SOL    HW132594   3.790   3.969   6.033 -2.0977  1.0236 -0.3164
 6986SOL    HW232595   3.889   4.079   6.038 -2.2974  2.7511  0.5418
 6987SOL     OW32596   2.932   2.858  10.690 -0.5330  0.8340  0.1181
 6987SOL    HW132597   2.965   2.837  10.777  3.1037 -0.3050 -1.5484
 6987SOL    HW232598   2.993   2.928  10.666 -0.3662  0.6675  0.0573
 6988SOL     OW32599   4.739   1.023  14.493  0.4160  0.5021 -0.1719
 6988SOL    HW132600   4.729   1.005  14.587 -1.3258  1.1770 -0.2383
 6988SOL    HW232601   4.654   1.064  14.477 -0.2160 -0.6740  0.2133
 6989SOL     OW32602   3.743   4.127  10.762 -0.5950 -0.1668 -0.0079
 6989SOL    HW132603   3.755   4.085  10.676  0.8966  0.9332 -0.3345
 6989SOL    HW232604   3.832   4.157  10.779 -0.3679 -0.2997 -0.9376
 6990SOL     OW32605   4.323   1.196   2.949  0.1345 -0.3189  0.4041
 6990SOL    HW132606   4.395   1.194   3.012  0.2305 -3.3016  0.2042
 6990SOL    HW232607   4.351   1.260   2.883  1.2390  1.3848  2.5284
 6991SOL     OW32608   3.768   0.652   9.930 -0.2918 -0.0031  0.3817
 6991SOL    HW132609   3.848   0.693   9.964  1.6784 -0.8806 -3.2721
 6991SOL    HW232610   3.743   0.601  10.007 -2.2253  0.8008  0.2751
 6992SOL     OW32611   2.735   0.450   2.640 -0.2506 -0.0420 -0.3585
 6992SOL    HW132612   2.651   0.493   2.626 -0.3965 -0.0054  0.6412
 6992SOL    HW232613   2.749   0.443   2.546  1.2030  0.2150 -0.1599
 6993SOL     OW32614   4.178   1.895   2.165 -1.0405  0.4890 -0.1931
 6993SOL    HW132615   4.138   1.808   2.155 -1.7980  0.7849  0.2670
 6993SOL    HW232616   4.256   1.859   2.208 -1.5019 -0.4282 -0.1256
 6994SOL     OW32617   0.090   0.260   0.675 -0.4857  0.1447  0.3410
 6994SOL    HW132618   0.121   0.220   0.756 -1.4560  1.9771  1.6151
 6994SOL    HW232619   0.065   0.177   0.636  0.1689 -0.2695  0.8034
 6995SOL     OW32620   4.147   4.502   9.602 -0.0980  0.0600 -0.5147
 6995SOL    HW132621   4.188   4.425   9.562 -0.7574 -0.4889 -0.1372
 6995SOL    HW232622   4.205   4.574   9.580 -0.0196 -0.2843 -1.4675
 6996SOL     OW32623   0.442   0.020   1.544  0.7656  0.3705  0.4973
 6996SOL    HW132624   0.400   0.076   1.478  0.2246  0.0743  0.5909
 6996SOL    HW232625   0.408   0.064   1.622 -0.1331 -0.0923  0.3587
 6997SOL     OW32626   2.288   0.360   6.466 -0.0844 -0.0520 -0.4905
 6997SOL    HW132627   2.285   0.265   6.471  1.1758 -0.0227  0.6992
 6997SOL    HW232628   2.380   0.380   6.446 -0.0704 -1.6360 -2.0133
 6998SOL     OW32629   4.050   3.959   4.138 -0.0028 -0.2354 -0.2907
 6998SOL    HW132630   4.054   4.048   4.173  1.4407 -0.4901  0.1881
 6998SOL    HW232631   3.957   3.937   4.147  0.0127 -0.2996 -0.2833
 6999SOL     OW32632   2.959   4.638   0.708 -0.1561 -0.5509 -0.7114
 6999SOL    HW132633   2.892   4.572   0.686 -2.2983  1.4665 -0.2310
 6999SOL    HW232634   2.965   4.650   0.803  0.6785  1.6337 -1.0586
 7000SOL     OW32635   2.972   0.192  14.182 -0.4286  0.0088 -0.3152
 7000SOL    HW132636   2.980   0.286  14.199 -2.5073 -0.3531  2.5997
 7000SOL    HW232637   2.880   0.169  14.198  0.8046 -2.9239  2.5119
 7001SOL     OW32638   1.905   1.908   5.103 -0.4164  0.2051 -0.6116
 7001SOL    HW132639   1.848   1.831   5.099 -0.9516  0.7096 -2.6950
 7001SOL    HW232640   1.879   1.947   5.186 -0.8428 -1.2790 -0.0339
 7002SOL     OW32641   3.021   0.684   2.959  0.1611 -0.0135 -0.6748
 7002SOL    HW132642   2.958   0.640   3.017 -0.1230  2.6532  1.0249
 7002SOL    HW232643   3.004   0.665   2.867  0.9642 -0.6011 -0.7049
 7003SOL     OW32644   1.651   2.824   9.897 -0.3994  0.2258 -0.2342
 7003SOL    HW132645   1.590   2.874   9.842 -0.3993 -0.3655 -0.7767
 7003SOL    HW232646   1.707   2.896   9.925 -0.7066  0.5579 -0.4841
 7004SOL     OW32647   0.877   2.752   4.769  0.2467 -0.0582 -0.1646
 7004SOL    HW132648   0.904   2.714   4.853  0.2229  0.1046 -0.0830
 7004SOL    HW232649   0.830   2.676   4.734  0.3949 -0.6826  0.9878
 7005SOL     OW32650   3.158   1.354  15.828 -0.4087 -0.0272 -0.0951
 7005SOL    HW132651   3.154   1.342  15.923 -0.7157 -0.0762 -0.1111
 7005SOL    HW232652   3.205   1.273  15.809  0.8999  1.1595 -1.8785
 7006SOL     OW32653   2.509   2.129   7.354  0.4779 -0.0179 -0.9538
 7006SOL    HW132654   2.544   2.056   7.405 -0.0591  0.0472 -0.4871
 7006SOL    HW232655   2.450   2.164   7.422  0.0327  0.2163 -1.4641
 7007SOL     OW32656   1.571   1.907   2.122 -0.1854 -0.0425  0.4144
 7007SOL    HW132657   1.663   1.916   2.100 -0.2862  1.2772  0.5647
 7007SOL    HW232658   1.548   1.989   2.166 -0.9578 -0.0558  0.0489
 7008SOL     OW32659   1.668   4.735  15.068 -0.0005 -0.4147 -0.3118
 7008SOL    HW132660   1.677   4.701  15.158  1.2572 -0.4920 -0.4541
 7008SOL    HW232661   1.583   4.706  15.037 -0.2481 -0.4273  0.3821
 7009SOL     OW32662   3.996   0.956   9.612  0.1413 -0.2861  0.9545
 7009SOL    HW132663   4.057   1.028   9.625 -0.9809  0.9081 -0.3167
 7009SOL    HW232664   3.948   0.965   9.694  0.3874  0.1710  1.0472
 7010SOL     OW32665   4.650   3.800   4.072 -0.2782  0.8558 -0.0711
 7010SOL    HW132666   4.727   3.782   4.126 -0.0525  0.3529 -0.5669
 7010SOL    HW232667   4.666   3.744   3.997  1.4111 -0.2500  1.1263
 7011SOL     OW32668   1.911   1.030  16.212  0.1775  0.0787  0.3009
 7011SOL    HW132669   1.885   1.114  16.249  1.0306  1.1821 -1.6133
 7011SOL    HW232670   2.004   1.045  16.195 -0.0773  0.9591 -0.3159
 7012SOL     OW32671   0.184   1.643  13.653 -0.0513 -0.1232 -0.1632
 7012SOL    HW132672   0.255   1.585  13.681 -2.5083 -2.3022  1.5413
 7012SOL    HW232673   0.106   1.589  13.664  0.2703 -0.8796 -1.6459
 7013SOL     OW32674   3.243   1.104   6.497  0.2263 -0.8629  0.4426
 7013SOL    HW132675   3.286   1.019   6.504 -2.3373 -2.1535  0.8314
 7013SOL    HW232676   3.302   1.161   6.545 -1.7654 -0.0623  1.9454
 7014SOL     OW32677   1.948   1.606  13.156  0.5224  0.1005 -0.8342
 7014SOL    HW132678   1.955   1.640  13.245 -2.0783 -1.5167 -0.0137
 7014SOL    HW232679   1.870   1.551  13.162  3.2086 -3.5147  1.2463
 7015SOL     OW32680   3.203   0.242   4.264  0.1057 -0.4274  0.3482
 7015SOL    HW132681   3.229   0.239   4.356 -0.2617 -0.3134  0.4588
 7015SOL    HW232682   3.130   0.180   4.266  0.3416 -0.7495 -0.8670
 7016SOL     OW32683   1.788   4.688  14.813 -0.5556 -0.0302  0.3722
 7016SOL    HW132684   1.777   4.728  14.899 -3.0922 -2.3637  1.1618
 7016SOL    HW232685   1.709   4.632  14.816 -0.1153 -0.7187 -0.6612
 7017SOL     OW32686   0.566   0.849  10.609 -0.2094 -0.1186  0.3901
 7017SOL    HW132687   0.541   0.876  10.698  1.3948 -1.4422  1.2477
 7017SOL    HW232688   0.550   0.755  10.614  1.2292 -0.3690  0.2590
 7018SOL     OW32689   1.061   3.486   6.945 -0.2605 -0.8860  0.0636
 7018SOL    HW132690   1.129   3.537   6.900 -1.8223 -0.8045 -2.1966
 7018SOL    HW232691   1.111   3.438   7.010  3.9889  0.7771 -1.9588
 7019SOL     OW32692   0.828   2.070  14.439  0.1717 -0.2264  0.1345
 7019SOL    HW132693   0.884   2.103  14.510 -0.0058 -1.0966  0.6717
 7019SOL    HW232694   0.883   2.088  14.363 -0.9446  1.8799 -0.1849
 7020SOL     OW32695   4.143   3.545   6.441  0.3668  0.2450 -0.0682
 7020SOL    HW132696   4.077   3.482   6.468  0.8134 -0.8325 -1.5201
 7020SOL    HW232697   4.211   3.515   6.501  1.2244 -1.8107 -2.0733
 7021SOL     OW32698   1.958   2.867   8.249 -0.1550 -0.0137 -0.1027
 7021SOL    HW132699   2.018   2.877   8.323  0.0228 -0.5010 -0.1810
 7021SOL    HW232700   2.015   2.849   8.174 -0.3889  1.6835 -0.6685
 7022SOL     OW32701   3.793   1.228   3.778 -0.2622  0.3601 -0.3102
 7022SOL    HW132702   3.857   1.171   3.819  0.6033  0.4101 -1.6023
 7022SOL    HW232703   3.833   1.310   3.807  1.1910 -0.6345  0.5042
 7023SOL     OW32704   4.489   3.875   4.853  0.1986  0.4958  0.3260
 7023SOL    HW132705   4.571   3.924   4.856  0.3775  0.1465  1.1983
 7023SOL    HW232706   4.502   3.822   4.931 -2.6118  0.4256  0.7397
 7024SOL     OW32707   4.398   1.919   5.705  0.1094 -0.7913 -0.5016
 7024SOL    HW132708   4.407   1.849   5.640 -1.3095 -2.9120  1.5924
 7024SOL    HW232709   4.339   1.981   5.664 -1.5239 -2.2822 -0.4212
 7025SOL     OW32710   4.150   0.582   3.520  0.0146  0.0224 -0.3707
 7025SOL    HW132711   4.152   0.498   3.565  0.2721 -0.5223 -1.4108
 7025SOL    HW232712   4.242   0.593   3.496 -0.2761 -0.6432 -1.7971
 7026SOL     OW32713   1.110   3.294   9.268  0.6920  0.1129  0.0351
 7026SOL    HW132714   1.063   3.251   9.197  0.8986  1.7853 -1.1096
 7026SOL    HW232715   1.065   3.378   9.265  1.1431  0.3614  0.2981
 7027SOL     OW32716   4.356   0.052   5.294  0.0642 -0.3561 -0.2219
 7027SOL    HW132717   4.319   0.134   5.328  1.3135  0.2852 -0.4296
 7027SOL    HW232718   4.357   0.071   5.200  0.3405  0.9734  0.0420
 7028SOL     OW32719   0.403   0.511   9.556 -0.3666 -0.1634  0.0675
 7028SOL    HW132720   0.403   0.500   9.651  2.6189 -0.5996  0.0255
 7028SOL    HW232721   0.445   0.426   9.540  2.9477  0.9727  2.8263
 7029SOL     OW32722   2.806   3.582   2.940  1.0821  0.2159 -0.3234
 7029SOL    HW132723   2.755   3.600   2.861  0.4777  0.0280  0.0238
 7029SOL    HW232724   2.765   3.503   2.975 -1.4228  1.0325 -1.4488
 7030SOL     OW32725   0.165   1.293   6.015  0.1328  0.0279 -0.0940
 7030SOL    HW132726   0.101   1.363   6.031  1.0073  0.4548  1.4882
 7030SOL    HW232727   0.120   1.239   5.950  0.9563 -0.3690 -0.3386
 7031SOL     OW32728   1.577   3.777   3.476  0.0500  1.0123 -1.0558
 7031SOL    HW132729   1.540   3.817   3.555 -0.5723  1.0217 -1.3480
 7031SOL    HW232730   1.492   3.744   3.445  0.2613  0.1402 -0.7323
 7032SOL     OW32731   0.673   2.307   5.874  0.5789  0.1399 -0.0870
 7032SOL    HW132732   0.656   2.249   5.949 -1.7717 -0.3475 -1.0250
 7032SOL    HW232733   0.743   2.257   5.832  0.6969 -2.9293  3.7341
 7033SOL     OW32734   1.906   3.641   3.071  0.1739  0.6250  0.1917
 7033SOL    HW132735   1.852   3.565   3.093  0.4141  0.2546 -0.4877
 7033SOL    HW232736   1.877   3.701   3.139  1.6947  1.1368  0.3762
 7034SOL     OW32737   4.220   1.205   4.727 -0.0850  0.3461 -0.4335
 7034SOL    HW132738   4.140   1.244   4.691 -1.7481 -1.9690  0.8247
 7034SOL    HW232739   4.187   1.132   4.779 -0.6987 -0.2702 -1.6975
 7035SOL     OW32740   3.355   0.609  16.893 -0.7757 -0.0207  0.3442
 7035SOL    HW132741   3.365   0.695  16.854  0.1546  0.4589  1.6312
 7035SOL    HW232742   3.388   0.557  16.820 -0.9295 -0.4222  0.5585
 7036SOL     OW32743   0.296   0.378   0.996  0.1962  0.3261  0.3148
 7036SOL    HW132744   0.339   0.445   0.943  1.1134  0.7134  1.5336
 7036SOL    HW232745   0.214   0.423   1.014  1.2401  2.2639  0.2015
 7037SOL     OW32746   4.242   2.256   6.324 -0.2361 -0.7093 -0.3215
 7037SOL    HW132747   4.225   2.348   6.306  0.3020 -0.2443  1.5065
 7037SOL    HW232748   4.217   2.225   6.237  0.5357 -1.1438 -0.3892
 7038SOL     OW32749   0.366   1.890   9.002  0.5242 -0.4412  0.0986
 7038SOL    HW132750   0.271   1.884   9.010  0.4725  2.6795  1.9883
 7038SOL    HW232751   0.377   1.984   8.986  2.2930 -0.6893 -0.1911
 7039SOL     OW32752   3.839   0.305  14.235 -0.3579  0.1351 -0.6363
 7039SOL    HW132753   3.745   0.300  14.214 -0.4657 -1.2255  0.1998
 7039SOL    HW232754   3.869   0.336  14.149  1.7158  1.6306  0.6334
 7040SOL     OW32755   2.042   4.295   2.609 -0.0208 -0.6243  0.0147
 7040SOL    HW132756   2.029   4.330   2.521  3.1310 -3.4643 -1.5739
 7040SOL    HW232757   2.127   4.332   2.633  0.7352 -1.1226 -1.9170
 7041SOL     OW32758   1.326   2.754   3.988  0.3591 -0.1799 -0.3700
 7041SOL    HW132759   1.397   2.731   3.928  0.6371  1.6010 -0.7273
 7041SOL    HW232760   1.363   2.744   4.076 -2.0793 -0.5013  0.6238
 7042SOL     OW32761   3.928   2.373   2.245  0.1533  0.0630 -0.2386
 7042SOL    HW132762   3.957   2.438   2.309  0.9019 -0.2146 -0.2948
 7042SOL    HW232763   3.977   2.395   2.165 -0.6379  0.4283 -0.6182
 7043SOL     OW32764   0.594   1.664   8.152  0.0122  0.3249 -0.3369
 7043SOL    HW132765   0.534   1.727   8.112  0.9759  0.8771 -0.9197
 7043SOL    HW232766   0.671   1.660   8.094 -0.7572 -0.9334 -1.2690
 7044SOL     OW32767   1.042   0.015   7.338 -0.3357  0.1564  0.9572
 7044SOL    HW132768   1.125   0.002   7.293 -1.8842 -1.9051 -1.2895
 7044SOL    HW232769   1.044   4.673   7.388  1.7540 -1.0337 -1.0844
 7045SOL     OW32770   3.649   1.150  17.490  0.2108  0.1838  0.0111
 7045SOL    HW132771   3.629   1.229  17.539 -1.1383  0.7864 -1.5377
 7045SOL    HW232772   3.648   1.181  17.400 -0.0955  1.2916  0.4024
 7046SOL     OW32773   0.805   1.043  10.947 -0.2754 -0.3367  0.8159
 7046SOL    HW132774   0.833   1.093  11.023 -2.8124  0.0749  1.4915
 7046SOL    HW232775   0.711   1.029  10.960 -0.1697 -2.0064 -0.2284
 7047SOL     OW32776   4.665   3.751   1.049 -0.5320  0.1316  0.4986
 7047SOL    HW132777   4.616   3.826   1.016  4.3971  1.7399 -3.1447
 7047SOL    HW232778   0.002   3.735   0.995 -1.2843  0.9073 -0.8026
 7048SOL     OW32779   0.492   0.346   7.378 -0.6698 -0.5182  0.7375
 7048SOL    HW132780   0.521   0.272   7.325 -0.2283  1.2095 -1.3908
 7048SOL    HW232781   0.402   0.352   7.347 -0.2675 -0.6817 -0.4548
 7049SOL     OW32782   2.755   2.503  12.092 -0.1168 -0.2672 -0.2351
 7049SOL    HW132783   2.748   2.585  12.043  1.7916 -0.0636 -0.1641
 7049SOL    HW232784   2.667   2.467  12.089  0.6939 -2.3159  0.4274
 7050SOL     OW32785   3.002   1.008   6.442  0.1818  0.3209 -0.2942
 7050SOL    HW132786   2.958   1.089   6.418  0.0892  0.9717  2.0788
 7050SOL    HW232787   3.086   1.045   6.471  0.1480  2.5930 -3.1354
 7051SOL     OW32788   0.549   4.236   5.344  0.4115  0.4686 -0.1263
 7051SOL    HW132789   0.589   4.173   5.404  1.6468  0.0443 -1.3983
 7051SOL    HW232790   0.569   4.197   5.259  1.0405  2.1075 -0.7295
 7052SOL     OW32791   2.833   4.262  16.425  0.4064 -0.3698  0.2848
 7052SOL    HW132792   2.776   4.318  16.478  0.7814  0.4026 -0.1197
 7052SOL    HW232793   2.864   4.336  16.372  0.8911 -0.9616 -0.2523
 7053SOL     OW32794   0.795   4.047  12.077  0.5082 -0.3943 -0.0557
 7053SOL    HW132795   0.890   4.038  12.090  0.3345  0.4906  1.8711
 7053SOL    HW232796   0.786   4.033  11.983  3.1117  2.0681 -0.6575
 7054SOL     OW32797   2.158   0.516  12.562 -0.7396 -0.1676  0.6896
 7054SOL    HW132798   2.206   0.535  12.642 -1.1966 -0.5781  1.0647
 7054SOL    HW232799   2.230   0.472  12.517 -3.3275 -1.9694 -1.7618
 7055SOL     OW32800   1.764   0.885  12.524 -0.4162 -0.1723  0.7638
 7055SOL    HW132801   1.758   0.925  12.611 -1.6877 -0.4546  0.8051
 7055SOL    HW232802   1.801   0.804  12.561  1.0331  1.7199  3.4526
 7056SOL     OW32803   0.325   3.365  11.724  0.5229  0.2237 -0.2618
 7056SOL    HW132804   0.331   3.335  11.633 -0.7551 -0.4008 -0.1507
 7056SOL    HW232805   0.334   3.281  11.769  0.6288  2.1255  3.2445
 7057SOL     OW32806   3.548   3.601   7.776  0.3284 -0.0413  0.1816
 7057SOL    HW132807   3.509   3.686   7.757 -3.0588 -1.8254 -0.8870
 7057SOL    HW232808   3.479   3.551   7.820  0.8784  0.2737  1.3884
 7058SOL     OW32809   1.878   2.135   1.765 -0.3010  0.2412  0.2051
 7058SOL    HW132810   1.813   2.072   1.734  0.8138 -0.4427 -0.7660
 7058SOL    HW232811   1.848   2.219   1.728 -0.2799  0.4017  0.5504
 7059SOL     OW32812   2.347   0.480   7.941 -0.0573 -0.2922 -0.6689
 7059SOL    HW132813   2.256   0.457   7.925 -0.2255  0.9208 -1.4125
 7059SOL    HW232814   2.380   0.403   7.893  1.6150 -0.5631  0.9121
 7060SOL     OW32815   3.004   2.690   7.857  0.3237 -0.0093 -0.1325
 7060SOL    HW132816   2.948   2.612   7.857  0.6667 -0.2656 -2.2206
 7060SOL    HW232817   3.073   2.662   7.796  0.4651 -0.6028  0.3002
 7061SOL     OW32818   0.633   3.358   4.678  0.0233 -0.5063  0.6178
 7061SOL    HW132819   0.569   3.341   4.748 -0.7479  1.8871  0.4980
 7061SOL    HW232820   0.577   3.369   4.601 -0.8419 -4.5841  0.6764
 7062SOL     OW32821   0.830   0.869   3.070  0.2384 -0.0265  0.3277
 7062SOL    HW132822   0.789   0.854   2.985 -0.4234  0.9644  0.4777
 7062SOL    HW232823   0.817   0.781   3.104  1.7103 -0.5887 -0.5642
 7063SOL     OW32824   1.966   0.762  14.944  0.1373  0.2098 -0.2941
 7063SOL    HW132825   2.005   0.688  14.989  2.5328  0.4789 -1.9137
 7063SOL    HW232826   2.009   0.759  14.858  0.5934 -0.0011 -0.0575
 7064SOL     OW32827   1.844   4.491  11.985 -0.2287  0.2986 -0.1818
 7064SOL    HW132828   1.816   4.473  12.075 -1.6686  0.0732 -0.6801
 7064SOL    HW232829   1.872   4.582  11.998  1.9412 -0.6781  2.1279
 7065SOL     OW32830   2.884   3.506   2.642  0.4833 -0.3430 -0.0453
 7065SOL    HW132831   2.916   3.503   2.552  0.2608 -1.7323 -0.0875
 7065SOL    HW232832   2.798   3.465   2.633 -1.5008  2.6789  5.2345
 7066SOL     OW32833   1.635   1.946   5.409  0.0189 -0.2791 -0.1019
 7066SOL    HW132834   1.700   2.008   5.377 -0.7514  0.7046  0.2434
 7066SOL    HW232835   1.567   2.013   5.414 -1.7176 -2.0833  0.6048
 7067SOL     OW32836   2.550   3.270   0.764 -0.2416 -0.0021  0.0132
 7067SOL    HW132837   2.498   3.200   0.724  2.3971 -1.4653 -0.8629
 7067SOL    HW232838   2.501   3.297   0.842  3.5639 -2.0875  3.1081
 7068SOL     OW32839   0.808   2.494   5.575  0.6679  0.1345 -0.1198
 7068SOL    HW132840   0.787   2.438   5.501 -0.8128  0.1641  0.2906
 7068SOL    HW232841   0.723   2.522   5.608  0.7298 -0.4347  0.5153
 7069SOL     OW32842   2.896   3.112  12.833  0.4312  0.7695  0.1757
 7069SOL    HW132843   2.806   3.136  12.857  0.3779  2.1914 -1.3830
 7069SOL    HW232844   2.945   3.107  12.915 -1.0426 -2.4003  0.8588
 7070SOL     OW32845   3.899   0.789  10.982 -0.5977 -0.0943  0.0645
 7070SOL    HW132846   3.928   0.712  10.932 -0.0664 -0.6592  1.2494
 7070SOL    HW232847   3.836   0.749  11.041  2.0475 -2.1846  1.4392
 7071SOL     OW32848   0.121   4.356   7.156  0.2872 -0.0144 -0.3500
 7071SOL    HW132849   0.092   4.433   7.107  1.0419  1.0525  0.8982
 7071SOL    HW232850   0.060   4.367   7.228 -1.9118 -2.0275 -1.8929
 7072SOL     OW32851   0.670   0.973  14.750  0.5901 -0.2266 -0.1149
 7072SOL    HW132852   0.714   0.896  14.715  0.0093  0.3246 -2.0484
 7072SOL    HW232853   0.733   1.015  14.808  0.7638 -0.7568  0.0810
 7073SOL     OW32854   2.167   1.002   5.386 -0.2899 -0.2479  0.3355
 7073SOL    HW132855   2.100   0.981   5.450 -0.0359  2.6865  1.5808
 7073SOL    HW232856   2.117   0.960   5.316 -1.9709 -1.1308  2.0541
 7074SOL     OW32857   2.777   4.293   3.947 -0.0913  0.3418  0.4817
 7074SOL    HW132858   2.866   4.319   3.968  0.6649 -1.1744 -0.8147
 7074SOL    HW232859   2.729   4.309   4.028 -0.7921 -0.6017  0.2603
 7075SOL     OW32860   3.135   4.628   6.001 -0.3821  0.3063  0.0498
 7075SOL    HW132861   3.210   4.685   6.022 -0.5119  0.5741 -0.2100
 7075SOL    HW232862   3.083   4.647   6.079  1.4088  3.1495  0.5912
 7076SOL     OW32863   1.558   1.883   7.529  0.1493  0.1447 -0.5045
 7076SOL    HW132864   1.530   1.965   7.489  2.4612  0.4638 -1.4554
 7076SOL    HW232865   1.475   1.846   7.558  2.0717 -2.1492  2.1317
 7077SOL     OW32866   1.388   2.604   9.994 -0.0606 -0.2303  0.7005
 7077SOL    HW132867   1.407   2.670  10.061  1.4337 -0.9609  0.9989
 7077SOL    HW232868   1.444   2.531  10.022  0.2887  0.8726  2.9074
 7078SOL     OW32869   4.576   1.025  15.826  0.4318  0.5226  0.0918
 7078SOL    HW132870   4.591   0.983  15.910  0.3198  0.9191  0.3110
 7078SOL    HW232871   4.666   1.033  15.794 -0.6314 -0.2682 -3.1611
 7079SOL     OW32872   4.397   3.151   3.824 -0.4645  0.3532  0.0995
 7079SOL    HW132873   4.470   3.206   3.797  1.2748 -2.2218 -0.4534
 7079SOL    HW232874   4.408   3.152   3.919  0.9379  1.6169 -0.0848
 7080SOL     OW32875   1.939   3.320   2.283 -0.2367  0.4866  0.2411
 7080SOL    HW132876   2.032   3.321   2.303  0.0603 -0.7254 -1.0741
 7080SOL    HW232877   1.919   3.410   2.256  1.3209  0.1474 -2.0090
 7081SOL     OW32878   2.114   4.111  10.869  0.1852  0.5689 -0.0914
 7081SOL    HW132879   2.137   4.172  10.799 -0.2999 -1.3354 -1.9397
 7081SOL    HW232880   2.154   4.148  10.947  0.1897  2.3562 -0.9345
 7082SOL     OW32881   1.509   4.586   4.815  0.9609  0.3993 -0.6482
 7082SOL    HW132882   1.541   4.591   4.725 -0.7157 -1.7347 -1.3715
 7082SOL    HW232883   1.580   4.631   4.860  2.0643 -1.8982 -0.0893
 7083SOL     OW32884   1.273   4.379   2.466 -0.2569  0.0501  0.2472
 7083SOL    HW132885   1.314   4.465   2.461 -0.1127 -0.1051 -1.1939
 7083SOL    HW232886   1.271   4.357   2.373 -2.2544  1.4603 -0.0410
 7084SOL     OW32887   2.634   4.304  15.208 -0.0540 -0.1200 -0.0300
 7084SOL    HW132888   2.639   4.300  15.303 -1.2227 -0.8102  0.0066
 7084SOL    HW232889   2.637   4.400  15.203  0.5565 -0.1481 -0.2786
 7085SOL     OW32890   4.522   0.071   7.803 -0.1813 -0.2248 -0.5395
 7085SOL    HW132891   4.599   0.057   7.748 -0.2159  0.9111 -0.8605
 7085SOL    HW232892   4.487   0.157   7.782 -3.6483 -0.8299  2.7388
 7086SOL     OW32893   2.813   0.463   1.214  0.1017 -0.1679 -0.0438
 7086SOL    HW132894   2.774   0.523   1.151 -0.1413  0.2005  0.4588
 7086SOL    HW232895   2.833   0.386   1.161  2.4281  0.2680  0.1890
 7087SOL     OW32896   1.324   4.053   5.622  0.0203 -0.4527 -0.1234
 7087SOL    HW132897   1.331   4.002   5.703 -2.2488 -1.4030 -0.5065
 7087SOL    HW232898   1.376   4.130   5.645 -0.7851 -0.0721  0.4121
 7088SOL     OW32899   1.055   1.803   3.122 -0.1341  0.0272  0.2173
 7088SOL    HW132900   0.997   1.750   3.067 -2.1710  2.9306 -0.4320
 7088SOL    HW232901   0.994   1.836   3.189 -1.5288 -0.0002 -1.0295
 7089SOL     OW32902   3.941   1.079   1.835  0.0235  0.0372 -0.0498
 7089SOL    HW132903   3.919   1.094   1.743 -1.5974 -0.6155  0.2343
 7089SOL    HW232904   3.897   0.994   1.840 -0.5184  0.3505  0.4898
 7090SOL     OW32905   1.554   3.059  16.167  0.0812 -0.3589  0.3847
 7090SOL    HW132906   1.465   3.062  16.131  0.8567 -1.9633 -1.6544
 7090SOL    HW232907   1.577   2.966  16.171  2.4885  0.2635  1.1423
 7091SOL     OW32908   4.179   1.118   8.638 -0.2224 -0.3365  0.4276
 7091SOL    HW132909   4.137   1.189   8.688 -1.2587  0.1187 -1.1038
 7091SOL    HW232910   4.110   1.087   8.580 -2.2695  2.1686  1.5000
 7092SOL     OW32911   2.687   1.282   8.387 -0.1566 -0.3295 -0.1154
 7092SOL    HW132912   2.643   1.290   8.472 -2.3453 -0.6350 -1.2177
 7092SOL    HW232913   2.749   1.354   8.392 -0.7303  0.1388  0.2808
 7093SOL     OW32914   3.207   2.411   8.881 -0.2323  0.1454  0.6340
 7093SOL    HW132915   3.190   2.374   8.794 -1.5579  2.7257 -0.1872
 7093SOL    HW232916   3.302   2.410   8.889 -0.1840  3.5067  0.2865
 7094SOL     OW32917   0.432   1.419   6.423 -0.2337  0.1475 -0.0588
 7094SOL    HW132918   0.473   1.421   6.337  1.3488 -1.9558  0.6259
 7094SOL    HW232919   0.408   1.511   6.435  1.1295  0.4483  0.4005
 7095SOL     OW32920   4.179   3.794   3.832 -0.2111  0.1756 -0.1761
 7095SOL    HW132921   4.219   3.722   3.882 -0.4172  0.4539  0.3857
 7095SOL    HW232922   4.241   3.856   3.871  1.8810 -0.3510 -2.6638
 7096SOL     OW32923   1.618   2.983   3.437 -0.3494 -0.3284 -0.5345
 7096SOL    HW132924   1.588   3.035   3.512 -2.1029  0.2869 -1.6622
 7096SOL    HW232925   1.610   2.898   3.479 -2.1288 -0.7619 -1.7559
 7097SOL     OW32926   2.048   0.784   1.500 -0.1805  0.1951  0.5060
 7097SOL    HW132927   2.090   0.852   1.552  2.4122 -0.4081 -0.8374
 7097SOL    HW232928   2.102   0.710   1.528  0.2804  0.5495  0.5326
 7098SOL     OW32929   4.022   3.944   4.957 -0.2450  0.3740 -0.0906
 7098SOL    HW132930   4.002   3.852   4.975  2.6475  0.2391  2.4972
 7098SOL    HW232931   4.063   3.939   4.870  2.6708  0.3665  1.2739
 7099SOL     OW32932   2.598   1.164   8.159 -0.1765  0.1472 -0.1560
 7099SOL    HW132933   2.620   1.208   8.241 -2.4461 -1.1124  1.1222
 7099SOL    HW232934   2.621   1.072   8.171  1.8818  0.7397  0.4087
 7100SOL     OW32935   2.524   2.594   3.636  0.5952 -0.1791  0.1872
 7100SOL    HW132936   2.449   2.541   3.663 -1.0876  0.8241 -2.5220
 7100SOL    HW232937   2.481   2.680   3.638 -1.4769 -1.2421  2.2229
 7101SOL     OW32938   3.852   0.723  11.394  0.2133  0.0367 -0.7829
 7101SOL    HW132939   3.932   0.685  11.431 -0.6376 -0.2558  0.7547
 7101SOL    HW232940   3.856   0.817  11.414 -1.3196 -0.1553  0.4459
 7102SOL     OW32941   3.105   3.921   2.997  0.3813 -0.7050  0.0872
 7102SOL    HW132942   3.024   3.966   2.971 -0.2454 -0.3972  2.5516
 7102SOL    HW232943   3.174   3.987   2.993 -0.6535  0.1585 -2.9583
 7103SOL     OW32944   3.404   1.325   8.951 -0.4636  0.1839  0.2795
 7103SOL    HW132945   3.445   1.405   8.917  0.7899 -0.4593  0.2694
 7103SOL    HW232946   3.401   1.351   9.043  2.2833  0.7043  0.2331
 7104SOL     OW32947   2.566   3.749   7.371 -0.2995 -0.1351 -0.6664
 7104SOL    HW132948   2.589   3.834   7.410 -1.4235 -0.0451 -0.1961
 7104SOL    HW232949   2.626   3.688   7.415  1.5847  2.7624  0.8593
 7105SOL     OW32950   0.113   3.824   6.275  0.1383 -0.2782  0.4023
 7105SOL    HW132951   0.084   3.851   6.362 -1.5824 -2.6735  0.5539
 7105SOL    HW232952   0.169   3.748   6.290  0.3592 -0.0859  0.5459
 7106SOL     OW32953   1.302   2.763   9.803  0.3600 -0.8088 -0.6015
 7106SOL    HW132954   1.329   2.713   9.880  1.6428  1.6314  0.5604
 7106SOL    HW232955   1.384   2.802   9.774 -1.0565  1.9613 -0.9645
 7107SOL     OW32956   2.083   4.700   0.143 -0.3821  0.4290  0.6517
 7107SOL    HW132957   2.059   4.675   0.053  0.4310  1.8536  0.0443
 7107SOL    HW232958   2.023   0.029   0.170 -1.1081  1.4069 -3.4196
 7108SOL     OW32959   4.403   0.766   6.832  0.1930  0.3162  0.0005
 7108SOL    HW132960   4.346   0.814   6.892 -1.1592  0.5378 -1.4577
 7108SOL    HW232961   4.426   0.687   6.881 -1.2146  0.0897  0.2993
 7109SOL     OW32962   4.426   2.770   3.981  0.5079  0.0662 -0.0598
 7109SOL    HW132963   4.483   2.844   3.961 -1.1768  0.6849 -2.7222
 7109SOL    HW232964   4.478   2.751   4.059  0.7308  0.0887 -0.2031
 7110SOL     OW32965   4.054   0.225   8.085  0.2677 -0.4552  0.1776
 7110SOL    HW132966   4.031   0.274   8.163  1.6399  1.1424 -0.4203
 7110SOL    HW232967   4.141   0.207   8.120  0.2016  0.6729  0.8961
 7111SOL     OW32968   4.331   2.956   8.090 -0.5820 -0.3390 -1.0034
 7111SOL    HW132969   4.334   2.878   8.146  0.9688  1.6854  1.7358
 7111SOL    HW232970   4.420   2.953   8.054 -0.6391 -1.1062 -1.0811
 7112SOL     OW32971   2.279   3.278  12.557  0.4878 -0.4581 -0.0909
 7112SOL    HW132972   2.315   3.196  12.521 -1.0619 -0.4807 -1.5600
 7112SOL    HW232973   2.213   3.246  12.618 -2.2785  2.2972 -1.6763
 7113SOL     OW32974   0.194   1.093   0.939  0.1786  0.1848  0.5113
 7113SOL    HW132975   0.278   1.052   0.962  0.4440  0.5628  0.2206
 7113SOL    HW232976   0.225   1.161   0.880  0.3516  0.0766  0.4757
 7114SOL     OW32977   0.410   0.039   3.118 -0.3294 -0.4688  0.0558
 7114SOL    HW132978   0.389   0.091   3.040  2.5429  1.9682  0.8835
 7114SOL    HW232979   0.340   0.075   3.172 -1.1998 -2.5779  0.3060
 7115SOL     OW32980   3.028   1.488   8.150 -0.4844  0.4857 -0.3461
 7115SOL    HW132981   3.095   1.497   8.218 -0.1361  1.0176 -0.7614
 7115SOL    HW232982   3.010   1.395   8.161 -0.7724  0.5813 -0.0033
 7116SOL     OW32983   2.347   2.611   1.290  0.0904 -0.3492  0.1332
 7116SOL    HW132984   2.346   2.519   1.316  1.0079 -0.3066  0.3165
 7116SOL    HW232985   2.295   2.648   1.361  0.7540  1.1281 -0.1447
 7117SOL     OW32986   0.697   2.221   8.190 -0.5690  0.0396  0.4108
 7117SOL    HW132987   0.788   2.192   8.178 -1.1516 -1.5455 -0.1705
 7117SOL    HW232988   0.681   2.207   8.283 -0.5656 -0.6004  0.3146
 7118SOL     OW32989   4.257   0.449   1.921 -0.3848  0.0072 -0.1242
 7118SOL    HW132990   4.208   0.526   1.894 -1.3764 -1.8487 -3.5142
 7118SOL    HW232991   4.327   0.471   1.860 -2.5774 -2.4758 -3.4922
 7119SOL     OW32992   0.868   0.710  13.138 -0.4219 -0.3117 -0.3692
 7119SOL    HW132993   0.786   0.674  13.103 -1.2073  1.8595 -0.7321
 7119SOL    HW232994   0.902   0.768  13.070  0.5645 -0.4991 -0.0459
 7120SOL     OW32995   1.634   4.598   8.031  0.3884 -0.3983 -0.8221
 7120SOL    HW132996   1.617   4.682   7.990  0.7349  1.3667  2.6509
 7120SOL    HW232997   1.676   4.540   7.967  0.3945 -0.2267 -0.9732
 7121SOL     OW32998   1.510   1.955   5.110  0.6699  0.1901  0.0209
 7121SOL    HW132999   1.575   2.020   5.137  2.4711 -1.0599 -1.3540
 7121SOL    HW233000   1.424   1.994   5.126  1.2679  1.8864 -0.9431
 7122SOL     OW33001   2.084   2.683   0.846  0.4050  0.0257  0.2154
 7122SOL    HW133002   2.043   2.769   0.847 -0.2803 -0.3012 -0.1238
 7122SOL    HW233003   2.133   2.694   0.928  0.1725 -1.7854  0.5860
 7123SOL     OW33004   2.346   4.250   1.887  0.0110 -0.3546  0.0975
 7123SOL    HW133005   2.318   4.231   1.798 -0.8239  0.3729  0.2040
 7123SOL    HW233006   2.304   4.189   1.947  0.2905 -0.3494  0.2983
 7124SOL     OW33007   3.980   3.619   7.421 -0.0223 -0.4086  0.6654
 7124SOL    HW133008   3.922   3.547   7.394  1.4611 -1.3942  0.0824
 7124SOL    HW233009   3.923   3.693   7.442 -1.6305 -0.9783 -1.6286
 7125SOL     OW33010   3.812   3.112   2.885 -0.1069  0.2356  0.2284
 7125SOL    HW133011   3.827   3.164   2.964 -0.1799 -1.7681  1.5719
 7125SOL    HW233012   3.854   3.168   2.820  0.9549 -2.0241 -1.0528
 7126SOL     OW33013   0.405   3.049   3.692 -0.3133  0.1864  0.1425
 7126SOL    HW133014   0.324   3.022   3.736 -0.3940 -0.5994 -0.4741
 7126SOL    HW233015   0.362   3.097   3.621  3.3698  1.3827 -1.3069
 7127SOL     OW33016   4.011   0.117   9.010  0.1326 -0.0995 -0.2385
 7127SOL    HW133017   3.984   0.047   8.951  1.5517 -0.8527 -0.0074
 7127SOL    HW233018   4.102   0.131   8.982  0.1658 -0.0744 -0.1179
 7128SOL     OW33019   2.296   3.270   5.079  0.3354  0.2214 -0.0780
 7128SOL    HW133020   2.219   3.325   5.091  0.3052 -0.0515  0.9860
 7128SOL    HW233021   2.249   3.187   5.072  0.4772  0.0864  0.6235
 7129SOL     OW33022   3.066   3.485   6.526  0.2149  0.1523  0.5997
 7129SOL    HW133023   3.056   3.404   6.576  0.3225 -0.1497  0.1356
 7129SOL    HW233024   3.150   3.471   6.482 -1.4097 -2.4608 -1.6760
 7130SOL     OW33025   2.732   4.263   1.868  0.3910  0.2219 -0.6775
 7130SOL    HW133026   2.664   4.323   1.836  1.1936  0.9265 -1.0611
 7130SOL    HW233027   2.792   4.281   1.796  2.0095 -0.8217  0.4205
 7131SOL     OW33028   0.984   1.302  13.755  0.0376 -0.3712 -0.1744
 7131SOL    HW133029   0.937   1.300  13.839 -0.1504 -3.5967 -0.3605
 7131SOL    HW233030   1.072   1.300  13.793 -0.9908 -0.6425  2.2214
 7132SOL     OW33031   1.485   3.829   4.870 -0.0282 -0.0375  0.0547
 7132SOL    HW133032   1.394   3.799   4.879  0.4632 -1.4674  0.2309
 7132SOL    HW233033   1.479   3.895   4.800  0.7049 -0.1941 -0.1599
 7133SOL     OW33034   3.302   1.718  15.939 -0.2046 -0.0880 -0.1125
 7133SOL    HW133035   3.279   1.716  16.032  1.1263 -0.9211  0.1925
 7133SOL    HW233036   3.219   1.680  15.908 -1.4763 -0.3732  3.6361
 7134SOL     OW33037   1.755   2.929   7.466 -0.2171 -0.5723 -0.0059
 7134SOL    HW133038   1.681   2.876   7.496 -1.3434  0.6401 -0.6680
 7134SOL    HW233039   1.828   2.866   7.465 -0.3909 -0.7699 -0.2730
 7135SOL     OW33040   1.988   2.585   9.025  0.7447  0.3300 -0.4973
 7135SOL    HW133041   1.926   2.556   8.958  0.5729 -0.4658  0.0086
 7135SOL    HW233042   2.005   2.502   9.070 -0.0069  1.3622  1.6837
 7136SOL     OW33043   2.187   4.092   2.025  0.0373  0.3569 -0.3215
 7136SOL    HW133044   2.171   4.024   2.090  1.4986 -0.4723 -0.8183
 7136SOL    HW233045   2.104   4.138   2.031 -0.2612 -0.5586  3.0572
 7137SOL     OW33046   1.667   2.519   5.119  0.0758 -0.6844  0.2533
 7137SOL    HW133047   1.634   2.548   5.034 -2.3603 -0.5585  1.2484
 7137SOL    HW233048   1.617   2.571   5.181  0.1576 -0.4094  0.0897
 7138SOL     OW33049   3.923   1.956   2.640  0.4922  0.3736  0.1754
 7138SOL    HW133050   3.980   1.973   2.565  2.1468 -0.8329  1.1891
 7138SOL    HW233051   3.931   1.861   2.648 -0.4088  0.3650  1.0052
 7139SOL     OW33052   1.195   1.719   1.851 -0.2806  0.0140  0.5323
 7139SOL    HW133053   1.167   1.655   1.785  0.2399  0.1553  0.1750
 7139SOL    HW233054   1.130   1.786   1.834  2.0172  1.9776 -0.4470
 7140SOL     OW33055   4.087   1.381  16.731  0.8087 -0.0740 -0.0988
 7140SOL    HW133056   4.094   1.286  16.734 -0.1569 -0.1085  0.9025
 7140SOL    HW233057   4.167   1.393  16.680  1.5419  0.7032  1.2442
 7141SOL     OW33058   4.328   3.056   8.499  0.2100 -0.4365  0.5196
 7141SOL    HW133059   4.345   3.099   8.415  0.6569 -0.2216  0.7193
 7141SOL    HW233060   4.273   2.982   8.474 -0.1103  0.8461 -2.5833
 7142SOL     OW33061   4.381   3.394   9.251  0.7775  0.0617 -0.0116
 7142SOL    HW133062   4.440   3.414   9.323  0.6336  0.5020 -0.0142
 7142SOL    HW233063   4.440   3.363   9.182 -0.9821  2.3800 -2.6001
 7143SOL     OW33064   4.305   4.363   5.635  0.5075  0.2393 -0.5148
 7143SOL    HW133065   4.241   4.298   5.605 -1.1169  1.3443  0.5230
 7143SOL    HW233066   4.276   4.362   5.726  1.2674  0.2321 -0.2742
 7144SOL     OW33067   3.144   2.664   8.738  0.6202 -0.5794 -0.4546
 7144SOL    HW133068   3.146   2.570   8.752  2.1886 -0.0909  2.5762
 7144SOL    HW233069   3.144   2.698   8.827  1.6497 -0.6622 -0.4251
 7145SOL     OW33070   4.287   1.159   7.218  0.4926  0.0203 -0.3772
 7145SOL    HW133071   4.222   1.117   7.162  3.7585  0.0539 -4.1604
 7145SOL    HW233072   4.326   1.210   7.147  2.8527 -1.7051 -0.3104
 7146SOL     OW33073   3.346   0.309  16.375  0.0656 -0.5166 -0.1904
 7146SOL    HW133074   3.407   0.380  16.353 -0.0738 -0.4926 -0.5041
 7146SOL    HW233075   3.303   0.346  16.451 -0.2012 -0.5308 -0.3328
 7147SOL     OW33076   0.879   3.005  17.213  0.0660 -0.2041 -0.4547
 7147SOL    HW133077   0.889   2.984  17.120 -0.2465  1.0062 -0.7539
 7147SOL    HW233078   0.880   3.098  17.234  1.0254 -0.1217 -0.8693
 7148SOL     OW33079   0.528   3.237   6.232 -0.3774  0.6209  0.0143
 7148SOL    HW133080   0.541   3.254   6.139  0.9573  0.1471  0.1099
 7148SOL    HW233081   0.614   3.212   6.268 -0.7280 -0.4447  0.0831
 7149SOL     OW33082   0.222   2.465  12.341 -0.1849 -0.1245  0.0192
 7149SOL    HW133083   0.155   2.441  12.277  0.1467  1.3254 -0.8711
 7149SOL    HW233084   0.175   2.511  12.410  1.6779  1.2498  0.3899
 7150SOL     OW33085   0.420   0.685   7.116 -0.5139 -0.4453  0.2824
 7150SOL    HW133086   0.457   0.763   7.075 -1.1081 -1.5004 -2.2840
 7150SOL    HW233087   0.340   0.689   7.064  0.8492 -0.2212 -1.7653
 7151SOL     OW33088   2.241   1.930   9.328 -0.1489  0.2392 -0.5147
 7151SOL    HW133089   2.317   1.930   9.386 -2.8499 -4.2014  3.0564
 7151SOL    HW233090   2.189   1.996   9.373 -0.0472  0.1808 -0.3127
 7152SOL     OW33091   4.418   3.189   4.965 -0.8906 -0.4031  0.2933
 7152SOL    HW133092   4.350   3.133   5.002  0.1670 -1.4713  0.6266
 7152SOL    HW233093   4.471   3.211   5.041 -1.7960  0.3062  0.7155
 7153SOL     OW33094   3.041   4.486   2.076  0.1592  0.4538  0.8201
 7153SOL    HW133095   2.994   4.559   2.035 -0.2120 -0.2478 -0.0002
 7153SOL    HW233096   3.078   4.520   2.157  1.1162  1.2897  0.0266
 7154SOL     OW33097   3.666   4.639   7.437 -0.8252 -0.2729 -0.0674
 7154SOL    HW133098   3.756   4.673   7.441 -1.3013  0.8698  0.9618
 7154SOL    HW233099   3.634   4.661   7.350  0.5034  1.3306 -0.1520
 7155SOL     OW33100   0.218   3.823  17.559 -0.7144  1.1960 -0.1151
 7155SOL    HW133101   0.195   3.806  17.467  2.0447 -2.7602 -0.0695
 7155SOL    HW233102   0.187   3.914  17.568  1.4024  1.6988  1.8968
 7156SOL     OW33103   2.180   3.596   0.539  0.0755 -0.8083  0.5200
 7156SOL    HW133104   2.111   3.531   0.552 -0.4172 -0.0470  1.6782
 7156SOL    HW233105   2.241   3.567   0.607  0.9325 -3.2633 -1.2812
 7157SOL     OW33106   2.067   3.139   8.814  0.1579  0.0582  0.3174
 7157SOL    HW133107   2.124   3.205   8.774 -0.4007  0.5093  0.2758
 7157SOL    HW233108   2.129   3.111   8.882  1.7081 -1.8159 -1.8492
 7158SOL     OW33109   1.387   2.180   6.767  0.3926 -0.2721  0.3545
 7158SOL    HW133110   1.339   2.103   6.738 -0.5700 -0.4945  2.5376
 7158SOL    HW233111   1.436   2.189   6.685  0.8755 -1.3324  0.5336
 7159SOL     OW33112   2.310   3.375  14.424 -0.4416  0.2874  0.2651
 7159SOL    HW133113   2.336   3.442  14.487  1.6504 -0.3673  0.0864
 7159SOL    HW233114   2.287   3.417  14.341  1.5462 -1.4268 -1.1460
 7160SOL     OW33115   0.397   2.815  10.359  0.3019  0.0639  0.0079
 7160SOL    HW133116   0.391   2.789  10.452 -0.2626 -1.2788 -0.3925
 7160SOL    HW233117   0.465   2.882  10.363 -0.8101  1.2224 -0.5217
 7161SOL     OW33118   1.806   0.442   4.895  0.1931 -0.1797  0.4430
 7161SOL    HW133119   1.759   0.408   4.971 -1.9376 -0.5488 -1.0574
 7161SOL    HW233120   1.735   0.436   4.832  1.1266  1.8034 -0.8274
 7162SOL     OW33121   3.666   3.706  17.313 -0.2498  0.1499 -0.1503
 7162SOL    HW133122   3.662   3.629  17.370  0.2253  1.0059  1.0409
 7162SOL    HW233123   3.747   3.693  17.262 -0.5369 -0.2574 -0.5018
 7163SOL     OW33124   2.206   3.213   7.003  0.2389 -0.2639  0.1342
 7163SOL    HW133125   2.225   3.121   6.981 -1.2458 -0.1609 -1.5563
 7163SOL    HW233126   2.112   3.210   7.020  0.0794 -3.1140 -1.2120
 7164SOL     OW33127   0.573   0.341   4.143  0.0286 -0.5258  0.1706
 7164SOL    HW133128   0.578   0.371   4.053  1.6607 -2.1596 -0.2983
 7164SOL    HW233129   0.554   0.419   4.196 -0.4970  0.2919 -1.2442
 7165SOL     OW33130   0.561   3.548   6.668 -0.5039  0.1920 -0.2863
 7165SOL    HW133131   0.616   3.470   6.677  3.1053  2.8386  0.6159
 7165SOL    HW233132   0.607   3.588   6.594 -0.8395 -0.4165 -0.8214
 7166SOL     OW33133   4.517   1.515   7.848  0.2077  0.2912  0.4462
 7166SOL    HW133134   4.578   1.443   7.832  0.2968  0.8326 -1.7167
 7166SOL    HW233135   4.440   1.491   7.795 -0.0291  1.6844  0.1472
 7167SOL     OW33136   3.851   3.597   6.379  0.2706  0.4007  0.6848
 7167SOL    HW133137   3.816   3.635   6.299  0.8468  2.0205  1.2052
 7167SOL    HW233138   3.792   3.522   6.385  0.7118 -0.0314 -0.4016
 7168SOL     OW33139   3.400   4.082   7.527 -0.1311 -0.2927 -0.1639
 7168SOL    HW133140   3.366   4.172   7.521 -0.8010 -0.5736 -0.5097
 7168SOL    HW233141   3.318   4.032   7.531  0.0172 -0.5254 -0.0594
 7169SOL     OW33142   2.791   3.176   2.859 -0.1475 -0.4760 -0.3506
 7169SOL    HW133143   2.778   3.239   2.930  0.1747  1.5014 -2.0586
 7169SOL    HW233144   2.885   3.161   2.874  0.0140  0.2615 -0.6153
 7170SOL     OW33145   3.102   1.809   9.944 -0.5378 -0.2800 -0.2352
 7170SOL    HW133146   3.062   1.892   9.970 -1.6517 -0.9373  0.1001
 7170SOL    HW233147   3.042   1.774   9.878 -2.2887  0.5782  0.9179
 7171SOL     OW33148   0.067   0.474   7.546  0.8412  0.1940 -0.2709
 7171SOL    HW133149   0.101   0.557   7.512 -0.9398  2.0945  2.5542
 7171SOL    HW233150   0.095   0.470   7.637  0.1547 -0.6728 -0.0939
 7172SOL     OW33151   4.426   2.242  10.445  0.2670  0.1192 -0.2283
 7172SOL    HW133152   4.520   2.249  10.426 -0.1337  3.9612 -0.9372
 7172SOL    HW233153   4.421   2.186  10.522 -3.2292  0.4126 -0.2589
 7173SOL     OW33154   2.062   4.642   6.134 -0.5462  0.0072  0.2614
 7173SOL    HW133155   2.042   4.560   6.090 -2.6899 -0.3178  1.8368
 7173SOL    HW233156   2.158   4.644   6.139 -0.5095  1.1379 -0.9544
 7174SOL     OW33157   3.776   2.788   7.000 -0.4149  0.6159 -1.2340
 7174SOL    HW133158   3.773   2.875   7.041  0.0635 -0.1754  0.4914
 7174SOL    HW233159   3.863   2.766   7.032 -0.5032  1.4356 -0.4312
 7175SOL     OW33160   2.082   1.289   9.035  0.1845 -0.4422  0.0252
 7175SOL    HW133161   2.079   1.373   9.081 -0.1321 -1.1150  1.2478
 7175SOL    HW233162   2.030   1.312   8.958  0.1743 -0.1224  0.1282
 7176SOL     OW33163   2.124   2.833  12.262  0.4405  0.1740 -0.4798
 7176SOL    HW133164   2.105   2.832  12.168  0.2116  2.6283 -0.4498
 7176SOL    HW233165   2.050   2.876  12.305  2.1778 -0.1721  2.8412
 7177SOL     OW33166   3.021   2.249   6.200  0.0090 -0.5147  0.2038
 7177SOL    HW133167   3.033   2.210   6.113  0.1935  0.5135 -0.2402
 7177SOL    HW233168   3.014   2.174   6.258  1.1932 -2.1767 -1.7978
 7178SOL     OW33169   2.669   2.626   7.281  0.1225 -0.4846 -0.2666
 7178SOL    HW133170   2.603   2.622   7.211 -0.1094  0.1337 -0.0846
 7178SOL    HW233171   2.677   2.721   7.287 -0.2186 -0.2566 -3.3051
 7179SOL     OW33172   3.670   0.563  10.903 -0.4633  0.0644  0.0617
 7179SOL    HW133173   3.646   0.646  10.860  2.6650 -0.0526 -1.9037
 7179SOL    HW233174   3.680   0.592  10.993 -1.5952  0.5950  0.0273
 7180SOL     OW33175   0.638   1.878   4.735  0.2809  0.1722  0.3575
 7180SOL    HW133176   0.628   1.784   4.751 -0.8523 -0.0749 -1.8444
 7180SOL    HW233177   0.576   1.897   4.664  0.4050 -4.2943 -0.9706
 7181SOL     OW33178   2.215   3.839   5.602  0.6938 -0.4880 -0.0059
 7181SOL    HW133179   2.294   3.892   5.597  0.4991 -0.1088  0.8793
 7181SOL    HW233180   2.164   3.865   5.525 -1.4224 -0.2255  1.4868
 7182SOL     OW33181   3.146   1.991   9.686 -0.4220  0.3125 -0.6818
 7182SOL    HW133182   3.092   1.913   9.696  1.0058 -0.8782 -2.5011
 7182SOL    HW233183   3.082   2.040   9.738 -0.4025 -1.1393  0.7293
 7183SOL     OW33184   0.088   4.390   5.351  0.2777 -0.0096 -0.6124
 7183SOL    HW133185   0.077   4.463   5.289 -0.0740 -0.6254 -1.2711
 7183SOL    HW233186   0.001   4.368   5.382  0.8589 -0.4134  0.7074
 7184SOL     OW33187   4.179   3.975   2.104  0.5540 -0.3597  0.3058
 7184SOL    HW133188   4.088   3.979   2.133  0.9578 -0.2092  1.5717
 7184SOL    HW233189   4.224   3.909   2.157  2.6817  2.2943  1.8046
 7185SOL     OW33190   1.656   3.015   5.777  0.6816 -0.3950 -0.3391
 7185SOL    HW133191   1.654   2.934   5.726 -0.0209 -0.0285 -0.8873
 7185SOL    HW233192   1.717   2.992   5.847 -0.4096 -1.5226  0.2376
 7186SOL     OW33193   0.043   0.297   7.109  0.2087  0.3073  0.0817
 7186SOL    HW133194   0.042   0.204   7.086  1.2824  0.6432 -1.3291
 7186SOL    HW233195   4.702   0.299   7.161  0.6525 -0.1245  0.7662
 7187SOL     OW33196   3.607   4.436   6.557  0.2617  0.2102  0.1235
 7187SOL    HW133197   3.571   4.465   6.473  0.5492 -1.8265 -0.7019
 7187SOL    HW233198   3.696   4.470   6.546  0.7224 -1.4474 -1.2405
 7188SOL     OW33199   3.475   1.604   8.882 -0.1898  0.4903  0.2179
 7188SOL    HW133200   3.419   1.660   8.935 -0.5924 -2.0602  2.4611
 7188SOL    HW233201   3.522   1.666   8.826  2.4584 -1.0164  0.7479
 7189SOL     OW33202   4.257   2.684   1.174  0.1021 -0.2878 -0.4209
 7189SOL    HW133203   4.332   2.742   1.190 -0.8748  1.1587 -1.1428
 7189SOL    HW233204   4.214   2.729   1.101 -2.8965 -1.5556  0.5768
 7190SOL     OW33205   0.110   2.170   7.350 -0.3330 -0.2097 -0.6470
 7190SOL    HW133206   0.052   2.236   7.388  0.6338  0.2731 -0.0340
 7190SOL    HW233207   0.046   2.099   7.338 -0.9453  0.5551 -1.9362
 7191SOL     OW33208   4.481   0.719   7.763 -0.0215  0.2201  0.2654
 7191SOL    HW133209   4.547   0.743   7.829 -0.1836 -2.2670  1.3203
 7191SOL    HW233210   4.429   0.656   7.812 -0.0068  1.2752  1.6232
 7192SOL     OW33211   0.917   1.894   3.739  0.5023 -0.5094 -0.0452
 7192SOL    HW133212   0.846   1.943   3.699  1.9689  1.0175 -0.7862
 7192SOL    HW233213   0.939   1.824   3.676  0.2828 -0.3429 -0.3079
 7193SOL     OW33214   1.629   0.755   1.717 -0.2648  0.2380 -0.1887
 7193SOL    HW133215   1.642   0.682   1.656  0.2274  0.5135 -0.4121
 7193SOL    HW233216   1.591   0.819   1.658 -0.2548  1.4771  1.1614
 7194SOL     OW33217   4.303   2.389   2.418  0.3580 -0.8878 -0.2301
 7194SOL    HW133218   4.305   2.326   2.345 -0.1239 -1.6999  0.4528
 7194SOL    HW233219   4.382   2.434   2.388 -0.9885  1.2503 -0.5603
 7195SOL     OW33220   2.883   2.362   0.142 -0.1162  0.4048  0.0159
 7195SOL    HW133221   2.829   2.287   0.167 -1.8364  1.5503 -0.2746
 7195SOL    HW233222   2.830   2.407   0.076 -2.7288 -1.3804  0.9287
 7196SOL     OW33223   2.784   1.433   3.468 -0.4011  0.1528  0.2772
 7196SOL    HW133224   2.730   1.505   3.500 -0.4005  0.2332  0.0967
 7196SOL    HW233225   2.871   1.474   3.468 -0.4201  0.1774  1.2815
 7197SOL     OW33226   2.808   2.265  15.086  0.1850  0.0882 -0.5906
 7197SOL    HW133227   2.821   2.241  15.178  1.5188  0.8056 -0.5944
 7197SOL    HW233228   2.718   2.234  15.078 -0.3479  1.3343  0.3928
 7198SOL     OW33229   2.315   4.348  17.418  0.3288  0.0004  0.0668
 7198SOL    HW133230   2.331   4.316  17.507 -3.6118 -2.1510  0.0060
 7198SOL    HW233231   2.240   4.407  17.428 -0.5859 -0.7464 -2.3683
 7199SOL     OW33232   3.873   3.169   1.186  0.2703 -0.5600 -0.0303
 7199SOL    HW133233   3.894   3.099   1.125  2.7697 -1.3660  1.7403
 7199SOL    HW233234   3.959   3.207   1.206  0.4605 -1.9885  1.9624
 7200SOL     OW33235   3.106   3.389   7.851  0.8316 -0.3003 -0.2479
 7200SOL    HW133236   3.199   3.367   7.860  0.7841 -0.3688  0.0798
 7200SOL    HW233237   3.083   3.375   7.943  1.0517  0.6134 -0.0543
 7201SOL     OW33238   3.898   2.299   5.449 -0.1724  0.5097  0.0511
 7201SOL    HW133239   3.861   2.369   5.504  0.4665 -0.0912  1.2526
 7201SOL    HW233240   3.852   2.224   5.488  2.9092 -1.4419 -0.0405
 7202SOL     OW33241   1.541   2.012  14.504  0.1762  0.2316 -0.2136
 7202SOL    HW133242   1.605   2.007  14.434 -1.2871 -1.9595 -1.4120
 7202SOL    HW233243   1.479   1.945  14.476  1.1533 -1.3415  1.4281
 7203SOL     OW33244   4.212   1.432  13.643 -0.1057  0.4503  0.4118
 7203SOL    HW133245   4.149   1.461  13.709 -2.1664 -1.1572 -0.8444
 7203SOL    HW233246   4.185   1.488  13.570  1.0127  1.3203  0.6662
 7204SOL     OW33247   4.246   2.851  16.866 -0.2544  0.1278  0.0981
 7204SOL    HW133248   4.276   2.883  16.951  1.5308  1.0136 -0.8531
 7204SOL    HW233249   4.229   2.931  16.816 -0.4384 -0.0925 -0.1907
 7205SOL     OW33250   1.015   3.338   7.667 -0.4137  0.8921 -0.1535
 7205SOL    HW133251   1.059   3.379   7.742  2.3181 -2.6310  0.1484
 7205SOL    HW233252   1.086   3.297   7.618 -1.9640 -2.0611  0.0708
 7206SOL     OW33253   1.365   3.176   9.972 -0.5251  0.1362 -0.2732
 7206SOL    HW133254   1.441   3.230   9.949  2.0033 -2.4627  2.0972
 7206SOL    HW233255   1.294   3.185   9.908 -0.0556  1.2181 -0.6379
 7207SOL     OW33256   2.302   2.019   5.635  0.2984 -0.2809  0.2079
 7207SOL    HW133257   2.393   2.007   5.607  0.5934 -1.2607  1.5558
 7207SOL    HW233258   2.287   2.110   5.608  1.6482  0.9825  3.6720
 7208SOL     OW33259   4.162   3.070   4.765 -0.7230 -0.3626 -0.4175
 7208SOL    HW133260   4.117   3.056   4.848  2.5083  0.9307  1.5475
 7208SOL    HW233261   4.246   3.050   4.805 -1.0632  1.1655  1.1004
 7209SOL     OW33262   1.963   3.963   5.795  0.0073  0.1766 -0.2589
 7209SOL    HW133263   1.928   3.944   5.882  1.0248 -0.4048  0.0180
 7209SOL    HW233264   1.961   3.875   5.756 -0.0839  0.9251 -1.9334
 7210SOL     OW33265   3.530   0.670   4.865  0.1057  0.6425  0.1818
 7210SOL    HW133266   3.593   0.741   4.855 -0.0772  0.4018 -2.5982
 7210SOL    HW233267   3.470   0.721   4.920 -1.2271  0.7561 -1.3724
 7211SOL     OW33268   0.063   0.108   7.372  0.0402 -0.1720 -0.2363
 7211SOL    HW133269   0.118   0.186   7.382 -2.3972  0.9984  3.9993
 7211SOL    HW233270   0.081   0.079   7.283 -0.7885 -0.2550 -0.3730
 7212SOL     OW33271   1.567   3.696  11.319 -0.3011 -0.0443  0.0331
 7212SOL    HW133272   1.544   3.711  11.411  1.4572 -2.2159  0.8372
 7212SOL    HW233273   1.494   3.742  11.277  2.3638  2.7424 -1.5791
 7213SOL     OW33274   0.820   1.555   8.706  0.0605 -0.4336  0.0700
 7213SOL    HW133275   0.843   1.491   8.773  0.0843  0.1256  0.5888
 7213SOL    HW233276   0.862   1.630   8.748 -1.4077  0.5222 -0.1450
 7214SOL     OW33277   0.463   4.460   3.761 -0.3829 -0.1716 -0.0810
 7214SOL    HW133278   0.533   4.509   3.720 -0.0984 -1.4734 -1.1438
 7214SOL    HW233279   0.394   4.466   3.694  0.6775  0.0805 -1.1369
 7215SOL     OW33280   3.834   3.750   6.634  0.2209  0.4343 -0.5073
 7215SOL    HW133281   3.844   3.689   6.706  2.2316  1.6248  0.2380
 7215SOL    HW233282   3.870   3.700   6.561  1.2193  0.0343  0.2605
 7216SOL     OW33283   4.622   1.374   4.229 -0.5406  0.2459 -0.0667
 7216SOL    HW133284   4.584   1.291   4.201 -1.0103  0.3557  0.2556
 7216SOL    HW233285   4.539   1.423   4.231  1.4372  3.6511 -0.8743
 7217SOL     OW33286   1.190   2.516   5.284 -0.8292  0.1076  0.6449
 7217SOL    HW133287   1.113   2.473   5.248  0.3895 -2.8940  1.6614
 7217SOL    HW233288   1.151   2.567   5.355 -0.5331  0.4148  0.5861
 7218SOL     OW33289   3.050   1.407   4.389 -0.1204  0.1546  0.2884
 7218SOL    HW133290   2.977   1.468   4.388 -1.4675 -1.4293  2.8992
 7218SOL    HW233291   3.121   1.471   4.393 -0.6575  0.8416 -1.1164
 7219SOL     OW33292   3.467   4.478   4.424  0.7162  0.1418  0.1371
 7219SOL    HW133293   3.560   4.494   4.442  0.8824  0.0445 -0.6280
 7219SOL    HW233294   3.468   4.437   4.338 -2.2769  1.2284 -0.3908
 7220SOL     OW33295   1.745   0.628   3.280  0.0061  0.4071 -0.1403
 7220SOL    HW133296   1.765   0.676   3.200  2.6824  1.0646  0.9256
 7220SOL    HW233297   1.673   0.683   3.312 -0.1293  1.3052 -2.0166
 7221SOL     OW33298   0.705   4.387   1.382 -0.1022 -0.1937 -0.0390
 7221SOL    HW133299   0.800   4.394   1.368  0.0641 -0.4320  0.9494
 7221SOL    HW233300   0.695   4.455   1.448  2.2130 -0.1807  0.3150
 7222SOL     OW33301   3.364   2.049  12.468 -0.4794  0.1067  0.1255
 7222SOL    HW133302   3.405   1.962  12.461 -1.5424 -0.4344  0.7263
 7222SOL    HW233303   3.379   2.066  12.561 -0.3944  0.6248  0.0144
 7223SOL     OW33304   2.284   0.090   6.428 -0.2223 -0.3327  0.1902
 7223SOL    HW133305   2.331   0.075   6.510  2.1316 -2.2617 -1.5227
 7223SOL    HW233306   2.226   0.015   6.436 -2.4325  1.3965  0.4728
 7224SOL     OW33307   1.218   4.108   1.727  0.3794  0.4002  0.2886
 7224SOL    HW133308   1.248   4.025   1.764  2.9670  2.8197  3.6764
 7224SOL    HW233309   1.277   4.106   1.652  0.7284 -0.5962  0.5988
 7225SOL     OW33310   3.679   0.603  12.113  0.3465 -0.3331  0.3877
 7225SOL    HW133311   3.720   0.689  12.126  2.2900 -1.2754  0.5120
 7225SOL    HW233312   3.622   0.624  12.040  0.6252 -1.6902 -0.2212
 7226SOL     OW33313   2.658   3.401   9.091  0.1761  0.3078  0.6294
 7226SOL    HW133314   2.596   3.472   9.106 -1.8302 -1.7128  2.0734
 7226SOL    HW233315   2.608   3.350   9.027  0.6969  0.5228  0.0544
 7227SOL     OW33316   1.961   2.190   2.650 -0.2439  0.1752 -0.4155
 7227SOL    HW133317   1.880   2.157   2.689  0.3916  0.3061  0.9913
 7227SOL    HW233318   1.923   2.216   2.566 -2.3190  0.5701  0.6334
 7228SOL     OW33319   3.953   3.263   2.609  0.0479  0.1940  0.1573
 7228SOL    HW133320   3.873   3.300   2.647  0.3159  0.2110  0.6992
 7228SOL    HW233321   3.923   3.274   2.518  1.4435  0.0554 -0.3195
 7229SOL     OW33322   0.849   3.546   2.758  0.0653 -0.0357 -0.1003
 7229SOL    HW133323   0.832   3.464   2.711  1.0464 -0.6376  0.5936
 7229SOL    HW233324   0.768   3.593   2.737 -0.1610  0.4439  1.7759
 7230SOL     OW33325   2.865   1.173   5.257  0.1003  0.1677  0.4469
 7230SOL    HW133326   2.876   1.265   5.279  3.6777 -0.4603  1.3797
 7230SOL    HW233327   2.795   1.172   5.323  0.0912 -0.3881  0.4315
 7231SOL     OW33328   0.763   0.224  13.454  0.3738  0.4818 -0.0220
 7231SOL    HW133329   0.696   0.188  13.512  0.0098  1.3017  0.0623
 7231SOL    HW233330   0.718   0.244  13.372 -0.2506  1.9448  0.6706
 7232SOL     OW33331   0.708   2.859   9.445 -0.6099  0.0460 -0.5569
 7232SOL    HW133332   0.747   2.896   9.365 -0.2848 -0.9604 -0.8766
 7232SOL    HW233333   0.657   2.937   9.466 -0.6311 -0.7380  2.3194
 7233SOL     OW33334   0.509   3.671   3.427 -0.0775 -0.4301  0.1115
 7233SOL    HW133335   0.588   3.623   3.451 -1.9564 -3.4906  0.2273
 7233SOL    HW233336   0.552   3.706   3.349 -2.1133  0.7915 -0.4617
 7234SOL     OW33337   1.870   1.240   0.561 -0.5658 -0.2810  0.4831
 7234SOL    HW133338   1.956   1.279   0.551 -0.8644  0.5981  1.3620
 7234SOL    HW233339   1.907   1.151   0.563 -2.3517 -1.0613 -0.5346
 7235SOL     OW33340   3.450   0.972  12.947 -0.7410  0.0960  0.4766
 7235SOL    HW133341   3.470   1.059  12.914  1.6071 -1.6871 -2.8554
 7235SOL    HW233342   3.363   0.989  12.984 -0.7655  2.3958 -0.6264
 7236SOL     OW33343   3.392   3.005   1.963  0.3994  0.0466  0.2794
 7236SOL    HW133344   3.337   3.083   1.973 -1.0148 -0.2918 -4.6181
 7236SOL    HW233345   3.340   2.948   2.020 -1.0926  0.0527 -1.0818
 7237SOL     OW33346   2.781   0.790   2.335 -0.6027 -0.0525  0.4130
 7237SOL    HW133347   2.782   0.846   2.258 -2.5980 -0.4185  0.1205
 7237SOL    HW233348   2.827   0.833   2.407 -0.9595  1.0472 -0.0181
 7238SOL     OW33349   3.240   1.687   3.529 -0.1631  0.1295  0.9527
 7238SOL    HW133350   3.157   1.733   3.517  0.5940  2.0455  3.0659
 7238SOL    HW233351   3.298   1.744   3.479  0.3246 -1.2345 -0.0279
 7239SOL     OW33352   0.362   2.594   7.560  0.2025  0.0856  0.0206
 7239SOL    HW133353   0.397   2.680   7.583  3.2678 -0.5141 -2.4271
 7239SOL    HW233354   0.394   2.532   7.625  0.0220  1.5174  1.4727
 7240SOL     OW33355   1.462   0.726   0.909 -0.2024  0.7479  0.0935
 7240SOL    HW133356   1.375   0.685   0.903 -0.1859  0.8070 -0.6274
 7240SOL    HW233357   1.499   0.657   0.963 -0.9928 -1.4448 -2.1460
 7241SOL     OW33358   2.763   3.964  14.035  0.2192 -0.9066  0.2653
 7241SOL    HW133359   2.745   3.951  13.942 -1.2228 -0.5953  0.5157
 7241SOL    HW233360   2.837   4.024  14.027 -0.9568  0.5658  0.4851
 7242SOL     OW33361   0.703   0.121  11.757 -0.5487 -0.0209  0.0666
 7242SOL    HW133362   0.625   0.066  11.759 -1.8939  1.9924  3.1383
 7242SOL    HW233363   0.671   0.177  11.686  0.4071 -1.1193 -1.2259
 7243SOL     OW33364   1.528   4.136  12.094  0.5926 -0.1542  0.5890
 7243SOL    HW133365   1.554   4.183  12.015  1.3249 -1.8120 -0.1441
 7243SOL    HW233366   1.434   4.158  12.096  0.3643 -0.9712 -1.5310
 7244SOL     OW33367   0.120   2.821   8.544 -0.0782 -0.5060 -0.0257
 7244SOL    HW133368   0.182   2.851   8.609 -0.6384 -0.1180  0.3281
 7244SOL    HW233369   0.053   2.779   8.598 -1.4889 -0.1628 -1.4853
 7245SOL     OW33370   0.297   3.381  14.571 -0.0372  0.3730  0.1895
 7245SOL    HW133371   0.382   3.425  14.564  1.1005 -1.8327  0.1403
 7245SOL    HW233372   0.288   3.360  14.663 -0.5240  1.2558  0.3442
 7246SOL     OW33373   3.299   1.040   7.851 -0.0937 -0.7678 -0.1286
 7246SOL    HW133374   3.377   1.043   7.795  0.1941 -0.7411  0.2768
 7246SOL    HW233375   3.225   1.029   7.791 -0.2445 -0.4314 -0.0033
 7247SOL     OW33376   3.297   4.149   6.645  0.2979  0.0962  0.3481
 7247SOL    HW133377   3.385   4.178   6.668 -0.5565  1.1283  2.2652
 7247SOL    HW233378   3.328   4.095   6.572  1.5531 -1.0912  1.7574
 7248SOL     OW33379   1.980   1.875   9.627 -0.4761 -0.4128 -0.1151
 7248SOL    HW133380   2.044   1.816   9.587 -0.8212  0.3353 -1.7561
 7248SOL    HW233381   2.018   1.961   9.608 -1.5953  0.2233  0.5106
 7249SOL     OW33382   2.375   3.956   1.633  0.0033  0.6341 -0.0438
 7249SOL    HW133383   2.349   3.922   1.719  1.6914  0.1258  0.2769
 7249SOL    HW233384   2.317   4.032   1.635 -2.0095 -0.8639 -2.2803
 7250SOL     OW33385   0.183   4.261  17.277  0.8880 -0.2601 -0.5778
 7250SOL    HW133386   0.108   4.304  17.237  0.8789  1.0373  0.8547
 7250SOL    HW233387   0.199   4.195  17.209 -0.8739 -2.2420  0.9242
 7251SOL     OW33388   0.561   4.624   5.315 -0.1192  0.4523  0.3739
 7251SOL    HW133389   0.533   4.709   5.349 -0.2892  1.1161 -1.4392
 7251SOL    HW233390   0.506   4.564   5.367  1.2818  0.3841  1.7877
 7252SOL     OW33391   1.228   1.272  13.848 -0.6536 -0.5298  0.1530
 7252SOL    HW133392   1.309   1.231  13.819  0.4740  0.5544  1.7976
 7252SOL    HW233393   1.261   1.335  13.912 -0.2030 -1.7547  1.1193
 7253SOL     OW33394   4.468   0.224  17.654  0.2361 -0.6785 -0.2926
 7253SOL    HW133395   4.538   0.275  17.696 -2.1294  3.2602 -1.1526
 7253SOL    HW233396   4.394   0.284  17.643  1.0569  0.4098  0.1544
 7254SOL     OW33397   3.876   0.548  16.167  0.0593 -0.2057 -0.6425
 7254SOL    HW133398   3.935   0.602  16.220  1.1894  0.0861 -2.2005
 7254SOL    HW233399   3.808   0.615  16.157 -1.7983 -2.1130 -0.6839
 7255SOL     OW33400   2.210   2.637   2.776  0.6432 -0.5194  0.0219
 7255SOL    HW133401   2.247   2.683   2.851  2.1775 -2.0641  0.2144
 7255SOL    HW233402   2.225   2.545   2.798  2.1562 -0.0304  1.0228
 7256SOL     OW33403   1.088   3.593  15.554 -0.0081 -0.1825  0.6676
 7256SOL    HW133404   1.066   3.521  15.496  0.6201 -1.0045  1.4450
 7256SOL    HW233405   1.002   3.630  15.572 -0.5791 -0.3502 -1.7317
 7257SOL     OW33406   3.688   2.988   4.023  0.1476 -0.5492  0.3829
 7257SOL    HW133407   3.695   3.067   4.077 -0.2936 -2.4156  3.2062
 7257SOL    HW233408   3.595   2.988   4.001  0.1818  0.2545  0.2701
 7258SOL     OW33409   4.652   0.842   6.697 -0.0444  0.7016  0.0210
 7258SOL    HW133410   4.560   0.815   6.688 -0.7844  2.7006  1.7962
 7258SOL    HW233411   4.642   0.931   6.729 -0.8202  1.1309 -1.4423
 7259SOL     OW33412   0.157   1.699   0.031  0.2680  0.6569 -0.5435
 7259SOL    HW133413   0.079   1.713   0.085 -0.5053 -0.6990 -1.3104
 7259SOL    HW233414   0.209   1.640   0.085 -0.1214 -0.0292 -0.9123
 7260SOL     OW33415   1.604   3.529   6.189  0.2836 -0.5163 -0.1403
 7260SOL    HW133416   1.658   3.590   6.240 -1.1055 -0.1727  0.9530
 7260SOL    HW233417   1.658   3.451   6.193 -1.3955 -1.6896 -0.1802
 7261SOL     OW33418   2.229   0.952  16.396  0.6915  0.3500 -0.7907
 7261SOL    HW133419   2.169   0.987  16.462 -1.1657 -1.5271 -1.4709
 7261SOL    HW233420   2.207   0.999  16.316 -0.0361  1.0373 -0.1825
 7262SOL     OW33421   1.371   1.320  11.097  0.0887 -0.4966  0.0053
 7262SOL    HW133422   1.278   1.299  11.108  0.0592  0.2535  1.2187
 7262SOL    HW233423   1.373   1.384  11.168 -3.2552  0.1287 -0.4235
 7263SOL     OW33424   4.706   1.502  13.812 -0.5620 -0.0118  0.0372
 7263SOL    HW133425   4.688   1.583  13.766  1.1419  1.0067  1.1685
 7263SOL    HW233426   4.618   1.465  13.823 -0.4776 -0.6178 -1.3104
 7264SOL     OW33427   0.739   2.398   8.756 -0.1986  0.6136 -0.3047
 7264SOL    HW133428   0.804   2.359   8.815  0.5492  0.9764 -0.8856
 7264SOL    HW233429   0.665   2.343   8.782 -2.7741  2.6818 -3.2783
 7265SOL     OW33430   2.341   2.466   4.744 -0.3337  0.1023  0.3262
 7265SOL    HW133431   2.246   2.466   4.759 -0.2000  0.3797  1.1721
 7265SOL    HW233432   2.352   2.546   4.796 -0.8904  1.0070 -0.9210
 7266SOL     OW33433   0.338   4.028   1.703  0.2919  0.1375 -0.1378
 7266SOL    HW133434   0.368   4.101   1.757 -2.8592 -0.4582  2.4247
 7266SOL    HW233435   0.423   3.987   1.683  0.6589  0.5385  0.6038
 7267SOL     OW33436   0.765   1.038   9.433  0.7232  0.3710  0.0035
 7267SOL    HW133437   0.709   1.114   9.413 -0.3071 -0.6289 -0.9054
 7267SOL    HW233438   0.748   0.989   9.353 -1.2115  1.5267 -0.2999
 7268SOL     OW33439   1.601   0.573   1.511 -0.0316 -0.4309 -0.5653
 7268SOL    HW133440   1.534   0.532   1.456  1.5276  1.0209 -3.5530
 7268SOL    HW233441   1.679   0.573   1.456 -2.2009 -2.0172 -3.6612
 7269SOL     OW33442   4.285   3.136   6.488  0.1495 -0.2672  0.8362
 7269SOL    HW133443   4.346   3.145   6.415  0.4245 -0.0093  1.0993
 7269SOL    HW233444   4.274   3.227   6.514  0.3152 -0.4503  1.5721
 7270SOL     OW33445   2.133   2.962  15.344  0.3455 -0.4141 -0.0988
 7270SOL    HW133446   2.145   3.056  15.328  0.3159 -0.2874  0.6412
 7270SOL    HW233447   2.048   2.954  15.300 -0.9799  0.7978  2.2357
 7271SOL     OW33448   4.191   1.670  11.766  0.5873 -0.3705  0.3943
 7271SOL    HW133449   4.204   1.576  11.753  0.2786 -0.3323 -0.1857
 7271SOL    HW233450   4.146   1.693  11.685  1.8670 -1.3990 -0.6065
 7272SOL     OW33451   0.957   3.144   2.334 -0.3294  0.0910  0.6670
 7272SOL    HW133452   0.981   3.236   2.339 -0.0403  0.1346 -1.3685
 7272SOL    HW233453   0.977   3.104   2.419 -0.3657  1.3625  1.2655
 7273SOL     OW33454   2.796   1.899   0.497 -0.1061  0.2359  0.1370
 7273SOL    HW133455   2.879   1.931   0.533  0.0031  1.1649 -0.9465
 7273SOL    HW233456   2.822   1.886   0.406 -1.5109 -2.4142  0.1140
 7274SOL     OW33457   2.691   0.147   3.617  0.2020 -0.5097 -0.0578
 7274SOL    HW133458   2.702   0.082   3.547  0.9229  1.6435 -1.9339
 7274SOL    HW233459   2.754   0.122   3.684  0.2276  0.1238  0.1549
 7275SOL     OW33460   0.828   4.414   0.076  0.7564  0.3560 -0.3165
 7275SOL    HW133461   0.846   4.469   0.152  0.0846 -0.3146  0.3167
 7275SOL    HW233462   0.744   4.451   0.048  1.1371 -0.3908 -2.4273
 7276SOL     OW33463   1.117   1.776   7.613 -0.2987  0.4570 -0.2365
 7276SOL    HW133464   1.135   1.869   7.628 -0.8207  0.3209  1.3314
 7276SOL    HW233465   1.117   1.778   7.518  1.6943  1.6074 -0.2205
 7277SOL     OW33466   0.952   4.149   7.604 -0.1733  0.0616 -0.1538
 7277SOL    HW133467   0.903   4.089   7.548 -0.1971 -0.4155  0.3804
 7277SOL    HW233468   0.910   4.232   7.583  0.3988  0.2582 -0.5191
 7278SOL     OW33469   0.126   2.576  15.113 -0.2278  0.7231 -0.6943
 7278SOL    HW133470   0.104   2.647  15.173  1.4547  0.1214  0.6196
 7278SOL    HW233471   0.055   2.579  15.048 -0.7418 -0.8137 -0.1935
 7279SOL     OW33472   2.874   0.189   2.654 -0.0188  0.3048 -0.8111
 7279SOL    HW133473   2.834   0.107   2.684  0.3968  0.9918  1.6061
 7279SOL    HW233474   2.795   0.241   2.635 -0.1985  0.3020 -0.0565
 7280SOL     OW33475   2.150   0.775   9.994  0.0514 -0.1225 -0.4588
 7280SOL    HW133476   2.074   0.744  10.042  0.0533  1.2503  0.4312
 7280SOL    HW233477   2.208   0.784  10.070 -0.3094  0.9845 -0.3048
 7281SOL     OW33478   1.542   1.767   2.460  0.3054  0.1826 -0.0383
 7281SOL    HW133479   1.612   1.786   2.523 -0.1229  2.8287 -0.3532
 7281SOL    HW233480   1.581   1.714   2.390  0.6320  1.0467 -0.5118
 7282SOL     OW33481   4.509   3.603   5.306  0.1465  0.0525  0.0798
 7282SOL    HW133482   4.586   3.553   5.282  0.2239 -0.0143  0.4695
 7282SOL    HW233483   4.478   3.554   5.382  0.1380  0.9916  0.6931
 7283SOL     OW33484   3.579   0.051   7.650  0.4743  0.6958 -0.3565
 7283SOL    HW133485   3.612   4.736   7.579  1.0679  0.9891 -0.3076
 7283SOL    HW233486   3.654   0.050   7.709  0.5823 -0.7466 -0.5338
 7284SOL     OW33487   2.767   2.217   4.168  0.6290 -0.3932 -0.3410
 7284SOL    HW133488   2.739   2.176   4.086 -0.3599 -1.1110  0.3629
 7284SOL    HW233489   2.835   2.276   4.135  1.0340 -0.5537  0.2053
 7285SOL     OW33490   1.194   3.061   7.343 -0.4406  0.2932  0.2030
 7285SOL    HW133491   1.151   3.042   7.260 -1.6968  1.5960  0.5649
 7285SOL    HW233492   1.262   2.993   7.341 -0.3485  0.3128  2.0497
 7286SOL     OW33493   2.151   2.612   3.912  0.2097  0.1108  0.2971
 7286SOL    HW133494   2.060   2.606   3.942  0.2449 -1.3823  0.0870
 7286SOL    HW233495   2.195   2.560   3.979  0.3170 -1.1926 -0.7995
 7287SOL     OW33496   3.807   4.416   8.526  0.6532 -0.3521  0.3566
 7287SOL    HW133497   3.737   4.442   8.585  0.3300  2.2408 -1.1627
 7287SOL    HW233498   3.825   4.503   8.490 -1.2127 -0.2822 -0.3579
 7288SOL     OW33499   1.756   1.313  10.693  0.4267  0.3134  0.0325
 7288SOL    HW133500   1.676   1.263  10.710 -0.2488  2.3251  2.6574
 7288SOL    HW233501   1.817   1.247  10.726  0.2381 -0.2231 -0.6825
 7289SOL     OW33502   3.138   2.226  16.441 -0.1962 -0.1551 -0.3802
 7289SOL    HW133503   3.153   2.166  16.368  0.3876 -0.9067  0.3546
 7289SOL    HW233504   3.066   2.263  16.390 -1.0645 -0.9628  0.2607
 7290SOL     OW33505   4.495   0.766  12.374 -0.1964 -0.4289  0.1422
 7290SOL    HW133506   4.495   0.794  12.466 -0.4485  2.3083 -0.7071
 7290SOL    HW233507   4.434   0.694  12.390  0.1926 -0.2834  2.3499
 7291SOL     OW33508   2.089   2.990   4.600 -0.4982  0.1487 -0.2198
 7291SOL    HW133509   2.098   2.926   4.670 -1.3727  0.0830 -0.1688
 7291SOL    HW233510   1.997   2.982   4.575 -0.8730 -1.0053  1.5809
 7292SOL     OW33511   4.475   4.552   7.262  0.3917  0.2724 -0.3988
 7292SOL    HW133512   4.471   4.634   7.311 -0.4250  0.1282 -0.2236
 7292SOL    HW233513   4.458   4.482   7.325  1.3960 -0.1749 -0.6266
 7293SOL     OW33514   2.276   0.887   3.052 -0.3814  0.3570 -0.2757
 7293SOL    HW133515   2.306   0.877   2.962  0.5194 -0.5833  0.1249
 7293SOL    HW233516   2.286   0.980   3.033  1.4506  0.6208  2.0059
 7294SOL     OW33517   0.931   0.589   1.825  0.2189 -0.2397 -0.0060
 7294SOL    HW133518   0.912   0.612   1.734  1.0690 -0.4040 -0.2326
 7294SOL    HW233519   1.027   0.579   1.822  0.3270  0.4546  1.1872
 7295SOL     OW33520   3.042   4.563   5.031  0.4490 -0.0347 -0.9297
 7295SOL    HW133521   3.098   4.545   5.106 -1.3901 -1.5299  0.0973
 7295SOL    HW233522   3.023   4.657   5.040 -0.3637 -0.4061  1.2786
 7296SOL     OW33523   1.419   2.709   4.469 -0.2972 -0.1448 -0.4569
 7296SOL    HW133524   1.342   2.681   4.519 -0.7624 -0.4147 -1.3205
 7296SOL    HW233525   1.440   2.788   4.518  2.1552 -1.0254 -0.1064
 7297SOL     OW33526   3.275   2.998   2.696 -0.1669  0.0948 -0.6871
 7297SOL    HW133527   3.264   2.912   2.736 -1.0461  0.4488 -0.1657
 7297SOL    HW233528   3.310   2.971   2.611 -2.2078 -3.9368 -0.2190
 7298SOL     OW33529   1.050   2.371   6.728 -0.0725  0.2917 -0.0280
 7298SOL    HW133530   1.045   2.302   6.794  1.1931 -0.1018 -0.3343
 7298SOL    HW233531   0.996   2.337   6.656  1.6366 -0.1016 -1.1296
 7299SOL     OW33532   0.942   3.441  13.383 -0.4064 -0.0865  0.1830
 7299SOL    HW133533   0.848   3.457  13.388 -0.6521 -1.3419 -0.4653
 7299SOL    HW233534   0.951   3.395  13.466 -1.4888 -0.6349 -0.0109
 7300SOL     OW33535   0.113   1.720  14.975 -0.6304 -0.4568  0.9592
 7300SOL    HW133536   0.064   1.702  14.894 -0.3556  0.7889  0.5183
 7300SOL    HW233537   0.173   1.790  14.948 -2.0980  0.6822  0.6048
 7301SOL     OW33538   1.765   0.864   8.275  0.3046  1.0726  0.2345
 7301SOL    HW133539   1.674   0.893   8.279 -0.4052 -0.9855 -0.7964
 7301SOL    HW233540   1.822   0.935   8.244 -0.7998  1.7696 -0.2150
 7302SOL     OW33541   4.469   2.813   3.201 -0.1335 -0.2211 -0.1411
 7302SOL    HW133542   4.544   2.759   3.177 -1.4666 -2.2022  0.1207
 7302SOL    HW233543   4.452   2.769   3.284  1.7352  0.9194  0.8199
 7303SOL     OW33544   2.537   2.571   4.533  0.3578  0.2523 -0.0294
 7303SOL    HW133545   2.615   2.516   4.541 -1.1114 -1.9383 -0.7345
 7303SOL    HW233546   2.459   2.541   4.579 -0.1851  5.3732  2.3690
 7304SOL     OW33547   0.205   4.275   9.288  0.6277 -0.3484  0.5389
 7304SOL    HW133548   0.221   4.323   9.207  2.4540 -0.1343  1.0129
 7304SOL    HW233549   0.211   4.351   9.345  1.6538  0.8580 -1.1578
 7305SOL     OW33550   3.563   1.151   4.931  0.4362 -0.1194 -0.7747
 7305SOL    HW133551   3.534   1.192   5.013 -2.2018 -2.1877 -0.6656
 7305SOL    HW233552   3.648   1.190   4.912  0.8061  0.3739  1.9519
 7306SOL     OW33553   1.385   0.891   5.026  0.2432 -0.1953 -0.4533
 7306SOL    HW133554   1.309   0.936   4.989 -0.2653 -0.2859  0.4760
 7306SOL    HW233555   1.442   0.958   5.062 -0.5823  0.2723 -0.0205
 7307SOL     OW33556   3.974   4.132  15.129  0.2078 -0.3160  0.0325
 7307SOL    HW133557   4.057   4.179  15.122  0.2292 -0.2031  1.1076
 7307SOL    HW233558   3.987   4.079  15.051  0.7237 -1.0610  0.6400
 7308SOL     OW33559   1.884   3.650   1.921  0.0672  0.0955 -0.2170
 7308SOL    HW133560   1.848   3.580   1.867 -1.5776 -0.2464  1.3232
 7308SOL    HW233561   1.978   3.638   1.906  0.2299  1.4362 -0.3314
 7309SOL     OW33562   2.614   1.385   2.046 -0.6035  0.0624  0.8437
 7309SOL    HW133563   2.566   1.455   2.001 -0.5495 -0.8209 -0.6191
 7309SOL    HW233564   2.598   1.409   2.137 -3.0163 -0.1386  0.4656
 7310SOL     OW33565   3.552   3.703   2.370 -0.2706 -0.4551 -0.8923
 7310SOL    HW133566   3.529   3.636   2.306 -0.7398 -0.1111 -1.0853
 7310SOL    HW233567   3.463   3.731   2.393  0.1777 -0.0189  0.3491
 7311SOL     OW33568   3.247   2.677   4.060  0.5536  0.5603  0.2115
 7311SOL    HW133569   3.229   2.712   4.148 -1.9393  0.5455 -0.2963
 7311SOL    HW233570   3.296   2.601   4.093  1.4211  0.6229 -0.9646
 7312SOL     OW33571   4.017   4.255   1.293  0.0700  0.1937 -0.1274
 7312SOL    HW133572   4.044   4.200   1.367 -2.1515 -2.3471 -1.2028
 7312SOL    HW233573   3.980   4.331   1.338  1.4407  1.6846 -1.5374
 7313SOL     OW33574   4.729   2.797  15.272 -0.1052 -0.3017 -0.0139
 7313SOL    HW133575   4.686   2.789  15.358  1.2627 -2.7325  0.4479
 7313SOL    HW233576   4.654   2.761  15.226  0.2722 -0.6051 -0.3908
 7314SOL     OW33577   2.940   1.196   5.865  0.3165  0.3988  0.0403
 7314SOL    HW133578   3.020   1.221   5.912 -1.3800  1.0984  2.5293
 7314SOL    HW233579   2.874   1.191   5.933  0.1854  0.6393 -0.0676
 7315SOL     OW33580   4.571   4.318  11.640  0.0160 -0.1033  0.2841
 7315SOL    HW133581   4.661   4.287  11.628  0.8744  2.2112  0.7821
 7315SOL    HW233582   4.589   4.393  11.696 -3.3574  1.9467 -1.4180
 7316SOL     OW33583   4.372   4.567   4.706 -0.6969  0.1161 -0.0865
 7316SOL    HW133584   4.415   4.550   4.623 -1.8673  0.8225 -0.8454
 7316SOL    HW233585   4.295   4.511   4.706 -0.5430 -0.0956  1.8427
 7317SOL     OW33586   4.694   0.896   5.222  0.2495  0.0153 -0.3208
 7317SOL    HW133587   0.028   0.883   5.283 -0.3644 -0.3152  0.3436
 7317SOL    HW233588   4.656   0.808   5.226 -1.1946  0.7040  0.7780
 7318SOL     OW33589   0.808   2.275  10.929  0.6068 -0.8379 -0.4660
 7318SOL    HW133590   0.712   2.275  10.924  0.5907  2.0019 -0.2385
 7318SOL    HW233591   0.831   2.296  10.838  0.4801 -0.6098 -0.4446
 7319SOL     OW33592   0.488   3.319   4.452  0.2431  0.1754  0.3173
 7319SOL    HW133593   0.518   3.366   4.375 -0.6215  1.1401  0.5717
 7319SOL    HW233594   0.397   3.317   4.422 -0.0244 -0.3979  1.1342
 7320SOL     OW33595   2.356   0.856   2.818 -0.4586 -0.6450 -0.2018
 7320SOL    HW133596   2.391   0.912   2.748  0.4866 -0.9285  0.0428
 7320SOL    HW233597   2.435   0.802   2.826 -0.0525  0.1848  1.2797
 7321SOL     OW33598   0.528   4.343   7.356 -0.3411 -0.3066  0.3875
 7321SOL    HW133599   0.480   4.422   7.379 -1.0406 -0.2502 -1.2377
 7321SOL    HW233600   0.460   4.297   7.307 -0.0930  0.3156 -0.5355
 7322SOL     OW33601   3.775   3.838   7.492  0.1508 -0.1628  0.0740
 7322SOL    HW133602   3.773   3.866   7.584 -1.3105  1.3945 -0.4362
 7322SOL    HW233603   3.838   3.898   7.452  0.2038 -0.0278  0.3585
 7323SOL     OW33604   3.688   1.007   2.579  0.0266 -0.1914  0.3845
 7323SOL    HW133605   3.726   1.035   2.663  1.4578  1.0463 -0.6818
 7323SOL    HW233606   3.748   0.938   2.549  2.0111  1.1003  1.3195
 7324SOL     OW33607   2.231   1.274  11.217  0.3931 -0.0743 -1.1701
 7324SOL    HW133608   2.243   1.369  11.223  2.2123 -0.3126 -1.0656
 7324SOL    HW233609   2.193   1.246  11.300 -0.7848  2.1526 -0.9697
 7325SOL     OW33610   2.611   3.079   5.926 -0.2958 -0.0536  0.1863
 7325SOL    HW133611   2.676   3.149   5.918  0.3164 -0.3871  2.1100
 7325SOL    HW233612   2.663   2.998   5.928  0.4407  0.4653  2.4148
 7326SOL     OW33613   0.207   1.217  15.180 -0.1950  0.5989  0.2187
 7326SOL    HW133614   0.182   1.125  15.179 -3.0567  1.3293  2.7898
 7326SOL    HW233615   0.285   1.204  15.234  0.6591 -0.5684 -1.3058
 7327SOL     OW33616   3.709   2.790   5.145 -0.2069 -0.5784 -0.2563
 7327SOL    HW133617   3.801   2.783   5.170 -0.5048 -2.4729  0.2734
 7327SOL    HW233618   3.680   2.707   5.108 -2.1026 -0.4464  0.9445
 7328SOL     OW33619   0.670   4.719   8.505  0.1358  0.1928  0.0081
 7328SOL    HW133620   0.639   4.633   8.479  0.4957  0.3173 -0.8505
 7328SOL    HW233621   0.615   4.726   8.583 -0.3832 -0.1803 -0.3303
 7329SOL     OW33622   3.609   0.160  17.493  0.6413 -0.0935  0.5072
 7329SOL    HW133623   3.551   0.175  17.567  0.6846  0.1066  0.4995
 7329SOL    HW233624   3.569   0.219  17.429  0.6421  0.3749  0.9357
 7330SOL     OW33625   2.350   4.601   6.938 -0.5407  0.2584  0.0237
 7330SOL    HW133626   2.412   4.532   6.914  1.3293  3.1961 -3.5590
 7330SOL    HW233627   2.302   4.554   7.007  0.4228 -0.3336  0.2910
 7331SOL     OW33628   2.464   0.361   2.073  0.4240  0.1325  0.0344
 7331SOL    HW133629   2.472   0.274   2.034  2.9617 -0.1671  1.1815
 7331SOL    HW233630   2.554   0.394   2.069  0.1135  0.9446 -0.3195
 7332SOL     OW33631   1.815   1.754   5.535  0.1467  0.1737 -0.4823
 7332SOL    HW133632   1.885   1.767   5.599 -1.1959  1.1856  0.7626
 7332SOL    HW233633   1.835   1.828   5.478 -0.7224 -1.7509 -3.2921
 7333SOL     OW33634   3.410   2.828   0.435 -0.0900 -0.2780  0.1601
 7333SOL    HW133635   3.396   2.899   0.373 -3.6284 -1.8276 -0.7989
 7333SOL    HW233636   3.479   2.864   0.491 -1.1397  1.0315  0.5952
 7334SOL     OW33637   4.725   1.497   9.259 -0.1563  0.1530  0.8992
 7334SOL    HW133638   4.714   1.402   9.265  2.7631 -0.2741 -0.5718
 7334SOL    HW233639   4.675   1.515   9.180 -0.2462 -1.4284  0.5929
 7335SOL     OW33640   1.273   1.338   6.706 -0.1047  0.5487 -0.4067
 7335SOL    HW133641   1.273   1.250   6.745 -1.5273  0.3369 -0.8991
 7335SOL    HW233642   1.181   1.340   6.678 -0.7471 -0.4589  1.6451
 7336SOL     OW33643   1.372   0.116   5.766 -0.0251 -0.0151  0.0760
 7336SOL    HW133644   1.407   0.125   5.855 -0.8568 -1.2550  0.5304
 7336SOL    HW233645   1.441   0.066   5.723 -0.7698 -2.1205  1.3502
 7337SOL     OW33646   3.929   1.658   6.496 -0.2467 -0.1516  0.0593
 7337SOL    HW133647   3.907   1.617   6.579  0.1783  0.0500  0.2691
 7337SOL    HW233648   3.868   1.608   6.441  0.6612 -0.1361 -0.9601
 7338SOL     OW33649   2.445   3.377  11.198  0.0337  0.7229  0.0866
 7338SOL    HW133650   2.411   3.465  11.215  0.1021  1.1068 -1.7750
 7338SOL    HW233651   2.500   3.384  11.120  0.9149  0.8635  0.7170
 7339SOL     OW33652   0.725   4.485   5.574 -0.0145  0.1806  0.1190
 7339SOL    HW133653   0.759   4.443   5.653 -1.7732 -2.8225 -0.7255
 7339SOL    HW233654   0.781   4.441   5.510 -1.0943  0.1912 -0.8263
 7340SOL     OW33655   3.648   1.658   4.130  0.3609 -0.2168  1.0916
 7340SOL    HW133656   3.584   1.718   4.092  0.9561 -0.8730 -0.9518
 7340SOL    HW233657   3.657   1.598   4.055 -0.9495  0.7857  0.1370
 7341SOL     OW33658   1.054   1.783   1.480 -0.0732  0.0194 -0.0126
 7341SOL    HW133659   1.111   1.722   1.526 -0.3126 -1.1461 -1.2650
 7341SOL    HW233660   1.009   1.725   1.419 -0.1398  0.5558 -0.4847
 7342SOL     OW33661   1.789   3.918  10.477 -0.3444 -0.4491  0.1652
 7342SOL    HW133662   1.820   3.971  10.550 -0.4370 -1.4909  0.9532
 7342SOL    HW233663   1.760   3.842  10.527 -1.6073 -1.1061 -1.5352
 7343SOL     OW33664   3.063   1.081   6.160 -0.1703 -0.6350 -0.6633
 7343SOL    HW133665   2.983   1.034   6.182  0.0280 -1.4927 -1.7444
 7343SOL    HW233666   3.037   1.165   6.121  2.8738  1.1677  1.1012
 7344SOL     OW33667   4.130   0.265   6.302 -0.3372 -0.3333  0.3519
 7344SOL    HW133668   4.190   0.194   6.278 -1.3826 -1.2521  0.5116
 7344SOL    HW233669   4.072   0.263   6.226  2.1326 -0.9020 -1.5170
 7345SOL     OW33670   3.856   4.189   4.941  0.1662  0.2366 -0.1085
 7345SOL    HW133671   3.904   4.107   4.954 -2.0685 -0.5484  3.3712
 7345SOL    HW233672   3.926   4.249   4.916 -2.1393  2.3406 -1.5732
 7346SOL     OW33673   3.429   1.498   5.175  0.0264 -0.1532  0.2991
 7346SOL    HW133674   3.391   1.523   5.091  1.2098 -0.2285 -0.2609
 7346SOL    HW233675   3.347   1.470   5.217  1.0063 -0.9032  1.7167
 7347SOL     OW33676   1.580   4.550   3.855 -0.4029 -1.0778 -0.8075
 7347SOL    HW133677   1.589   4.635   3.811  2.2233 -0.0137  1.7995
 7347SOL    HW233678   1.618   4.495   3.786  1.5408  1.2071 -1.5795
 7348SOL     OW33679   2.123   3.718   2.652  0.2276 -0.1073  0.2363
 7348SOL    HW133680   2.134   3.813   2.651 -1.1116  0.0820  3.2978
 7348SOL    HW233681   2.127   3.704   2.747 -0.5761  0.3031  0.3320
 7349SOL     OW33682   4.150   2.334   5.508 -0.2932 -0.0916  0.0585
 7349SOL    HW133683   4.057   2.325   5.490 -0.0297 -0.1453 -1.2764
 7349SOL    HW233684   4.190   2.315   5.423 -1.4930  1.1818 -0.7808
 7350SOL     OW33685   0.478   2.613   3.038  0.0119  0.2246  0.2236
 7350SOL    HW133686   0.560   2.641   3.079  0.8912 -0.0355 -1.3830
 7350SOL    HW233687   0.482   2.517   3.040  0.6210  0.1727 -3.7722
 7351SOL     OW33688   3.712   1.482   3.305  0.2116 -1.3910 -0.0207
 7351SOL    HW133689   3.768   1.422   3.256 -2.2163 -1.6616 -2.4180
 7351SOL    HW233690   3.711   1.447   3.394  0.4162  0.8335  0.8615
 7352SOL     OW33691   2.158   4.456  11.100 -0.1165 -0.2174  0.4115
 7352SOL    HW133692   2.221   4.426  11.165  1.5303  2.6454  0.1369
 7352SOL    HW233693   2.084   4.432  11.156  0.3115  0.9342  1.4657
 7353SOL     OW33694   2.880   2.525   1.532  0.0036  0.3899 -0.1552
 7353SOL    HW133695   2.910   2.464   1.600  0.4571  0.0427 -0.6637
 7353SOL    HW233696   2.793   2.487   1.520  0.7370 -0.7388 -1.9156
 7354SOL     OW33697   3.676   2.437   6.117  0.0316 -0.0848 -0.4615
 7354SOL    HW133698   3.616   2.382   6.168 -0.2421  3.3750  2.9365
 7354SOL    HW233699   3.619   2.507   6.084 -0.8368  1.0048  3.3923
 7355SOL     OW33700   3.894   3.990  17.036  0.1057  0.0147 -0.1073
 7355SOL    HW133701   3.959   4.043  16.989 -1.0334  2.1009  0.6271
 7355SOL    HW233702   3.816   4.031  16.997 -0.4027  1.5647  2.5138
 7356SOL     OW33703   1.886   3.926   7.912 -0.3351  0.3244  0.0075
 7356SOL    HW133704   1.798   3.892   7.894  0.0798 -0.8256  0.1855
 7356SOL    HW233705   1.875   4.010   7.958 -0.9660  0.1992  0.0837
 7357SOL     OW33706   2.130   2.801   4.315  0.4951 -0.3204  0.4414
 7357SOL    HW133707   2.108   2.859   4.242 -0.0122 -1.2226 -0.1259
 7357SOL    HW233708   2.222   2.818   4.332  0.1485  1.7464  0.2189
 7358SOL     OW33709   3.392   2.747   9.173 -0.6707 -0.0174  0.3240
 7358SOL    HW133710   3.422   2.814   9.111  0.5737 -1.0925 -0.2626
 7358SOL    HW233711   3.452   2.756   9.247 -1.9803 -0.3696  1.4346
 7359SOL     OW33712   3.416   2.351  14.584 -0.2225  0.5875  0.2442
 7359SOL    HW133713   3.460   2.286  14.530 -1.2353 -0.1878  0.3521
 7359SOL    HW233714   3.499   2.380  14.622  0.4050 -1.2158  0.2338
 7360SOL     OW33715   0.197   3.067   7.275  0.1780  0.6054  0.1472
 7360SOL    HW133716   0.209   2.987   7.327 -0.2892  0.9463  0.7784
 7360SOL    HW233717   0.109   3.091   7.304 -0.7615 -0.8970 -1.4401
 7361SOL     OW33718   4.026   2.878   5.152 -0.2285 -0.2726 -0.0660
 7361SOL    HW133719   3.991   2.936   5.220 -2.4976 -1.1981 -0.4164
 7361SOL    HW233720   3.996   2.921   5.072  0.0977 -2.2269 -1.2491
 7362SOL     OW33721   4.547   3.772   7.923  0.0452  0.3669 -0.1851
 7362SOL    HW133722   4.578   3.859   7.949 -1.2478  1.1049 -1.0974
 7362SOL    HW233723   4.460   3.792   7.889 -0.0810  2.2907  1.2497
 7363SOL     OW33724   0.883   2.431  15.267 -0.3765 -0.1551  0.0053
 7363SOL    HW133725   0.968   2.428  15.311 -1.5798  2.2092  2.4929
 7363SOL    HW233726   0.823   2.404  15.337 -0.8342 -0.1191 -0.3738
 7364SOL     OW33727   2.700   0.898   3.198 -0.0509 -0.3351 -0.3364
 7364SOL    HW133728   2.720   0.974   3.144  2.2649 -0.9006 -0.2513
 7364SOL    HW233729   2.778   0.891   3.253  0.9210  0.4469 -1.6306
 7365SOL     OW33730   3.937   2.656  15.560 -0.0550  0.4151 -0.1732
 7365SOL    HW133731   3.911   2.747  15.572  0.6620  0.4151  1.4778
 7365SOL    HW233732   3.980   2.642  15.645  0.5484  0.1261 -0.5277
 7366SOL     OW33733   0.489   4.571   5.623  0.4139  0.0584  0.2051
 7366SOL    HW133734   0.580   4.542   5.628  1.3845  3.0572 -0.0065
 7366SOL    HW233735   0.435   4.508   5.575  0.0665  0.2500  0.3437
 7367SOL     OW33736   0.111   0.784   8.611  0.3741 -0.1128 -0.0920
 7367SOL    HW133737   0.141   0.866   8.652 -1.2420  1.3986 -1.9806
 7367SOL    HW233738   0.035   0.767   8.667  1.3762 -1.0330  0.9858
 7368SOL     OW33739   1.252   1.701  13.228  0.0105  0.0042 -0.0186
 7368SOL    HW133740   1.169   1.672  13.192 -0.9373  2.9047 -0.1425
 7368SOL    HW233741   1.224   1.791  13.242  0.7511  0.3771 -0.9061
 7369SOL     OW33742   2.100   0.005   2.388 -0.4741 -0.2793  0.1615
 7369SOL    HW133743   2.130   0.073   2.328 -2.0752  0.0038 -0.3197
 7369SOL    HW233744   2.162   0.030   2.457 -1.4304  0.7415  0.6540
 7370SOL     OW33745   0.188   0.168   5.037 -0.1172 -0.0719 -0.3462
 7370SOL    HW133746   0.247   0.214   4.977  0.2661 -2.0855 -1.5146
 7370SOL    HW233747   0.167   0.090   4.986 -0.7355  0.5417 -1.0373
 7371SOL     OW33748   0.413   0.502   5.397  0.8351  0.2878  0.0757
 7371SOL    HW133749   0.457   0.427   5.356  0.9452 -0.1857  1.0590
 7371SOL    HW233750   0.366   0.456   5.466  0.9447 -0.5293 -0.3925
 7372SOL     OW33751   3.762   0.433   8.485  0.3730  0.2112  0.0461
 7372SOL    HW133752   3.772   0.484   8.404  0.6902 -0.7876 -0.5324
 7372SOL    HW233753   3.720   0.507   8.530  3.0168  1.5025  0.3860
 7373SOL     OW33754   3.507   0.110  16.315  0.3130  0.2420 -0.0587
 7373SOL    HW133755   3.470   0.195  16.339 -1.9112 -0.7138 -0.1142
 7373SOL    HW233756   3.573   0.143  16.254  1.5974 -1.1470  0.5666
 7374SOL     OW33757   4.057   2.603  15.818  0.0656  1.0316  0.2054
 7374SOL    HW133758   4.045   2.587  15.911 -0.1458 -1.0720 -0.1780
 7374SOL    HW233759   4.050   2.514  15.782  3.3295  0.0361  2.0012
 7375SOL     OW33760   2.029   1.168   3.975  0.6853  0.9691 -0.5211
 7375SOL    HW133761   2.047   1.119   3.895 -0.6959  3.0953 -2.1506
 7375SOL    HW233762   2.033   1.098   4.040 -0.3132 -1.0162 -2.5998
 7376SOL     OW33763   3.604   0.473   5.189 -0.0534  0.2190 -0.0550
 7376SOL    HW133764   3.630   0.409   5.256 -0.0511 -0.6954 -0.9269
 7376SOL    HW233765   3.686   0.521   5.202  0.9220 -0.8552 -2.2173
 7377SOL     OW33766   2.790   3.753  17.699  0.1441  0.4473 -0.1244
 7377SOL    HW133767   2.727   3.801  17.752 -1.3901 -0.2267 -1.3614
 7377SOL    HW233768   2.780   3.666  17.736  0.6882  0.0669 -0.8581
 7378SOL     OW33769   1.404   1.025   1.781  0.1149  0.0442  0.3144
 7378SOL    HW133770   1.356   1.006   1.700  0.3522  0.5348  0.0548
 7378SOL    HW233771   1.415   0.934   1.810  1.9602 -0.4137 -1.8134
 7379SOL     OW33772   2.345   2.566  15.582 -0.3185  0.0654 -0.2494
 7379SOL    HW133773   2.345   2.524  15.496 -1.3743 -1.5277  0.5358
 7379SOL    HW233774   2.438   2.556  15.604  0.0805 -0.9316 -2.4255
 7380SOL     OW33775   3.869   1.746   5.750 -0.0064  0.1461 -0.1131
 7380SOL    HW133776   3.836   1.781   5.833  0.9261  0.1655  0.2514
 7380SOL    HW233777   3.963   1.761   5.749  0.1997 -0.7996  5.0006
 7381SOL     OW33778   3.076   1.881   3.429  0.2751 -0.0588  0.0100
 7381SOL    HW133779   3.028   1.954   3.466 -0.2616 -0.8420  0.8606
 7381SOL    HW233780   3.150   1.936   3.404 -0.2712  0.7364  0.1448
 7382SOL     OW33781   0.766   1.787   7.248 -0.0533  0.1320  0.0209
 7382SOL    HW133782   0.793   1.719   7.310 -0.8299  0.4808  0.7471
 7382SOL    HW233783   0.740   1.858   7.306  0.1515 -0.0468  0.3291
 7383SOL     OW33784   0.017   2.616   1.059 -0.0781  0.2477 -0.0789
 7383SOL    HW133785   0.011   2.537   1.113 -0.5252 -0.2136 -0.7996
 7383SOL    HW233786   4.714   2.591   0.977  0.6298  0.7495 -0.5961
 7384SOL     OW33787   0.068   1.084   7.586  0.8265  0.5609 -0.0627
 7384SOL    HW133788   4.738   1.019   7.582  2.5774 -1.2776 -0.4730
 7384SOL    HW233789   0.053   1.136   7.506  1.4924 -0.5366 -0.8916
 7385SOL     OW33790   0.030   3.391  11.709  0.0914 -0.0280  0.3346
 7385SOL    HW133791   4.723   3.451  11.652  1.8568 -0.3274 -1.4020
 7385SOL    HW233792   0.085   3.345  11.646  1.9499  1.9504  0.5296
 7386SOL     OW33793   0.625   0.533   7.510 -0.1292  0.2288  0.6095
 7386SOL    HW133794   0.578   0.477   7.448  1.1029 -1.8755  1.5524
 7386SOL    HW233795   0.711   0.491   7.508 -2.3055 -4.0738 -2.0941
 7387SOL     OW33796   1.197   2.817  10.652  0.0795  0.1179  0.5324
 7387SOL    HW133797   1.134   2.846  10.587 -0.5744 -1.6795  0.3645
 7387SOL    HW233798   1.230   2.905  10.671  3.0288 -0.8834  0.0810
 7388SOL     OW33799   3.342   4.400  17.748 -0.0947 -0.1915 -0.1132
 7388SOL    HW133800   3.435   4.386   0.008 -0.2535 -1.2092 -0.0931
 7388SOL    HW233801   3.340   4.358  17.662 -2.5233 -3.2287  1.3907
 7389SOL     OW33802   0.580   1.086   3.087 -0.0423 -0.0826  0.0266
 7389SOL    HW133803   0.504   1.144   3.095 -0.0090 -0.0796  0.3088
 7389SOL    HW233804   0.628   1.119   3.010  0.5749 -0.1179  0.3958
 7390SOL     OW33805   2.960   0.175  17.736  0.4588  0.2727 -0.2348
 7390SOL    HW133806   2.950   0.111  17.665 -1.0886  0.7410 -0.4440
 7390SOL    HW233807   2.914   0.252  17.703 -0.2833 -0.5778 -1.2139
 7391SOL     OW33808   4.022   3.638   9.334  0.0207 -0.3811 -0.1602
 7391SOL    HW133809   3.953   3.650   9.268  1.7511 -0.3560 -1.9753
 7391SOL    HW233810   4.071   3.568   9.292 -0.4254 -0.6954 -0.1535
 7392SOL     OW33811   1.122   2.357   6.211  0.1222  0.2938 -0.7184
 7392SOL    HW133812   1.198   2.415   6.215  0.5265 -0.3070  0.3542
 7392SOL    HW233813   1.130   2.317   6.124  1.0650 -0.2351 -0.3926
 7393SOL     OW33814   1.558   2.369   7.831  0.0068 -0.6060  0.2289
 7393SOL    HW133815   1.596   2.351   7.917 -1.4167 -1.7383  0.6286
 7393SOL    HW233816   1.548   2.282   7.791  0.0913 -0.5212  0.0259
 7394SOL     OW33817   0.485   2.289   9.720  0.2358 -0.3800  0.1991
 7394SOL    HW133818   0.558   2.305   9.780  0.3963  1.2396 -0.4414
 7394SOL    HW233819   0.429   2.227   9.767  1.7799 -2.9077 -1.2558
 7395SOL     OW33820   4.041   4.211  10.560 -0.6535 -0.0968  0.6383
 7395SOL    HW133821   4.059   4.220  10.654 -0.7603 -1.7981  0.8295
 7395SOL    HW233822   4.119   4.254  10.524  0.5023 -1.1433  1.8448
 7396SOL     OW33823   2.024   4.534  15.142  0.6346  0.3140 -0.0753
 7396SOL    HW133824   2.026   4.611  15.085 -3.8806  1.7157  1.7294
 7396SOL    HW233825   2.119   4.527  15.149  0.6592 -0.6548 -1.3144
 7397SOL     OW33826   0.119   0.019   7.124  0.1136 -0.0671 -0.2905
 7397SOL    HW133827   0.058   4.691   7.095 -1.3297  0.8510  0.5934
 7397SOL    HW233828   0.210   4.732   7.109  0.5485  1.5079 -0.5129
 7398SOL     OW33829   2.549   1.941   7.145  0.0930 -0.2244 -0.6208
 7398SOL    HW133830   2.547   2.027   7.187  1.6875 -0.5347  0.1010
 7398SOL    HW233831   2.633   1.908   7.178  0.8113  0.3655 -1.8721
 7399SOL     OW33832   1.826   2.521  12.832 -0.0731 -0.6155 -0.2502
 7399SOL    HW133833   1.859   2.545  12.919 -2.4009 -1.0248  0.7464
 7399SOL    HW233834   1.776   2.443  12.857  1.4951 -0.9716  1.7637
 7400SOL     OW33835   4.273   1.535   7.178  0.3558 -0.1893 -0.1493
 7400SOL    HW133836   4.259   1.481   7.256  1.7610 -1.7901 -0.9833
 7400SOL    HW233837   4.250   1.616   7.222  0.3373 -0.2229 -0.0974
 7401SOL     OW33838   3.600   1.663   7.140  0.3638 -0.9660 -0.0777
 7401SOL    HW133839   3.538   1.591   7.154  0.2839 -0.8916 -0.0472
 7401SOL    HW233840   3.632   1.652   7.050  1.1777  1.1965 -0.0409
 7402SOL     OW33841   4.008   3.785   8.495 -0.3476 -0.2296  0.1984
 7402SOL    HW133842   4.004   3.880   8.490 -2.5150 -0.3103  0.4466
 7402SOL    HW233843   3.982   3.777   8.587 -0.3597 -2.8548 -0.0270
 7403SOL     OW33844   3.734   3.788   4.353 -0.6443  0.3935 -0.3333
 7403SOL    HW133845   3.803   3.722   4.346  0.5950  1.7439 -0.7720
 7403SOL    HW233846   3.757   3.820   4.440  0.3962 -0.8053 -0.1611
 7404SOL     OW33847   2.637   0.211  16.621 -0.0026 -0.1630 -0.1057
 7404SOL    HW133848   2.697   0.137  16.632 -2.3283 -2.3182 -2.3720
 7404SOL    HW233849   2.558   0.161  16.604  0.0472 -0.1659 -0.3321
 7405SOL     OW33850   3.941   3.983   8.080 -0.4703  0.1932 -0.5792
 7405SOL    HW133851   3.903   3.933   8.153  0.4383 -0.4614 -0.5513
 7405SOL    HW233852   3.858   4.013   8.042 -1.1360  0.7195  1.3068
 7406SOL     OW33853   2.381   4.665  15.218  0.3558 -0.7001 -0.1459
 7406SOL    HW133854   2.308   4.725  15.210  1.5487  1.0978  2.4571
 7406SOL    HW233855   2.371   4.637  15.309 -1.3158  1.2781  0.2666
 7407SOL     OW33856   3.811   4.240  10.187  0.3499 -0.2093  0.5406
 7407SOL    HW133857   3.741   4.209  10.244 -0.4136  0.2726 -0.1321
 7407SOL    HW233858   3.758   4.288  10.123  0.8928  1.3092  1.2379
 7408SOL     OW33859   4.347   0.079  13.203 -0.1504 -0.0317 -0.4439
 7408SOL    HW133860   4.409   0.014  13.172 -1.9383 -2.9383  2.1473
 7408SOL    HW233861   4.402   0.158  13.205  0.0627 -0.1648 -1.1405
 7409SOL     OW33862   3.238   3.703  13.695 -0.0784  0.3027 -0.1140
 7409SOL    HW133863   3.255   3.610  13.709  2.3721  0.5816 -1.2558
 7409SOL    HW233864   3.146   3.708  13.721 -0.0448 -1.5839  0.3436
 7410SOL     OW33865   1.226   2.981  15.141  0.1404  0.1890 -0.1590
 7410SOL    HW133866   1.245   2.952  15.230 -1.2867  0.5707  0.2625
 7410SOL    HW233867   1.303   2.959  15.089  0.1465  2.1837 -0.9804
 7411SOL     OW33868   1.644   0.984  10.817 -0.6708 -0.2899  0.5499
 7411SOL    HW133869   1.615   1.052  10.878  1.8483  1.3132 -0.0291
 7411SOL    HW233870   1.680   1.044  10.753  0.3570  0.4189  1.7947
 7412SOL     OW33871   4.235   2.527   1.884 -0.6940 -0.2376  0.7783
 7412SOL    HW133872   4.298   2.571   1.941  0.3333  0.9401 -1.2597
 7412SOL    HW233873   4.224   2.594   1.816 -1.2615  0.2690  1.3718
 7413SOL     OW33874   3.539   0.764   7.191 -0.7999 -0.2930  0.0239
 7413SOL    HW133875   3.523   0.670   7.186  1.3460 -0.6673  0.2599
 7413SOL    HW233876   3.457   0.805   7.220  0.4509  3.0815 -1.1915
 7414SOL     OW33877   1.880   4.036   6.310  0.1803  0.2085 -0.0560
 7414SOL    HW133878   1.889   4.006   6.400  2.5792  1.0699 -0.0191
 7414SOL    HW233879   1.956   4.095   6.305  0.4768 -0.0350  1.6924
 7415SOL     OW33880   3.606   0.569  15.100 -0.0022 -0.5052  0.5679
 7415SOL    HW133881   3.578   0.478  15.099 -1.4627 -0.0665  1.4030
 7415SOL    HW233882   3.662   0.570  15.022 -0.2864  0.2737  0.3744
 7416SOL     OW33883   1.538   1.898   8.150 -0.4624 -0.3088  0.5046
 7416SOL    HW133884   1.535   1.948   8.232  0.3348 -0.0197  0.3563
 7416SOL    HW233885   1.473   1.828   8.162  0.3189 -1.1212  0.0159
 7417SOL     OW33886   2.371   0.273   0.122 -0.0727  0.0954  0.9035
 7417SOL    HW133887   2.409   0.222   0.193  2.0192 -2.4907 -2.0990
 7417SOL    HW233888   2.414   0.243   0.042 -1.1810 -1.8895  1.0639
 7418SOL     OW33889   0.812   2.511  15.804  0.2263 -0.2388 -0.5759
 7418SOL    HW133890   0.741   2.547  15.751  0.1237 -1.2376 -1.1060
 7418SOL    HW233891   0.879   2.543  15.743 -2.0038  0.7715 -2.5131
 7419SOL     OW33892   4.404   4.217  14.137 -0.0753  0.0980 -0.5915
 7419SOL    HW133893   4.459   4.252  14.207 -1.3901 -0.5438  0.7533
 7419SOL    HW233894   4.351   4.158  14.191 -1.9890  1.9385 -0.4958
 7420SOL     OW33895   1.414   0.207   4.465 -0.2251 -0.2014 -0.7126
 7420SOL    HW133896   1.431   0.173   4.553 -3.0804  0.9223  0.2730
 7420SOL    HW233897   1.324   0.239   4.469 -0.8885 -2.1781 -0.0028
 7421SOL     OW33898   1.400   0.805   1.927 -0.6220 -0.1522 -0.0748
 7421SOL    HW133899   1.309   0.828   1.945  0.1098  1.8863  0.9879
 7421SOL    HW233900   1.445   0.821   2.011 -0.4978 -0.6327 -0.0465
 7422SOL     OW33901   2.455   3.605   3.230 -0.2281  0.1304  0.2023
 7422SOL    HW133902   2.394   3.629   3.301  1.2389 -1.6000  2.0398
 7422SOL    HW233903   2.401   3.626   3.154 -0.0083  2.6692  0.7601
 7423SOL     OW33904   0.185   1.592  12.216 -0.2304 -0.1248  0.1997
 7423SOL    HW133905   0.122   1.661  12.237 -1.7633 -1.6417  0.5591
 7423SOL    HW233906   0.241   1.637  12.152  0.0436 -0.7556 -0.0039
 7424SOL     OW33907   1.549   0.949   0.762 -0.5828 -0.3999  0.7260
 7424SOL    HW133908   1.508   0.868   0.791  1.1584 -0.6545  2.5491
 7424SOL    HW233909   1.588   0.989   0.840  3.2929 -0.1810 -1.2940
 7425SOL     OW33910   2.651   4.632   7.086 -0.7623  0.0476 -0.1975
 7425SOL    HW133911   2.719   4.697   7.105  1.6137 -1.9789 -1.7343
 7425SOL    HW233912   2.579   4.668   7.137  0.8176 -0.8592  2.7115
 7426SOL     OW33913   0.985   4.380  17.593 -0.1458  0.0252  0.5657
 7426SOL    HW133914   0.916   4.413  17.651  1.2967  3.3472  0.3954
 7426SOL    HW233915   0.968   4.420  17.508 -2.6558 -2.9754 -0.3643
 7427SOL     OW33916   1.109   4.202   5.383  0.1375  0.3149 -0.0235
 7427SOL    HW133917   1.116   4.131   5.319  1.5007 -0.5800  1.1287
 7427SOL    HW233918   1.201   4.230   5.387  0.6459 -0.9672 -3.0199
 7428SOL     OW33919   1.727   4.387  14.240  0.7766  0.3743  0.5924
 7428SOL    HW133920   1.719   4.337  14.159 -2.3283  1.4948  0.1750
 7428SOL    HW233921   1.770   4.467  14.210 -0.0284  0.8201  0.6270
 7429SOL     OW33922   0.180   0.785  13.468 -0.3677 -0.0945  0.1272
 7429SOL    HW133923   0.138   0.863  13.505  1.0814  1.1623 -0.8811
 7429SOL    HW233924   0.125   0.711  13.494 -1.3345 -0.3174 -2.5089
 7430SOL     OW33925   0.081   2.008   0.038  0.0377  0.0193 -0.1709
 7430SOL    HW133926   0.155   1.948   0.028  0.0048 -0.3648  1.8738
 7430SOL    HW233927   0.018   1.945   0.074 -1.0704  2.4283  2.1304
 7431SOL     OW33928   4.002   0.247   2.608 -0.3402  0.6681 -0.4824
 7431SOL    HW133929   4.087   0.203   2.619 -0.2743  0.9683  0.2509
 7431SOL    HW233930   3.947   0.187   2.658  0.7713 -0.9700 -1.2225
 7432SOL     OW33931   2.731   1.512   6.730  0.3652 -0.1909 -0.1116
 7432SOL    HW133932   2.692   1.508   6.643 -1.4646 -1.2535  0.7454
 7432SOL    HW233933   2.804   1.573   6.717  2.5631 -2.7360  0.2389
 7433SOL     OW33934   1.275   1.827   2.952 -0.3362  0.0379 -0.0228
 7433SOL    HW133935   1.340   1.848   3.019  1.0580  0.8339 -1.6239
 7433SOL    HW233936   1.195   1.824   3.003  0.7577  0.0082  1.6924
 7434SOL     OW33937   1.755   2.075  17.397  0.2921  0.2174  0.0335
 7434SOL    HW133938   1.775   2.129  17.473  1.9137  1.3618 -1.2066
 7434SOL    HW233939   1.724   2.148  17.344 -1.2044 -0.2841  0.2130
 7435SOL     OW33940   3.598   0.836   9.505 -0.3555  0.2316  0.0519
 7435SOL    HW133941   3.642   0.774   9.563  1.3676 -0.2648 -1.7687
 7435SOL    HW233942   3.645   0.817   9.424 -0.5513 -1.2012  0.2714
 7436SOL     OW33943   1.395   1.291  12.684 -0.2666  0.9511  0.1284
 7436SOL    HW133944   1.437   1.222  12.735 -0.7012  1.2540  0.8977
 7436SOL    HW233945   1.396   1.254  12.596 -0.0487  1.6331 -0.1512
 7437SOL     OW33946   3.322   4.281  17.494  0.5421  0.1825 -0.0104
 7437SOL    HW133947   3.408   4.242  17.474  0.3287 -0.1498 -0.2718
 7437SOL    HW233948   3.295   4.307  17.406  2.1343  2.4662  0.1651
 7438SOL     OW33949   3.357   3.828   8.479  0.6102 -0.0115  0.5303
 7438SOL    HW133950   3.325   3.780   8.403  2.9953 -0.6092 -0.0962
 7438SOL    HW233951   3.410   3.897   8.438  2.1831 -1.6687 -0.1781
 7439SOL     OW33952   1.274   1.645  15.220  0.1031 -0.0105  0.2105
 7439SOL    HW133953   1.321   1.646  15.137  0.4850 -0.4306  0.4189
 7439SOL    HW233954   1.187   1.673  15.191 -0.6941 -1.1664  1.4366
 7440SOL     OW33955   0.608   1.931   8.330 -0.6344 -0.0633  0.1232
 7440SOL    HW133956   0.673   1.954   8.397  1.5707 -0.2744 -1.9598
 7440SOL    HW233957   0.641   1.855   8.282  1.8491  0.7161  0.5741
 7441SOL     OW33958   1.397   1.673   8.179  0.2286  0.0272  0.3156
 7441SOL    HW133959   1.314   1.716   8.201 -0.2399 -1.1669  0.8876
 7441SOL    HW233960   1.390   1.596   8.237  0.1175 -0.1999  0.0026
 7442SOL     OW33961   1.717   0.267   3.520  0.3224 -0.4380  0.5011
 7442SOL    HW133962   1.701   0.212   3.443  1.8208  0.1969 -0.2567
 7442SOL    HW233963   1.760   0.339   3.474  1.1516 -0.9189  0.5243
 7443SOL     OW33964   2.576   4.645   4.604 -0.4163  0.3698 -0.3947
 7443SOL    HW133965   2.594   4.611   4.692  1.4950  0.2976 -0.8015
 7443SOL    HW233966   2.566   4.739   4.612 -2.3873  0.1368 -0.1123
 7444SOL     OW33967   2.885   1.434   5.324 -0.4408  0.2632  0.1365
 7444SOL    HW133968   2.884   1.431   5.420 -0.6998  1.7832  0.1790
 7444SOL    HW233969   2.950   1.503   5.309  2.1647 -2.2338 -0.0391
 7445SOL     OW33970   1.377   1.880   4.223 -0.2899 -0.3561  0.1166
 7445SOL    HW133971   1.470   1.888   4.200 -0.8578 -3.7905 -3.3135
 7445SOL    HW233972   1.376   1.785   4.232 -1.6520 -0.1967  1.5668
 7446SOL     OW33973   3.733   2.486   9.446 -0.0687 -0.7685 -0.3994
 7446SOL    HW133974   3.686   2.410   9.479  0.6730 -1.1248 -0.1729
 7446SOL    HW233975   3.758   2.538   9.522 -1.6021  0.6188 -0.8415
 7447SOL     OW33976   4.289   0.806   5.777 -0.0464  0.4752 -0.1680
 7447SOL    HW133977   4.367   0.862   5.772 -0.8552  1.7106  1.0416
 7447SOL    HW233978   4.292   0.792   5.872  2.2641 -0.3489 -0.3541
 7448SOL     OW33979   4.324   1.099  17.744 -0.1072 -0.0572  0.0043
 7448SOL    HW133980   4.318   1.153   0.068  0.9952 -1.8824  1.3140
 7448SOL    HW233981   4.247   1.044   0.005 -0.7348  0.2899 -1.7900
 7449SOL     OW33982   1.060   1.950  14.807 -0.1024  0.5772  0.0035
 7449SOL    HW133983   1.014   1.867  14.794 -1.7887  1.3960  0.6906
 7449SOL    HW233984   1.135   1.951  14.748 -0.0044 -0.0491  0.1256
 7450SOL     OW33985   3.438   1.621   2.748  0.0709 -0.2628  0.1871
 7450SOL    HW133986   3.411   1.531   2.731  0.0570  0.1617 -2.1281
 7450SOL    HW233987   3.490   1.637   2.669  0.9083 -3.5104  0.0806
 7451SOL     OW33988   1.017   1.200   9.358  0.4464  0.2199  0.2212
 7451SOL    HW133989   1.099   1.150   9.360 -0.8700 -1.9733  0.4225
 7451SOL    HW233990   0.958   1.132   9.392  0.3270 -0.2753 -0.9402
 7452SOL     OW33991   0.616   4.603   9.981 -0.7120  0.4503  0.3811
 7452SOL    HW133992   0.562   4.571  10.053 -2.8619 -1.1280 -1.9652
 7452SOL    HW233993   0.698   4.632  10.022 -1.3582 -0.4127  2.3012
 7453SOL     OW33994   3.193   2.826   1.481  0.5089  0.2691  0.0560
 7453SOL    HW133995   3.160   2.762   1.419 -0.6115 -0.2218  1.1635
 7453SOL    HW233996   3.133   2.815   1.555 -0.7067 -0.1403 -0.9907
 7454SOL     OW33997   1.411   3.457  11.241  0.6360  0.2501  0.0377
 7454SOL    HW133998   1.404   3.368  11.209 -1.5449 -0.1356  1.6404
 7454SOL    HW233999   1.464   3.494  11.170 -1.3574  0.5725 -1.2749
 7455SOL     OW34000   3.768   2.174   6.949  0.5065 -0.1870 -0.3420
 7455SOL    HW134001   3.772   2.224   7.030 -0.5044 -2.0207  0.8303
 7455SOL    HW234002   3.744   2.090   6.988 -3.2966 -0.1175 -2.5787
 7456SOL     OW34003   2.952   0.233   6.139 -0.4874  0.1540 -0.0306
 7456SOL    HW134004   2.880   0.170   6.145  1.9022 -2.5243  0.1211
 7456SOL    HW234005   2.986   0.230   6.228  0.7248  0.5036 -0.4810
 7457SOL     OW34006   3.656   0.578   8.694  0.4188 -0.2821 -0.1019
 7457SOL    HW134007   3.694   0.529   8.767 -0.9776 -0.8853  0.2177
 7457SOL    HW234008   3.569   0.540   8.706  0.4445 -0.9733 -2.1119
 7458SOL     OW34009   2.900   4.726  15.055 -0.0267  0.4001 -0.3873
 7458SOL    HW134010   2.818   4.676  15.059  1.0050 -1.1768  0.8881
 7458SOL    HW234011   2.965   4.658  15.037  0.1127  0.8865 -1.6849
 7459SOL     OW34012   2.012   0.725   2.360 -0.2639 -0.1644  0.0746
 7459SOL    HW134013   2.087   0.668   2.376  0.0379 -0.7011 -3.2699
 7459SOL    HW234014   2.028   0.748   2.269 -0.7572  1.0324  0.2825
 7460SOL     OW34015   0.858   1.287   6.311  0.4939  0.3701  0.0061
 7460SOL    HW134016   0.947   1.288   6.276  1.3879  2.1958  2.3589
 7460SOL    HW234017   0.875   1.214   6.371 -2.8594 -1.1887 -0.9009
 7461SOL     OW34018   3.314   4.693  10.657  0.5372 -0.3915 -0.1484
 7461SOL    HW134019   3.237   0.010  10.661  0.7559 -0.1663  1.1601
 7461SOL    HW234020   3.380   0.000  10.709  1.0443 -1.3312  0.0510
 7462SOL     OW34021   2.773   2.456  14.386 -0.4467 -0.6147 -0.0227
 7462SOL    HW134022   2.816   2.527  14.435 -0.9619 -2.0158  2.4327
 7462SOL    HW234023   2.846   2.394  14.382  1.3523  1.5411 -0.8564
 7463SOL     OW34024   4.683   1.498   8.353 -0.1528 -0.0221  0.2469
 7463SOL    HW134025   4.594   1.503   8.388 -0.5886  0.4166 -0.9207
 7463SOL    HW234026   4.700   1.405   8.344 -0.1665 -0.0443  0.4442
 7464SOL     OW34027   2.526   3.514   5.528 -0.1614 -0.0278 -0.1168
 7464SOL    HW134028   2.547   3.429   5.489 -0.2587 -0.3347  0.5095
 7464SOL    HW234029   2.436   3.528   5.498 -0.0755  1.8820  0.5060
 7465SOL     OW34030   0.097   0.477   9.283 -0.6589 -0.5065 -0.6509
 7465SOL    HW134031   0.121   0.423   9.358 -0.2001  1.0896  0.3619
 7465SOL    HW234032   0.113   0.564   9.321 -2.7454  0.0130 -0.9858
 7466SOL     OW34033   0.839   4.201  13.348 -0.3714  0.0072 -0.0517
 7466SOL    HW134034   0.831   4.248  13.431  0.6904  1.4353 -0.7716
 7466SOL    HW234035   0.927   4.164  13.350  0.1332  1.1328 -1.6923
 7467SOL     OW34036   0.485   1.651  14.012  0.3611  0.0717  0.1205
 7467SOL    HW134037   0.438   1.731  14.037  0.8441  0.3676  0.0809
 7467SOL    HW234038   0.468   1.606  14.095 -1.6196 -1.1665 -0.9329
 7468SOL     OW34039   3.679   1.427   3.575 -0.1658 -0.1276  0.2569
 7468SOL    HW134040   3.699   1.358   3.639 -0.9533 -0.7796 -0.2110
 7468SOL    HW234041   3.747   1.491   3.595 -0.1568 -0.3846  1.0703
 7469SOL     OW34042   1.591   1.854   1.233 -0.2710  0.7781  0.2706
 7469SOL    HW134043   1.596   1.883   1.142 -0.9174 -2.1904 -0.6821
 7469SOL    HW234044   1.553   1.767   1.222 -0.3220  0.5636  2.1256
 7470SOL     OW34045   1.469   3.586   3.069  0.4017  0.2713 -0.1804
 7470SOL    HW134046   1.400   3.648   3.095 -1.3921 -1.3390 -1.1262
 7470SOL    HW234047   1.435   3.539   2.993  2.8262 -2.4782  0.4416
 7471SOL     OW34048   0.461   0.529   8.151 -0.2716 -0.0110 -0.0261
 7471SOL    HW134049   0.440   0.617   8.120  1.1386 -0.0372 -1.0431
 7471SOL    HW234050   0.386   0.480   8.116  0.0233 -0.6417  0.2200
 7472SOL     OW34051   4.354   0.270  10.539  0.8753  0.1971 -0.4214
 7472SOL    HW134052   4.272   0.252  10.586 -0.2203  1.7608 -1.7411
 7472SOL    HW234053   4.397   0.324  10.605  3.5189 -1.1520 -1.0413
 7473SOL     OW34054   0.028   2.584   2.146 -0.3723  0.5122  0.2673
 7473SOL    HW134055   0.074   2.656   2.189 -0.9572  3.0887 -3.4758
 7473SOL    HW234056   0.093   2.560   2.080  0.7570 -0.1974  1.6317
 7474SOL     OW34057   3.092   4.358  13.125 -0.6329  0.4053 -0.9336
 7474SOL    HW134058   3.042   4.306  13.062  0.1986 -1.3824 -0.1218
 7474SOL    HW234059   3.174   4.365  13.076 -0.3931 -0.3347 -0.6442
 7475SOL     OW34060   2.230   3.297   8.665  0.3541 -0.1295 -0.1068
 7475SOL    HW134061   2.231   3.392   8.675 -1.3291 -0.0358 -0.8765
 7475SOL    HW234062   2.210   3.281   8.573 -1.2623 -0.9833  0.3869
 7476SOL     OW34063   0.331   1.286   8.821 -0.0080 -0.0919  0.2354
 7476SOL    HW134064   0.305   1.351   8.886 -1.2897 -0.0002 -0.3827
 7476SOL    HW234065   0.364   1.216   8.878 -2.2766 -1.3205  0.0305
 7477SOL     OW34066   0.187   0.942  17.027  0.1927 -0.2193 -0.1242
 7477SOL    HW134067   0.269   0.991  17.026  1.3919 -2.2321 -0.6984
 7477SOL    HW234068   0.159   0.944  16.936  0.3016 -0.8477 -0.1698
 7478SOL     OW34069   0.557   2.186  13.158  0.0675 -0.6017  0.3110
 7478SOL    HW134070   0.498   2.139  13.099  0.5513 -0.4899 -0.2586
 7478SOL    HW234071   0.495   2.251  13.189 -1.4164 -0.9282 -1.9558
 7479SOL     OW34072   4.145   3.278   0.939 -0.1986  0.2990  0.0702
 7479SOL    HW134073   4.212   3.213   0.957 -0.3698  0.6061  1.8158
 7479SOL    HW234074   4.181   3.355   0.984  0.4122 -0.1797  0.3916
 7480SOL     OW34075   0.301   0.031   3.606 -0.3538  0.2012 -0.1505
 7480SOL    HW134076   0.266   4.701   3.662  0.2418 -0.9259 -1.1587
 7480SOL    HW234077   0.355   0.080   3.668 -1.6204 -0.6653  1.6293
 7481SOL     OW34078   2.244   4.276   2.974 -0.1743  0.3312 -0.4074
 7481SOL    HW134079   2.217   4.251   3.062 -0.3242  0.0917 -0.5204
 7481SOL    HW234080   2.220   4.368   2.976  0.9347  0.6056  0.2137
 7482SOL     OW34081   2.998   0.878   0.021  0.1267  0.1513  0.2500
 7482SOL    HW134082   3.080   0.918   0.051 -0.7724  1.9571  0.3157
 7482SOL    HW234083   3.021   0.850  17.688 -1.5232  2.4553 -0.9219
 7483SOL     OW34084   1.887   1.347   8.862  0.3144  0.1116 -0.8345
 7483SOL    HW134085   1.825   1.363   8.932 -0.0789  1.0085 -1.3898
 7483SOL    HW234086   1.885   1.428   8.811  2.8553  0.2999 -0.6503
 7484SOL     OW34087   2.252   1.169   4.154 -0.9801 -0.0547 -0.1334
 7484SOL    HW134088   2.163   1.135   4.161 -0.8617 -0.3803 -0.2039
 7484SOL    HW234089   2.238   1.249   4.103 -0.0056  1.7705  2.4229
 7485SOL     OW34090   3.636   3.953   5.081 -0.4252 -0.5380  0.8787
 7485SOL    HW134091   3.668   4.039   5.109 -2.0926  0.8744 -1.5552
 7485SOL    HW234092   3.550   3.949   5.122 -0.3960  1.5728  1.1377
 7486SOL     OW34093   4.032   4.464   5.548  0.0303 -0.6436  0.1517
 7486SOL    HW134094   4.101   4.494   5.607 -0.5149 -1.0254  0.9900
 7486SOL    HW234095   4.034   4.374   5.580 -1.1450 -0.0924  1.7902
 7487SOL     OW34096   4.574   3.212   8.134 -0.2647 -0.2441 -0.2362
 7487SOL    HW134097   4.617   3.128   8.117 -0.9794 -0.8187  0.8397
 7487SOL    HW234098   4.536   3.230   8.048  0.7760  2.7570 -0.0790
 7488SOL     OW34099   2.948   1.633   4.250  0.9046  0.5962 -0.0811
 7488SOL    HW134100   3.027   1.667   4.208  0.8144  0.7541 -0.1237
 7488SOL    HW234101   2.920   1.716   4.286 -1.1442  0.6056 -1.7054
 7489SOL     OW34102   3.457   2.342  13.402  0.0819  0.0145  0.8058
 7489SOL    HW134103   3.482   2.254  13.373  1.6160  1.2956 -1.7218
 7489SOL    HW234104   3.448   2.325  13.496  1.3434  0.5987  1.0293
 7490SOL     OW34105   3.329   3.558  15.429  0.2368  0.3067 -0.2573
 7490SOL    HW134106   3.340   3.652  15.437 -0.4690  0.4621 -1.0628
 7490SOL    HW234107   3.323   3.536  15.336 -0.4384 -0.6024 -0.0075
 7491SOL     OW34108   3.280   1.119  17.682 -0.2154 -0.5509  0.4227
 7491SOL    HW134109   3.357   1.074  17.646  0.2234 -0.3208  1.0710
 7491SOL    HW234110   3.268   1.198  17.630  0.4495 -0.0612  1.0120
 7492SOL     OW34111   4.433   1.867  10.608 -0.3940 -0.3960  0.1327
 7492SOL    HW134112   4.356   1.909  10.570 -0.7435 -1.3433 -0.1849
 7492SOL    HW234113   4.503   1.908  10.557 -1.9705  1.3445 -0.6230
 7493SOL     OW34114   0.981   0.859   8.520 -0.8865  0.2307 -0.1076
 7493SOL    HW134115   1.046   0.816   8.463 -1.3395  1.5511 -1.6144
 7493SOL    HW234116   0.910   0.796   8.513 -2.1861  1.5259  1.6447
 7494SOL     OW34117   3.932   1.687   2.633  0.3600 -0.3983  0.2931
 7494SOL    HW134118   4.004   1.629   2.611 -1.0366 -1.6967 -0.8521
 7494SOL    HW234119   3.879   1.630   2.688  1.8486 -1.1442  0.9443
 7495SOL     OW34120   0.734   0.638  14.122  0.1527 -0.2925  0.4236
 7495SOL    HW134121   0.743   0.722  14.168  0.0680 -1.9756  3.4733
 7495SOL    HW234122   0.648   0.606  14.148 -0.9395  0.7930 -1.8199
 7496SOL     OW34123   1.496   1.000   6.609  0.1536 -0.1147  0.1543
 7496SOL    HW134124   1.529   0.925   6.658  0.1423 -0.4888 -0.4110
 7496SOL    HW234125   1.417   0.957   6.578  1.6179 -0.5749 -2.9630
 7497SOL     OW34126   2.261   0.976  14.393 -0.0553 -0.3658  0.2306
 7497SOL    HW134127   2.172   0.940  14.389  0.1273 -0.7737 -0.1456
 7497SOL    HW234128   2.249   1.049  14.333 -0.8884 -1.8298 -1.4072
 7498SOL     OW34129   2.159   2.962   2.098 -0.0202 -0.0474 -0.2264
 7498SOL    HW134130   2.237   2.907   2.097  0.9404  1.2793  0.7210
 7498SOL    HW234131   2.130   2.943   2.188 -0.2228  0.8386 -0.1049
 7499SOL     OW34132   0.041   4.601  17.429  0.0021  0.2662  0.5203
 7499SOL    HW134133   0.002   4.514  17.419  1.6703 -0.2682 -1.2251
 7499SOL    HW234134   4.713   4.636  17.488 -2.2350 -0.3112 -1.7133
 7500SOL     OW34135   0.457   4.131   2.773  0.4471 -0.1169  0.5458
 7500SOL    HW134136   0.427   4.141   2.683  0.9084  1.4334  0.5607
 7500SOL    HW234137   0.388   4.069   2.796 -0.0315 -0.2789 -1.3709
 7501SOL     OW34138   2.547   0.077  13.895 -0.5539 -0.2592  0.1607
 7501SOL    HW134139   2.561   0.005  13.833 -0.4022 -1.0845  1.1559
 7501SOL    HW234140   2.542   0.152  13.835  3.9436  0.3147  0.5133
 7502SOL     OW34141   1.474   3.065   9.473  0.1011  0.5161  0.6657
 7502SOL    HW134142   1.443   3.109   9.393  0.9169 -0.3212 -0.1217
 7502SOL    HW234143   1.431   2.980   9.463  1.6442  0.2512 -3.6814
 7503SOL     OW34144   3.655   2.200  12.368 -0.1979  0.3524 -0.0272
 7503SOL    HW134145   3.606   2.129  12.409  3.0053 -1.8370  0.0517
 7503SOL    HW234146   3.704   2.235  12.442 -1.5586  0.4039  0.8395
 7504SOL     OW34147   1.153   3.346   7.901  0.2280 -0.4180 -0.6692
 7504SOL    HW134148   1.126   3.272   7.956 -1.6000  1.5087  1.0406
 7504SOL    HW234149   1.246   3.325   7.894  0.7394  0.8881  2.3278
 7505SOL     OW34150   2.997   1.559   7.145  0.0667  0.0871 -0.7533
 7505SOL    HW134151   2.903   1.562   7.166 -0.3304 -1.1907 -2.3888
 7505SOL    HW234152   3.029   1.615   7.216 -1.2419 -2.4093  1.7963
 7506SOL     OW34153   1.488   1.788  11.363 -0.1964 -0.4223  0.4199
 7506SOL    HW134154   1.400   1.788  11.401 -0.8151 -2.2232 -1.0238
 7506SOL    HW234155   1.500   1.883  11.364 -0.7480 -0.3390 -0.5905
 7507SOL     OW34156   2.811   1.967  10.813  0.0953 -0.4003  0.0280
 7507SOL    HW134157   2.777   1.890  10.769 -0.2033  0.1448 -0.6932
 7507SOL    HW234158   2.730   2.017  10.824 -0.9201 -2.0310 -0.1082
 7508SOL     OW34159   4.115   0.001   4.742  0.3120  0.1616  0.3537
 7508SOL    HW134160   4.209   4.720   4.745  0.2946  0.0592  0.1971
 7508SOL    HW234161   4.070   4.659   4.718  1.1306 -0.4323  0.8340
 7509SOL     OW34162   2.852   1.335  17.244 -0.2383 -0.3634 -0.1672
 7509SOL    HW134163   2.781   1.389  17.277 -0.1529 -1.4196  1.7430
 7509SOL    HW234164   2.803   1.290  17.175  0.1870 -1.3264  0.1557
 7510SOL     OW34165   2.268   1.452   4.878  0.0865 -0.8164  0.5104
 7510SOL    HW134166   2.351   1.491   4.850 -2.4605  3.0951 -1.6038
 7510SOL    HW234167   2.288   1.455   4.971  0.8900  2.3774  0.2602
 7511SOL     OW34168   0.089   3.410   5.530 -0.2645  0.1183  0.3586
 7511SOL    HW134169   0.036   3.381   5.456 -0.3635  0.6409  0.2284
 7511SOL    HW234170   0.034   3.487   5.541 -1.0037 -0.4405  0.5659
 7512SOL     OW34171   0.609   4.089   8.236 -0.2930  0.1915  0.1628
 7512SOL    HW134172   0.649   4.175   8.221 -1.7396  0.6428 -1.1973
 7512SOL    HW234173   0.675   4.028   8.202 -0.5231  0.6857 -1.1883
 7513SOL     OW34174   2.008   2.765  11.304  0.1747  0.3270  0.2176
 7513SOL    HW134175   1.941   2.731  11.363 -0.1119  0.4126 -0.0586
 7513SOL    HW234176   1.963   2.842  11.268 -0.9062 -0.0660  0.7379
 7514SOL     OW34177   3.243   4.106   8.162  0.0507 -0.3879 -0.2550
 7514SOL    HW134178   3.164   4.110   8.216 -1.3595 -0.3211 -2.3371
 7514SOL    HW234179   3.219   4.044   8.093 -0.7686  0.2898 -0.5791
 7515SOL     OW34180   0.431   1.836   7.999 -0.5729  0.7273 -0.5330
 7515SOL    HW134181   0.486   1.902   7.956  0.7742  0.1793  0.3454
 7515SOL    HW234182   0.364   1.893   8.037 -1.8321 -0.2546 -1.2757
 7516SOL     OW34183   0.549   3.031   6.765  0.3482  0.1728  0.5309
 7516SOL    HW134184   0.587   2.944   6.753 -1.5203 -0.3458 -1.7207
 7516SOL    HW234185   0.462   3.006   6.795 -0.2565 -0.0200 -1.4026
 7517SOL     OW34186   4.117   2.141   3.672  0.3212  0.5061  0.0242
 7517SOL    HW134187   4.093   2.199   3.744  0.9279  1.7466 -0.7753
 7517SOL    HW234188   4.031   2.108   3.643  0.3549 -1.3987  2.1538
 7518SOL     OW34189   0.872   2.787  16.010  0.1824  0.2283  0.6168
 7518SOL    HW134190   0.783   2.814  16.034 -1.0094 -1.3548 -1.9592
 7518SOL    HW234191   0.865   2.693  15.995 -3.1438  0.1242  2.8640
 7519SOL     OW34192   4.443   1.338   2.421 -0.7457 -0.2058 -0.4201
 7519SOL    HW134193   4.483   1.419   2.453  0.5360 -1.2242  0.5500
 7519SOL    HW234194   4.408   1.361   2.334 -2.0215  0.4506  0.2638
 7520SOL     OW34195   2.444   2.357   2.661 -0.2216  0.1528  0.2078
 7520SOL    HW134196   2.467   2.380   2.571  0.7375 -0.9254  0.1695
 7520SOL    HW234197   2.348   2.353   2.667 -0.2102 -0.7550 -0.2506
 7521SOL     OW34198   4.012   4.234  10.836 -0.3637 -0.0119  0.1595
 7521SOL    HW134199   3.979   4.321  10.858 -0.8150  0.0907 -0.9112
 7521SOL    HW234200   3.988   4.203  10.923  0.0899  2.5793  1.2131
 7522SOL     OW34201   4.454   0.202  13.790 -0.0183 -0.3187  0.0052
 7522SOL    HW134202   4.480   0.289  13.820 -0.4010  0.2290 -1.2536
 7522SOL    HW234203   4.408   0.165  13.866 -1.1844 -0.8838 -0.9710
 7523SOL     OW34204   1.269   0.989   8.023 -0.2180  0.3783  0.3417
 7523SOL    HW134205   1.282   1.036   8.105  0.6753 -0.0079  0.4305
 7523SOL    HW234206   1.325   1.051   7.976 -0.6352 -2.0225 -3.3540
 7524SOL     OW34207   4.583   0.346   7.272  0.2246 -0.0845 -0.2047
 7524SOL    HW134208   4.585   0.338   7.367  1.2151 -4.1521 -0.5673
 7524SOL    HW234209   4.493   0.317   7.254  1.2072 -2.8199 -0.7174
 7525SOL     OW34210   1.951   1.110  10.742  0.0879 -0.2116 -0.8100
 7525SOL    HW134211   2.024   1.048  10.750  0.5512  0.6760  1.7990
 7525SOL    HW234212   1.990   1.163  10.812  0.9945 -0.7239 -0.9180
 7526SOL     OW34213   0.562   0.449   7.001 -0.0796 -0.1387  0.2643
 7526SOL    HW134214   0.478   0.404   7.000  1.8217 -3.6429 -2.5353
 7526SOL    HW234215   0.542   0.524   7.057 -0.0751 -0.4937  0.7388
 7527SOL     OW34216   3.606   2.533  16.944  0.1647  0.0159 -0.2112
 7527SOL    HW134217   3.573   2.614  16.907 -1.7768 -0.4733  0.4877
 7527SOL    HW234218   3.612   2.479  16.865 -1.8960 -1.8679  0.9220
 7528SOL     OW34219   3.627   4.430   6.918 -0.0588  0.3024 -0.6720
 7528SOL    HW134220   3.720   4.410   6.922  0.1197  1.3115  0.5624
 7528SOL    HW234221   3.605   4.357   6.860 -3.6353 -0.2259  1.3638
 7529SOL     OW34222   4.688   0.239   2.367 -0.0376  0.1468  0.0933
 7529SOL    HW134223   4.732   0.287   2.437 -0.3844  0.0870  0.3507
 7529SOL    HW234224   4.609   0.217   2.415 -0.6510  1.7179 -0.2184
 7530SOL     OW34225   3.696   2.721   2.269 -0.2562 -0.0930 -0.3330
 7530SOL    HW134226   3.789   2.703   2.255  0.1624  0.9076  1.1369
 7530SOL    HW234227   3.689   2.816   2.278 -0.3982 -0.1756  0.3970
 7531SOL     OW34228   2.804   4.383   0.913 -0.1337 -0.7479  0.2553
 7531SOL    HW134229   2.758   4.415   0.990  0.6204 -1.5190  1.0247
 7531SOL    HW234230   2.755   4.433   0.847  1.7979 -2.2676 -2.3566
 7532SOL     OW34231   0.743   0.894   8.211  0.1977  0.4509 -0.6483
 7532SOL    HW134232   0.778   0.815   8.253 -1.8445 -0.3147 -0.3520
 7532SOL    HW234233   0.805   0.906   8.140  0.5751 -0.6674 -0.5060
 7533SOL     OW34234   0.294   2.721   5.934 -0.2733 -0.5192  0.5911
 7533SOL    HW134235   0.214   2.686   5.894  0.3619 -2.1141  0.6976
 7533SOL    HW234236   0.363   2.666   5.896  1.3390  1.0857  1.2329
 7534SOL     OW34237   2.473   0.531  16.406  0.4927 -0.2159  0.0751
 7534SOL    HW134238   2.378   0.520  16.405  0.2584  1.9787 -1.4281
 7534SOL    HW234239   2.506   0.443  16.424 -0.5909 -0.7529 -0.5929
 7535SOL     OW34240   1.496   1.737  14.851  0.2112  0.9140  0.8396
 7535SOL    HW134241   1.506   1.814  14.907 -0.3186  1.3942  0.2675
 7535SOL    HW234242   1.587   1.710  14.835 -0.2365 -0.0234 -0.1370
 7536SOL     OW34243   1.550   2.167   1.816  0.2130 -0.1663  0.2380
 7536SOL    HW134244   1.457   2.191   1.816  0.2007 -0.2870  2.1851
 7536SOL    HW234245   1.578   2.192   1.727 -0.0164  0.7514  0.4212
 7537SOL     OW34246   4.604   4.016   8.028  0.2057 -0.0605 -0.5213
 7537SOL    HW134247   4.686   3.970   8.049  0.2768  0.4503  0.3108
 7537SOL    HW234248   4.586   4.060   8.111 -2.2768 -1.5750 -0.2465
 7538SOL     OW34249   4.030   2.429   2.786 -0.5401  0.3211  0.4431
 7538SOL    HW134250   4.003   2.342   2.816 -0.2727 -0.4684 -1.5761
 7538SOL    HW234251   3.979   2.489   2.840  0.8040  1.9373 -0.0838
 7539SOL     OW34252   3.435   2.428   3.071 -0.1197  0.0971  0.1735
 7539SOL    HW134253   3.387   2.494   3.121 -3.1827 -1.6019 -0.4610
 7539SOL    HW234254   3.502   2.483   3.031 -1.0552  1.6600  0.7457
 7540SOL     OW34255   0.570   0.494   3.195 -0.3644 -0.4032  0.4030
 7540SOL    HW134256   0.529   0.564   3.245 -1.2837 -0.1172 -0.7447
 7540SOL    HW234257   0.492   0.443   3.175 -0.7387 -0.0319  0.9487
 7541SOL     OW34258   2.875   3.056   3.283  0.6365 -0.5494 -0.1113
 7541SOL    HW134259   2.875   2.961   3.275 -2.2224 -0.3746 -2.0966
 7541SOL    HW234260   2.926   3.080   3.206 -0.4552 -1.2340 -1.0388
 7542SOL     OW34261   1.376   4.621   3.258  0.1786 -0.1670 -0.2349
 7542SOL    HW134262   1.373   4.527   3.278  0.3693  0.6387  3.5569
 7542SOL    HW234263   1.282   4.639   3.251 -0.3010 -1.5463  2.7581
 7543SOL     OW34264   2.736   1.466   5.752  0.0091  0.1522  0.2276
 7543SOL    HW134265   2.689   1.481   5.670  0.9849  1.4232 -0.0966
 7543SOL    HW234266   2.816   1.421   5.727 -0.4580  0.5687 -1.9823
 7544SOL     OW34267   4.703   3.541   7.886  0.5001  0.2622 -0.2120
 7544SOL    HW134268   0.044   3.587   7.863  1.5435 -1.0545  0.8091
 7544SOL    HW234269   4.654   3.609   7.932 -2.4991 -0.8412 -1.7417
 7545SOL     OW34270   1.349   2.721  16.251  0.2546 -0.1731 -0.6977
 7545SOL    HW134271   1.375   2.771  16.329  1.5188 -1.3529 -0.3567
 7545SOL    HW234272   1.419   2.749  16.192  1.1663  1.4497  1.1283
 7546SOL     OW34273   2.065   4.328   7.703  0.1968  0.3924 -0.0208
 7546SOL    HW134274   2.151   4.290   7.719 -0.5336 -0.4341  1.9524
 7546SOL    HW234275   2.020   4.260   7.654 -1.9888  1.0245  1.0943
 7547SOL     OW34276   0.954   1.206   5.022 -0.1171 -0.2073 -0.1357
 7547SOL    HW134277   0.938   1.139   5.089 -0.9908  0.5255  0.3976
 7547SOL    HW234278   0.900   1.275   5.061  1.0559 -0.4000  1.8495
 7548SOL     OW34279   3.440   4.148   9.426  0.6119  0.7467 -0.0195
 7548SOL    HW134280   3.505   4.079   9.439 -0.1174 -0.0245 -0.4769
 7548SOL    HW234281   3.500   4.222   9.434  1.3036  0.0650  1.1547
 7549SOL     OW34282   0.948   1.234   8.218  0.2738  0.0162 -0.2342
 7549SOL    HW134283   1.028   1.188   8.194 -0.4119 -1.2217 -0.2077
 7549SOL    HW234284   0.954   1.246   8.313  2.9241 -0.3997 -0.3460
 7550SOL     OW34285   4.022   2.396   8.530  0.0452 -0.2027  0.0004
 7550SOL    HW134286   4.078   2.375   8.604 -1.4136 -0.1976  1.0947
 7550SOL    HW234287   4.087   2.410   8.462  0.2313 -0.1690  0.1874
 7551SOL     OW34288   4.386   3.424  15.297  0.2909 -0.1520  0.3205
 7551SOL    HW134289   4.432   3.456  15.374  0.9023 -1.2661  0.4136
 7551SOL    HW234290   4.423   3.336  15.301 -0.9592 -0.5879  2.5746
 7552SOL     OW34291   2.952   1.294   3.165 -0.5240 -0.7087 -0.2073
 7552SOL    HW134292   2.862   1.274   3.191 -1.1844  1.5221 -0.8040
 7552SOL    HW234293   2.958   1.387   3.184  1.0200 -0.3290 -2.6572
 7553SOL     OW34294   0.469   0.052   9.098 -0.6870 -0.0289  0.0912
 7553SOL    HW134295   0.424   0.132   9.125 -1.1901 -0.2194 -0.1930
 7553SOL    HW234296   0.530   0.080   9.030  0.5034 -3.0234 -0.0650
 7554SOL     OW34297   2.800   0.017   8.909  0.1955 -0.4382  0.0139
 7554SOL    HW134298   2.781   0.039   8.818  1.9679 -0.4404 -0.3457
 7554SOL    HW234299   2.894   0.001   8.913  0.2678  0.4550  2.1336
 7555SOL     OW34300   1.488   1.631   8.899  0.8926  0.6693 -0.0202
 7555SOL    HW134301   1.523   1.683   8.971 -0.0596  0.5649  0.5210
 7555SOL    HW234302   1.454   1.560   8.954 -0.4596  0.7628 -0.7342
 7556SOL     OW34303   4.432   3.521   3.715 -0.1653 -0.1958  0.0450
 7556SOL    HW134304   4.356   3.475   3.749 -1.0103  1.5955  0.6147
 7556SOL    HW234305   4.398   3.606   3.687 -2.1408 -0.4002  1.8529
 7557SOL     OW34306   1.336   2.468  12.109  0.3980 -0.4637  0.2251
 7557SOL    HW134307   1.420   2.477  12.154  0.8652  0.6679 -0.8767
 7557SOL    HW234308   1.308   2.382  12.141  0.4831 -0.0256  1.4796
 7558SOL     OW34309   1.020   2.327   9.652  0.0469 -0.3729  0.5969
 7558SOL    HW134310   0.947   2.318   9.713 -1.0761 -0.3686 -0.7225
 7558SOL    HW234311   1.058   2.411   9.677  1.0596 -1.3408  2.2801
 7559SOL     OW34312   4.657   0.792   6.106  0.6778  0.2820 -0.1979
 7559SOL    HW134313   4.587   0.815   6.168  0.9425 -0.8809  0.5355
 7559SOL    HW234314   4.715   0.867   6.113  1.8219 -0.5951 -0.2432
 7560SOL     OW34315   2.547   2.382   8.058 -0.3583 -0.0618 -0.4150
 7560SOL    HW134316   2.507   2.389   7.971 -2.5775 -3.5209  0.3217
 7560SOL    HW234317   2.520   2.457   8.110 -3.3201 -1.0258 -0.5991
 7561SOL     OW34318   0.885   1.724  10.722 -0.2249  0.3425  0.1894
 7561SOL    HW134319   0.876   1.820  10.727 -3.5915  0.1017 -0.8471
 7561SOL    HW234320   0.951   1.694  10.784  0.4066  2.4815  0.5811
 7562SOL     OW34321   0.925   0.325  13.928  0.6024 -0.1709 -0.1168
 7562SOL    HW134322   0.934   0.418  13.952  0.8751 -0.5108  1.1319
 7562SOL    HW234323   0.863   0.327  13.856  1.3601  0.8980 -0.7371
 7563SOL     OW34324   4.155   2.127   4.927  0.3601  0.0010  0.3944
 7563SOL    HW134325   4.194   2.044   4.956 -0.9198 -0.5580  0.5008
 7563SOL    HW234326   4.227   2.157   4.871  0.5037  0.1698  0.6740
 7564SOL     OW34327   0.229   1.341  15.556 -0.0305  0.0168 -0.1325
 7564SOL    HW134328   0.236   1.436  15.565 -0.4418 -0.0608  0.9141
 7564SOL    HW234329   0.224   1.321  15.462 -1.1021 -1.3739  0.2209
 7565SOL     OW34330   1.688   0.817   6.763  0.4328  0.7082 -0.8910
 7565SOL    HW134331   1.749   0.820   6.690 -0.9344 -0.8173 -2.0903
 7565SOL    HW234332   1.742   0.865   6.826  2.8961 -1.0575 -1.6964
 7566SOL     OW34333   2.854   4.727  13.563  0.6909  0.0799  0.3415
 7566SOL    HW134334   2.944   4.705  13.586  0.1715 -2.6648 -0.2582
 7566SOL    HW234335   2.839   0.070  13.610  1.4195  0.3263  0.1427
 7567SOL     OW34336   4.551   1.410  14.473  0.0086  0.5518 -1.0627
 7567SOL    HW134337   4.467   1.436  14.433  0.1122  3.5413  0.6216
 7567SOL    HW234338   4.530   1.318  14.457 -1.4866  0.6373  0.3915
 7568SOL     OW34339   0.996   0.569  12.123  0.7306  0.1009 -0.4745
 7568SOL    HW134340   0.999   0.662  12.103  0.3339 -0.4355 -3.0640
 7568SOL    HW234341   0.904   0.552  12.107 -0.0400  1.2065  2.7197
 7569SOL     OW34342   3.182   0.321   0.046 -0.3980  0.3221 -0.9558
 7569SOL    HW134343   3.133   0.401   0.028  0.1084  1.1120  1.0934
 7569SOL    HW234344   3.114   0.254   0.040  0.9042 -1.0854 -0.0729
 7570SOL     OW34345   2.273   1.415   5.142  0.1813 -0.0153 -0.0549
 7570SOL    HW134346   2.266   1.342   5.204 -0.0557  0.3847  0.3866
 7570SOL    HW234347   2.197   1.471   5.161  2.4560  2.1402  2.5086
 7571SOL     OW34348   1.023   4.010  11.390  0.1568  0.0297  0.3312
 7571SOL    HW134349   1.027   4.096  11.348  0.6632 -0.7845 -1.2920
 7571SOL    HW234350   1.108   4.003  11.435  1.6412 -0.2780 -2.5491
 7572SOL     OW34351   4.344   0.051   7.401  0.6456  0.4296  0.4886
 7572SOL    HW134352   4.386   0.136   7.393 -2.3367  1.7911 -0.5335
 7572SOL    HW234353   4.301   0.055   7.487 -0.7617 -3.6903 -0.0126
 7573SOL     OW34354   3.647   2.585  17.305  0.4125 -0.1790  0.3828
 7573SOL    HW134355   3.735   2.602  17.271 -0.6208  1.3344 -1.5450
 7573SOL    HW234356   3.607   2.667  17.276  1.5440 -0.4715 -2.0368
 7574SOL     OW34357   3.362   0.458   0.190 -0.5581  0.1511 -0.1860
 7574SOL    HW134358   3.304   0.409   0.132 -1.9665 -0.3673  1.6594
 7574SOL    HW234359   3.381   0.378   0.238 -1.8977  0.4943  0.9242
 7575SOL     OW34360   0.904   0.775   9.471 -0.2533  0.3737  0.4343
 7575SOL    HW134361   0.960   0.778   9.393  0.6117  1.4251  1.1006
 7575SOL    HW234362   0.888   0.867   9.490  1.9947  0.2608  2.8032
 7576SOL     OW34363   3.671   3.732   8.891  0.6780 -0.5429  0.0894
 7576SOL    HW134364   3.590   3.770   8.859  0.4967  0.1253  1.3433
 7576SOL    HW234365   3.653   3.638   8.895 -0.3204 -0.3553 -0.0601
 7577SOL     OW34366   1.122   4.604  15.365  0.1935 -0.2114 -0.9321
 7577SOL    HW134367   1.082   4.623  15.280  2.0863  3.6430 -0.9639
 7577SOL    HW234368   1.107   4.510  15.369 -0.0408 -0.0744  1.0203
 7578SOL     OW34369   1.432   2.980  12.191  0.0786 -0.0654  0.1831
 7578SOL    HW134370   1.490   3.051  12.163  0.7822 -0.7490 -0.1003
 7578SOL    HW234371   1.463   2.902  12.145 -0.7168 -0.4250  0.2556
 7579SOL     OW34372   1.627   2.872   6.231  0.3106  0.2493  0.4897
 7579SOL    HW134373   1.655   2.954   6.190 -1.5205 -0.0788 -1.3913
 7579SOL    HW234374   1.687   2.875   6.307  0.1052 -4.3591  0.8073
 7580SOL     OW34375   0.948   0.480   8.480  0.2059  0.6253  0.2944
 7580SOL    HW134376   0.939   0.504   8.573  0.2482 -0.8483  0.6858
 7580SOL    HW234377   0.936   0.385   8.489  0.5574  0.6224  0.7661
 7581SOL     OW34378   0.869   4.145   2.516  0.3681 -0.2255 -0.5106
 7581SOL    HW134379   0.884   4.127   2.609 -0.1892 -0.2839 -0.4294
 7581SOL    HW234380   0.923   4.083   2.468 -0.0372  0.1466 -1.4476
 7582SOL     OW34381   1.441   1.910  12.414  0.2822 -0.0368  0.0372
 7582SOL    HW134382   1.431   1.852  12.489 -1.7720  0.3742  0.0581
 7582SOL    HW234383   1.377   1.875  12.353  0.1161 -1.9768  1.3213
 7583SOL     OW34384   3.641   0.309  16.190 -0.6593  0.0390 -0.1307
 7583SOL    HW134385   3.664   0.358  16.111  1.7506 -2.7889 -1.1505
 7583SOL    HW234386   3.606   0.380  16.243 -2.9743  0.4588 -2.1843
 7584SOL     OW34387   0.089   2.315   6.577 -0.9198 -0.0439 -0.0855
 7584SOL    HW134388   0.010   2.318   6.523 -0.4378 -0.1901 -0.7987
 7584SOL    HW234389   0.153   2.257   6.535 -0.2985 -0.5976  1.5967
 7585SOL     OW34390   3.621   1.868  15.585  0.1103 -0.5990 -0.3313
 7585SOL    HW134391   3.553   1.859  15.653  1.6662 -2.6132  0.9607
 7585SOL    HW234392   3.700   1.843  15.633  0.2831 -0.3337 -0.4814
 7586SOL     OW34393   2.682   1.623   3.703 -0.4780  0.0083 -0.4570
 7586SOL    HW134394   2.728   1.679   3.766  0.7440 -2.3900  0.7959
 7586SOL    HW234395   2.720   1.666   3.627 -1.0845  1.3010 -0.0345
 7587SOL     OW34396   0.922   2.447   4.901 -0.0237  1.0505  0.0068
 7587SOL    HW134397   0.952   2.362   4.869  0.2163  0.8163  0.8495
 7587SOL    HW234398   0.840   2.420   4.942 -0.0601 -0.5952 -1.1704
 7588SOL     OW34399   1.593   0.789   5.351 -0.4089 -0.5632 -0.0245
 7588SOL    HW134400   1.623   0.828   5.269  0.3463 -0.1997  0.4185
 7588SOL    HW234401   1.539   0.714   5.325 -2.2159  0.5299  0.6149
 7589SOL     OW34402   1.075   2.760   8.185  0.2819 -0.2455  0.2069
 7589SOL    HW134403   1.027   2.690   8.139  1.5390 -1.3417  0.5487
 7589SOL    HW234404   1.013   2.833   8.183 -0.5605 -0.9185  1.4835
 7590SOL     OW34405   4.027   0.483   5.466  0.2607 -0.0814 -0.1900
 7590SOL    HW134406   4.025   0.503   5.559  1.7452  0.2743 -0.2442
 7590SOL    HW234407   4.067   0.563   5.433 -1.0332  0.0940 -1.3197
 7591SOL     OW34408   1.460   1.367   5.220  0.0249 -0.7659  0.3173
 7591SOL    HW134409   1.443   1.421   5.142 -0.3757 -0.8526  0.3444
 7591SOL    HW234410   1.520   1.419   5.273 -1.2289  0.0835  0.9325
 7592SOL     OW34411   1.812   1.736  17.545 -0.0083 -0.2920  0.1607
 7592SOL    HW134412   1.742   1.673  17.561 -1.4166  0.9792 -1.0481
 7592SOL    HW234413   1.890   1.691  17.578 -0.9138 -2.3911 -0.5693
 7593SOL     OW34414   3.248   2.646   7.116 -0.2254  0.0350  0.3210
 7593SOL    HW134415   3.205   2.561   7.133 -1.6851  0.9185  1.0553
 7593SOL    HW234416   3.191   2.702   7.168  0.5721  2.3630 -1.3526
 7594SOL     OW34417   0.098   2.653   3.055  0.0591  0.1850  0.4216
 7594SOL    HW134418   0.109   2.688   2.966  2.7906 -0.4302  0.5174
 7594SOL    HW234419   0.141   2.568   3.051  1.8725  1.1471 -0.7545
 7595SOL     OW34420   1.453   2.915   8.309  0.1710 -0.4952 -0.0064
 7595SOL    HW134421   1.507   2.946   8.382  0.2224 -1.4310  0.3510
 7595SOL    HW234422   1.525   2.915   8.246  0.1209 -0.2614 -0.0641
 7596SOL     OW34423   0.976   0.422   9.675 -0.2852 -0.5249 -0.1806
 7596SOL    HW134424   0.907   0.460   9.621  0.9521 -0.7501 -1.9060
 7596SOL    HW234425   1.030   0.398   9.600  1.6130  1.8672  0.3999
 7597SOL     OW34426   1.840   1.927   2.080  0.6185  0.3367 -0.2633
 7597SOL    HW134427   1.915   1.898   2.132  0.4820 -0.6074 -0.6005
 7597SOL    HW234428   1.861   2.020   2.069  2.1131  0.3769  2.7980
 7598SOL     OW34429   2.492   3.270   8.527 -0.6102  0.2328  0.0833
 7598SOL    HW134430   2.401   3.292   8.545 -0.0846  0.3848  2.5668
 7598SOL    HW234431   2.483   3.228   8.442 -0.4452 -1.9119  1.1307
 7599SOL     OW34432   1.675   4.381  12.600 -0.4026 -0.2122  0.7334
 7599SOL    HW134433   1.716   4.294  12.602 -0.2165 -0.1542 -0.2251
 7599SOL    HW234434   1.688   4.410  12.510 -3.0578 -1.2889 -0.0017
 7600SOL     OW34435   3.021   1.408   4.098  0.0928  0.2615  0.6152
 7600SOL    HW134436   2.944   1.461   4.117 -0.9698 -1.2721  0.5679
 7600SOL    HW234437   3.035   1.370   4.185 -1.0930 -1.8712 -0.1291
 7601SOL     OW34438   0.745   2.538   3.900  0.0567 -0.2890 -0.2709
 7601SOL    HW134439   0.797   2.467   3.861 -0.2858 -1.4098  1.2989
 7601SOL    HW234440   0.760   2.519   3.993  0.8901 -2.5152 -0.8520
 7602SOL     OW34441   2.129   3.270  14.210  0.2142  0.5060 -0.2428
 7602SOL    HW134442   2.076   3.254  14.288  1.8618  0.4953  0.8755
 7602SOL    HW234443   2.154   3.361  14.224 -0.9175  0.4607  2.0623
 7603SOL     OW34444   1.632   0.215   1.576 -0.1887 -0.3657  0.0869
 7603SOL    HW134445   1.565   0.261   1.626 -0.3083 -0.8007  0.3253
 7603SOL    HW234446   1.585   0.196   1.494  0.2036  2.2555 -0.7611
 7604SOL     OW34447   1.340   0.833   7.783  0.1985 -0.3998 -0.0734
 7604SOL    HW134448   1.298   0.768   7.727 -0.0550 -0.3496  0.0584
 7604SOL    HW234449   1.317   0.797   7.869 -0.8309 -0.6193 -0.4467
 7605SOL     OW34450   0.869   2.754   6.281  0.7523  0.2308  0.7269
 7605SOL    HW134451   0.923   2.705   6.343  1.9101 -0.5949 -0.9096
 7605SOL    HW234452   0.822   2.807   6.345  0.5093  1.2808 -0.3082
 7606SOL     OW34453   2.390   3.277   0.474  0.2159 -0.2990  0.0677
 7606SOL    HW134454   2.415   3.230   0.394  1.2950 -0.2336  0.3703
 7606SOL    HW234455   2.422   3.358   0.435 -1.9055  0.6959  0.3805
 7607SOL     OW34456   0.777   1.440  17.236 -0.4162 -0.1843  0.2456
 7607SOL    HW134457   0.699   1.406  17.192  0.1166 -0.9406 -0.1118
 7607SOL    HW234458   0.807   1.491  17.161 -0.6638 -0.9128 -0.3523
 7608SOL     OW34459   3.072   3.460  15.864 -0.6609 -0.1145  0.0027
 7608SOL    HW134460   3.026   3.537  15.831  1.8677  1.2537 -0.3338
 7608SOL    HW234461   3.127   3.435  15.790 -0.0982 -1.8128  0.9795
 7609SOL     OW34462   0.237   0.131  10.463 -0.0893 -0.5178 -0.1014
 7609SOL    HW134463   0.313   0.180  10.431 -0.2174 -1.1316 -1.3584
 7609SOL    HW234464   0.163   0.191  10.461 -0.1108 -0.5273  0.5728
 7610SOL     OW34465   1.880   3.083   5.898 -0.7989  0.1994 -0.1020
 7610SOL    HW134466   1.895   3.145   5.827  1.2223  0.0301  0.1702
 7610SOL    HW234467   1.963   3.040   5.918 -0.6806 -0.0237 -1.0940
 7611SOL     OW34468   4.574   0.964  13.373 -0.3726  0.0942 -0.2324
 7611SOL    HW134469   4.567   1.030  13.304  0.5351 -0.3646 -0.7518
 7611SOL    HW234470   4.480   0.948  13.386 -0.0257 -0.4214  1.7291
 7612SOL     OW34471   3.399   4.268  15.908 -0.2518  0.6381 -0.2428
 7612SOL    HW134472   3.477   4.314  15.937  1.1846 -0.5646 -2.2224
 7612SOL    HW234473   3.384   4.316  15.827  0.4012  0.3448 -0.5390
 7613SOL     OW34474   1.278   0.287  16.627  0.1386 -0.1451  0.0202
 7613SOL    HW134475   1.317   0.263  16.711  0.1646  1.2740  0.4222
 7613SOL    HW234476   1.348   0.338  16.585 -0.9575  1.3957  0.0401
 7614SOL     OW34477   2.128   4.330  14.658  0.1703  0.4428  0.1753
 7614SOL    HW134478   2.221   4.313  14.670 -0.0850 -0.2769  1.1708
 7614SOL    HW234479   2.109   4.416  14.694  1.9051  0.2958  1.4432
 7615SOL     OW34480   4.273   2.985   5.069  0.1862 -0.1372 -0.6958
 7615SOL    HW134481   4.178   2.972   5.073  0.0016  1.0232 -1.1608
 7615SOL    HW234482   4.298   2.942   5.150 -0.6719 -1.3457 -1.0726
 7616SOL     OW34483   0.020   2.287   4.741 -0.0296  0.0165 -0.0350
 7616SOL    HW134484   4.671   2.315   4.765  0.8133  2.3687  0.3108
 7616SOL    HW234485   0.080   2.313   4.811  1.5336  0.4863 -1.5639
 7617SOL     OW34486   3.217   1.983   1.095  0.2009 -0.3308  0.5102
 7617SOL    HW134487   3.250   2.015   1.011  1.9501  0.8781  1.6583
 7617SOL    HW234488   3.264   2.045   1.151 -0.7395  0.3206  0.5644
 7618SOL     OW34489   0.013   4.403   7.686  0.5505  0.2096  0.5089
 7618SOL    HW134490   4.733   4.399   7.779  0.3928  0.4461  0.4858
 7618SOL    HW234491   0.099   4.361   7.680 -0.4101 -1.3864 -2.2169
 7619SOL     OW34492   2.446   3.419   2.806  0.5575 -0.1692 -0.3237
 7619SOL    HW134493   2.374   3.482   2.799  1.0503  0.6163  1.8631
 7619SOL    HW234494   2.434   3.390   2.896  1.8194  1.9848  0.5240
 7620SOL     OW34495   2.586   4.395   4.782  0.6823  0.6726 -0.4110
 7620SOL    HW134496   2.664   4.418   4.833  1.1851 -0.7412 -0.5583
 7620SOL    HW234497   2.531   4.351   4.846 -1.3345  1.7736 -1.3817
 7621SOL     OW34498   1.373   0.558   3.927  0.3130  0.3897  0.1471
 7621SOL    HW134499   1.465   0.534   3.937  0.6263  1.8639  0.8155
 7621SOL    HW234500   1.347   0.484   3.873  0.7755  0.5858 -0.3430
 7622SOL     OW34501   1.521   1.666   7.762  0.7364 -0.0217 -0.0502
 7622SOL    HW134502   1.485   1.583   7.792  1.0342 -0.2115 -0.2122
 7622SOL    HW234503   1.542   1.648   7.670  0.8223  0.8660 -0.2011
 7623SOL     OW34504   2.099   2.371  13.458  0.2589 -0.8747 -0.0115
 7623SOL    HW134505   2.167   2.393  13.522 -1.3544  1.1828  0.9880
 7623SOL    HW234506   2.149   2.380  13.377 -0.9603 -0.4459 -0.7288
 7624SOL     OW34507   2.351   4.655   7.774  0.5443  0.1543 -0.1487
 7624SOL    HW134508   2.379   4.683   7.687  1.6521 -3.5613 -1.0111
 7624SOL    HW234509   2.256   4.651   7.765  0.6352 -0.8119 -0.7342
 7625SOL     OW34510   2.492   1.633   6.267  0.0822  0.0001 -0.2728
 7625SOL    HW134511   2.479   1.725   6.244 -1.4599 -0.8719 -2.9131
 7625SOL    HW234512   2.401   1.603   6.269  1.0448 -3.0058 -0.7930
 7626SOL     OW34513   3.952   2.966   2.108 -0.0020  0.1148  0.1078
 7626SOL    HW134514   3.971   2.899   2.173  0.6811 -0.4032 -0.6230
 7626SOL    HW234515   3.859   2.957   2.086 -0.3306 -0.3341  1.6985
 7627SOL     OW34516   1.666   2.342  11.858 -0.0858  0.5890 -0.2558
 7627SOL    HW134517   1.744   2.340  11.913 -0.3887  1.9867  0.2277
 7627SOL    HW234518   1.603   2.301  11.918  0.4387 -0.9706 -0.7935
 7628SOL     OW34519   0.472   4.414   1.188  0.3945 -0.5225  0.1116
 7628SOL    HW134520   0.511   4.428   1.101  0.5827  0.1807  0.3081
 7628SOL    HW234521   0.549   4.404   1.243  0.1627 -0.8958  0.3638
 7629SOL     OW34522   3.917   3.996   3.745  0.3461  0.3841  0.1533
 7629SOL    HW134523   3.886   4.071   3.796  0.8320  1.2856 -0.8544
 7629SOL    HW234524   3.836   3.945   3.748  2.0246 -2.2358  0.5980
 7630SOL     OW34525   0.716   3.157   1.847 -0.2459 -0.0428 -0.0488
 7630SOL    HW134526   0.691   3.079   1.897 -0.7823  2.0670  2.9788
 7630SOL    HW234527   0.633   3.205   1.856 -0.5881 -0.5446 -0.5004
 7631SOL     OW34528   2.611   3.815  10.335 -0.2092  0.0193  0.0484
 7631SOL    HW134529   2.591   3.771  10.253 -2.5999  0.2963  0.4906
 7631SOL    HW234530   2.637   3.905  10.316 -1.1641  0.5752  1.3877
 7632SOL     OW34531   4.708   3.236   6.705 -1.0786 -0.1760 -0.2920
 7632SOL    HW134532   0.026   3.228   6.781 -0.4356 -0.1016 -0.7711
 7632SOL    HW234533   0.005   3.172   6.643  2.3385  1.5677 -0.0595
 7633SOL     OW34534   3.083   4.248   2.942 -0.7410  0.4283  0.4970
 7633SOL    HW134535   3.039   4.214   3.020 -1.2199 -0.4415 -0.1553
 7633SOL    HW234536   3.073   4.341   2.965  1.9072  0.9131 -0.2685
 7634SOL     OW34537   1.372   1.674   1.302 -0.4721 -0.0558  0.5269
 7634SOL    HW134538   1.333   1.588   1.315  0.3331 -0.6483 -1.0715
 7634SOL    HW234539   1.356   1.719   1.385 -0.0336 -1.2806  1.2836
 7635SOL     OW34540   4.056   4.648   6.006  0.1540  0.4054  0.3654
 7635SOL    HW134541   4.083   4.557   6.019 -1.7699  0.0088  1.7260
 7635SOL    HW234542   4.144   4.684   5.992 -0.9967  1.3746 -4.2996
 7636SOL     OW34543   0.863   0.832   7.712  0.3329  0.8048 -0.1608
 7636SOL    HW134544   0.916   0.756   7.737 -0.7028 -0.4762 -1.9631
 7636SOL    HW234545   0.771   0.806   7.715  1.0105 -1.5865 -0.8226
 7637SOL     OW34546   0.250   3.350   3.774 -0.1380 -0.2524  0.0254
 7637SOL    HW134547   0.264   3.308   3.689 -0.0249 -0.7123  0.2677
 7637SOL    HW234548   0.316   3.419   3.775  0.0242 -0.4148  0.4811
 7638SOL     OW34549   1.880   3.620   5.955  0.2001 -0.2333  0.0618
 7638SOL    HW134550   1.831   3.629   5.873  3.0016 -2.8020 -1.8616
 7638SOL    HW234551   1.835   3.689   6.004 -0.1264 -0.7637  0.5140
 7639SOL     OW34552   1.107   1.688  11.241 -0.2377  0.2551 -0.2427
 7639SOL    HW134553   1.051   1.713  11.168  0.2242 -0.9018 -1.0094
 7639SOL    HW234554   1.058   1.617  11.282  1.2116 -0.8079 -0.3215
 7640SOL     OW34555   4.616   1.922   0.384 -0.2450  0.2375 -0.4840
 7640SOL    HW134556   4.619   1.976   0.463 -1.5050 -0.8873  0.3297
 7640SOL    HW234557   4.550   1.969   0.332 -3.6173 -3.2080  0.6693
 7641SOL     OW34558   4.359   0.817   5.503 -0.6687 -0.2328 -0.5106
 7641SOL    HW134559   4.366   0.911   5.485 -0.5880  0.5561  3.7726
 7641SOL    HW234560   4.345   0.816   5.597 -1.0421  0.7458 -0.5542
 7642SOL     OW34561   4.330   4.669   9.190 -0.3471 -0.5852  0.3313
 7642SOL    HW134562   4.308   4.580   9.163  1.0376  0.2227 -3.4776
 7642SOL    HW234563   4.395   4.695   9.125 -2.6118  0.7107 -1.4207
 7643SOL     OW34564   2.400   0.369   8.617  0.5045 -0.4964  0.6248
 7643SOL    HW134565   2.359   0.282   8.616  0.8176 -0.6428  0.3532
 7643SOL    HW234566   2.365   0.421   8.688 -0.3998  0.2746 -0.3886
 7644SOL     OW34567   0.582   0.196  12.062  0.2117 -0.1482 -0.1000
 7644SOL    HW134568   0.629   0.212  12.144  0.4847 -0.9969 -0.0938
 7644SOL    HW234569   0.657   0.183  12.004  0.3036  0.2271 -0.0656
 7645SOL     OW34570   4.547   0.133  10.410 -0.5338 -0.4629 -0.0488
 7645SOL    HW134571   4.482   0.177  10.465 -2.3482 -2.9866 -0.1549
 7645SOL    HW234572   4.616   0.113  10.474 -1.4423 -0.1479  1.0343
 7646SOL     OW34573   3.605   0.271   0.124 -0.6288 -0.7165  0.0011
 7646SOL    HW134574   3.547   0.245   0.053 -1.0953 -0.8167  0.4159
 7646SOL    HW234575   3.540   0.295   0.190 -2.6572 -2.2261 -1.4285
 7647SOL     OW34576   3.528   0.113   6.949  0.1970 -0.5343 -0.2082
 7647SOL    HW134577   3.512   0.044   6.884  2.5550 -1.9338  0.7407
 7647SOL    HW234578   3.454   0.169   6.922  0.1541 -0.9319 -0.9325
 7648SOL     OW34579   4.439   4.620  10.546  0.5861  0.3269  0.3713
 7648SOL    HW134580   4.456   4.527  10.559  1.5344  0.4711  0.1575
 7648SOL    HW234581   4.513   4.644  10.490  0.0986  0.4601 -0.2174
 7649SOL     OW34582   1.965   0.984   1.797 -0.1164  0.8493  0.0537
 7649SOL    HW134583   1.893   0.956   1.854 -1.1650  2.0159 -0.6967
 7649SOL    HW234584   2.016   0.904   1.786 -1.1521  0.0090  1.3862
 7650SOL     OW34585   0.492   0.726   3.352 -0.1086 -0.1831 -0.1028
 7650SOL    HW134586   0.424   0.754   3.291 -0.9000  0.1554  0.9326
 7650SOL    HW234587   0.554   0.798   3.345 -0.0862 -0.0523  1.2909
 7651SOL     OW34588   3.614   0.188   5.248  0.4285 -0.1185 -0.3715
 7651SOL    HW134589   3.611   0.122   5.179 -0.1683 -0.4186 -0.0549
 7651SOL    HW234590   3.709   0.199   5.250  0.3424  0.3945  0.9196
 7652SOL     OW34591   3.984   3.132   8.674  0.1386  0.2769 -0.0416
 7652SOL    HW134592   4.057   3.184   8.640 -0.4598 -0.2129 -2.0497
 7652SOL    HW234593   4.025   3.106   8.756 -2.1409 -0.8323  0.7351
 7653SOL     OW34594   0.988   0.045   2.178 -0.2900 -0.2752  0.5464
 7653SOL    HW134595   0.981   0.140   2.181  1.2070 -0.1430  0.2270
 7653SOL    HW234596   0.958   0.020   2.090  0.5128 -0.7398  0.3972
 7654SOL     OW34597   1.913   0.080   9.590  0.1855  0.4621  0.4496
 7654SOL    HW134598   1.877   0.169   9.596  1.9424  1.1986 -0.1738
 7654SOL    HW234599   1.835   0.029   9.611  1.0035 -0.6331  0.8212
 7655SOL     OW34600   3.815   0.929   4.494 -0.8146 -0.1729  0.0116
 7655SOL    HW134601   3.751   0.870   4.533  0.6742 -0.3978  2.1027
 7655SOL    HW234602   3.796   1.009   4.543 -0.8542 -0.0701 -0.1687
 7656SOL     OW34603   4.205   1.325   3.262 -0.4153  0.4401 -0.3200
 7656SOL    HW134604   4.213   1.377   3.182  1.1734  0.7880  0.0699
 7656SOL    HW234605   4.294   1.332   3.297 -0.8834  0.6949  0.8078
 7657SOL     OW34606   0.138   3.150   2.919 -0.2035 -0.0874  0.9635
 7657SOL    HW134607   0.112   3.200   2.996  0.5508 -1.6668  2.2603
 7657SOL    HW234608   0.066   3.169   2.859  0.2091 -2.7091 -0.3670
 7658SOL     OW34609   2.322   1.001  14.688  0.4445  0.4926 -0.6238
 7658SOL    HW134610   2.384   0.927  14.689  0.9442  0.9298  0.1124
 7658SOL    HW234611   2.251   0.968  14.633 -0.2436 -2.3023  1.9143
 7659SOL     OW34612   1.099   3.187   8.109 -0.2608  0.1423 -0.2561
 7659SOL    HW134613   1.132   3.179   8.198 -0.0210  0.4217 -0.3178
 7659SOL    HW234614   1.069   3.100   8.085  1.1005 -0.6909  1.1072
 7660SOL     OW34615   2.687   3.575   7.954  0.6407 -0.4163 -0.5276
 7660SOL    HW134616   2.603   3.542   7.922  0.0334  1.0022 -0.3835
 7660SOL    HW234617   2.703   3.510   8.023 -0.5629  0.6029  0.6964
 7661SOL     OW34618   1.230   3.052   5.185  0.0501  0.6248  0.8079
 7661SOL    HW134619   1.259   2.985   5.247 -2.2988  0.8302  2.1582
 7661SOL    HW234620   1.185   3.104   5.253 -0.8906  1.1097 -0.1843
 7662SOL     OW34621   3.115   2.665   3.423 -0.0733 -0.1992 -0.2702
 7662SOL    HW134622   3.122   2.630   3.512 -0.4232  1.2775  0.3302
 7662SOL    HW234623   3.087   2.753   3.447  1.4548  0.0360  0.6442
 7663SOL     OW34624   0.568   4.213   9.285  0.0654  0.5048  0.6097
 7663SOL    HW134625   0.645   4.238   9.234  0.0786  3.2002  1.9274
 7663SOL    HW234626   0.522   4.164   9.217  1.7496 -0.3405  0.0917
 7664SOL     OW34627   3.863   1.692   4.285  0.2669 -0.2194  0.0683
 7664SOL    HW134628   3.912   1.642   4.220  2.9491 -0.1050  1.9892
 7664SOL    HW234629   3.782   1.708   4.236  0.4502  0.0415 -0.1458
 7665SOL     OW34630   3.440   0.428   4.750 -0.3014 -0.0318  0.1116
 7665SOL    HW134631   3.487   0.440   4.667  1.3559 -2.3269  0.7169
 7665SOL    HW234632   3.461   0.510   4.795  2.4591 -0.5313 -0.2513
 7666SOL     OW34633   2.881   2.617   6.531  0.0409 -0.6684  0.2926
 7666SOL    HW134634   2.947   2.638   6.596  2.0655 -0.6067 -1.8049
 7666SOL    HW234635   2.915   2.532   6.504  1.3627 -0.6492  1.9061
 7667SOL     OW34636   2.349   1.608   5.650 -0.2481  0.1546  0.9788
 7667SOL    HW134637   2.344   1.513   5.662 -1.1752  0.1435  0.5087
 7667SOL    HW234638   2.370   1.625   5.559 -0.3299  3.8946  1.6599
 7668SOL     OW34639   4.384   4.037  12.307  0.2959  0.1228 -0.4058
 7668SOL    HW134640   4.385   4.133  12.307 -2.4036  0.1671  2.5590
 7668SOL    HW234641   4.399   4.019  12.214  2.9115  1.7040 -0.3109
 7669SOL     OW34642   2.307   1.620   8.679 -0.5370 -0.4227  0.1147
 7669SOL    HW134643   2.279   1.630   8.771 -0.9411 -1.1280  0.0662
 7669SOL    HW234644   2.299   1.525   8.685  1.0556 -0.5851 -0.1514
 7670SOL     OW34645   1.508   0.254   3.969 -0.2441  0.1219 -0.0603
 7670SOL    HW134646   1.569   0.315   3.927  1.4392 -1.6805 -0.2279
 7670SOL    HW234647   1.446   0.262   3.896  1.0783 -0.3151 -1.2231
 7671SOL     OW34648   2.718   3.410  11.392 -0.0550 -0.1138  0.4286
 7671SOL    HW134649   2.793   3.351  11.383 -0.4487 -0.3502 -1.2219
 7671SOL    HW234650   2.680   3.422  11.305 -0.4022  0.7017  0.6911
 7672SOL     OW34651   0.919   2.033   2.997 -0.5195 -0.3800  1.0016
 7672SOL    HW134652   0.911   1.985   2.914  1.1000  1.3559 -0.1513
 7672SOL    HW234653   1.014   2.041   2.994 -0.7138  1.2203 -1.3262
 7673SOL     OW34654   1.216   1.600   6.095  0.0616  0.4324  0.0850
 7673SOL    HW134655   1.247   1.674   6.147 -0.1505 -0.5978  1.6763
 7673SOL    HW234656   1.256   1.524   6.138 -1.2845 -0.3338 -0.0419
 7674SOL     OW34657   0.258   1.937   8.436  0.1827 -0.3868  0.8512
 7674SOL    HW134658   0.253   1.845   8.409 -2.6076  0.4573 -1.5309
 7674SOL    HW234659   0.306   1.964   8.358 -1.3328 -2.7605 -0.9257
 7675SOL     OW34660   4.592   3.093   8.569  0.1873 -0.6015  0.1099
 7675SOL    HW134661   4.629   3.050   8.493 -0.8826 -2.2159  0.4863
 7675SOL    HW234662   4.498   3.100   8.548  0.0100 -1.0234  0.7484
 7676SOL     OW34663   3.492   2.283   5.558  0.5009  0.5906 -0.1785
 7676SOL    HW134664   3.428   2.354   5.563  1.9653  1.9904 -1.2109
 7676SOL    HW234665   3.451   2.225   5.495  1.0038 -1.4861  1.4225
 7677SOL     OW34666   4.706   3.843   8.486  0.2245  0.3520  0.3278
 7677SOL    HW134667   4.614   3.820   8.498  0.2349  0.6722  1.0103
 7677SOL    HW234668   4.734   3.802   8.404 -2.9562 -0.0373 -0.5560
 7678SOL     OW34669   4.453   3.915   6.889 -0.1745 -0.2260 -0.3761
 7678SOL    HW134670   4.434   3.991   6.944 -0.3407 -0.3080 -0.3217
 7678SOL    HW234671   4.462   3.859   6.966 -1.2053  0.6043  0.3515
 7679SOL     OW34672   0.403   1.833  14.425 -0.1627 -0.1005  0.1579
 7679SOL    HW134673   0.445   1.884  14.356 -0.4659  0.3318  0.2933
 7679SOL    HW234674   0.316   1.874  14.435  0.5185  1.2870  0.4110
 7680SOL     OW34675   4.570   0.222  11.018  0.1600  0.2966  0.2899
 7680SOL    HW134676   4.532   0.208  10.931 -1.7405  0.0237  1.1815
 7680SOL    HW234677   4.524   0.150  11.062 -1.6869  0.0495 -2.0231
 7681SOL     OW34678   2.307   2.489   2.420  0.1361 -0.2252 -0.9083
 7681SOL    HW134679   2.348   2.489   2.334  1.1079  0.1012 -0.4377
 7681SOL    HW234680   2.263   2.406   2.403 -0.1687 -0.7589  2.4096
 7682SOL     OW34681   0.694   2.029   7.380  0.2146  0.3965 -0.6825
 7682SOL    HW134682   0.686   2.123   7.393 -1.6942  0.2017 -0.5389
 7682SOL    HW234683   0.736   2.008   7.464  0.5001  0.9590 -0.6815
 7683SOL     OW34684   1.684   2.159   2.752  0.0497 -0.7113 -0.1118
 7683SOL    HW134685   1.657   2.246   2.780  2.0086  0.6574 -2.5141
 7683SOL    HW234686   1.641   2.093   2.807  2.4081 -2.4394 -0.3776
 7684SOL     OW34687   3.232   3.045   3.470  0.1833  0.1351 -0.1505
 7684SOL    HW134688   3.267   3.082   3.551  2.7725  0.3566 -1.3771
 7684SOL    HW234689   3.163   2.992   3.509 -2.0541  2.0929 -1.4294
 7685SOL     OW34690   2.914   1.683  11.319 -0.0283 -0.2148  1.4525
 7685SOL    HW134691   2.824   1.695  11.350 -0.4899 -0.0213  0.0173
 7685SOL    HW234692   2.926   1.778  11.310 -2.6108 -0.1192 -1.0348
 7686SOL     OW34693   4.355   2.515   8.970 -0.1244 -0.3245  0.1608
 7686SOL    HW134694   4.400   2.433   8.993 -0.3849 -0.6926 -0.6562
 7686SOL    HW234695   4.427   2.572   8.998 -0.7245  0.5550 -0.0833
 7687SOL     OW34696   2.323   3.841   8.694 -0.0566 -0.4246  0.3671
 7687SOL    HW134697   2.363   3.754   8.700 -1.5539 -1.1878 -0.6557
 7687SOL    HW234698   2.394   3.905   8.703  2.7233 -3.3310 -0.6409
 7688SOL     OW34699   0.574   0.303   5.303  0.1870  0.3123 -0.3533
 7688SOL    HW134700   0.666   0.327   5.316  0.6303 -2.5870  1.7366
 7688SOL    HW234701   0.570   0.229   5.364 -1.9808  0.6602 -0.0494
 7689SOL     OW34702   3.220   0.616   3.824  0.4835 -0.0542  0.6075
 7689SOL    HW134703   3.260   0.685   3.771  0.0558 -1.2173 -1.2373
 7689SOL    HW234704   3.141   0.593   3.775  0.3616 -0.4372  0.9812
 7690SOL     OW34705   4.320   2.219   8.003 -0.2578  0.1532 -0.3924
 7690SOL    HW134706   4.258   2.292   8.006 -0.4959 -0.0263 -0.9211
 7690SOL    HW234707   4.373   2.243   8.078  0.7029  2.1497 -1.7186
 7691SOL     OW34708   1.202   4.074   9.039 -0.1821  0.2069 -0.5199
 7691SOL    HW134709   1.111   4.047   9.052  0.2308 -0.6968  0.5141
 7691SOL    HW234710   1.181   4.152   8.987  2.5072  0.3816 -1.3228
 7692SOL     OW34711   0.992   3.798   9.784 -0.0156 -0.0980  0.1273
 7692SOL    HW134712   1.011   3.887   9.756 -2.0237  0.0894 -0.6239
 7692SOL    HW234713   0.903   3.803   9.819 -0.9491 -0.5373 -2.1908
 7693SOL     OW34714   2.662   0.678   4.389 -0.2316 -0.3551 -0.7607
 7693SOL    HW134715   2.660   0.607   4.453  1.3842  1.5690  1.4363
 7693SOL    HW234716   2.654   0.632   4.306 -0.0592  2.1198 -2.1435
 7694SOL     OW34717   0.495   3.650   6.959  0.2067 -0.1215  0.4443
 7694SOL    HW134718   0.545   3.657   7.040  0.8719 -1.3847  0.1458
 7694SOL    HW234719   0.567   3.617   6.905 -0.7414  0.1081 -0.9618
 7695SOL     OW34720   2.477   3.580   1.005 -0.4460  0.4314  0.3238
 7695SOL    HW134721   2.572   3.571   0.999 -0.3042  2.8303 -0.8167
 7695SOL    HW234722   2.444   3.495   0.977  0.9315 -0.0041  0.0382
 7696SOL     OW34723   0.809   1.970   8.546 -0.3775 -0.0415 -0.4778
 7696SOL    HW134724   0.826   1.946   8.637 -1.2926  3.1115  0.5145
 7696SOL    HW234725   0.886   2.018   8.518  1.3757 -1.7360  1.4452
 7697SOL     OW34726   4.385   1.896   2.532 -0.1585 -0.2566 -1.0999
 7697SOL    HW134727   4.425   1.980   2.510 -0.3567 -0.2802 -1.5502
 7697SOL    HW234728   4.435   1.879   2.612 -2.0504  0.7538  0.3137
 7698SOL     OW34729   3.876   1.715  13.074  0.1841 -0.5990  0.0242
 7698SOL    HW134730   3.832   1.726  13.159  0.1504  1.1793 -0.2184
 7698SOL    HW234731   3.792   1.724  13.029  0.8745 -1.0437 -1.3392
 7699SOL     OW34732   0.701   3.317  16.563 -0.2249 -0.5291 -0.0454
 7699SOL    HW134733   0.753   3.380  16.512 -0.6752  0.2695  0.4760
 7699SOL    HW234734   0.697   3.238  16.510 -0.1431  0.1592 -1.0770
 7700SOL     OW34735   2.130   3.629   7.530 -0.6898 -0.7680  0.5836
 7700SOL    HW134736   2.053   3.686   7.524  0.5078  0.7128 -0.6738
 7700SOL    HW234737   2.193   3.674   7.474 -1.4962 -1.2884 -0.7694
 7701SOL     OW34738   4.467   2.148  12.088  0.6080  0.2636 -0.5927
 7701SOL    HW134739   4.381   2.161  12.047  0.0965  0.1293  0.4458
 7701SOL    HW234740   4.521   2.214  12.045  0.2884 -0.0376 -1.4647
 7702SOL     OW34741   4.557   3.234   9.083 -0.7090 -0.0340 -0.2462
 7702SOL    HW134742   4.471   3.199   9.059 -1.5462  0.9226  1.3973
 7702SOL    HW234743   4.572   3.286   9.004  0.8459 -1.0687 -0.6313
 7703SOL     OW34744   2.244   2.574   6.165 -0.1658  0.0183  0.6175
 7703SOL    HW134745   2.210   2.637   6.101 -0.3606 -0.9604 -0.2454
 7703SOL    HW234746   2.170   2.572   6.226  0.2315  0.6332  1.1249
 7704SOL     OW34747   2.582   0.455   1.397 -0.1165  0.3879  0.2025
 7704SOL    HW134748   2.520   0.453   1.324  0.3058  1.2056 -0.1803
 7704SOL    HW234749   2.666   0.463   1.352 -1.4648  1.1920 -2.1969
 7705SOL     OW34750   1.749   2.088   3.085  0.1898 -0.1154  0.1150
 7705SOL    HW134751   1.791   2.034   3.152 -0.0695 -0.9882 -0.4406
 7705SOL    HW234752   1.661   2.051   3.092  0.6098 -0.8382  1.4989
 7706SOL     OW34753   0.660   1.630  11.069 -0.7818  0.7136  0.5708
 7706SOL    HW134754   0.634   1.707  11.019  0.5837  0.2960 -0.7673
 7706SOL    HW234755   0.670   1.580  10.988  0.5735  1.1372  0.4814
 7707SOL     OW34756   1.750   0.708   3.786  0.1123  0.2865 -0.1068
 7707SOL    HW134757   1.844   0.722   3.797  0.3889 -1.3794 -0.5201
 7707SOL    HW234758   1.728   0.786   3.734  2.2183  0.9835  0.0343
 7708SOL     OW34759   2.441   1.265   6.842  0.2914  0.0250  0.1624
 7708SOL    HW134760   2.366   1.205   6.843  0.1730  0.1960  2.9717
 7708SOL    HW234761   2.395   1.347   6.860 -0.0387 -0.0435 -0.3898
 7709SOL     OW34762   2.003   1.683  10.243 -0.5399 -0.0517  0.3673
 7709SOL    HW134763   1.930   1.683  10.305 -1.0022 -1.8112 -0.1614
 7709SOL    HW234764   2.068   1.619  10.274 -1.1250  0.6931  3.1437
 7710SOL     OW34765   2.347   2.226   3.687  0.0614  0.5223 -0.3896
 7710SOL    HW134766   2.309   2.314   3.693  0.7021  0.8119 -0.4768
 7710SOL    HW234767   2.292   2.174   3.745 -1.1490  2.0791 -0.1430
 7711SOL     OW34768   4.711   1.894   3.190 -0.7397  0.0854 -0.1005
 7711SOL    HW134769   0.008   1.962   3.246  0.0181  0.3510 -0.9249
 7711SOL    HW234770   0.004   1.918   3.103  0.2017 -1.0686 -0.0723
 7712SOL     OW34771   3.309   2.045  10.595 -0.3247  0.0008  1.0969
 7712SOL    HW134772   3.329   2.030  10.688 -1.6893 -1.4138  1.1712
 7712SOL    HW234773   3.220   2.080  10.602 -0.1360  0.4801  1.1415
 7713SOL     OW34774   2.976   4.512   7.166 -0.0846 -0.0927 -0.4063
 7713SOL    HW134775   2.980   4.585   7.228 -0.8128 -0.1117 -0.3348
 7713SOL    HW234776   3.019   4.440   7.213 -1.2829 -0.6194 -0.1134
 7714SOL     OW34777   4.486   1.792   9.569 -0.1297 -0.5144 -0.8049
 7714SOL    HW134778   4.453   1.707   9.598 -1.2205  0.3016  0.3344
 7714SOL    HW234779   4.401   1.835   9.558  0.4258  0.6826 -0.4752
 7715SOL     OW34780   4.577   3.656  10.400 -0.1158  0.2360  0.8731
 7715SOL    HW134781   4.671   3.644  10.390 -0.2053 -0.8023  1.2757
 7715SOL    HW234782   4.569   3.719  10.472  1.4257  1.3322  0.0908
 7716SOL     OW34783   0.648   2.868  16.160  0.6341  0.3712 -0.1284
 7716SOL    HW134784   0.664   2.962  16.157  1.6866  0.1483 -1.1793
 7716SOL    HW234785   0.562   2.865  16.118 -0.1554  0.2561  1.4815
 7717SOL     OW34786   3.929   4.726   8.808  0.7330 -0.4823 -0.0315
 7717SOL    HW134787   3.884   0.067   8.781 -0.8131 -1.2903  0.1754
 7717SOL    HW234788   4.000   4.723   8.743  1.1702  1.7611  0.3173
 7718SOL     OW34789   1.781   1.660   3.132 -0.2127 -0.3554 -0.2010
 7718SOL    HW134790   1.750   1.570   3.142 -0.2235 -0.3935 -0.5834
 7718SOL    HW234791   1.861   1.651   3.080 -1.1194 -0.6996 -1.5612
 7719SOL     OW34792   0.345   0.147   9.797  0.4918  0.0030 -0.1190
 7719SOL    HW134793   0.311   0.151   9.886  1.8128 -1.5706  0.4426
 7719SOL    HW234794   0.291   0.078   9.759 -2.8788  2.8849 -0.5940
 7720SOL     OW34795   3.743   2.053   8.277  0.5318  0.3417  0.1717
 7720SOL    HW134796   3.697   1.978   8.240  2.0732 -1.8118  2.6311
 7720SOL    HW234797   3.824   2.013   8.306  0.1670  0.4081  1.3021
 7721SOL     OW34798   1.647   0.139   3.122  0.8769  0.9778 -0.2466
 7721SOL    HW134799   1.585   0.137   3.049  1.1540  1.7569 -0.5123
 7721SOL    HW234800   1.584   0.135   3.194  1.6691  1.6122  0.4959
 7722SOL     OW34801   0.624   2.650  11.830 -0.0400 -0.3006  0.4782
 7722SOL    HW134802   0.648   2.578  11.889 -0.8605 -0.2359  0.8835
 7722SOL    HW234803   0.708   2.691  11.810 -1.6930  1.4764 -2.9113
 7723SOL     OW34804   3.328   4.692   3.048  0.1505  0.4322  0.0365
 7723SOL    HW134805   3.321   4.635   3.124 -0.1261  0.6693  0.1882
 7723SOL    HW234806   3.268   4.659   2.981  1.4109 -1.7503 -0.0275
 7724SOL     OW34807   0.939   3.257   8.717  0.4010 -0.4937  0.1860
 7724SOL    HW134808   0.863   3.205   8.690 -0.7445  2.1075 -1.6024
 7724SOL    HW234809   0.986   3.274   8.636 -1.0903 -0.9079 -0.7585
 7725SOL     OW34810   0.267   4.387   4.762 -0.1827 -0.1785  0.3296
 7725SOL    HW134811   0.310   4.386   4.676 -0.1069 -2.3082  0.3837
 7725SOL    HW234812   0.345   4.394   4.817 -0.0004  1.2887 -0.1182
 7726SOL     OW34813   4.631   3.323  12.346  0.2719  0.5987  0.2765
 7726SOL    HW134814   4.626   3.413  12.312 -1.8528  0.2704 -0.2917
 7726SOL    HW234815   4.717   3.296  12.314 -0.6326 -0.0325 -1.6292
 7727SOL     OW34816   2.582   3.459   4.652  0.8609  0.0471  0.1833
 7727SOL    HW134817   2.545   3.397   4.714  0.7899  0.4263  0.5185
 7727SOL    HW234818   2.624   3.399   4.590  0.5662 -0.6961  0.7052
 7728SOL     OW34819   4.700   1.322   7.757 -0.5863 -0.4761  0.0253
 7728SOL    HW134820   4.725   1.256   7.691  1.1326  0.0972  0.1240
 7728SOL    HW234821   4.626   1.273   7.793  0.8640 -1.6213  1.4420
 7729SOL     OW34822   1.753   2.593   6.411  0.7771 -0.5915  0.3235
 7729SOL    HW134823   1.715   2.681   6.408  0.7283 -0.5682  1.7215
 7729SOL    HW234824   1.698   2.544   6.472  0.1977 -0.8454 -0.4053
 7730SOL     OW34825   3.122   3.053  17.419 -0.0542  0.6616 -0.0837
 7730SOL    HW134826   3.029   3.038  17.438 -0.2779 -1.1221 -2.7395
 7730SOL    HW234827   3.104   3.141  17.387  2.5295  1.3149  0.2331
 7731SOL     OW34828   4.063   0.728  16.308 -0.0433 -0.2634  0.1008
 7731SOL    HW134829   4.131   0.699  16.368  0.8182  1.2262 -0.1608
 7731SOL    HW234830   4.115   0.783  16.249  0.0712  0.5401  0.9657
 7732SOL     OW34831   4.012   3.814   5.724 -0.1472 -0.7901 -0.3453
 7732SOL    HW134832   4.073   3.742   5.709  1.3182  0.1083  1.3158
 7732SOL    HW234833   4.073   3.873   5.768 -2.3620 -0.6426  2.5424
 7733SOL     OW34834   2.942   1.224   8.515  0.4641 -0.0131  0.0324
 7733SOL    HW134835   2.881   1.228   8.442  0.1214  0.6465  0.3555
 7733SOL    HW234836   2.953   1.318   8.532  1.6861  0.1216 -1.5526
 7734SOL     OW34837   2.855   3.572   3.974 -0.2251  0.0953 -0.5371
 7734SOL    HW134838   2.817   3.657   3.952 -0.5425 -0.6276 -2.7063
 7734SOL    HW234839   2.782   3.511   3.984  0.1446 -0.4867 -1.4473
 7735SOL     OW34840   1.598   3.034   4.618 -0.9842  0.5339 -0.3802
 7735SOL    HW134841   1.600   3.122   4.582  1.0114  1.4306  1.9760
 7735SOL    HW234842   1.530   2.993   4.564  0.9588 -2.8341 -0.2888
 7736SOL     OW34843   2.207   0.733  16.576  0.1402 -0.1168 -0.4947
 7736SOL    HW134844   2.270   0.767  16.639 -2.2856  2.8303  0.3632
 7736SOL    HW234845   2.205   0.801  16.508 -0.1718  0.3304 -0.0408
 7737SOL     OW34846   3.388   3.593   2.141 -0.3909 -0.4836 -0.3648
 7737SOL    HW134847   3.388   3.529   2.070 -1.4709  1.8526 -2.4776
 7737SOL    HW234848   3.338   3.669   2.110 -1.7883  0.3184  3.8495
 7738SOL     OW34849   3.928   1.755   7.998  0.3919 -0.0263  0.0795
 7738SOL    HW134850   3.992   1.827   7.992 -0.9883  1.1517 -0.4962
 7738SOL    HW234851   3.953   1.716   8.082  0.3125 -0.3874 -0.0641
 7739SOL     OW34852   0.032   1.264   2.532 -0.7644 -0.4581  0.0012
 7739SOL    HW134853   0.070   1.333   2.477  0.3336 -0.2624  1.0157
 7739SOL    HW234854   0.034   1.199   2.462 -0.3671  1.9890 -2.2929
 7740SOL     OW34855   3.852   0.366  15.924 -0.5001  0.2816 -0.0186
 7740SOL    HW134856   3.762   0.393  15.908 -1.1592 -2.4739 -1.0461
 7740SOL    HW234857   3.879   0.429  15.990  1.3241 -0.2222 -0.2896
 7741SOL     OW34858   3.293   4.058  12.736  0.1403 -0.0771  0.7688
 7741SOL    HW134859   3.260   4.104  12.658 -0.6933 -0.6889  0.7643
 7741SOL    HW234860   3.232   4.086  12.804 -0.0954  0.0584  0.5006
 7742SOL     OW34861   4.040   0.852   2.254 -0.0073 -0.2096 -0.0054
 7742SOL    HW134862   4.124   0.875   2.294  0.0628 -3.5134  1.7646
 7742SOL    HW234863   4.041   0.914   2.181 -0.9380 -1.2243 -0.8699
 7743SOL     OW34864   4.611   1.330   1.017 -0.3867 -0.1941 -0.1487
 7743SOL    HW134865   4.585   1.407   1.069 -3.1896 -0.9432 -0.4190
 7743SOL    HW234866   4.696   1.361   0.986 -1.3560  1.9539 -0.7105
 7744SOL     OW34867   1.249   4.404   9.062 -0.3229 -0.2315  0.0816
 7744SOL    HW134868   1.160   4.375   9.077 -1.2324  2.2429 -0.5053
 7744SOL    HW234869   1.258   4.453   8.981  0.8745 -0.3445  0.1382
 7745SOL     OW34870   0.081   0.986  15.757  0.2763  0.9295  0.5258
 7745SOL    HW134871   0.051   0.896  15.741 -0.0000  1.1919 -0.4490
 7745SOL    HW234872   0.153   1.002  15.696 -0.7408  1.0121 -0.6875
 7746SOL     OW34873   2.031   4.549   5.301  0.0882 -0.4063 -0.0047
 7746SOL    HW134874   2.118   4.589   5.300 -0.6818  1.2458 -0.4346
 7746SOL    HW234875   2.022   4.527   5.393  1.9625 -1.3776 -0.0530
 7747SOL     OW34876   3.158   0.889   5.430  0.4324 -0.4754  0.2559
 7747SOL    HW134877   3.076   0.846   5.453  0.7706 -0.8895  0.7229
 7747SOL    HW234878   3.139   0.909   5.339 -0.5908  1.5002  0.9240
 7748SOL     OW34879   0.433   2.633   2.616  0.0517 -0.1620 -0.4865
 7748SOL    HW134880   0.363   2.683   2.575  0.6759  0.5822 -0.6481
 7748SOL    HW234881   0.421   2.662   2.706 -1.3144 -0.8467 -0.4521
 7749SOL     OW34882   2.797   1.888  13.017  0.5284  0.0095  0.1217
 7749SOL    HW134883   2.848   1.856  12.943 -0.6796 -0.1491 -0.6333
 7749SOL    HW234884   2.843   1.969  13.039 -1.7207  1.0865  0.9076
 7750SOL     OW34885   1.043   0.834   2.862  0.8796 -0.2621 -0.0143
 7750SOL    HW134886   1.007   0.854   2.949 -2.7369 -0.0341 -1.5422
 7750SOL    HW234887   1.033   0.740   2.852  1.3462 -0.1190 -1.7444
 7751SOL     OW34888   3.283   3.445   5.088 -0.5661 -0.3001 -0.2383
 7751SOL    HW134889   3.371   3.407   5.094  0.0396  1.1869  0.2432
 7751SOL    HW234890   3.231   3.391   5.146 -0.8645  2.1891  1.7967
 7752SOL     OW34891   2.520   0.164   1.509 -0.0246 -0.0614  0.5549
 7752SOL    HW134892   2.499   0.253   1.484  1.2992 -0.1335 -0.7935
 7752SOL    HW234893   2.524   0.170   1.605  0.6463 -1.4638  0.6253
 7753SOL     OW34894   4.331   3.229  16.215 -0.0394 -0.2697  0.1388
 7753SOL    HW134895   4.352   3.270  16.132 -0.6240  1.1255  0.6765
 7753SOL    HW234896   4.311   3.307  16.267  1.1448  1.1223 -1.5344
 7754SOL     OW34897   1.708   1.478  14.290 -0.7451 -0.1269 -0.1047
 7754SOL    HW134898   1.616   1.500  14.301 -0.5300  0.7349 -0.0739
 7754SOL    HW234899   1.732   1.484  14.382 -1.3418  1.2877 -0.0403
 7755SOL     OW34900   3.885   0.937   8.836 -0.0652  0.3491  0.7459
 7755SOL    HW134901   3.848   1.025   8.844  1.6832  1.0496  1.0842
 7755SOL    HW234902   3.805   0.884   8.841 -0.2392  0.5569  0.0965
 7756SOL     OW34903   3.049   1.886   2.889  0.2881  0.2626  0.3996
 7756SOL    HW134904   3.059   1.827   2.964  0.1889 -0.3623 -0.0750
 7756SOL    HW234905   3.054   1.974   2.926 -2.9806  0.1835  1.0422
 7757SOL     OW34906   2.461   3.885   7.705  0.4493  0.1876  0.2683
 7757SOL    HW134907   2.422   3.800   7.722  1.8304 -0.6082 -0.5680
 7757SOL    HW234908   2.383   3.939   7.722 -0.5948 -0.7927 -1.4112
 7758SOL     OW34909   2.921   4.202   1.424 -0.6557 -0.0838 -0.0530
 7758SOL    HW134910   2.907   4.250   1.505  0.3266  0.8948 -0.4617
 7758SOL    HW234911   2.926   4.277   1.364 -1.3779  0.1156  0.1401
 7759SOL     OW34912   0.379   3.499  14.190 -0.1084 -0.1493  0.1095
 7759SOL    HW134913   0.302   3.546  14.221  0.2277  0.0035  0.7023
 7759SOL    HW234914   0.433   3.570  14.155 -2.6173  1.3047 -0.7834
 7760SOL     OW34915   0.917   4.053   2.761 -0.3398  0.0935  0.2459
 7760SOL    HW134916   0.951   3.964   2.762  2.2562  1.1088  2.1394
 7760SOL    HW234917   0.987   4.112   2.790 -0.2296  0.3492 -0.5429
 7761SOL     OW34918   4.336   4.010   8.815  0.1896  0.2815  0.1212
 7761SOL    HW134919   4.265   3.950   8.793 -1.7567  2.5675  0.1495
 7761SOL    HW234920   4.333   4.013   8.911  1.8307  1.7762  0.1259
 7762SOL     OW34921   4.136   3.078   6.757 -0.4175 -0.0882 -0.0398
 7762SOL    HW134922   4.177   3.104   6.675 -2.0084  2.1013 -0.1390
 7762SOL    HW234923   4.116   2.986   6.738  0.1229 -0.1783 -0.1859
 7763SOL     OW34924   3.990   3.343   6.462 -0.5661  0.0718  0.0150
 7763SOL    HW134925   3.971   3.249   6.461  1.4834 -0.3688  3.8094
 7763SOL    HW234926   3.916   3.383   6.509 -0.3792 -1.5076  1.6400
 7764SOL     OW34927   2.551   0.250  12.416 -0.4711 -0.4486  0.0538
 7764SOL    HW134928   2.619   0.235  12.350 -1.2932  0.0497 -0.9233
 7764SOL    HW234929   2.601   0.241  12.497 -2.4501 -0.5146  1.2596
 7765SOL     OW34930   3.814   2.627   3.180 -0.0169 -0.2344 -0.4427
 7765SOL    HW134931   3.778   2.715   3.191 -1.3940 -0.6778 -1.3532
 7765SOL    HW234932   3.863   2.611   3.260 -3.0142  1.3195  1.6941
 7766SOL     OW34933   3.911   0.030   6.851  0.1597 -0.1936  0.5565
 7766SOL    HW134934   4.002   0.029   6.820 -1.1067 -0.5232 -3.1229
 7766SOL    HW234935   3.892   0.110   6.803  1.5238 -0.5236 -0.5337
 7767SOL     OW34936   4.207   2.999   3.275  0.4106  0.1947 -0.2533
 7767SOL    HW134937   4.277   2.944   3.241 -0.3988 -1.0423  0.0775
 7767SOL    HW234938   4.259   3.074   3.303  0.5365  0.7238 -1.9408
 7768SOL     OW34939   3.898   2.316   3.050  0.7642  0.2306 -0.1790
 7768SOL    HW134940   3.903   2.231   3.006  0.0150 -0.6668  1.4607
 7768SOL    HW234941   3.803   2.320   3.066  0.6660 -2.0933 -0.1769
 7769SOL     OW34942   1.649   3.238  12.676  0.2047  0.1627 -0.4803
 7769SOL    HW134943   1.706   3.313  12.657  1.4867 -0.5763  0.4298
 7769SOL    HW234944   1.614   3.239  12.587 -2.2621 -1.1255  0.4623
 7770SOL     OW34945   1.846   0.120   7.329 -0.3907  0.3898  0.2759
 7770SOL    HW134946   1.782   0.107   7.260 -0.5913  2.6521  0.0579
 7770SOL    HW234947   1.923   0.160   7.290 -1.0143 -0.0246 -1.3553
 7771SOL     OW34948   2.264   1.854   6.060 -0.0599 -0.1949 -0.1344
 7771SOL    HW134949   2.313   1.787   6.012  1.4632  1.6510 -1.1468
 7771SOL    HW234950   2.219   1.901   5.989  1.5462  0.3872 -0.7696
 7772SOL     OW34951   4.068   1.904   5.370 -0.4270 -0.2683  0.1065
 7772SOL    HW134952   4.067   1.877   5.462 -1.7167 -0.8178 -0.0679
 7772SOL    HW234953   4.163   1.907   5.359 -0.2579  2.3737  2.5026
 7773SOL     OW34954   2.591   4.046   1.149  0.1736 -0.0927  0.2464
 7773SOL    HW134955   2.652   4.025   1.078  0.3678  0.3148  0.2925
 7773SOL    HW234956   2.638   4.002   1.220  1.7791  1.3422  0.0553
 7774SOL     OW34957   3.879   2.316   1.789 -0.1471 -0.2699  0.1140
 7774SOL    HW134958   3.843   2.234   1.825 -0.3855  0.0314  0.5616
 7774SOL    HW234959   3.799   2.357   1.759  0.7838  2.2029  1.0308
 7775SOL     OW34960   3.932   3.373   1.527 -0.0565 -0.2079  0.4265
 7775SOL    HW134961   3.886   3.289   1.529 -0.3573 -0.0361  0.6728
 7775SOL    HW234962   3.859   3.430   1.550 -0.0813  0.3359 -1.0245
 7776SOL     OW34963   0.229   1.015  17.530  0.0554 -0.3795  0.0254
 7776SOL    HW134964   0.237   1.063  17.447  0.0343 -0.3784  0.0241
 7776SOL    HW234965   0.324   1.022  17.545  0.3633  0.0662 -2.1132
 7777SOL     OW34966   1.727   1.984  12.497 -0.2238 -0.2267 -0.1460
 7777SOL    HW134967   1.741   2.036  12.576  0.5231  0.5379 -0.7884
 7777SOL    HW234968   1.636   2.005  12.474  0.4589  0.1646 -2.4466
 7778SOL     OW34969   3.031   4.126   6.511  0.1691  0.0627  0.2301
 7778SOL    HW134970   3.115   4.081   6.515 -1.0188 -1.8970  3.5787
 7778SOL    HW234971   2.987   4.056   6.462  0.4031  0.7279 -0.9258
 7779SOL     OW34972   2.975   2.534   2.513 -0.8202  0.1774 -0.2003
 7779SOL    HW134973   3.036   2.515   2.442  0.7934 -1.4637  1.5921
 7779SOL    HW234974   3.028   2.597   2.561 -1.2731  2.3578 -2.5717
 7780SOL     OW34975   3.091   0.344   2.813 -0.1337 -0.1586  0.3120
 7780SOL    HW134976   3.073   0.423   2.762 -1.6313 -0.1553  0.8525
 7780SOL    HW234977   3.048   0.273   2.767  0.2850  0.1071 -0.4855
 7781SOL     OW34978   2.458   0.632  13.147  0.0187  0.5087 -0.3490
 7781SOL    HW134979   2.411   0.711  13.121  0.3074  0.8597  0.1843
 7781SOL    HW234980   2.521   0.675  13.205 -0.5654 -0.5442  1.0707
 7782SOL     OW34981   0.170   2.913  15.525  0.0955  0.7514 -0.2192
 7782SOL    HW134982   0.087   2.868  15.543  0.0413  0.6135 -0.8044
 7782SOL    HW234983   0.158   2.949  15.437  1.6500 -1.4325 -1.3381
 7783SOL     OW34984   0.948   1.511   9.304 -0.3915 -0.3222  0.5828
 7783SOL    HW134985   0.943   1.439   9.241 -1.2431  0.1022  0.1605
 7783SOL    HW234986   0.964   1.465   9.386 -0.5713  0.2959  0.9690
 7784SOL     OW34987   1.590   0.907   2.374 -0.2499 -0.4144  0.0306
 7784SOL    HW134988   1.514   0.966   2.380  0.4928  0.5043  0.4263
 7784SOL    HW234989   1.585   0.865   2.460 -2.0469 -1.9587 -0.8243
 7785SOL     OW34990   1.466   1.634   4.327  0.3803  0.2368  0.7610
 7785SOL    HW134991   1.561   1.641   4.337  0.4665  0.7825 -0.3870
 7785SOL    HW234992   1.441   1.589   4.408  1.6323  1.8054  2.0223
 7786SOL     OW34993   0.363   0.640   5.794 -0.0939  0.1717  0.2701
 7786SOL    HW134994   0.358   0.717   5.851  1.0568  0.9133 -0.6501
 7786SOL    HW234995   0.405   0.673   5.715  0.0475 -0.8936 -0.0914
 7787SOL     OW34996   3.738   3.735   5.625 -0.9951 -0.5943  0.1283
 7787SOL    HW134997   3.829   3.755   5.644 -0.2832 -0.7398 -3.1844
 7787SOL    HW234998   3.729   3.749   5.531 -2.8403  1.2518  0.5612
 7788SOL     OW34999   1.221   1.452   2.645  0.4805  0.0847 -0.8382
 7788SOL    HW135000   1.170   1.446   2.564  0.4469  0.0596 -0.8154
 7788SOL    HW235001   1.240   1.545   2.659 -0.4052  0.4517 -2.1088
 7789SOL     OW35002   2.132   1.598   6.633  0.3049 -0.6588  0.1384
 7789SOL    HW135003   2.039   1.623   6.632  0.9065  1.6280  0.5356
 7789SOL    HW235004   2.169   1.654   6.565  0.2920 -0.3257  0.4058
 7790SOL     OW35005   2.102   0.868  10.744 -0.1692  0.5830 -0.1886
 7790SOL    HW135006   2.152   0.872  10.663 -1.1396 -1.1906 -0.8856
 7790SOL    HW235007   2.057   0.783  10.748 -0.3226  0.6644 -0.1740
 7791SOL     OW35008   4.653   3.184   2.747 -0.3815 -0.6636 -0.3099
 7791SOL    HW135009   4.702   3.167   2.666  1.1333  0.5279  0.3604
 7791SOL    HW235010   4.585   3.118   2.734 -0.1091 -0.5132 -2.5251
 7792SOL     OW35011   1.573   2.493   9.140 -0.5638 -0.3716  0.2215
 7792SOL    HW135012   1.636   2.564   9.150  0.4384 -0.8738 -2.3840
 7792SOL    HW235013   1.609   2.453   9.060 -1.7935 -0.1608 -0.4333
 7793SOL     OW35014   0.853   0.714   5.753  0.0255  0.2213  0.1675
 7793SOL    HW135015   0.880   0.648   5.689 -0.0946 -2.5704  3.0622
 7793SOL    HW235016   0.911   0.707   5.829  0.3022 -1.4582 -0.2097
 7794SOL     OW35017   1.836   4.516   1.457  0.1618 -0.0869  0.6649
 7794SOL    HW135018   1.794   4.471   1.383  2.4118 -1.9758  0.5261
 7794SOL    HW235019   1.914   4.557   1.419  0.0907 -0.2870  0.3029
 7795SOL     OW35020   3.048   1.313   9.486 -0.0356  0.1483 -0.2997
 7795SOL    HW135021   3.039   1.224   9.450 -1.4648 -0.0004  0.4448
 7795SOL    HW235022   3.143   1.325   9.484 -0.3309  2.8246  1.9103
 7796SOL     OW35023   2.146   1.157   1.042 -0.6586 -0.0846 -0.3805
 7796SOL    HW135024   2.239   1.175   1.028 -0.2215 -1.7453  0.3335
 7796SOL    HW235025   2.137   1.086   0.978 -2.6072  0.9454 -1.2291
 7797SOL     OW35026   4.534   2.208   0.377 -0.0750 -0.0609 -0.1859
 7797SOL    HW135027   4.491   2.148   0.316  0.1774 -0.5412  0.1122
 7797SOL    HW235028   4.620   2.222   0.337  0.2676 -2.6554 -0.3734
 7798SOL     OW35029   0.324   4.679   4.664  0.0404  0.5959  0.3192
 7798SOL    HW135030   0.392   4.706   4.726  1.3367 -3.7995  0.8233
 7798SOL    HW235031   0.359   4.679   4.575 -0.4839 -1.0163  0.1026
 7799SOL     OW35032   4.530   0.095   3.723  0.5193  0.6018 -0.0007
 7799SOL    HW135033   4.441   0.061   3.735  0.0328  2.1531  0.7746
 7799SOL    HW235034   4.515   0.165   3.661  0.0320  1.0959  0.6762
 7800SOL     OW35035   3.271   0.867   6.324 -0.2923 -0.1995  0.4182
 7800SOL    HW135036   3.201   0.808   6.298  0.8239 -0.6881 -1.4907
 7800SOL    HW235037   3.229   0.953   6.325  1.9344  0.9038  0.9486
 7801SOL     OW35038   3.813   2.463   6.576  0.0217 -0.1923  0.1612
 7801SOL    HW135039   3.819   2.383   6.628 -1.0610  1.2015  2.4322
 7801SOL    HW235040   3.891   2.513   6.598 -0.5708  0.4349  0.8181
 7802SOL     OW35041   4.651   3.094   1.996 -0.2810 -0.4095  0.4379
 7802SOL    HW135042   4.662   3.186   1.970 -1.5659 -0.8024 -1.4675
 7802SOL    HW235043   4.564   3.082   1.959 -0.1404 -0.6451  0.1805
 7803SOL     OW35044   4.512   1.880  10.915  0.3103  0.0436 -0.2950
 7803SOL    HW135045   4.504   1.880  10.819 -1.9123 -2.2414 -0.0929
 7803SOL    HW235046   4.572   1.955  10.917  0.1913  0.1143  0.6970
 7804SOL     OW35047   1.975   0.187   6.351 -0.2682  0.2363  0.7742
 7804SOL    HW135048   1.957   0.159   6.261  1.3484  1.3586  0.0983
 7804SOL    HW235049   1.893   0.155   6.390 -0.1138 -1.3742 -0.2182
 7805SOL     OW35050   3.761   1.431   5.747  0.0713  0.1428  0.2196
 7805SOL    HW135051   3.742   1.343   5.715  1.2585 -0.0674  0.0951
 7805SOL    HW235052   3.716   1.428   5.831  2.8103  1.1032  1.7359
 7806SOL     OW35053   2.015   4.621  17.638 -0.1396 -0.0310 -0.1022
 7806SOL    HW135054   2.091   4.563  17.633 -0.6495 -0.6640 -0.5920
 7806SOL    HW235055   1.959   4.574  17.576  0.9974 -3.1105  1.1822
 7807SOL     OW35056   2.878   0.688  11.944 -0.2714  0.0312  0.0565
 7807SOL    HW135057   2.898   0.663  11.854 -0.1546  0.0501  0.0773
 7807SOL    HW235058   2.787   0.660  11.956  0.3660 -1.4899  1.4799
 7808SOL     OW35059   3.534   0.645  17.278 -0.3090  0.1341 -0.2511
 7808SOL    HW135060   3.477   0.578  17.240 -0.1941 -1.0035  1.5417
 7808SOL    HW235061   3.488   0.728  17.293  0.0268 -0.1018  2.1171
 7809SOL     OW35062   4.326   3.555   2.705 -0.1992 -0.2770  0.0253
 7809SOL    HW135063   4.288   3.468   2.719 -0.9369  0.0249 -0.1249
 7809SOL    HW235064   4.246   3.605   2.688 -0.9914 -1.3202  0.6833
 7810SOL     OW35065   0.819   4.508  13.749  0.0392  0.1840 -0.0510
 7810SOL    HW135066   0.778   4.428  13.714  1.8808 -1.0334  0.5573
 7810SOL    HW235067   0.840   4.546  13.664  0.6225  1.5235  0.7013
 7811SOL     OW35068   2.372   4.208   0.578  0.0019  0.4108 -0.2795
 7811SOL    HW135069   2.309   4.176   0.643 -0.0577 -1.6376 -1.3250
 7811SOL    HW235070   2.404   4.127   0.537  0.8595  0.7758 -0.3405
 7812SOL     OW35071   1.548   3.014   6.619 -0.6267 -0.1397  0.0496
 7812SOL    HW135072   1.622   3.013   6.680  0.5520  3.5767 -1.3039
 7812SOL    HW235073   1.491   2.951   6.662 -0.5641 -0.4967 -0.3891
 7813SOL     OW35074   4.498   0.033   6.700 -0.1007  0.1921 -0.4324
 7813SOL    HW135075   4.453   0.039   6.784  0.4776 -1.3291 -0.0111
 7813SOL    HW235076   4.588   0.023   6.731 -0.2618 -2.1157 -0.6567
 7814SOL     OW35077   2.444   4.408   7.847  0.3124 -0.6752  0.4367
 7814SOL    HW135078   2.419   4.497   7.824  0.1087 -0.9423 -0.3828
 7814SOL    HW235079   2.461   4.417   7.941 -1.6824 -0.2785  0.7608
 7815SOL     OW35080   1.177   0.041   4.631 -0.2816  0.0986  0.6225
 7815SOL    HW135081   1.107   0.060   4.694 -1.1540  0.4553 -0.4411
 7815SOL    HW235082   1.253   0.081   4.673 -1.2197  0.5811  1.8307
 7816SOL     OW35083   0.461   1.129   6.467  0.0173  0.0716  0.5013
 7816SOL    HW135084   0.380   1.079   6.464  1.0649 -1.5808 -0.2542
 7816SOL    HW235085   0.435   1.188   6.396 -1.5295 -2.0492 -0.6842
 7817SOL     OW35086   3.582   2.224   2.808 -0.1508 -0.0091 -0.1161
 7817SOL    HW135087   3.488   2.219   2.791  0.0066  0.1444 -1.0519
 7817SOL    HW235088   3.618   2.152   2.756 -0.0236  0.9869 -1.4215
 7818SOL     OW35089   1.072   0.780   3.217 -0.1503  0.7144 -0.2443
 7818SOL    HW135090   1.049   0.850   3.279  0.4130  0.0388  0.7378
 7818SOL    HW235091   0.987   0.744   3.193  0.2365 -0.4944  0.1952
 7819SOL     OW35092   1.664   1.202   6.928 -0.4577 -0.5102 -0.0264
 7819SOL    HW135093   1.694   1.155   6.850 -0.0295  2.2893 -1.5217
 7819SOL    HW235094   1.702   1.288   6.914 -0.1861 -0.9896 -2.1955
 7820SOL     OW35095   1.528   1.436   8.052  0.1461  0.6161 -0.3799
 7820SOL    HW135096   1.463   1.502   8.026 -0.0228 -0.0307 -1.6229
 7820SOL    HW235097   1.492   1.400   8.133  0.9812  1.0034  0.1600
 7821SOL     OW35098   0.222   3.469  17.393 -0.2196  0.4184  0.3528
 7821SOL    HW135099   0.219   3.386  17.439 -1.0733  1.3404  1.9600
 7821SOL    HW235100   0.132   3.499  17.408 -0.4528  0.1404 -0.5305
 7822SOL     OW35101   0.988   0.852   0.497  0.3395  0.4851  0.0557
 7822SOL    HW135102   1.057   0.821   0.438  1.2027  2.9487 -0.2192
 7822SOL    HW235103   0.921   0.784   0.488 -0.3322  1.4295 -2.0046
 7823SOL     OW35104   2.012   1.854  12.610 -0.3247  0.0269  0.1407
 7823SOL    HW135105   2.085   1.916  12.600 -2.1955  2.7733  3.2566
 7823SOL    HW235106   1.971   1.864  12.524 -0.6879 -0.0827  0.3007
 7824SOL     OW35107   2.042   1.535   5.193  0.8876 -0.0590 -0.0972
 7824SOL    HW135108   2.009   1.506   5.108 -0.1967 -1.1455  0.6919
 7824SOL    HW235109   1.982   1.606   5.216  0.7869  0.0242 -0.6175
 7825SOL     OW35110   0.594   2.331   2.118 -0.0752 -0.1843 -0.0981
 7825SOL    HW135111   0.655   2.378   2.175  0.3827  0.2699 -0.9506
 7825SOL    HW235112   0.653   2.299   2.050  2.0087 -0.7919  2.0030
 7826SOL     OW35113   3.618   0.898  11.350  0.0801 -0.0924  0.6015
 7826SOL    HW135114   3.615   0.949  11.431 -0.8775  0.9887 -0.1241
 7826SOL    HW235115   3.692   0.936  11.303 -1.2048 -0.6702 -1.8775
 7827SOL     OW35116   4.335   2.739  15.392 -0.0499  0.1700  0.0430
 7827SOL    HW135117   4.270   2.692  15.445  1.1080 -1.3170  0.1130
 7827SOL    HW235118   4.278   2.804  15.350  1.6947  1.1493 -0.7861
 7828SOL     OW35119   3.556   2.503   4.491 -0.1953  0.5454 -0.3756
 7828SOL    HW135120   3.651   2.503   4.499 -0.0950 -2.6934 -1.6295
 7828SOL    HW235121   3.537   2.582   4.542  0.7221 -1.6781  3.3291
 7829SOL     OW35122   4.311   0.200   4.374 -0.4300  0.1874  0.6151
 7829SOL    HW135123   4.384   0.152   4.334 -0.5803 -1.6378  2.5082
 7829SOL    HW235124   4.336   0.287   4.345  1.6775  0.2267  2.5461
 7830SOL     OW35125   1.636   0.800   0.529  0.4188 -0.0435  0.2005
 7830SOL    HW135126   1.620   0.842   0.613 -1.2325  0.3832 -0.3382
 7830SOL    HW235127   1.565   0.738   0.512 -1.0322  1.7523 -0.1911
 7831SOL     OW35128   2.302   4.112   5.268  0.0004  0.4232 -0.1473
 7831SOL    HW135129   2.389   4.105   5.308 -1.1299  0.0957  2.2320
 7831SOL    HW235130   2.263   4.162   5.340 -0.5942  0.8882 -0.7890
 7832SOL     OW35131   4.424   2.883   7.806  0.1484 -0.2287  0.6863
 7832SOL    HW135132   4.517   2.877   7.783 -0.1468  1.6735 -1.0686
 7832SOL    HW235133   4.402   2.800   7.847 -0.7271 -0.6470 -0.6509
 7833SOL     OW35134   0.992   4.014   4.845 -0.4346  0.0213 -0.4375
 7833SOL    HW135135   1.000   3.974   4.932  0.7146  0.7967 -0.1856
 7833SOL    HW235136   1.052   4.088   4.853 -0.1738 -0.3646  1.3139
 7834SOL     OW35137   0.404   1.004   1.996  0.2141  0.5261  0.4860
 7834SOL    HW135138   0.443   0.926   2.037  2.3675  2.0367  1.3214
 7834SOL    HW235139   0.482   1.029   1.946  0.5511 -3.2839 -0.8994
 7835SOL     OW35140   3.664   2.709   7.423 -0.2191 -0.2530 -0.5185
 7835SOL    HW135141   3.573   2.736   7.407  0.5272  1.5566 -1.6809
 7835SOL    HW235142   3.688   2.685   7.334  1.3169  0.9453 -0.4291
 7836SOL     OW35143   3.929   0.833   2.530  0.5435 -0.1185  0.0618
 7836SOL    HW135144   3.861   0.768   2.550  0.0639  0.2274 -0.4548
 7836SOL    HW235145   3.970   0.799   2.451  0.3054  0.7937 -0.4478
 7837SOL     OW35146   4.414   2.140   4.789  0.2022 -0.6184  0.0624
 7837SOL    HW135147   4.468   2.135   4.868 -2.2067  0.8266  1.7828
 7837SOL    HW235148   4.425   2.054   4.748 -0.1198 -1.3052  1.4226
 7838SOL     OW35149   0.766   4.450   5.209 -1.1585 -0.3831 -0.1824
 7838SOL    HW135150   0.706   4.518   5.239  1.9980  1.4373  2.0321
 7838SOL    HW235151   0.806   4.411   5.287 -4.0188 -0.5362  1.1877
 7839SOL     OW35152   1.645   2.178   4.922  0.5520  0.6142  0.6514
 7839SOL    HW135153   1.722   2.225   4.890 -1.7502  2.7512 -1.6735
 7839SOL    HW235154   1.672   2.087   4.906  1.3979  1.0350 -0.3234
 7840SOL     OW35155   2.914   3.534   0.756 -0.7627  0.2769  0.1646
 7840SOL    HW135156   2.916   3.498   0.845 -0.6649 -0.4585 -0.1323
 7840SOL    HW235157   2.881   3.466   0.697  2.9400 -0.3517 -1.1731
 7841SOL     OW35158   0.389   4.676   6.493 -0.0421 -0.5514  0.2968
 7841SOL    HW135159   0.349   4.666   6.407  0.2478  1.7277 -0.0926
 7841SOL    HW235160   0.368   0.029   6.504  0.9492 -0.3016  0.0604
 7842SOL     OW35161   3.112   1.547   7.539 -0.2540 -0.4311 -0.6557
 7842SOL    HW135162   3.026   1.574   7.571 -0.5194 -2.7509  0.5676
 7842SOL    HW235163   3.147   1.507   7.618 -0.3213 -0.9843 -0.9070
 7843SOL     OW35164   3.232   3.894   1.263  0.1749 -0.0288 -0.6311
 7843SOL    HW135165   3.200   3.832   1.197  0.5087 -0.6354 -0.2188
 7843SOL    HW235166   3.199   3.977   1.229  0.5745  0.1305 -0.6285
 7844SOL     OW35167   0.759   1.540   4.391  0.3993  0.4336  0.1301
 7844SOL    HW135168   0.818   1.466   4.401 -0.4186  0.2221  3.4595
 7844SOL    HW235169   0.804   1.607   4.443 -1.4694  0.7601  1.3234
 7845SOL     OW35170   3.574   4.273  17.393 -0.0632  0.9348  0.3836
 7845SOL    HW135171   3.657   4.237  17.426 -0.1956  0.9840  0.7605
 7845SOL    HW235172   3.598   4.291  17.302  1.1696  2.4634  1.0090
 7846SOL     OW35173   1.807   0.308   7.637  0.2334  0.5825  0.2616
 7846SOL    HW135174   1.807   0.397   7.672  1.3347  0.5432  0.3511
 7846SOL    HW235175   1.866   0.265   7.699 -1.7723  0.2268  1.9110
 7847SOL     OW35176   0.196   2.817   7.403  0.7294 -0.3020  0.3947
 7847SOL    HW135177   0.283   2.816   7.443  1.2638 -2.4260 -0.8051
 7847SOL    HW235178   0.146   2.775   7.474 -1.0100  1.2610  0.0989
 7848SOL     OW35179   3.118   2.867   5.198  0.3678 -0.0669  0.4736
 7848SOL    HW135180   3.071   2.939   5.242 -0.7594 -0.2253 -0.4764
 7848SOL    HW235181   3.200   2.873   5.247  0.6622 -0.0412 -0.0244
 7849SOL     OW35182   3.150   3.454  13.464  0.5723 -0.1764  0.0119
 7849SOL    HW135183   3.160   3.541  13.426 -0.2276 -0.8549 -1.7866
 7849SOL    HW235184   3.223   3.412  13.419 -0.0846 -2.6083  1.2009
 7850SOL     OW35185   0.153   4.132   6.208  0.8739  0.2942  0.4219
 7850SOL    HW135186   0.155   4.194   6.135  2.7683 -1.7382 -1.2340
 7850SOL    HW235187   0.069   4.154   6.247  1.3214 -0.0693  1.5949
 7851SOL     OW35188   3.451   0.872  16.810 -0.6739  0.1028 -0.6513
 7851SOL    HW135189   3.533   0.880  16.858  0.6059  0.5448 -2.9225
 7851SOL    HW235190   3.415   0.956  16.838 -1.4433 -0.9765  1.6207
 7852SOL     OW35191   3.145   3.114   5.345 -0.1453 -0.7502 -0.0326
 7852SOL    HW135192   3.218   3.167   5.377  1.3681 -1.6276 -2.0643
 7852SOL    HW235193   3.136   3.153   5.259  0.7874 -1.7863 -0.5953
 7853SOL     OW35194   1.088   2.655   4.944  0.2975 -0.4722 -0.2826
 7853SOL    HW135195   1.059   2.565   4.952 -0.3758 -0.1139  1.3216
 7853SOL    HW235196   1.065   2.691   5.030  1.0058 -0.9364  0.1018
 7854SOL     OW35197   1.022   4.140   3.035 -0.6355 -0.7090 -0.3108
 7854SOL    HW135198   0.969   4.153   3.114 -0.3816  1.0528 -0.4386
 7854SOL    HW235199   1.004   4.045   3.033  1.0660 -1.0538  0.6717
 7855SOL     OW35200   0.952   3.452  12.459 -0.1205 -0.1719 -0.5348
 7855SOL    HW135201   0.985   3.515  12.395  1.6030  0.0173  0.5224
 7855SOL    HW235202   0.930   3.375  12.407  1.0160  0.2100 -1.5979
 7856SOL     OW35203   1.973   3.168   4.270 -0.2850 -0.2027  0.5821
 7856SOL    HW135204   2.016   3.195   4.351  2.4540 -3.5506  0.2327
 7856SOL    HW235205   1.931   3.250   4.246  0.6519 -0.3081 -1.4660
 7857SOL     OW35206   3.367   4.442   8.156  0.2113 -0.6444 -0.4252
 7857SOL    HW135207   3.380   4.524   8.109  1.1515 -0.7894 -0.4072
 7857SOL    HW235208   3.383   4.376   8.088 -0.3224 -0.9861 -0.2207
 7858SOL     OW35209   3.227   0.161  16.190  0.3580  0.3927  0.3854
 7858SOL    HW135210   3.246   0.224  16.260  1.2506  2.0125 -1.3113
 7858SOL    HW235211   3.302   0.102  16.190 -0.6857 -0.9479  3.8406
 7859SOL     OW35212   2.270   0.440   2.686  0.5253 -0.0314 -0.0811
 7859SOL    HW135213   2.193   0.387   2.665  0.1872  1.0542 -1.5918
 7859SOL    HW235214   2.217   0.520   2.689 -0.0554 -0.3453 -1.4846
 7860SOL     OW35215   0.189   0.129   4.409  0.0092  0.0782  0.8712
 7860SOL    HW135216   0.201   0.107   4.502  1.9602 -0.6697  0.4327
 7860SOL    HW235217   0.151   0.044   4.386 -0.1018 -0.1036  1.7359
 7861SOL     OW35218   4.140   1.163   9.709  0.9946 -0.2215  0.2298
 7861SOL    HW135219   4.097   1.249   9.711 -0.9273 -1.1379 -1.3235
 7861SOL    HW235220   4.219   1.180   9.761 -0.9676  3.6468  1.9679
 7862SOL     OW35221   2.534   4.268   1.305 -0.3928 -0.0315 -0.6406
 7862SOL    HW135222   2.626   4.274   1.333 -0.4919  0.7485 -0.4699
 7862SOL    HW235223   2.531   4.180   1.268 -1.0868  0.1479 -1.0003
 7863SOL     OW35224   1.231   0.540   6.880  0.1795 -0.2415  0.1217
 7863SOL    HW135225   1.258   0.459   6.837  0.6823  0.1187 -0.2442
 7863SOL    HW235226   1.320   0.563   6.909  0.0550 -1.0441  1.1451
 7864SOL     OW35227   2.631   0.749   5.456  0.0676  0.4386  0.3561
 7864SOL    HW135228   2.604   0.693   5.529  1.7067 -1.5741 -0.5663
 7864SOL    HW235229   2.542   0.777   5.435  0.0959  1.1660  1.2131
 7865SOL     OW35230   1.882   2.113   7.697 -1.2192  0.1851  0.5703
 7865SOL    HW135231   1.793   2.147   7.698 -0.9545  0.8874  0.0035
 7865SOL    HW235232   1.874   2.034   7.643 -1.7409  2.9486 -3.3891
 7866SOL     OW35233   2.958   3.672   3.710  0.1170  0.5226  0.1188
 7866SOL    HW135234   3.052   3.663   3.694  0.1729 -0.6592  1.1609
 7866SOL    HW235235   2.957   3.612   3.784  0.4013  0.3591 -0.0101
 7867SOL     OW35236   2.499   0.320   6.819  0.0028  0.5681  0.0926
 7867SOL    HW135237   2.565   0.297   6.884  1.2640  1.1965 -0.9763
 7867SOL    HW235238   2.508   0.248   6.757 -2.6937  0.1759  0.1460
 7868SOL     OW35239   4.424   0.143   5.052  0.6243  0.0510 -0.2686
 7868SOL    HW135240   4.438   0.072   4.990 -0.3815 -0.2080 -0.1910
 7868SOL    HW235241   4.513   0.173   5.068  0.6204 -0.0679 -0.0370
 7869SOL     OW35242   3.647   4.063   8.732  0.6285 -0.3947 -0.4924
 7869SOL    HW135243   3.612   3.995   8.789 -2.2218  0.2662 -1.4689
 7869SOL    HW235244   3.566   4.110   8.713  1.5423  1.0719 -0.7517
 7870SOL     OW35245   3.590   2.570   5.779 -0.1045  0.5272  0.7348
 7870SOL    HW135246   3.495   2.560   5.779 -0.1431  0.9118 -0.5058
 7870SOL    HW235247   3.616   2.600   5.866  0.5859 -0.6158  0.9215
 7871SOL     OW35248   2.011   2.636   6.289 -0.0960  0.3381  0.5714
 7871SOL    HW135249   1.923   2.603   6.310 -0.2168  1.5948  1.9912
 7871SOL    HW235250   2.003   2.673   6.201  0.2794  2.9311  1.6494
 7872SOL     OW35251   2.944   1.059   5.629 -0.3934  0.5297  0.2334
 7872SOL    HW135252   2.932   1.114   5.706  2.3433 -0.0819  1.1191
 7872SOL    HW235253   3.032   1.026   5.648 -0.6507 -1.8180 -2.6484
 7873SOL     OW35254   3.017   2.635  17.238 -0.4416  0.1601 -0.1367
 7873SOL    HW135255   3.107   2.602  17.235 -0.4552 -0.0504  2.0526
 7873SOL    HW235256   2.996   2.610  17.148  0.3432 -0.4520 -0.1556
 7874SOL     OW35257   4.123   4.563  12.115  0.1604 -0.2732 -0.2729
 7874SOL    HW135258   4.083   4.479  12.139  0.3884 -0.3097 -0.0123
 7874SOL    HW235259   4.048   4.612  12.082 -0.4531 -1.0392 -0.0219
 7875SOL     OW35260   3.698   0.568   4.069  0.3365  0.2595  0.1890
 7875SOL    HW135261   3.609   0.553   4.038  1.0841  0.0364 -1.8291
 7875SOL    HW235262   3.743   0.585   3.987 -2.1025  0.0211 -1.1992
 7876SOL     OW35263   3.068   3.715   0.636  0.6204 -0.1591  0.0384
 7876SOL    HW135264   3.023   3.640   0.674  1.5960 -0.2872  0.9406
 7876SOL    HW235265   3.107   3.750   0.716  0.6795 -1.1634  0.4376
 7877SOL     OW35266   2.119   3.928   3.252 -0.4656  0.5084 -0.1464
 7877SOL    HW135267   2.138   3.901   3.342  1.0136  1.7169 -0.0980
 7877SOL    HW235268   2.027   3.905   3.245 -0.6558  1.6379 -1.5556
 7878SOL     OW35269   2.785   2.610  16.842  0.5732  0.4402  0.4360
 7878SOL    HW135270   2.744   2.630  16.927 -0.4845 -0.4464  0.1335
 7878SOL    HW235271   2.714   2.566  16.795  0.2315  1.0363  0.3825
 7879SOL     OW35272   3.959   2.957   6.273  0.2586  0.9412  0.3552
 7879SOL    HW135273   3.924   3.015   6.340  1.0712  0.2946  1.3369
 7879SOL    HW235274   4.012   2.899   6.328 -0.4186 -0.8475 -0.8892
 7880SOL     OW35275   1.098   2.383  14.747  0.3022  0.0891  0.1949
 7880SOL    HW135276   1.120   2.425  14.830  1.2502 -0.1564  0.0720
 7880SOL    HW235277   1.125   2.451  14.684 -0.0427  0.8379  0.8497
 7881SOL     OW35278   2.782   4.429   6.703 -0.2690  0.1260  0.3680
 7881SOL    HW135279   2.819   4.517   6.701  1.7329 -0.7283  0.1062
 7881SOL    HW235280   2.776   4.416   6.798  0.4034  0.8265  0.5089
 7882SOL     OW35281   0.692   0.560   4.724  0.3852  0.3984 -0.2031
 7882SOL    HW135282   0.762   0.609   4.682  2.6276 -1.6549  1.1181
 7882SOL    HW235283   0.739   0.478   4.741 -0.4306  0.4899  2.4988
 7883SOL     OW35284   1.666   3.250   4.233 -0.3356 -0.1079 -0.5113
 7883SOL    HW135285   1.718   3.180   4.194 -0.0148  0.2048 -0.6480
 7883SOL    HW235286   1.729   3.320   4.215 -0.7096  0.3021 -0.2196
 7884SOL     OW35287   3.347   1.711   9.825  0.6561 -0.0811 -0.1352
 7884SOL    HW135288   3.299   1.694   9.744  0.5559  0.6659 -0.2362
 7884SOL    HW235289   3.273   1.728   9.884 -0.5908 -0.0728 -1.6982
 7885SOL     OW35290   0.176   4.619  10.071 -0.3522 -0.5706 -0.8033
 7885SOL    HW135291   0.142   4.638  10.159  0.8382  0.2177 -0.5046
 7885SOL    HW235292   0.231   4.697  10.066  0.2784 -1.0045 -0.6840
 7886SOL     OW35293   4.402   0.648   8.248  0.2291 -0.0243  0.4407
 7886SOL    HW135294   4.451   0.674   8.170 -0.8514  2.5793  0.6045
 7886SOL    HW235295   4.476   0.623   8.303  0.7890  0.5826 -0.0432
 7887SOL     OW35296   1.275   1.727   0.583  0.0482 -0.2669  0.0008
 7887SOL    HW135297   1.317   1.691   0.505 -0.4036  0.9029 -0.7858
 7887SOL    HW235298   1.213   1.657   0.600  0.1426 -0.7215 -1.5595
 7888SOL     OW35299   1.064   4.619   0.470 -0.3137  0.5433  0.1136
 7888SOL    HW135300   1.069   4.525   0.489 -0.8817  0.9195  2.1463
 7888SOL    HW235301   1.156   4.639   0.457  0.1348 -1.4542  0.1386
 7889SOL     OW35302   0.271   1.440  14.508 -0.1523 -0.2772 -0.6079
 7889SOL    HW135303   0.281   1.348  14.484 -1.0420 -0.5330  0.0101
 7889SOL    HW235304   0.194   1.443  14.564  2.0507 -0.0952  2.3852
 7890SOL     OW35305   3.637   3.001   1.787  0.2523  0.0798  0.2946
 7890SOL    HW135306   3.545   2.999   1.815  0.2441  1.1479  0.3653
 7890SOL    HW235307   3.638   2.980   1.694  1.4524 -1.7842  0.7217
 7891SOL     OW35308   2.161   3.154   8.164 -0.0147  0.5897  0.5508
 7891SOL    HW135309   2.168   3.100   8.085 -0.1533 -0.7645  1.4703
 7891SOL    HW235310   2.114   3.230   8.130 -0.1475  1.4019  2.5661
 7892SOL     OW35311   2.518   1.687   7.912 -0.8173 -0.2612 -0.2573
 7892SOL    HW135312   2.613   1.695   7.905 -0.5096 -1.9784  1.7850
 7892SOL    HW235313   2.483   1.746   7.979  0.0142  0.3174 -0.3362
 7893SOL     OW35314   2.034   4.015   0.254  0.3865 -0.0592  0.1794
 7893SOL    HW135315   2.126   4.032   0.237  0.3450 -0.3999 -0.3629
 7893SOL    HW235316   2.036   3.962   0.334  0.5977 -0.5573 -0.1633
 7894SOL     OW35317   1.445   2.096  17.450  0.0038  0.3046 -0.0691
 7894SOL    HW135318   1.523   2.043  17.468  0.3683  0.6924 -0.4782
 7894SOL    HW235319   1.449   2.167  17.514 -1.2923  0.4764 -0.1829
 7895SOL     OW35320   3.411   1.950   6.990  0.0432  0.5188  0.5017
 7895SOL    HW135321   3.444   1.886   6.926  0.3014  1.3456 -0.1955
 7895SOL    HW235322   3.495   1.990   7.011  0.8547 -1.3618  0.8333
 7896SOL     OW35323   1.641   0.236   8.622  0.3139  0.0032  0.2934
 7896SOL    HW135324   1.647   0.317   8.572  2.0446 -0.1893  0.2106
 7896SOL    HW235325   1.722   0.190   8.601 -0.7423 -1.3357 -0.8317
 7897SOL     OW35326   3.357   2.588   6.130  0.3239  0.0986 -0.1389
 7897SOL    HW135327   3.316   2.510   6.093  0.4029 -0.2214  0.4404
 7897SOL    HW235328   3.279   2.643   6.123  1.4427  1.7998  0.7490
 7898SOL     OW35329   0.007   1.890   5.177 -0.3183 -0.4817 -0.2168
 7898SOL    HW135330   0.073   1.845   5.230  2.2936  3.1148 -0.4295
 7898SOL    HW235331   0.030   1.979   5.202  0.2033 -0.6664 -0.0451
 7899SOL     OW35332   3.978   2.021   4.586 -0.1461  0.6400  0.5248
 7899SOL    HW135333   4.015   1.970   4.514  0.8391 -0.1828  1.6278
 7899SOL    HW235334   4.006   2.110   4.563 -0.3064  0.0619 -1.9870
 7900SOL     OW35335   0.155   3.304   5.946  0.7923  0.1859  0.0562
 7900SOL    HW135336   0.153   3.235   6.013 -0.9068 -0.1856 -0.3781
 7900SOL    HW235337   0.098   3.368   5.988 -0.3034 -0.2567 -0.7649
 7901SOL     OW35338   1.123   4.359   0.491 -0.1276 -0.1201 -1.0547
 7901SOL    HW135339   1.149   4.293   0.427  1.3236 -0.7355  0.1588
 7901SOL    HW235340   1.204   4.362   0.542  0.0235  0.4565 -1.3298
 7902SOL     OW35341   3.549   1.288  14.746 -0.1935 -0.1506  0.2616
 7902SOL    HW135342   3.504   1.353  14.693 -0.6915 -0.0902  0.7632
 7902SOL    HW235343   3.643   1.305  14.741 -0.4504  1.2629  0.3334
 7903SOL     OW35344   0.950   3.040   7.511 -0.5405 -0.2331  0.0593
 7903SOL    HW135345   1.024   3.061   7.454  0.6636 -0.3574  1.5815
 7903SOL    HW235346   0.926   2.950   7.489  2.9569 -1.3233  0.6143
 7904SOL     OW35347   2.162   2.599  15.864 -0.2788 -0.0114 -0.6440
 7904SOL    HW135348   2.080   2.616  15.910  1.6851  0.8264  2.5233
 7904SOL    HW235349   2.211   2.567  15.939 -0.5492  0.5137 -0.2450
 7905SOL     OW35350   3.137   1.955   7.032 -0.6420 -0.2194 -0.5537
 7905SOL    HW135351   3.126   1.981   7.124 -0.2254  0.7841 -0.7933
 7905SOL    HW235352   3.231   1.967   7.024 -0.7540 -0.4296 -2.0699
 7906SOL     OW35353   0.652   3.993   4.572  0.7167  0.0773  0.1474
 7906SOL    HW135354   0.651   3.912   4.521  0.2002 -1.0875  2.0343
 7906SOL    HW235355   0.581   4.039   4.527 -2.5604 -3.1727  2.0754
 7907SOL     OW35356   1.335   3.458  10.662  0.0732  1.0289 -0.0216
 7907SOL    HW135357   1.301   3.397  10.727  0.5621  0.2785 -0.4668
 7907SOL    HW235358   1.342   3.398  10.587  1.6108 -0.7081  1.5080
 7908SOL     OW35359   2.947   0.961   3.978 -0.0449  0.0276  0.6509
 7908SOL    HW135360   2.929   0.874   4.014 -1.9656  0.6779  1.2704
 7908SOL    HW235361   2.981   0.935   3.893  0.8509  1.4143  0.5784
 7909SOL     OW35362   1.982   2.749   3.033 -0.0295 -0.3381 -0.1345
 7909SOL    HW135363   2.011   2.687   3.099 -2.1105  1.7994  2.7934
 7909SOL    HW235364   1.894   2.773   3.063  0.2156  0.5258 -0.0895
 7910SOL     OW35365   0.113   2.041   4.658  0.1341 -0.4404 -0.0569
 7910SOL    HW135366   0.096   2.128   4.694 -0.2619  0.3773 -2.1831
 7910SOL    HW235367   0.130   2.006   4.745  1.4996 -5.5170 -2.3552
 7911SOL     OW35368   3.332   1.385  12.330  0.4836 -0.0192  0.3120
 7911SOL    HW135369   3.352   1.358  12.240 -1.3112  0.0854 -0.1281
 7911SOL    HW235370   3.237   1.397  12.328  0.2280 -1.8721  1.4602
 7912SOL     OW35371   0.741   0.491  12.038  0.2417 -0.5720  0.1199
 7912SOL    HW135372   0.698   0.476  12.122  0.1942 -1.7068 -0.1135
 7912SOL    HW235373   0.691   0.432  11.982 -2.3103  1.5254  0.1775
 7913SOL     OW35374   4.041   0.443   3.255  0.4432 -0.4915 -0.1088
 7913SOL    HW135375   4.118   0.465   3.203  1.4237 -0.4461  1.3762
 7913SOL    HW235376   4.049   0.519   3.313  2.3254 -0.5301 -0.3332
 7914SOL     OW35377   3.648   4.538   2.752  0.2206  0.2107  0.0635
 7914SOL    HW135378   3.711   4.513   2.820  1.1019 -2.0637 -1.5831
 7914SOL    HW235379   3.603   4.609   2.798  1.7870  3.1236 -2.9031
 7915SOL     OW35380   0.304   4.007   6.403  0.2956  0.2921 -1.2040
 7915SOL    HW135381   0.244   4.039   6.470 -0.4414  0.9609 -2.1905
 7915SOL    HW235382   0.239   3.993   6.335 -0.3306 -0.1817 -0.4978
 7916SOL     OW35383   0.386   1.941  10.103 -0.2891 -0.0693  0.1977
 7916SOL    HW135384   0.419   1.860  10.064 -0.9305 -0.4805  0.5127
 7916SOL    HW235385   0.361   1.995  10.027 -1.8157  0.6712  1.2308
 7917SOL     OW35386   2.273   1.070   5.691  0.3540  0.4614  0.3082
 7917SOL    HW135387   2.229   0.985   5.692 -1.2499  1.3023  0.7080
 7917SOL    HW235388   2.202   1.125   5.722 -0.2993 -1.1247  1.6435
 7918SOL     OW35389   0.811   0.657   7.142  0.3914  0.6705 -0.3384
 7918SOL    HW135390   0.882   0.637   7.203  1.2615 -0.0486 -1.5791
 7918SOL    HW235391   0.839   0.743   7.111 -0.0929  0.4819 -1.3034
 7919SOL     OW35392   0.217   2.875   4.002  0.4120 -0.1068  0.4079
 7919SOL    HW135393   0.296   2.901   4.049  0.8169  1.0732 -0.9140
 7919SOL    HW235394   0.141   2.886   4.058 -0.2640 -0.0150 -0.5267
 7920SOL     OW35395   2.059   4.663   1.404  0.0438  0.1909  0.2370
 7920SOL    HW135396   2.152   4.641   1.392  0.2390  1.8053 -1.2846
 7920SOL    HW235397   2.044   4.677   1.310 -2.3505  2.9960  1.0478
 7921SOL     OW35398   0.451   0.398   1.217  0.1443 -0.5972  0.4345
 7921SOL    HW135399   0.401   0.396   1.136  0.4910  1.3349  0.1529
 7921SOL    HW235400   0.422   0.322   1.267  0.2006 -0.4631  0.6729
 7922SOL     OW35401   1.166   1.479  10.073 -0.1380  0.0261  0.4707
 7922SOL    HW135402   1.116   1.555  10.042  2.7302  1.8325  0.2239
 7922SOL    HW235403   1.134   1.411  10.015 -0.2712  1.3251 -0.9730
 7923SOL     OW35404   4.234   3.515   1.035 -0.8257  0.3809  0.4078
 7923SOL    HW135405   4.212   3.607   1.019  1.2566  0.0394 -4.5277
 7923SOL    HW235406   4.323   3.520   1.069  0.5149 -0.4478 -2.9085
 7924SOL     OW35407   3.454   2.054   6.664  0.1193 -0.6505  0.1720
 7924SOL    HW135408   3.369   2.068   6.624  0.5427  0.9047 -0.1835
 7924SOL    HW235409   3.454   2.111   6.741 -2.4800 -0.2643 -0.1237
 7925SOL     OW35410   0.710   0.176  14.369 -0.0164  0.3070  0.1364
 7925SOL    HW135411   0.680   0.102  14.315 -2.2634  0.6945  0.8898
 7925SOL    HW235412   0.742   0.241  14.306 -0.0336  0.0292 -0.1594
 7926SOL     OW35413   1.189   1.140   4.230  0.0298  0.2179 -0.1206
 7926SOL    HW135414   1.097   1.163   4.216  0.5972  0.9155 -2.6114
 7926SOL    HW235415   1.211   1.090   4.152  1.0185 -2.3486  1.7837
 7927SOL     OW35416   0.484   1.394   6.075  0.3188  0.2223 -0.7960
 7927SOL    HW135417   0.548   1.342   6.027 -0.8519 -0.8439 -1.2057
 7927SOL    HW235418   0.429   1.329   6.118  2.5215 -0.0040  1.6540
 7928SOL     OW35419   0.011   0.414   0.236  0.0891  0.3210 -0.2086
 7928SOL    HW135420   0.015   0.417   0.332 -0.7682 -2.1152 -0.0764
 7928SOL    HW235421   4.662   0.443   0.213  1.0401  2.5761 -0.9335
 7929SOL     OW35422   0.101   4.196  10.317 -0.2259 -0.4437  0.1142
 7929SOL    HW135423   0.037   4.145  10.266  0.2788 -1.5236  0.5597
 7929SOL    HW235424   0.071   4.178  10.406  3.4176 -1.3117  1.1438
 7930SOL     OW35425   0.962   4.580   8.277 -0.0286 -0.4556 -0.5248
 7930SOL    HW135426   1.050   4.573   8.315  0.2681 -0.5491 -1.2212
 7930SOL    HW235427   0.909   4.530   8.339 -0.7299  0.7008 -0.1928
 7931SOL     OW35428   1.640   3.671   4.338 -0.7963  0.5456 -0.3113
 7931SOL    HW135429   1.666   3.681   4.247  0.6492  0.6198  0.1098
 7931SOL    HW235430   1.675   3.583   4.355  1.3289  0.9276 -2.7300
 7932SOL     OW35431   0.075   3.936   4.973  0.3229  0.0950 -0.2541
 7932SOL    HW135432   0.037   3.892   5.048 -0.4846 -1.5244 -1.6038
 7932SOL    HW235433   0.153   3.962   5.021  0.0318  0.2281  0.1427
 7933SOL     OW35434   0.387   2.963  15.097  0.0897  0.3284 -0.4366
 7933SOL    HW135435   0.421   2.934  15.013  0.2358  0.8639 -0.5608
 7933SOL    HW235436   0.334   2.886  15.119 -1.4756  1.0078 -1.8015
 7934SOL     OW35437   2.620   4.406   4.154  0.4837 -0.0281 -0.4019
 7934SOL    HW135438   2.565   4.475   4.117 -2.0784 -3.2975 -2.7348
 7934SOL    HW235439   2.651   4.455   4.230 -2.4670 -0.0446  0.8233
 7935SOL     OW35440   0.859   3.143   4.051  0.0829  0.1705 -0.1089
 7935SOL    HW135441   0.843   3.084   4.125  3.2845  1.7170  1.7945
 7935SOL    HW235442   0.870   3.222   4.104  1.1886  0.9331 -1.4767
 7936SOL     OW35443   0.428   1.164   6.988  0.0633  0.1256 -0.6801
 7936SOL    HW135444   0.438   1.157   7.083 -0.2855  1.2836 -0.5655
 7936SOL    HW235445   0.437   1.072   6.963 -1.5466 -0.1106 -0.3504
 7937SOL     OW35446   1.887   0.787  16.053  0.0874 -0.4249 -0.0142
 7937SOL    HW135447   1.885   0.867  16.105  0.0378 -0.1729 -0.3982
 7937SOL    HW235448   1.947   0.727  16.097  0.4024  0.2353  0.4553
 7938SOL     OW35449   3.897   3.926   0.219 -0.5831 -0.3365  0.0125
 7938SOL    HW135450   3.835   3.994   0.249 -0.0966  0.3178 -0.4667
 7938SOL    HW235451   3.886   3.854   0.281  2.4077 -0.2011  0.7002
 7939SOL     OW35452   2.796   2.569  10.143 -0.1996  0.5494 -0.1650
 7939SOL    HW135453   2.865   2.635  10.145 -2.6776  3.1751 -1.0056
 7939SOL    HW235454   2.780   2.565  10.238 -0.7072  0.5115 -0.2509
 7940SOL     OW35455   1.306   4.375   6.968  0.6438  1.1150 -0.1633
 7940SOL    HW135456   1.372   4.402   7.031  0.5810  0.9362 -0.0226
 7940SOL    HW235457   1.221   4.391   7.010  0.2046  0.9126 -0.9635
 7941SOL     OW35458   3.608   2.677   6.534 -0.0364 -0.3896 -1.1306
 7941SOL    HW135459   3.663   2.607   6.500 -0.6397 -1.0528 -0.7174
 7941SOL    HW235460   3.557   2.695   6.455 -1.5391  1.5574  0.2786
 7942SOL     OW35461   1.253   3.007   1.961  0.0196  0.6398  0.6459
 7942SOL    HW135462   1.203   2.952   2.022 -0.6962 -0.8186 -1.2350
 7942SOL    HW235463   1.341   2.971   1.972  0.1791  0.3268 -1.7473
 7943SOL     OW35464   4.514   2.297   5.183  0.1472 -0.3911 -0.0073
 7943SOL    HW135465   4.550   2.216   5.219  0.3874  0.3929  1.5100
 7943SOL    HW235466   4.585   2.301   5.119 -0.8147  0.0736 -1.0378
 7944SOL     OW35467   3.053   0.409   7.001  0.0545  0.1234  0.0452
 7944SOL    HW135468   3.062   0.318   6.974 -0.3459 -0.1270  0.7557
 7944SOL    HW235469   3.069   0.397   7.095  1.0963 -1.2046 -0.3151
 7945SOL     OW35470   4.739   0.517   6.127 -0.7093  0.1094 -0.5153
 7945SOL    HW135471   0.091   0.528   6.151 -1.1843  0.3948  1.2026
 7945SOL    HW235472   4.707   0.605   6.104 -2.5530 -0.7207 -1.1387
 7946SOL     OW35473   1.670   2.278   2.280 -0.4927  0.5953 -0.0245
 7946SOL    HW135474   1.646   2.195   2.322 -3.3266  0.9607 -0.9047
 7946SOL    HW235475   1.607   2.295   2.210 -0.3716  2.7879  0.4085
 7947SOL     OW35476   2.842   3.900   2.043  0.2855 -1.0225  0.5635
 7947SOL    HW135477   2.762   3.953   2.037  0.8939 -0.2946 -1.1048
 7947SOL    HW235478   2.895   3.949   1.981  0.8752 -0.5121  1.4723
 7948SOL     OW35479   1.341   3.323   8.310  0.3906  0.3124  0.0883
 7948SOL    HW135480   1.329   3.228   8.313  0.5423  0.2177 -1.9754
 7948SOL    HW235481   1.428   3.339   8.347 -0.0330  1.4715  0.5990
 7949SOL     OW35482   0.345   2.783  12.838  0.0591  0.0100 -0.2730
 7949SOL    HW135483   0.387   2.810  12.920 -0.8196 -2.4161  0.9811
 7949SOL    HW235484   0.352   2.688  12.846 -4.5458 -0.3285  0.2695
 7950SOL     OW35485   3.141   2.524   2.190 -0.0114 -0.6434  0.1915
 7950SOL    HW135486   3.107   2.613   2.200  0.6029 -0.3444 -0.3630
 7950SOL    HW235487   3.191   2.507   2.270  0.4062 -0.0532  0.0495
 7951SOL     OW35488   1.229   2.604   2.876  0.4965 -0.3775 -0.0241
 7951SOL    HW135489   1.288   2.660   2.826 -1.7807  1.7334 -0.3674
 7951SOL    HW235490   1.183   2.676   2.920 -0.1859  0.1369 -1.6076
 7952SOL     OW35491   1.676   1.682   2.851 -0.1079 -0.9944  0.1078
 7952SOL    HW135492   1.684   1.747   2.781  1.9642  0.3511  1.6256
 7952SOL    HW235493   1.757   1.703   2.896  0.1419 -1.7357  0.0080
 7953SOL     OW35494   1.194   1.826  11.461 -0.5829  0.3840 -0.2496
 7953SOL    HW135495   1.149   1.911  11.456 -1.2015  0.0395 -0.5715
 7953SOL    HW235496   1.157   1.781  11.386 -1.2332 -0.9172  0.8558
 7954SOL     OW35497   2.824   4.322   4.546 -0.3764 -0.1735 -0.1945
 7954SOL    HW135498   2.834   4.292   4.636  1.4247  2.8344  0.5721
 7954SOL    HW235499   2.907   4.362   4.523 -1.2354  1.3336 -0.6758
 7955SOL     OW35500   1.428   1.433   9.054  0.2230 -0.0193  0.3252
 7955SOL    HW135501   1.493   1.384   9.105 -1.9831 -2.1303  1.1640
 7955SOL    HW235502   1.383   1.472   9.129  1.3969 -0.2176  1.1407
 7956SOL     OW35503   1.433   4.431   5.861  0.1903 -0.3458  0.1753
 7956SOL    HW135504   1.401   4.488   5.930 -0.0843  0.6263 -0.7593
 7956SOL    HW235505   1.521   4.469   5.860  0.2282 -0.3874  1.5800
 7957SOL     OW35506   2.470   1.374   7.199 -0.1319 -0.1315  0.0274
 7957SOL    HW135507   2.440   1.442   7.138  0.3636 -1.7832 -2.0714
 7957SOL    HW235508   2.558   1.399   7.228 -0.0375  1.7547 -1.8754
 7958SOL     OW35509   0.036   4.087  13.935 -0.3668  0.1099  0.2377
 7958SOL    HW135510   0.065   4.035  14.010  0.5050 -2.2177 -1.7319
 7958SOL    HW235511   0.071   4.048  13.855 -1.0568 -2.5564  1.2387
 7959SOL     OW35512   3.748   3.459   2.960  0.2500 -0.1712 -0.1275
 7959SOL    HW135513   3.829   3.408   2.968 -0.8005 -1.5676  1.6398
 7959SOL    HW235514   3.766   3.544   2.998  0.5305  0.1218 -0.9069
 7960SOL     OW35515   2.374   2.199   6.198  0.0285  0.2086 -0.0027
 7960SOL    HW135516   2.400   2.108   6.205 -1.9724 -0.6042 -2.9127
 7960SOL    HW235517   2.391   2.219   6.290 -0.0472 -0.5018  0.1595
 7961SOL     OW35518   1.836   1.269   9.373  0.4420 -0.0599  0.8018
 7961SOL    HW135519   1.892   1.236   9.444  2.9365  0.4729 -0.9027
 7961SOL    HW235520   1.861   1.361   9.365 -0.5609  0.0211 -1.4061
 7962SOL     OW35521   3.252   1.572   2.264  0.3105  0.6972 -0.2006
 7962SOL    HW135522   3.278   1.555   2.173  2.6743 -0.1964  0.6489
 7962SOL    HW235523   3.296   1.655   2.281  0.1916  0.0440  3.2929
 7963SOL     OW35524   3.089   1.566   5.197 -0.1158 -0.2013 -1.0666
 7963SOL    HW135525   3.050   1.516   5.125 -2.2896 -2.5142  1.7280
 7963SOL    HW235526   3.135   1.636   5.151 -0.3328  0.6498  0.0222
 7964SOL     OW35527   1.243   3.722  14.293  0.1998  0.0853  0.1070
 7964SOL    HW135528   1.324   3.771  14.308  1.1424 -1.0297 -1.2172
 7964SOL    HW235529   1.269   3.630  14.298  1.3506  0.4526  0.9470
 7965SOL     OW35530   4.073   0.382   5.125  0.2383  0.5373  0.3704
 7965SOL    HW135531   3.990   0.409   5.164 -0.5483 -0.8750 -0.3294
 7965SOL    HW235532   4.051   0.356   5.036  0.1740 -1.9590  1.1026
 7966SOL     OW35533   4.218   3.324   8.728 -0.0211  0.7096  0.6174
 7966SOL    HW135534   4.286   3.364   8.675 -0.2738 -1.0271 -1.0066
 7966SOL    HW235535   4.156   3.396   8.723 -0.4233  0.2049 -1.6880
 7967SOL     OW35536   0.491   1.474   7.002 -0.0135  0.1243 -0.0966
 7967SOL    HW135537   0.464   1.451   7.090 -0.1712  2.5993  0.4956
 7967SOL    HW235538   0.522   1.392   6.964 -0.5485 -0.6310  1.1166
 7968SOL     OW35539   0.819   2.393   6.583 -0.1303  0.2991 -0.0777
 7968SOL    HW135540   0.768   2.460   6.537  1.0901  1.4095  0.1896
 7968SOL    HW235541   0.798   2.314   6.534  0.4955  0.0969 -0.0181
 7969SOL     OW35542   3.757   1.313   5.184  1.1506  0.0063  0.4248
 7969SOL    HW135543   3.684   1.253   5.178 -0.1884  1.5554  1.2116
 7969SOL    HW235544   3.709   1.389   5.216  0.1910 -0.2446 -0.4582
 7970SOL     OW35545   3.417   1.809   4.092  0.1588  0.4268  0.8158
 7970SOL    HW135546   3.352   1.739   4.094 -1.0771  1.5659  0.9176
 7970SOL    HW235547   3.366   1.887   4.114 -0.7854 -0.6443  2.4626
 7971SOL     OW35548   4.148   0.955   3.448  0.6070  0.2134 -0.0151
 7971SOL    HW135549   4.237   0.988   3.449  1.0756 -1.0704  1.5743
 7971SOL    HW235550   4.156   0.888   3.381 -0.4741  2.2025 -2.1214
 7972SOL     OW35551   0.476   2.817  13.072 -0.4706  0.3837  0.3687
 7972SOL    HW135552   0.467   2.908  13.102 -2.0400 -0.0724  1.2927
 7972SOL    HW235553   0.570   2.809  13.061 -0.4465  2.3048 -0.7628
 7973SOL     OW35554   0.645   2.017  12.550  0.3500  0.5879 -0.3905
 7973SOL    HW135555   0.721   1.974  12.589  0.4682 -0.1154 -1.3947
 7973SOL    HW235556   0.687   2.035  12.466  0.7525  1.1440 -0.0728
 7974SOL     OW35557   2.269   0.078   5.469  0.5767  0.4658  0.4869
 7974SOL    HW135558   2.284   0.038   5.384  1.8779 -1.4041  1.5934
 7974SOL    HW235559   2.192   0.130   5.445  1.6301  1.0029 -1.6613
 7975SOL     OW35560   0.241   4.455   6.278  0.4363 -0.0646  0.3500
 7975SOL    HW135561   0.329   4.425   6.302  0.2483 -1.5766 -0.8409
 7975SOL    HW235562   0.216   4.398   6.205 -2.4638 -1.4511  2.4294
 7976SOL     OW35563   2.839   1.505   2.440 -0.4240 -0.5163  0.1026
 7976SOL    HW135564   2.754   1.548   2.426  0.6765  1.5682 -0.2327
 7976SOL    HW235565   2.835   1.521   2.534 -0.0395 -2.3711  0.4288
 7977SOL     OW35566   3.006   3.981   2.543 -0.6602  0.2448 -0.5316
 7977SOL    HW135567   2.975   3.972   2.453  1.4604  1.5844 -1.3897
 7977SOL    HW235568   2.947   3.934   2.601 -1.5990  1.7113 -0.3121
 7978SOL     OW35569   0.351   2.499   0.096  0.3024  0.2356  0.0159
 7978SOL    HW135570   0.392   2.552   0.027  1.2050 -0.1946  0.2272
 7978SOL    HW235571   0.273   2.483   0.042 -0.0876 -1.9233  1.2385
 7979SOL     OW35572   3.564   2.365   9.178  0.8164 -0.2382  0.4053
 7979SOL    HW135573   3.623   2.307   9.130 -1.2478 -2.0090 -0.0163
 7979SOL    HW235574   3.569   2.324   9.265  0.9351 -0.4879  0.2829
 7980SOL     OW35575   3.228   3.110   7.990  0.2562  0.2446 -0.2776
 7980SOL    HW135576   3.272   3.058   7.922 -1.0011  0.6197 -1.3738
 7980SOL    HW235577   3.297   3.150   8.043 -2.3428  0.1593  3.1369
 7981SOL     OW35578   2.090   0.678  12.357 -0.2437 -0.1978  0.4708
 7981SOL    HW135579   2.109   0.626  12.435 -3.9908  0.1406  1.5639
 7981SOL    HW235580   2.172   0.726  12.345  0.7187 -2.2951 -1.4529
 7982SOL     OW35581   2.568   0.270  13.700  0.1278  0.0145  0.3115
 7982SOL    HW135582   2.474   0.271  13.681 -0.1333  0.1113  1.6178
 7982SOL    HW235583   2.602   0.264  13.611  0.2069 -1.9907  0.4717
 7983SOL     OW35584   1.138   0.924   8.723 -0.3396  0.1615 -0.0518
 7983SOL    HW135585   1.095   0.916   8.638  0.4112  0.7128 -0.4795
 7983SOL    HW235586   1.106   1.009   8.754  1.5787 -0.0369  2.4644
 7984SOL     OW35587   3.367   1.379  15.185  0.0893  0.2264  0.2672
 7984SOL    HW135588   3.348   1.449  15.122 -0.4314 -0.3089 -0.1652
 7984SOL    HW235589   3.457   1.407  15.204  1.2490 -3.1378 -0.2333
 7985SOL     OW35590   1.380   2.645  12.579  0.4667  0.0330  0.3121
 7985SOL    HW135591   1.464   2.668  12.620  0.0197 -0.1791  1.3540
 7985SOL    HW235592   1.328   2.648  12.659  1.4114 -1.8141  0.9943
 7986SOL     OW35593   2.296   0.203   6.182 -0.3337 -0.1554 -0.4084
 7986SOL    HW135594   2.273   0.163   6.266 -0.0736  1.6602  0.5467
 7986SOL    HW235595   2.392   0.193   6.185 -0.6195 -2.0716  2.0987
 7987SOL     OW35596   0.393   1.017  10.270  0.1619 -0.0585  0.3475
 7987SOL    HW135597   0.336   0.957  10.221 -1.0475  0.2629  1.3498
 7987SOL    HW235598   0.474   0.968  10.271  0.3173  0.1505 -1.2196
 7988SOL     OW35599   1.517   3.280   2.656  0.2811 -0.0357  0.5159
 7988SOL    HW135600   1.532   3.326   2.573  0.9876  0.0972  0.7232
 7988SOL    HW235601   1.553   3.192   2.648  0.0657 -0.1785  1.1589
 7989SOL     OW35602   3.817   1.326   6.570  0.4813 -0.6485 -0.1917
 7989SOL    HW135603   3.727   1.328   6.600  0.0487  0.1917 -1.5456
 7989SOL    HW235604   3.862   1.381   6.634 -0.7251  0.0249  0.0821
 7990SOL     OW35605   2.815   0.705   3.870  0.6006 -0.2817 -0.6023
 7990SOL    HW135606   2.842   0.686   3.960 -0.6190  3.2903  0.5041
 7990SOL    HW235607   2.722   0.684   3.862  0.8708 -0.8335 -2.2262
 7991SOL     OW35608   3.051   3.326   3.176 -0.3416 -0.3778  0.5163
 7991SOL    HW135609   2.981   3.377   3.134  1.2121  1.7006  0.4627
 7991SOL    HW235610   3.076   3.371   3.257 -0.7647  1.5989 -0.4514
 7992SOL     OW35611   1.235   0.546   9.267  0.2977 -0.1711 -1.5026
 7992SOL    HW135612   1.289   0.513   9.195  0.8901 -3.3896  0.4221
 7992SOL    HW235613   1.293   0.605   9.314 -2.5174  2.6499 -1.5553
 7993SOL     OW35614   2.741   2.463   3.533 -0.4612  0.4610  0.1548
 7993SOL    HW135615   2.668   2.507   3.578 -2.3376  0.4543 -2.8575
 7993SOL    HW235616   2.774   2.418   3.611  0.2892 -0.3392 -0.6352
 7994SOL     OW35617   4.102   1.497   1.296  0.0460  0.4672  0.0626
 7994SOL    HW135618   4.128   1.555   1.367  2.7589  1.1950 -1.5329
 7994SOL    HW235619   4.119   1.570   1.236  1.9897 -1.1377 -1.3178
 7995SOL     OW35620   3.875   2.912  15.610  0.2940  0.8881 -0.1645
 7995SOL    HW135621   3.921   2.972  15.669  2.4841 -0.7513 -0.2187
 7995SOL    HW235622   3.889   2.960  15.529  0.1222  1.4144  0.1120
 7996SOL     OW35623   2.635   0.121   4.826 -0.2295  0.2000  0.3063
 7996SOL    HW135624   2.674   0.087   4.906 -1.1653 -0.2532  0.5688
 7996SOL    HW235625   2.680   0.205   4.812  1.1488 -0.2359  2.2158
 7997SOL     OW35626   4.158   3.533  13.076 -1.1005  0.1864 -0.5169
 7997SOL    HW135627   4.103   3.587  13.132  0.0081 -1.0138  1.7379
 7997SOL    HW235628   4.110   3.452  13.096 -0.1505 -0.6543 -1.6188
 7998SOL     OW35629   1.348   1.640  13.525 -0.3641  0.3018  0.4677
 7998SOL    HW135630   1.271   1.588  13.549  0.6401 -1.5732 -0.4508
 7998SOL    HW235631   1.343   1.616  13.433  2.9116  1.3302  0.0378
 7999SOL     OW35632   3.265   3.656   8.850  0.0995  0.0261 -0.3578
 7999SOL    HW135633   3.230   3.600   8.781 -1.5115 -0.1984  0.6416
 7999SOL    HW235634   3.261   3.596   8.924  1.4205  0.4106  0.0301
 8000SOL     OW35635   0.115   3.893   3.359  0.4101  0.1636 -0.4227
 8000SOL    HW135636   0.109   3.871   3.452  1.4520 -2.5122 -1.0051
 8000SOL    HW235637   0.069   3.818   3.322 -1.1930  0.7106  0.4625
 8001SOL     OW35638   0.626   1.692  12.786 -0.3147 -0.4294 -0.5149
 8001SOL    HW135639   0.680   1.768  12.765 -1.1847  0.2904 -0.1450
 8001SOL    HW235640   0.580   1.684  12.703 -1.5395  0.2488  0.0996
 8002SOL     OW35641   1.762   2.740  12.186 -0.4223 -0.8355 -0.5622
 8002SOL    HW135642   1.796   2.816  12.233 -1.4209  0.5110 -1.9908
 8002SOL    HW235643   1.745   2.668  12.246 -0.6795 -0.5366 -0.2754
 8003SOL     OW35644   3.873   0.961  14.531 -0.4219 -0.3141 -0.0309
 8003SOL    HW135645   3.961   0.951  14.567  0.5775 -0.5248 -2.5284
 8003SOL    HW235646   3.825   0.982  14.612  0.1109  0.3000  0.1269
 8004SOL     OW35647   2.231   1.087   6.819  0.6609 -0.1004  0.3243
 8004SOL    HW135648   2.226   0.993   6.838 -0.7517 -0.2564 -0.8211
 8004SOL    HW235649   2.206   1.126   6.903 -1.9711  1.2243 -1.0866
 8005SOL     OW35650   3.988   0.639   9.566 -0.2140  0.2363  0.5343
 8005SOL    HW135651   3.992   0.730   9.537 -0.5068 -0.3622 -1.4063
 8005SOL    HW235652   3.897   0.638   9.594 -0.8684 -1.3922 -1.6331
 8006SOL     OW35653   0.925   1.989   5.959  0.3093 -0.6426 -0.0220
 8006SOL    HW135654   0.915   1.912   5.903 -2.2537 -1.2203  1.2310
 8006SOL    HW235655   0.934   1.953   6.047 -0.1355  1.6857  0.9775
 8007SOL     OW35656   0.290   3.187  14.331  0.0859  0.4832 -0.4486
 8007SOL    HW135657   0.277   3.232  14.414 -1.4914  0.6199 -0.7651
 8007SOL    HW235658   0.219   3.123  14.332  0.2472  0.3058 -0.2605
 8008SOL     OW35659   1.773   1.892   3.696  0.3260  0.2627 -0.0503
 8008SOL    HW135660   1.734   1.889   3.609 -2.3162  1.2313  1.1172
 8008SOL    HW235661   1.722   1.960   3.741  1.6056 -0.2785  2.2121
 8009SOL     OW35662   2.723   3.974   0.107 -0.5256 -0.2738  0.1340
 8009SOL    HW135663   2.802   4.002   0.061 -0.6777  1.7791  1.1322
 8009SOL    HW235664   2.713   4.048   0.167 -0.9075  0.1149 -0.4096
 8010SOL     OW35665   4.608   4.098   2.679 -0.9338 -0.0563  0.3717
 8010SOL    HW135666   4.693   4.068   2.713 -0.1551  0.8254 -0.7712
 8010SOL    HW235667   4.583   4.024   2.624  1.2642 -0.2866 -0.3181
 8011SOL     OW35668   0.406   3.307   3.314 -0.1034 -0.1485 -0.1994
 8011SOL    HW135669   0.426   3.226   3.268 -1.9618 -0.6884 -0.0499
 8011SOL    HW235670   0.375   3.365   3.244  0.3554  0.8218  0.3951
 8012SOL     OW35671   0.514   2.339  13.435  0.6082 -0.1471 -0.4243
 8012SOL    HW135672   0.421   2.324  13.451  0.4081  1.8283  0.2517
 8012SOL    HW235673   0.548   2.268  13.489  2.9032  1.1253 -0.1909
 8013SOL     OW35674   0.911   4.718   2.659 -0.2757 -0.8472  0.4913
 8013SOL    HW135675   0.859   0.010   2.585  1.2685  1.5137  0.4062
 8013SOL    HW235676   0.870   4.632   2.668 -0.3514 -0.9986 -1.3035
 8014SOL     OW35677   0.706   0.434   1.124  0.2448 -0.0334  0.1001
 8014SOL    HW135678   0.737   0.467   1.208  2.4290 -1.1239 -0.2767
 8014SOL    HW235679   0.621   0.401   1.154  0.7148 -0.0230  1.4377
 8015SOL     OW35680   0.426   2.477   1.504  0.4140 -0.3185  0.3074
 8015SOL    HW135681   0.351   2.437   1.461 -1.0447 -0.5258  3.0257
 8015SOL    HW235682   0.479   2.524   1.440 -1.8630  1.5591 -0.1738
 8016SOL     OW35683   0.816   2.546   5.896  0.3330  0.0918  0.4115
 8016SOL    HW135684   0.772   2.462   5.883 -0.6350  0.7490 -0.5617
 8016SOL    HW235685   0.748   2.593   5.944 -0.0079  0.2030 -0.1758
 8017SOL     OW35686   1.563   3.315  16.247  0.1489  0.0608 -0.1192
 8017SOL    HW135687   1.619   3.305  16.324 -0.2228 -0.0843  0.1349
 8017SOL    HW235688   1.541   3.223  16.234 -1.6796  0.1331  2.4225
 8018SOL     OW35689   1.454   4.511   9.180  0.3265  0.8551 -0.6532
 8018SOL    HW135690   1.473   4.474   9.266  1.3462  1.4875 -0.6081
 8018SOL    HW235691   1.380   4.456   9.154  2.4175 -2.0601 -0.4431
 8019SOL     OW35692   4.271   1.788   3.676 -0.2707 -0.0032 -0.5930
 8019SOL    HW135693   4.197   1.766   3.619 -2.2382  0.8854  1.6429
 8019SOL    HW235694   4.345   1.770   3.618 -2.1167 -1.3734 -2.5512
 8020SOL     OW35695   0.339   2.073   9.857 -0.2432  0.1698  0.6257
 8020SOL    HW135696   0.280   2.148   9.868 -2.5629 -1.2874 -1.6844
 8020SOL    HW235697   0.304   2.019   9.785  3.7807 -0.7781 -0.5986
 8021SOL     OW35698   4.218   3.621   5.592  0.4406  0.3116 -0.2078
 8021SOL    HW135699   4.218   3.572   5.675  0.9439  0.1592 -0.2949
 8021SOL    HW235700   4.283   3.564   5.551  1.4615  0.8953  0.5686
 8022SOL     OW35701   1.984   4.102   1.807 -0.0920 -0.0557  0.3823
 8022SOL    HW135702   1.925   4.032   1.837  0.7797 -0.8805  0.1820
 8022SOL    HW235703   1.958   4.171   1.867 -1.2291 -0.7334  0.6876
 8023SOL     OW35704   4.488   0.672   7.195 -0.0007 -0.5313  0.1661
 8023SOL    HW135705   4.507   0.766   7.192  0.0463 -0.5711 -0.8150
 8023SOL    HW235706   4.494   0.666   7.290 -0.8528  1.9459  0.3805
 8024SOL     OW35707   1.950   4.640  16.886 -0.2804 -0.2006 -0.2398
 8024SOL    HW135708   1.984   4.550  16.886  1.1187  0.3183  0.8706
 8024SOL    HW235709   1.879   4.631  16.949 -0.2923 -1.4190 -0.4335
 8025SOL     OW35710   2.419   1.081   2.301  0.3473  0.2161  0.1880
 8025SOL    HW135711   2.354   1.081   2.231 -1.9675  3.1289  2.3117
 8025SOL    HW235712   2.372   1.081   2.385 -0.7367 -2.2090 -0.4404
 8026SOL     OW35713   2.523   1.173   3.448 -0.1738  0.1865  0.0758
 8026SOL    HW135714   2.483   1.206   3.529 -2.7186 -3.2050  0.2013
 8026SOL    HW235715   2.445   1.174   3.392 -2.2839  0.7052  2.9715
 8027SOL     OW35716   3.577   3.254   2.493  0.7455 -0.0608  0.3173
 8027SOL    HW135717   3.517   3.237   2.567  0.3343  2.9862  0.6652
 8027SOL    HW235718   3.635   3.314   2.540  0.6555  0.3749 -0.1325
 8028SOL     OW35719   3.747   0.507  16.536  0.1059  0.1480 -0.5884
 8028SOL    HW135720   3.707   0.594  16.528  1.0413  0.5679 -0.7427
 8028SOL    HW235721   3.758   0.492  16.629 -0.4880  0.5115 -0.4552
 8029SOL     OW35722   0.297   3.452   7.021 -0.3746  0.0736 -0.2680
 8029SOL    HW135723   0.363   3.514   6.989 -0.2701  0.7776  1.3331
 8029SOL    HW235724   0.333   3.371   6.985 -2.3759 -0.7464 -0.4291
 8030SOL     OW35725   3.159   1.472   6.258  0.4813 -0.9430 -0.7110
 8030SOL    HW135726   3.150   1.424   6.175  2.5814 -1.6708 -0.5237
 8030SOL    HW235727   3.101   1.427   6.319  0.5144  1.6032  1.2083
 8031SOL     OW35728   1.054   4.322   2.818 -0.0149  0.1185  0.0927
 8031SOL    HW135729   1.007   4.288   2.894  1.2809  1.8488  1.6583
 8031SOL    HW235730   0.993   4.383   2.776 -1.2072 -0.4963  0.9235
 8032SOL     OW35731   1.070   1.428   3.489  0.0078 -0.4048  0.1793
 8032SOL    HW135732   1.079   1.425   3.394  0.7859  0.8256  0.2060
 8032SOL    HW235733   1.160   1.418   3.519 -1.0658 -0.9467  3.2551
 8033SOL     OW35734   2.305   4.637   5.229  0.6086 -0.6327  0.1443
 8033SOL    HW135735   2.268   4.704   5.170  2.1387 -0.4381 -0.5837
 8033SOL    HW235736   2.396   4.666   5.231  0.7340 -0.8579 -1.9612
 8034SOL     OW35737   3.472   1.944   9.888  0.4614  0.4118  0.1800
 8034SOL    HW135738   3.460   1.929   9.982 -2.2195  1.9841  0.1021
 8034SOL    HW235739   3.434   1.863   9.854 -1.3562  0.8982  1.0099
 8035SOL     OW35740   4.185   3.339   6.239 -0.1251 -0.6436  0.4325
 8035SOL    HW135741   4.151   3.428   6.227  1.7698  0.1994  1.4889
 8035SOL    HW235742   4.149   3.316   6.325 -0.7579 -0.5068  0.2102
 8036SOL     OW35743   2.963   2.791   8.507  0.6229 -0.3044  0.0950
 8036SOL    HW135744   2.913   2.714   8.537 -0.8068  1.0726  1.2626
 8036SOL    HW235745   3.014   2.801   8.588  1.2806 -0.8291 -0.2551
 8037SOL     OW35746   1.184   1.377   5.247  0.4358 -0.2041  0.1682
 8037SOL    HW135747   1.279   1.372   5.237  0.3276  0.5250 -1.2914
 8037SOL    HW235748   1.156   1.287   5.261 -0.4299 -0.4169 -2.8863
 8038SOL     OW35749   0.488   4.135  17.205  0.0564  0.0359  0.6676
 8038SOL    HW135750   0.523   4.123  17.292 -2.6970 -3.1105  1.3277
 8038SOL    HW235751   0.424   4.207  17.214 -0.6879 -0.2072 -2.5198
 8039SOL     OW35752   4.237   4.532   5.203 -0.0907  0.0274  0.0814
 8039SOL    HW135753   4.293   4.554   5.128  0.1099  1.1035  0.5464
 8039SOL    HW235754   4.276   4.589   5.269  0.6999  0.2230 -0.5507
 8040SOL     OW35755   0.789   4.169   4.753  0.5602 -0.0231 -0.3185
 8040SOL    HW135756   0.732   4.118   4.696 -1.8391  1.4553  0.8074
 8040SOL    HW235757   0.839   4.106   4.805 -0.4436 -0.0168  0.6381
 8041SOL     OW35758   0.763   0.048   2.445 -0.4337 -0.0766  0.0313
 8041SOL    HW135759   0.671   0.035   2.423 -0.2087 -1.7571  0.0505
 8041SOL    HW235760   0.805   4.737   2.375  2.8220  1.2402  1.0335
 8042SOL     OW35761   1.379   3.446   2.835 -0.4075 -0.6137  0.1826
 8042SOL    HW135762   1.350   3.521   2.783  2.6511 -0.5970 -1.4453
 8042SOL    HW235763   1.430   3.394   2.773  2.3598  1.3976  0.8052
 8043SOL     OW35764   3.947   4.167   1.054 -0.1141  0.2747 -0.1175
 8043SOL    HW135765   3.976   4.201   1.138 -0.7992  1.7244 -0.4730
 8043SOL    HW235766   3.924   4.241   0.999  0.7242  0.7785  0.2120
 8044SOL     OW35767   0.928   2.008  12.040  0.8287 -0.3090 -0.1919
 8044SOL    HW135768   1.014   1.968  12.025  1.5570  1.2854 -0.1851
 8044SOL    HW235769   0.955   2.098  12.055 -0.9580  0.1584  0.2015
 8045SOL     OW35770   0.345   0.765  10.467 -0.1916 -0.3257 -0.2041
 8045SOL    HW135771   0.385   0.700  10.410  0.9632 -0.3690  0.6578
 8045SOL    HW235772   0.417   0.815  10.504 -0.6924  0.4254 -0.2371
 8046SOL     OW35773   1.773   4.021  16.728  0.0569  0.2668 -0.5791
 8046SOL    HW135774   1.680   4.008  16.745  0.5695  0.0563  2.0767
 8046SOL    HW235775   1.767   4.095  16.668  0.6557 -0.0121 -0.9824
 8047SOL     OW35776   4.554   4.303   4.747 -0.1481  0.8135 -0.4096
 8047SOL    HW135777   4.464   4.307   4.715  1.3664 -0.3474 -4.7681
 8047SOL    HW235778   4.546   4.280   4.840 -1.6547  0.7335 -0.5672
 8048SOL     OW35779   3.936   0.029   4.953  0.6121 -0.3384 -0.0868
 8048SOL    HW135780   3.865   0.068   4.901  0.5035 -0.6691 -0.1890
 8048SOL    HW235781   4.009   0.049   4.894  1.0417 -0.4542  0.4057
 8049SOL     OW35782   0.618   0.318  13.881  0.0321  0.3004  0.3406
 8049SOL    HW135783   0.644   0.361  13.800  0.4540 -1.3024 -0.3712
 8049SOL    HW235784   0.641   0.230  13.854 -1.7251  0.3538 -1.4113
 8050SOL     OW35785   4.301   4.115   0.705 -0.1309 -0.4292 -0.5580
 8050SOL    HW135786   4.228   4.139   0.763 -1.1568 -0.3160 -1.9125
 8050SOL    HW235787   4.262   4.135   0.620 -0.6549 -0.5437 -0.3410
 8051SOL     OW35788   4.271   0.055   6.265  0.0027 -0.2779 -0.1012
 8051SOL    HW135789   4.361   0.043   6.294  0.6312 -0.4043 -2.0885
 8051SOL    HW235790   4.269   0.010   6.181  0.7828 -1.0303  0.2855
 8052SOL     OW35791   0.004   4.727   1.771 -0.2533 -0.2322  0.1861
 8052SOL    HW135792   4.673   4.715   1.834 -0.3490 -1.7882 -0.2272
 8052SOL    HW235793   0.058   4.650   1.791  2.5231  2.1672  2.0105
 8053SOL     OW35794   0.327   3.688   2.321 -0.1366  0.4423  0.3741
 8053SOL    HW135795   0.419   3.673   2.344 -0.2789  1.0878  1.3631
 8053SOL    HW235796   0.306   3.759   2.381 -1.4859  1.1653 -0.9392
 8054SOL     OW35797   3.426   1.514  14.626 -0.4442  0.1228  0.0742
 8054SOL    HW135798   3.430   1.549  14.537 -0.3579  0.6470  0.2823
 8054SOL    HW235799   3.331   1.522  14.621 -0.2462  1.0130 -2.3700
 8055SOL     OW35800   1.926   0.570   4.524  0.1891 -0.5695 -0.1201
 8055SOL    HW135801   1.862   0.566   4.453  2.6201 -0.7493 -2.3080
 8055SOL    HW235802   1.945   0.663   4.532 -0.6458 -0.3053 -1.1662
 8056SOL     OW35803   2.052   2.591   3.241  0.0850 -0.1115  0.2888
 8056SOL    HW135804   2.067   2.664   3.301  0.5560  0.8220 -0.9548
 8056SOL    HW235805   1.993   2.531   3.288  1.2100 -0.4906  1.2314
 8057SOL     OW35806   2.289   1.127   8.167 -0.7274  0.2944 -0.3009
 8057SOL    HW135807   2.252   1.146   8.081  1.4742 -0.7995 -1.5073
 8057SOL    HW235808   2.380   1.159   8.166 -0.8480  0.6398 -0.2058
 8058SOL     OW35809   1.419   3.784   2.482 -0.6703  0.2616 -0.2702
 8058SOL    HW135810   1.455   3.787   2.571 -1.9052  3.3289  0.1104
 8058SOL    HW235811   1.503   3.776   2.437 -0.8449  1.3122 -0.7619
 8059SOL     OW35812   0.035   3.307   8.483 -0.0709 -0.2926  0.0042
 8059SOL    HW135813   4.701   3.246   8.486  0.1976 -0.6924 -2.1239
 8059SOL    HW235814   0.051   3.311   8.578 -1.3887 -1.4969  0.2702
 8060SOL     OW35815   1.115   0.731   4.294  0.1294  0.5618 -0.1316
 8060SOL    HW135816   1.126   0.697   4.382 -1.7627 -1.3625 -0.6328
 8060SOL    HW235817   1.190   0.690   4.249 -2.3717 -0.1891 -3.6156
 8061SOL     OW35818   0.904   0.130  13.086 -0.1014 -0.1326 -0.1945
 8061SOL    HW135819   0.935   0.192  13.152  0.1717 -0.8263  0.3286
 8061SOL    HW235820   0.834   0.184  13.049 -0.5750  1.1911  2.5898
 8062SOL     OW35821   0.421   0.928   9.887  0.6189 -0.1631  0.0990
 8062SOL    HW135822   0.399   0.907   9.797 -0.6109  2.1703 -0.1471
 8062SOL    HW235823   0.424   1.023   9.881  3.5803 -0.3489 -1.5375
 8063SOL     OW35824   3.732   0.620  17.116  0.0327  0.2013 -0.4389
 8063SOL    HW135825   3.660   0.639  17.177  1.3277 -0.7998  1.4186
 8063SOL    HW235826   3.764   0.538  17.153 -0.7534  0.1336  0.0962
 8064SOL     OW35827   1.490   4.640   8.895 -0.2515  0.2790 -0.2141
 8064SOL    HW135828   1.530   4.727   8.903 -0.5460  0.3833  0.0865
 8064SOL    HW235829   1.506   4.617   8.986 -1.0226  0.5388 -0.0143
 8065SOL     OW35830   1.366   2.570  16.981 -0.1601 -0.5705  0.2524
 8065SOL    HW135831   1.301   2.504  16.958  0.3462 -0.1022 -2.5305
 8065SOL    HW235832   1.314   2.642  17.016  1.2197 -0.5687  2.2959
 8066SOL     OW35833   1.201   1.513   9.725  0.1727 -0.2149 -0.0550
 8066SOL    HW135834   1.167   1.459   9.796  0.2939  1.6876  1.4655
 8066SOL    HW235835   1.297   1.505   9.732  0.1754 -0.1156  0.0259
 8067SOL     OW35836   1.285   2.389   6.908 -0.0476 -0.1229  0.3317
 8067SOL    HW135837   1.231   2.433   6.842 -0.6943 -0.6229  0.5276
 8067SOL    HW235838   1.346   2.332   6.861  0.1751 -1.1241  1.8105
 8068SOL     OW35839   0.180   0.426   6.470 -0.3607 -0.0505  0.3997
 8068SOL    HW135840   0.147   0.516   6.461  1.4578  0.5379 -0.4269
 8068SOL    HW235841   0.135   0.380   6.399 -2.2257  1.4727  0.5841
 8069SOL     OW35842   2.154   1.334  16.966  0.8688 -0.3602  0.1768
 8069SOL    HW135843   2.108   1.410  16.931 -1.5761 -1.7682  0.3460
 8069SOL    HW235844   2.208   1.380  17.030 -0.9662  1.7484  0.2090
 8070SOL     OW35845   1.139   3.579   9.839  0.4290  0.1240  0.1536
 8070SOL    HW135846   1.214   3.569   9.780  0.2204  1.0188 -0.2680
 8070SOL    HW235847   1.106   3.666   9.817  0.3305 -0.2512 -1.1746
 8071SOL     OW35848   0.710   3.711  11.891  0.0157 -0.1518 -0.2625
 8071SOL    HW135849   0.708   3.807  11.885  0.6371 -0.2782 -2.2785
 8071SOL    HW235850   0.750   3.682  11.809 -1.6338  2.7766 -2.1085
 8072SOL     OW35851   3.153   2.197  17.078 -0.1654 -0.0150 -0.2420
 8072SOL    HW135852   3.214   2.252  17.029  0.6847 -1.5344 -0.8814
 8072SOL    HW235853   3.065   2.234  17.070  0.2904  1.2533  0.6998
 8073SOL     OW35854   1.838   2.411  12.059  0.0049 -0.3447 -0.4444
 8073SOL    HW135855   1.858   2.337  12.117 -3.9823 -2.2567 -1.5351
 8073SOL    HW235856   1.920   2.457  12.079 -0.0788 -1.0061  1.3688
 8074SOL     OW35857   3.164   3.873   0.861 -0.4026  0.2485 -0.6201
 8074SOL    HW135858   3.110   3.949   0.884 -1.0574 -0.4611  0.2390
 8074SOL    HW235859   3.200   3.913   0.783  1.6748 -2.5314 -1.0881
 8075SOL     OW35860   1.852   1.105   8.247  0.0106  0.1236 -0.0703
 8075SOL    HW135861   1.822   1.146   8.166 -1.4150  0.9630  0.8909
 8075SOL    HW235862   1.912   1.175   8.272  1.5895 -1.8557  1.7770
 8076SOL     OW35863   1.429   2.605   2.611 -0.0102 -0.3519 -0.7605
 8076SOL    HW135864   1.505   2.587   2.667  0.4661  1.5235 -0.7998
 8076SOL    HW235865   1.473   2.629   2.530  1.5815 -1.2609 -0.1792
 8077SOL     OW35866   0.658   2.517   4.691  0.0916  0.3682  0.4580
 8077SOL    HW135867   0.637   2.426   4.669 -2.5711  1.4165 -1.3821
 8077SOL    HW235868   0.725   2.531   4.624  0.0674  1.2233  0.6134
 8078SOL     OW35869   3.320   4.325   7.496 -0.1803  0.4179 -0.0055
 8078SOL    HW135870   3.278   4.397   7.543 -0.5142 -0.2664  0.7319
 8078SOL    HW235871   3.363   4.375   7.426 -0.9350  0.7954 -0.2111
 8079SOL     OW35872   3.239   2.508   6.424 -0.4575  0.2071 -0.8896
 8079SOL    HW135873   3.266   2.599   6.409  0.8483  0.3372  2.1151
 8079SOL    HW235874   3.302   2.459   6.370  0.3005  0.8143 -0.5544
 8080SOL     OW35875   2.715   4.104   6.199 -0.6922  0.1232 -0.1484
 8080SOL    HW135876   2.779   4.173   6.184 -0.1989 -0.3729 -0.3093
 8080SOL    HW235877   2.765   4.031   6.236  0.9108  2.7321  2.8506
 8081SOL     OW35878   3.609   3.576   0.177  0.1595 -0.1833  0.1411
 8081SOL    HW135879   3.652   3.581   0.263  1.0435 -1.9299 -0.1907
 8081SOL    HW235880   3.682   3.552   0.120  3.0576  2.2430  2.8168
 8082SOL     OW35881   0.667   3.327  17.152 -0.4904  0.6063 -0.3897
 8082SOL    HW135882   0.620   3.393  17.203  1.2487  0.6553  1.1596
 8082SOL    HW235883   0.727   3.293  17.218 -1.2769  1.8383  0.9638
 8083SOL     OW35884   2.841   0.915   6.758  0.3816 -0.2441 -0.0599
 8083SOL    HW135885   2.757   0.960   6.765  0.7253  0.2929  0.5757
 8083SOL    HW235886   2.823   0.858   6.683  1.9155  0.4190 -0.9410
 8084SOL     OW35887   4.390   0.439  17.201  0.1878 -0.2715  0.3508
 8084SOL    HW135888   4.436   0.481  17.274 -0.3195  1.5150 -0.3503
 8084SOL    HW235889   4.370   0.352  17.235  0.4496 -0.2361  0.5986
 8085SOL     OW35890   1.613   1.152  11.740  0.2654  0.2940  0.5052
 8085SOL    HW135891   1.640   1.142  11.649 -0.8917 -0.4239  0.2394
 8085SOL    HW235892   1.684   1.210  11.768  0.0283  0.6389  0.3880
 8086SOL     OW35893   2.474   4.685   3.368 -0.1677 -0.1892 -0.4456
 8086SOL    HW135894   2.483   0.018   3.306  0.3183  0.3311  0.2327
 8086SOL    HW235895   2.382   4.695   3.391 -0.1014 -0.1848 -0.1774
 8087SOL     OW35896   3.441   3.061   7.766  0.6057  0.0701  0.6351
 8087SOL    HW135897   3.426   2.971   7.796  2.8198 -0.6068 -0.3289
 8087SOL    HW235898   3.534   3.046   7.749  0.2498 -2.8356  1.1174
 8088SOL     OW35899   1.202   2.362  16.887  0.4551 -0.5983  0.3948
 8088SOL    HW135900   1.188   2.268  16.880 -0.2739 -0.2943 -2.2953
 8088SOL    HW235901   1.188   2.391  16.797  1.3445  2.3691  1.1928
 8089SOL     OW35902   3.288   4.408  17.258 -0.1623 -0.4068 -0.0117
 8089SOL    HW135903   3.362   4.372  17.210 -0.3777 -1.8740  0.7619
 8089SOL    HW235904   3.293   4.497  17.223 -1.2300 -0.3874 -0.1249
 8090SOL     OW35905   1.059   2.725   1.990  0.2009  0.3086 -0.3085
 8090SOL    HW135906   1.059   2.634   2.019  2.5282  0.8706  1.3887
 8090SOL    HW235907   1.146   2.747   2.023  1.4268 -1.6135 -2.2651
 8091SOL     OW35908   1.798   2.357   3.646  0.3351  0.0455 -0.7800
 8091SOL    HW135909   1.861   2.339   3.716  1.5063 -0.7042 -2.0477
 8091SOL    HW235910   1.775   2.449   3.664  0.7761  0.1760 -0.8918
 8092SOL     OW35911   3.317   2.531   5.713  0.4302  0.1556  0.6762
 8092SOL    HW135912   3.241   2.590   5.715 -0.3797 -0.8941  0.5306
 8092SOL    HW235913   3.282   2.453   5.756 -0.4598 -0.1252 -0.5820
 8093SOL     OW35914   0.219   0.342   7.358  0.0554  0.0312  0.2948
 8093SOL    HW135915   0.199   0.384   7.442 -3.3722 -3.8405  1.4522
 8093SOL    HW235916   0.168   0.404   7.307 -0.8742 -0.6854  0.3608
 8094SOL     OW35917   2.419   0.854   0.740  0.3722  0.4984  0.0582
 8094SOL    HW135918   2.387   0.898   0.661 -1.2843  0.9577  0.9937
 8094SOL    HW235919   2.337   0.852   0.789 -0.3729  1.7568 -1.1152
 8095SOL     OW35920   3.208   1.266   3.898 -0.2152  0.1006 -0.8299
 8095SOL    HW135921   3.294   1.290   3.932 -0.3244 -1.2023  0.3563
 8095SOL    HW235922   3.156   1.302   3.969 -0.1077  0.3562 -0.8803
 8096SOL     OW35923   3.548   3.578   0.621  0.0990 -0.2239  0.1002
 8096SOL    HW135924   3.464   3.620   0.632  0.4619 -0.1063  2.2771
 8096SOL    HW235925   3.570   3.554   0.711 -0.6482 -1.6832 -0.0913
 8097SOL     OW35926   0.937   2.758   3.207  0.6814 -0.1506 -0.1406
 8097SOL    HW135927   1.008   2.766   3.143 -0.5582 -1.4099 -1.6898
 8097SOL    HW235928   0.969   2.805   3.284 -1.0384 -1.8283  1.5864
 8098SOL     OW35929   4.721   4.239   9.729 -0.0586  0.2414  0.0380
 8098SOL    HW135930   4.661   4.315   9.731 -1.1200 -0.6449  1.7516
 8098SOL    HW235931   4.721   4.218   9.636  0.4616 -0.7142  0.2568
 8099SOL     OW35932   1.307   0.812   3.799 -0.6563 -0.5900  0.2901
 8099SOL    HW135933   1.336   0.745   3.861  2.5030  1.1351  0.6590
 8099SOL    HW235934   1.277   0.762   3.723 -1.6329  0.7296 -0.2086
 8100SOL     OW35935   0.431   3.989   8.403 -0.1106 -0.0816 -0.7584
 8100SOL    HW135936   0.384   4.060   8.447  1.9205  0.0315  1.2323
 8100SOL    HW235937   0.486   4.034   8.338 -0.0358  1.1385  0.1373
 8101SOL     OW35938   3.203   1.751   6.240  0.0496  0.6526 -0.3638
 8101SOL    HW135939   3.139   1.757   6.169  0.6548  1.1440 -0.8703
 8101SOL    HW235940   3.210   1.657   6.252  0.2217  0.7164  0.0354
 8102SOL     OW35941   1.359   2.698  14.457  0.1839 -0.6687 -0.4919
 8102SOL    HW135942   1.383   2.790  14.447 -1.9010 -0.2385 -1.5077
 8102SOL    HW235943   1.329   2.675  14.369  0.3863 -1.0769 -0.4520
 8103SOL     OW35944   1.485   1.396  13.726  0.2184 -0.2932 -0.4990
 8103SOL    HW135945   1.427   1.432  13.659 -2.1230 -0.7762  1.2807
 8103SOL    HW235946   1.571   1.386  13.685  0.6399  0.8912  0.1270
 8104SOL     OW35947   4.324   3.439   5.805 -0.0538  0.2880  0.1307
 8104SOL    HW135948   4.293   3.516   5.853 -2.3017  0.0966 -1.0071
 8104SOL    HW235949   4.356   3.382   5.875 -1.5558  1.6619  1.9613
 8105SOL     OW35950   4.273   1.053   9.015 -0.5398  0.5299  0.3071
 8105SOL    HW135951   4.247   0.966   8.983 -0.9624  1.2242 -1.2235
 8105SOL    HW235952   4.231   1.113   8.954 -0.9179  0.2763  0.3159
 8106SOL     OW35953   1.355   3.909   7.502  0.0556 -0.5380 -0.4160
 8106SOL    HW135954   1.326   3.992   7.540  0.9236 -0.5505  0.2639
 8106SOL    HW235955   1.300   3.860   7.562 -2.1626  2.2539 -0.1469
 8107SOL     OW35956   4.145   3.063   2.638  0.3127 -0.1263 -0.2390
 8107SOL    HW135957   4.067   3.116   2.621 -0.0752 -0.6195  0.0158
 8107SOL    HW235958   4.206   3.109   2.580  0.5571  0.2169  0.2929
 8108SOL     OW35959   2.810   3.166   2.458  0.8668 -0.4341 -0.0757
 8108SOL    HW135960   2.796   3.230   2.528 -0.2980 -0.2746 -0.4492
 8108SOL    HW235961   2.752   3.093   2.481 -0.6372  0.1757 -1.9525
 8109SOL     OW35962   4.057   3.320   1.807  0.5159  0.0607  0.8474
 8109SOL    HW135963   4.056   3.350   1.716 -4.0020 -1.3494  0.4222
 8109SOL    HW235964   3.981   3.262   1.797  0.8177 -0.4472  1.4998
 8110SOL     OW35965   0.485   4.369   9.862 -0.5331 -0.7769 -0.5932
 8110SOL    HW135966   0.480   4.415   9.946 -1.8379 -0.4748 -0.8293
 8110SOL    HW235967   0.422   4.298   9.870 -1.5398  0.3719  1.5151
 8111SOL     OW35968   1.510   3.478  14.694  0.3923 -0.2392 -0.3677
 8111SOL    HW135969   1.524   3.554  14.750 -0.3264  0.7005 -1.4535
 8111SOL    HW235970   1.563   3.406  14.729  0.4290 -0.6564 -1.2863
 8112SOL     OW35971   3.064   2.361   3.572 -0.0885  0.1475 -0.2338
 8112SOL    HW135972   3.063   2.442   3.624  1.0928  1.5931 -2.4461
 8112SOL    HW235973   3.029   2.397   3.491  0.8673 -0.8395 -1.0796
 8113SOL     OW35974   1.042   4.185   5.662 -0.3739  0.7123 -0.5312
 8113SOL    HW135975   1.028   4.190   5.567 -1.7267 -0.5921 -0.4078
 8113SOL    HW235976   1.127   4.228   5.669 -1.1901  1.9088  1.9378
 8114SOL     OW35977   4.277   0.440   2.814  0.4694  0.2222 -0.8385
 8114SOL    HW135978   4.322   0.449   2.730  0.0551  2.6088 -0.8001
 8114SOL    HW235979   4.300   0.348   2.831  0.1848  0.2728 -0.1788
 8115SOL     OW35980   1.152   1.889   9.786  0.4989  0.4907  0.3157
 8115SOL    HW135981   1.246   1.898   9.775  0.1361  3.4665 -0.2125
 8115SOL    HW235982   1.115   1.896   9.698  0.5169  1.6766  0.4040
 8116SOL     OW35983   2.989   0.166   3.521  0.2154 -0.1458 -0.1925
 8116SOL    HW135984   2.951   0.083   3.549  0.8305 -0.5921 -0.6621
 8116SOL    HW235985   3.005   0.141   3.430 -0.8617 -3.4942  0.5256
 8117SOL     OW35986   2.465   3.472   0.295 -0.0207  0.0880  0.7592
 8117SOL    HW135987   2.494   3.478   0.204  0.7964  0.5087  1.0507
 8117SOL    HW235988   2.550   3.485   0.337  1.3766 -2.2234 -1.3352
 8118SOL     OW35989   2.323   0.491   3.003 -0.5229 -0.0230  0.3406
 8118SOL    HW135990   2.272   0.495   2.922 -0.5442  0.7989  0.3939
 8118SOL    HW235991   2.370   0.572   3.021 -1.0649 -0.1685  2.4584
 8119SOL     OW35992   3.926   2.999   5.708  0.2511 -0.2587  0.0795
 8119SOL    HW135993   3.953   2.929   5.648 -1.9579 -0.1110 -1.0767
 8119SOL    HW235994   4.010   3.029   5.742  0.1988  2.2526 -1.9358
 8120SOL     OW35995   3.711   1.698   9.992 -0.3525 -0.8267 -0.3335
 8120SOL    HW135996   3.751   1.730  10.073 -0.1982  0.5934 -0.9740
 8120SOL    HW235997   3.623   1.672  10.019 -0.3868 -1.7490 -1.3059
 8121SOL     OW35998   2.336   2.686   4.911 -0.4354 -0.1884  0.1408
 8121SOL    HW135999   2.388   2.745   4.856 -1.3472 -1.3492 -1.9591
 8121SOL    HW236000   2.353   2.726   4.996 -0.7546  1.6154 -0.6306
 8122SOL     OW36001   1.317   1.693  13.840  0.2050 -0.2800  0.1973
 8122SOL    HW136002   1.375   1.671  13.913 -1.2418 -0.8648  1.1687
 8122SOL    HW236003   1.371   1.671  13.764  0.9158 -0.2755  0.7006
 8123SOL     OW36004   0.054   4.105  12.542  0.0677  0.3470 -0.2157
 8123SOL    HW136005   4.704   4.078  12.563 -0.7099  2.9716 -0.0794
 8123SOL    HW236006   0.098   4.090  12.626  0.7322  0.7461 -0.4951
 8124SOL     OW36007   3.621   1.187   7.103 -0.0383 -0.4958  0.1761
 8124SOL    HW136008   3.552   1.128   7.072  0.6358 -0.0025 -2.1956
 8124SOL    HW236009   3.591   1.274   7.076  1.3855 -0.2996 -0.7500
 8125SOL     OW36010   4.649   1.726   2.342 -0.2269 -0.4336  0.4960
 8125SOL    HW136011   4.645   1.692   2.432 -1.6786 -1.3548  0.0935
 8125SOL    HW236012   4.693   1.810   2.355 -0.7116 -0.2708  1.1167
 8126SOL     OW36013   2.699   3.973   6.869  0.0329 -0.4779 -0.2180
 8126SOL    HW136014   2.709   3.881   6.843  0.5076  0.0065 -1.7732
 8126SOL    HW236015   2.792   3.991   6.888 -0.3078  0.0430  0.9513
 8127SOL     OW36016   0.053   3.282   7.918  0.5360 -0.0473  0.5727
 8127SOL    HW136017   0.034   3.376   7.919  1.2645  0.0933  1.0737
 8127SOL    HW236018   0.047   3.254   8.009  1.4133 -0.0224  0.6352
 8128SOL     OW36019   2.239   1.482   4.447 -0.0087 -0.1493 -0.3262
 8128SOL    HW136020   2.224   1.556   4.506 -1.5750 -1.6524  1.1420
 8128SOL    HW236021   2.233   1.528   4.363  0.2245 -0.9946 -0.8059
 8129SOL     OW36022   3.247   0.892   4.536  0.0754 -0.1536 -0.4392
 8129SOL    HW136023   3.272   0.827   4.470  1.6963  1.6958 -1.6696
 8129SOL    HW236024   3.329   0.930   4.569 -0.7764  1.3864 -0.0977
 8130SOL     OW36025   0.188   2.080  15.122 -0.1111  0.0019 -0.1448
 8130SOL    HW136026   0.220   2.040  15.041 -4.3018 -2.2659 -0.7316
 8130SOL    HW236027   0.120   2.138  15.089 -1.5778 -0.8527  1.3377
 8131SOL     OW36028   4.196   4.303   8.828 -0.7433  0.2399  0.3192
 8131SOL    HW136029   4.134   4.308   8.755  0.0978 -3.3184 -0.6389
 8131SOL    HW236030   4.221   4.211   8.839 -0.7326  0.3428  1.1601
 8132SOL     OW36031   1.456   1.355  14.999  0.0493  0.2122  0.6024
 8132SOL    HW136032   1.410   1.271  15.000  0.3195  0.0319 -2.0355
 8132SOL    HW236033   1.473   1.371  15.092  0.3335  1.8810  0.2597
 8133SOL     OW36034   3.845   0.023   7.128  0.3869  0.8115 -0.4740
 8133SOL    HW136035   3.750   0.019   7.136  0.1254  2.4633 -2.6445
 8133SOL    HW236036   3.856   0.028   7.033 -1.9230 -1.8606 -0.8548
 8134SOL     OW36037   0.845   0.149  16.270  0.3159  0.0289 -0.3366
 8134SOL    HW136038   0.790   0.227  16.270  1.3765  0.7809  1.3865
 8134SOL    HW236039   0.928   0.197  16.263  0.1813  0.1407 -1.2968
 8135SOL     OW36040   0.167   0.519   4.196 -0.3517  0.3624  0.5383
 8135SOL    HW136041   0.074   0.503   4.182 -0.4707  0.8932  0.7393
 8135SOL    HW236042   0.190   0.473   4.277  1.8020  0.8353  0.1972
 8136SOL     OW36043   0.029   3.289   9.242 -0.0059  0.5818 -0.2220
 8136SOL    HW136044   4.696   3.264   9.183  2.6439 -0.6512 -2.9569
 8136SOL    HW236045   0.007   3.376   9.275 -2.1358 -0.6723  1.6654
 8137SOL     OW36046   2.383   1.463   7.989  1.1328  0.2793 -0.2825
 8137SOL    HW136047   2.433   1.544   7.985  1.3346  0.0237 -2.8862
 8137SOL    HW236048   2.312   1.509   7.944  0.9064  0.6855  0.4954
 8138SOL     OW36049   2.156   2.144   1.711  1.0116  0.0750 -0.1227
 8138SOL    HW136050   2.202   2.063   1.736  0.5049  0.2987  1.5393
 8138SOL    HW236051   2.078   2.144   1.767  2.4055  1.1682  1.8179
 8139SOL     OW36052   1.549   2.584   2.122  0.4838  0.9266 -0.4008
 8139SOL    HW136053   1.644   2.569   2.129 -0.1009 -1.8598  1.5525
 8139SOL    HW236054   1.528   2.494   2.098  1.6217  0.3078  0.9741
 8140SOL     OW36055   2.270   0.072  13.559  0.7150  0.1465  0.6992
 8140SOL    HW136056   2.205   0.057  13.490  0.6426 -1.0699  1.0300
 8140SOL    HW236057   2.262   0.167  13.567 -0.5936  0.1062 -0.0421
 8141SOL     OW36058   3.203   1.097   4.940  0.2928  0.1375  0.0533
 8141SOL    HW136059   3.123   1.085   4.890  0.6596 -1.5259 -0.1663
 8141SOL    HW236060   3.254   1.139   4.871  0.7974 -2.1444 -0.9650
 8142SOL     OW36061   2.460   4.203   2.868  0.3231  0.1240 -0.6251
 8142SOL    HW136062   2.497   4.279   2.913  2.3349 -2.0211  1.3071
 8142SOL    HW236063   2.369   4.223   2.891  0.7454  1.3392 -0.0089
 8143SOL     OW36064   2.251   3.105   7.274 -0.7742  0.7415 -0.2401
 8143SOL    HW136065   2.189   3.050   7.227  0.1746 -0.8203  0.3522
 8143SOL    HW236066   2.330   3.078   7.226  0.4700  1.2728  1.5009
 8144SOL     OW36067   1.065   4.074   9.746  0.5961  0.5308 -0.0291
 8144SOL    HW136068   1.004   4.119   9.687  1.6744 -1.2944 -2.5582
 8144SOL    HW236069   1.063   4.140   9.815 -0.6651  0.1117  0.3376
 8145SOL     OW36070   3.813   0.380   5.650 -0.1700 -0.4246 -0.1873
 8145SOL    HW136071   3.761   0.429   5.713  1.0936 -0.4395  0.8656
 8145SOL    HW236072   3.828   0.449   5.586  2.5625 -1.4243 -0.6288
 8146SOL     OW36073   0.607   3.753   4.453  0.1580  0.5514 -0.2868
 8146SOL    HW136074   0.525   3.732   4.497  0.8263 -0.8219  0.3155
 8146SOL    HW236075   0.578   3.723   4.366  0.8622  0.2452 -0.4165
 8147SOL     OW36076   3.673   2.503   5.098 -0.3012 -0.1795 -0.0680
 8147SOL    HW136077   3.757   2.482   5.140 -0.0291 -0.0660 -0.5656
 8147SOL    HW236078   3.651   2.418   5.060 -1.0641 -0.0446  0.0675
 8148SOL     OW36079   0.176   3.958   8.964  0.0577  0.6222  0.4246
 8148SOL    HW136080   0.183   3.972   8.870 -1.8923 -0.4389  0.1133
 8148SOL    HW236081   0.135   4.043   8.980 -0.6738  0.4701 -0.6332
 8149SOL     OW36082   3.457   1.681   5.871 -0.7082  0.2626  0.1651
 8149SOL    HW136083   3.458   1.586   5.867  0.2369  0.3092 -0.8451
 8149SOL    HW236084   3.499   1.699   5.786 -0.7202  0.7072  0.2506
 8150SOL     OW36085   1.224   3.715   2.966  0.3811 -0.1292  0.1077
 8150SOL    HW136086   1.245   3.804   2.996  1.3334  0.6589 -2.8872
 8150SOL    HW236087   1.181   3.744   2.885  0.3291  0.2741  0.2776
 8151SOL     OW36088   1.435   3.612   4.586  0.4116 -0.5138 -0.3705
 8151SOL    HW136089   1.378   3.536   4.594 -1.6322  0.9169 -1.2664
 8151SOL    HW236090   1.454   3.607   4.492 -1.1491  0.2104 -0.7364
 8152SOL     OW36091   2.194   2.695   5.838  0.0849  0.5274 -0.2654
 8152SOL    HW136092   2.267   2.709   5.778 -0.1855  1.3165 -0.4048
 8152SOL    HW236093   2.181   2.601   5.823 -1.9933  0.8730 -0.5399
 8153SOL     OW36094   3.664   4.330   3.062 -0.1301  0.2023  0.5140
 8153SOL    HW136095   3.688   4.240   3.081  0.0355  0.4230  1.3305
 8153SOL    HW236096   3.740   4.378   3.027 -0.6092  0.7923  0.2715
 8154SOL     OW36097   2.647   2.037  15.229  0.2668  0.1174  0.2425
 8154SOL    HW136098   2.626   2.097  15.300  0.7309  0.6788 -0.0861
 8154SOL    HW236099   2.616   2.093  15.157  2.9255 -0.2621 -1.2199
 8155SOL     OW36100   2.509   1.010   2.617 -0.2100 -0.3274 -0.0341
 8155SOL    HW136101   2.432   1.065   2.599  0.6365  0.8920  0.0731
 8155SOL    HW236102   2.577   1.046   2.561 -0.8020  0.6568 -0.1277
 8156SOL     OW36103   0.019   2.375  13.786 -0.3879  0.2405 -0.3123
 8156SOL    HW136104   4.733   2.421  13.866  0.7084  0.2165  0.0546
 8156SOL    HW236105   0.036   2.284  13.811  0.2117  1.1139  2.4322
 8157SOL     OW36106   2.519   1.028   5.616 -0.2127 -0.0490 -0.0018
 8157SOL    HW136107   2.527   0.985   5.701  1.3923  0.7976  0.2634
 8157SOL    HW236108   2.423   1.032   5.618 -0.0992  2.7063 -0.5798
 8158SOL     OW36109   3.889   2.798   9.427 -0.4046 -0.0046 -0.3229
 8158SOL    HW136110   3.910   2.891   9.415 -1.6157  0.3107 -0.0019
 8158SOL    HW236111   3.885   2.786   9.522 -0.8050  0.7283 -0.2473
 8159SOL     OW36112   2.753   1.289   5.014  0.1223  0.1180  0.1281
 8159SOL    HW136113   2.769   1.214   5.072 -0.3237 -0.8626 -1.0123
 8159SOL    HW236114   2.839   1.329   5.010 -1.5341  3.9875  3.3127
 8160SOL     OW36115   4.322   4.156   1.967 -0.0538 -0.2535 -0.0046
 8160SOL    HW136116   4.405   4.111   1.951 -0.3007 -0.7255  0.0471
 8160SOL    HW236117   4.275   4.101   2.030  1.1170  1.2020  2.1468
 8161SOL     OW36118   1.844   4.480   4.628  0.2741  0.6221  0.2782
 8161SOL    HW136119   1.872   4.559   4.675  0.6106  0.1237  0.9231
 8161SOL    HW236120   1.916   4.421   4.652 -0.3287 -0.5242 -0.7375
 8162SOL     OW36121   3.154   2.947   5.573 -0.7255  1.0520  0.4396
 8162SOL    HW136122   3.119   3.003   5.504 -3.5518 -0.5713  0.5364
 8162SOL    HW236123   3.234   2.911   5.536 -1.8960  0.5684 -1.5982
 8163SOL     OW36124   2.503   0.004   7.985  0.1226 -0.3555 -0.3075
 8163SOL    HW136125   2.461   4.703   7.909  0.3280 -0.7823 -0.1942
 8163SOL    HW236126   2.488   4.679   8.054 -2.3180  0.5729  0.0223
 8164SOL     OW36127   4.525   0.823  12.640  0.1898  0.8897 -0.0027
 8164SOL    HW136128   4.578   0.754  12.680 -3.4818 -1.6427  0.4211
 8164SOL    HW236129   4.501   0.868  12.721 -2.9396  0.6642 -0.8091
 8165SOL     OW36130   4.722   0.804   0.606  0.2908 -0.0221  0.1853
 8165SOL    HW136131   4.733   0.716   0.641  0.4613 -0.6332 -1.3843
 8165SOL    HW236132   0.037   0.851   0.669  0.1483 -0.2258  0.4581
 8166SOL     OW36133   3.892   4.464  17.261 -0.2211  0.3665  0.0063
 8166SOL    HW136134   3.824   4.523  17.226  0.7047  1.8671  0.7365
 8166SOL    HW236135   3.863   4.382  17.221  1.0735 -0.9450  1.7728
 8167SOL     OW36136   3.012   2.140  14.733 -0.1140 -0.4532  0.4867
 8167SOL    HW136137   3.008   2.098  14.647 -0.1295 -1.9691  1.2215
 8167SOL    HW236138   3.068   2.217  14.728  0.1940 -0.8525 -2.7494
 8168SOL     OW36139   4.361   1.974   3.856  0.2400  0.1056  0.7905
 8168SOL    HW136140   4.335   2.044   3.797 -0.3374  0.1935  1.1500
 8168SOL    HW236141   4.338   1.899   3.801  3.4741  1.6094 -2.6511
 8169SOL     OW36142   4.547   1.369   6.629 -0.0757  1.1225  0.1611
 8169SOL    HW136143   4.573   1.427   6.701  0.9982  0.8181  0.0083
 8169SOL    HW236144   4.494   1.426   6.574 -0.8122 -0.7389 -1.0575
 8170SOL     OW36145   2.250   0.471   7.494  0.4539 -0.0756 -0.1011
 8170SOL    HW136146   2.254   0.380   7.522 -0.3213 -0.3477 -0.8731
 8170SOL    HW236147   2.198   0.517   7.560  2.2005 -0.1575  1.3239
 8171SOL     OW36148   2.360   2.353   4.004 -0.2587  0.3418  0.2800
 8171SOL    HW136149   2.342   2.261   3.986  0.3042  0.1143  0.9179
 8171SOL    HW236150   2.318   2.356   4.090  0.8253  2.3089  0.7326
 8172SOL     OW36151   2.355   4.680  11.638  0.1279 -0.1485  0.5528
 8172SOL    HW136152   2.269   4.698  11.677 -0.2654  0.4332 -0.5983
 8172SOL    HW236153   2.405   4.694  11.718  1.3505 -1.3075 -0.0119
 8173SOL     OW36154   4.557   1.547   9.025 -0.3973  0.4889 -0.6888
 8173SOL    HW136155   4.588   1.625   8.979 -1.7396  1.3916 -0.0639
 8173SOL    HW236156   4.471   1.581   9.051 -0.9660 -0.1425 -1.6993
 8174SOL     OW36157   2.030   2.809   3.724 -0.1352  0.6305 -0.4305
 8174SOL    HW136158   2.037   2.881   3.788 -0.1177  1.7257 -1.6705
 8174SOL    HW236159   2.047   2.729   3.774 -0.6987 -0.1089 -1.4373
 8175SOL     OW36160   4.341   1.283   9.863  0.2030 -0.5271  0.2041
 8175SOL    HW136161   4.364   1.342   9.935 -2.3874 -1.0357  1.4700
 8175SOL    HW236162   4.414   1.223   9.876 -0.3147 -1.2157 -0.0809
 8176SOL     OW36163   3.498   1.506  10.089 -0.3072 -0.2522 -0.0059
 8176SOL    HW136164   3.507   1.456  10.008  1.3908 -1.1110  0.6999
 8176SOL    HW236165   3.405   1.527  10.086 -0.2975 -0.5731 -2.0618
 8177SOL     OW36166   0.805   0.158   8.662 -0.5162  0.1494 -0.1194
 8177SOL    HW136167   0.774   0.104   8.589  2.0085 -1.9511  0.3686
 8177SOL    HW236168   0.896   0.166   8.632 -0.0572  0.3350  1.3316
 8178SOL     OW36169   0.549   4.469   1.772 -0.2871 -0.6669 -0.3648
 8178SOL    HW136170   0.551   4.550   1.720  1.2292 -0.7185 -0.3673
 8178SOL    HW236171   0.625   4.424   1.737  0.1973 -0.8353  0.9267
 8179SOL     OW36172   0.859   3.154   5.282 -0.0969  0.3988  0.2747
 8179SOL    HW136173   0.937   3.186   5.326 -0.8861  1.3723  0.9451
 8179SOL    HW236174   0.797   3.198   5.340 -1.5418  0.2786 -1.1568
 8180SOL     OW36175   4.618   3.535   4.768  0.1885 -0.1563  0.0782
 8180SOL    HW136176   4.541   3.485   4.796 -1.3772  2.4314  0.4523
 8180SOL    HW236177   4.615   3.509   4.676  0.3732  1.0703 -0.2742
 8181SOL     OW36178   4.185   2.635  14.234  0.3516  0.1673 -0.2720
 8181SOL    HW136179   4.109   2.581  14.213  0.5885  0.0553 -0.8402
 8181SOL    HW236180   4.151   2.724  14.229 -0.6298 -0.2442 -0.9217
 8182SOL     OW36181   4.380   1.174   1.298  0.0915 -0.0514 -0.2143
 8182SOL    HW136182   4.399   1.268   1.303 -1.2008  0.2684 -1.3919
 8182SOL    HW236183   4.285   1.177   1.305  0.1594 -1.4035  1.1911
 8183SOL     OW36184   2.109   2.909   1.832 -1.1238 -0.2534 -0.1386
 8183SOL    HW136185   2.108   3.004   1.821 -2.3367 -0.0157  2.0415
 8183SOL    HW236186   2.106   2.920   1.927 -1.2613  0.4071 -0.2196
 8184SOL     OW36187   3.485   0.628   7.806  0.2050  0.5917 -0.1432
 8184SOL    HW136188   3.527   0.646   7.722  1.7694 -0.2930  0.4299
 8184SOL    HW236189   3.461   0.714   7.840  1.1288  1.5939 -2.0384
 8185SOL     OW36190   2.222   0.673   7.716 -0.4430  0.6266 -0.0608
 8185SOL    HW136191   2.287   0.716   7.771  0.8380 -1.1999 -0.1312
 8185SOL    HW236192   2.182   0.611   7.778  2.1153 -1.0480 -0.0903
 8186SOL     OW36193   1.033   2.648  15.704  0.0967 -0.6096 -0.5396
 8186SOL    HW136194   1.111   2.703  15.694  1.3034 -2.1631  0.2360
 8186SOL    HW236195   0.959   2.708  15.711  0.2944 -0.4325 -0.0140
 8187SOL     OW36196   0.862   3.573   5.191  0.4887  0.4618 -0.5671
 8187SOL    HW136197   0.771   3.570   5.161  0.5670 -2.3477 -0.5828
 8187SOL    HW236198   0.857   3.528   5.276  0.4420  0.2275 -0.6947
 8188SOL     OW36199   1.515   1.741   6.306 -0.2107  0.3459  0.4872
 8188SOL    HW136200   1.596   1.723   6.257 -0.8136  1.8489 -1.0687
 8188SOL    HW236201   1.506   1.659   6.355 -0.7935  1.0278  1.4981
 8189SOL     OW36202   2.985   4.289  11.940  0.4379 -1.1570 -0.1072
 8189SOL    HW136203   3.045   4.218  11.964  0.8672 -0.9807 -0.6475
 8189SOL    HW236204   2.908   4.254  11.982  1.1130 -0.5940  1.5906
 8190SOL     OW36205   0.848   2.959   8.167 -0.5987 -0.1117 -0.4215
 8190SOL    HW136206   0.823   3.013   8.092 -1.4683  1.9925  1.3751
 8190SOL    HW236207   0.788   2.885   8.161  0.3734 -0.9610  0.1900
 8191SOL     OW36208   3.299   0.224  15.225 -0.6241  0.0133 -0.3056
 8191SOL    HW136209   3.299   0.146  15.281 -1.1611 -0.0731 -0.4314
 8191SOL    HW236210   3.207   0.228  15.200 -0.8636 -0.3091  0.5153
 8192SOL     OW36211   1.989   1.226   3.625 -0.3064  0.5466  0.3085
 8192SOL    HW136212   2.063   1.271   3.665 -1.2146  0.7453  1.7566
 8192SOL    HW236213   1.970   1.147   3.675 -0.6051  2.2170  2.8211
 8193SOL     OW36214   3.898   0.945   3.039  0.1194 -0.1251 -0.4974
 8193SOL    HW136215   3.848   0.903   2.968 -1.3780  1.7998 -0.5729
 8193SOL    HW236216   3.974   0.974   2.988 -0.4141  1.5439 -0.3396
 8194SOL     OW36217   2.516   4.427   7.201  0.6957 -0.0552 -0.1069
 8194SOL    HW136218   2.582   4.494   7.181  1.6211 -1.3575 -1.4289
 8194SOL    HW236219   2.521   4.363   7.130 -1.4676 -0.3833  0.0544
 8195SOL     OW36220   1.303   2.027  15.287 -0.1412 -0.1461  0.4791
 8195SOL    HW136221   1.297   2.068  15.201  0.0231  0.1444  0.6042
 8195SOL    HW236222   1.396   2.038  15.308 -0.4963  2.3113  0.7999
 8196SOL     OW36223   0.991   2.034   1.424  0.2617 -0.1575 -0.4514
 8196SOL    HW136224   0.943   2.069   1.500 -2.1924 -1.4961 -1.3886
 8196SOL    HW236225   1.010   1.945   1.453 -2.4492 -0.1656  1.3829
 8197SOL     OW36226   1.564   1.206  10.940  0.2598  0.3155  0.2079
 8197SOL    HW136227   1.508   1.233  11.013 -1.4749 -1.1283 -0.6085
 8197SOL    HW236228   1.513   1.238  10.865 -2.0037 -0.8019  1.2607
 8198SOL     OW36229   1.011   0.220  15.926 -0.1336 -0.0335 -0.0627
 8198SOL    HW136230   0.971   0.304  15.946  2.6468  1.3288 -0.2542
 8198SOL    HW236231   1.063   0.197  16.003  1.1850 -0.0488 -0.9757
 8199SOL     OW36232   0.120   2.491  11.486 -0.2908  0.0597  0.0778
 8199SOL    HW136233   0.212   2.516  11.492 -0.1111 -0.6847  0.4356
 8199SOL    HW236234   0.078   2.577  11.477 -2.2450 -1.0084 -1.1675
 8200SOL     OW36235   1.461   4.011   9.627 -0.0864 -0.6643 -0.2672
 8200SOL    HW136236   1.477   4.087   9.682  0.1546  1.0206 -2.6602
 8200SOL    HW236237   1.548   3.981   9.600  1.0724  1.5142  1.0737
 8201SOL     OW36238   3.105   3.640   0.266  0.8958 -0.6689 -0.2224
 8201SOL    HW136239   3.073   3.704   0.203 -1.1763 -2.7209 -1.2794
 8201SOL    HW236240   3.174   3.608   0.208  0.7002  0.4081 -1.0477
 8202SOL     OW36241   0.711   0.917   9.195  0.2474  0.7968  0.4290
 8202SOL    HW136242   0.719   0.947   9.105 -0.6709  2.0788  0.7805
 8202SOL    HW236243   0.676   0.829   9.177  1.6302  0.4731 -0.6175
 8203SOL     OW36244   3.165   1.503   8.402 -0.0377 -0.1337  0.0349
 8203SOL    HW136245   3.237   1.440   8.410  1.2815  1.5936  1.7356
 8203SOL    HW236246   3.167   1.554   8.483 -0.3067  2.1631 -1.3922
 8204SOL     OW36247   3.802   4.420   5.810 -0.0820  0.5807  0.1366
 8204SOL    HW136248   3.799   4.515   5.801 -0.0166  0.5760  0.0638
 8204SOL    HW236249   3.788   4.405   5.716  1.1815  0.7409 -0.0729
 8205SOL     OW36250   1.128   2.693   2.341 -0.8041  0.1592  0.3724
 8205SOL    HW136251   1.148   2.647   2.260  1.1772  1.3265  0.2007
 8205SOL    HW236252   1.158   2.779   2.312  1.1557  0.0898  2.1721
 8206SOL     OW36253   1.394   4.353   6.553  0.5680 -0.7411  0.2892
 8206SOL    HW136254   1.411   4.281   6.614 -2.5727 -2.1141 -0.4059
 8206SOL    HW236255   1.313   4.326   6.508  1.6746 -0.3261 -1.9504
 8207SOL     OW36256   0.079   1.818   8.155  0.6919  0.2104  0.0542
 8207SOL    HW136257   0.022   1.745   8.132 -0.6405  2.4007 -3.6109
 8207SOL    HW236258   0.128   1.771   8.222 -1.0504  1.6815  2.3726
 8208SOL     OW36259   1.974   1.002   5.571  0.4592  0.2556  0.2040
 8208SOL    HW136260   1.890   0.961   5.553 -0.3746  2.2883 -0.5191
 8208SOL    HW236261   1.985   0.983   5.664 -3.0518  0.4051  0.6442
 8209SOL     OW36262   0.815   1.264   7.115 -0.5461 -0.7627 -0.0999
 8209SOL    HW136263   0.760   1.318   7.172  1.6394  0.6010  0.6952
 8209SOL    HW236264   0.776   1.277   7.029 -1.0776  0.8848  0.3978
 8210SOL     OW36265   2.888   0.325   6.777 -0.1122 -0.1174 -0.1849
 8210SOL    HW136266   2.932   0.405   6.805 -1.4311  0.0894  1.2798
 8210SOL    HW236267   2.970   0.279   6.797  0.0684  0.3176  0.0802
 8211SOL     OW36268   1.727   0.809  17.031  0.2734  0.0673  0.8318
 8211SOL    HW136269   1.745   0.745  16.962  0.5017 -0.7076  1.6041
 8211SOL    HW236270   1.735   0.747  17.104 -2.0743  0.6871  1.5985
 8212SOL     OW36271   0.580   2.043   4.027  0.0934  0.0797  0.1332
 8212SOL    HW136272   0.665   2.015   3.994 -1.2232 -3.0553 -0.5669
 8212SOL    HW236273   0.540   2.064   3.943 -0.0063  0.3904  0.2590
 8213SOL     OW36274   0.821   2.847   5.386  0.2844 -0.2431 -0.0950
 8213SOL    HW136275   0.844   2.936   5.356  0.1774  0.2448  1.2575
 8213SOL    HW236276   0.727   2.855   5.400  0.4015  0.3011  0.3622
 8214SOL     OW36277   1.876   2.336   5.095 -0.5947  0.0864  0.1336
 8214SOL    HW136278   1.793   2.383   5.095 -2.1207 -2.6077  1.1710
 8214SOL    HW236279   1.936   2.409   5.109 -0.7798  0.4038 -0.6931
 8215SOL     OW36280   4.142   1.575   9.859  0.3128 -0.0675 -0.1200
 8215SOL    HW136281   4.076   1.540   9.920 -1.3021 -0.3818 -2.0351
 8215SOL    HW236282   4.161   1.660   9.899  0.5006 -0.8521  1.4804
 8216SOL     OW36283   0.326   3.821   9.291  0.0314  0.0874  0.2380
 8216SOL    HW136284   0.332   3.911   9.323 -2.3687  0.0051  0.9217
 8216SOL    HW236285   0.417   3.812   9.264  0.2753  1.1670  0.7186
 8217SOL     OW36286   3.964   0.601   7.476 -0.1935  0.2068 -0.0323
 8217SOL    HW136287   4.058   0.623   7.481  0.4106 -1.9126 -1.9972
 8217SOL    HW236288   3.938   0.638   7.560  1.3822 -3.1014  1.8902
 8218SOL     OW36289   4.615   3.938   9.099  0.5925 -0.3170 -0.6096
 8218SOL    HW136290   4.629   4.031   9.081 -2.9258  0.3596  0.0507
 8218SOL    HW236291   4.689   3.926   9.159 -2.6234 -1.2862  3.1868
 8219SOL     OW36292   1.642   4.316   3.971 -0.3865 -0.6682  0.1004
 8219SOL    HW136293   1.725   4.332   4.015 -0.6725  2.5879 -0.5944
 8219SOL    HW236294   1.626   4.406   3.943 -2.9336 -0.0261  3.6140
 8220SOL     OW36295   3.078   3.524   2.860  0.5258 -0.5867  0.0779
 8220SOL    HW136296   3.017   3.574   2.914  0.3329 -0.4136 -0.2995
 8220SOL    HW236297   3.025   3.524   2.780 -1.0946  0.0025  1.1361
 8221SOL     OW36298   3.708   3.058  14.460  0.2022  0.4689 -0.0440
 8221SOL    HW136299   3.697   2.966  14.481 -0.5368  0.8811  1.3828
 8221SOL    HW236300   3.616   3.068  14.434 -0.6525 -1.5675  2.1998
 8222SOL     OW36301   3.848   3.246   2.345 -0.6916 -0.5387  0.3991
 8222SOL    HW136302   3.920   3.196   2.307 -0.0995 -0.3220  1.2269
 8222SOL    HW236303   3.793   3.259   2.268  1.8404 -0.5366 -1.4128
 8223SOL     OW36304   1.779   3.410   4.659  0.3712 -0.2363 -0.0479
 8223SOL    HW136305   1.708   3.347   4.669 -1.1802  1.3724 -0.8162
 8223SOL    HW236306   1.747   3.493   4.696  0.1015 -1.0108  1.4515
 8224SOL     OW36307   2.848   1.728   3.875 -0.5655  0.1169 -0.1730
 8224SOL    HW136308   2.910   1.655   3.862 -0.0539  0.3846  0.7763
 8224SOL    HW236309   2.901   1.803   3.849 -1.1959  1.1957  1.7136
 8225SOL     OW36310   1.019   4.278   6.111  0.7394 -0.6103 -0.3011
 8225SOL    HW136311   1.044   4.322   6.030  1.9465 -2.8235 -1.1309
 8225SOL    HW236312   1.107   4.252   6.140  0.0620 -1.4486  1.0079
 8226SOL     OW36313   1.172   2.950   6.154  0.3151  0.5933 -0.2881
 8226SOL    HW136314   1.256   2.950   6.200  0.2627  0.7908 -0.1907
 8226SOL    HW236315   1.191   3.016   6.088 -0.0931  0.4112 -0.5867
 8227SOL     OW36316   0.175   1.743   5.307  0.4761  0.2366  0.0598
 8227SOL    HW136317   0.125   1.713   5.383 -0.3531  1.2465 -0.0882
 8227SOL    HW236318   0.197   1.655   5.277  1.7126  0.9250 -1.0169
 8228SOL     OW36319   2.727   3.040   6.657  1.1179 -0.3894  0.1464
 8228SOL    HW136320   2.759   3.086   6.579 -0.0495  0.6418  0.2867
 8228SOL    HW236321   2.745   3.109   6.721  2.1560 -1.1955  0.7297
 8229SOL     OW36322   0.289   0.138   7.692  0.3536 -0.0247 -0.2862
 8229SOL    HW136323   0.335   0.220   7.677  3.4116 -1.6896 -0.1044
 8229SOL    HW236324   0.339   0.099   7.764  1.9251 -0.9792 -1.8917
 8230SOL     OW36325   1.962   0.969   7.951 -0.0529 -0.2327 -0.4619
 8230SOL    HW136326   1.993   1.055   7.978  0.4335 -0.5431 -0.0136
 8230SOL    HW236327   2.036   0.911   7.972 -1.8276 -3.0997 -2.1307
 8231SOL     OW36328   0.994   3.887  14.375  0.1743  0.4621 -0.2218
 8231SOL    HW136329   1.012   3.892  14.469 -2.5120  0.2567  0.3121
 8231SOL    HW236330   0.961   3.975  14.354 -0.6114  0.5820  1.4799
 8232SOL     OW36331   1.809   1.136   1.319 -0.4314 -0.1643 -0.3763
 8232SOL    HW136332   1.814   1.094   1.405 -0.6039 -0.5415 -0.5519
 8232SOL    HW236333   1.787   1.061   1.265 -2.5256 -0.8340  1.4020
 8233SOL     OW36334   2.978   1.727   6.055  0.4987 -0.2049  0.2257
 8233SOL    HW136335   3.000   1.819   6.041 -0.7017 -0.1048 -0.9560
 8233SOL    HW236336   2.991   1.686   5.970 -2.0802  0.6396 -0.5779
 8234SOL     OW36337   2.997   4.213   3.458  0.3879 -0.2028 -0.2846
 8234SOL    HW136338   2.917   4.163   3.473 -0.4008  0.7064 -1.5159
 8234SOL    HW236339   2.955   4.296   3.435 -0.0525 -0.7405 -1.4177
 8235SOL     OW36340   2.767   4.554   1.689  0.0636 -0.0077  0.1578
 8235SOL    HW136341   2.766   4.647   1.710  0.3035 -0.1175  0.6588
 8235SOL    HW236342   2.674   4.534   1.699  0.0659 -0.0286  0.1372
 8236SOL     OW36343   4.167   0.768   3.890 -0.0403  0.0914  0.7294
 8236SOL    HW136344   4.235   0.835   3.889  1.0666 -1.0271  0.2657
 8236SOL    HW236345   4.117   0.779   3.809  2.5980  1.4058 -0.6965
 8237SOL     OW36346   2.285   2.520   3.705 -0.5982  0.1001  0.6389
 8237SOL    HW136347   2.229   2.498   3.631 -0.0579  1.2658 -0.1189
 8237SOL    HW236348   2.225   2.550   3.774  0.0891 -2.2786  2.2906
 8238SOL     OW36349   3.151   0.269   3.089 -0.3558  0.7531  0.1733
 8238SOL    HW136350   3.244   0.256   3.105 -0.5843 -1.7994 -0.5692
 8238SOL    HW236351   3.164   0.319   3.008 -0.7210 -0.5062 -0.6508
 8239SOL     OW36352   4.493   2.272   3.921  0.3322  0.1970 -0.2606
 8239SOL    HW136353   4.461   2.302   3.836 -1.1008  0.3798  0.3630
 8239SOL    HW236354   4.427   2.310   3.979  1.3190 -0.8579  1.5680
 8240SOL     OW36355   0.639   1.359  10.945  0.1520  0.1302  0.2203
 8240SOL    HW136356   0.671   1.432  10.892 -1.3691  0.5374 -0.1225
 8240SOL    HW236357   0.600   1.307  10.874 -1.5069 -0.2946  1.4424
 8241SOL     OW36358   2.172   0.103  15.245  0.1761  0.0234  1.0159
 8241SOL    HW136359   2.106   0.162  15.209 -0.2150 -1.9548 -1.5438
 8241SOL    HW236360   2.116   0.037  15.285 -0.2925 -1.4820 -2.1085
 8242SOL     OW36361   1.112   4.172   3.289 -0.1363 -0.1651 -0.3718
 8242SOL    HW136362   1.164   4.180   3.209  0.3819 -0.0298 -0.0163
 8242SOL    HW236363   1.051   4.245   3.294 -0.6357 -0.4368 -2.4420
 8243SOL     OW36364   2.800   2.597   8.612  0.0416 -0.8018  0.7246
 8243SOL    HW136365   2.836   2.512   8.641  0.1170 -0.6343  1.1249
 8243SOL    HW236366   2.730   2.614   8.675  0.3062  0.2054  0.7366
 8244SOL     OW36367   2.364   2.631   8.431  0.9765 -0.2605 -0.0331
 8244SOL    HW136368   2.437   2.620   8.370  1.7922 -3.3442  1.4681
 8244SOL    HW236369   2.400   2.592   8.511 -0.2906  1.1685  1.2377
 8245SOL     OW36370   0.623   4.545   2.189  0.5294  0.3225 -0.3282
 8245SOL    HW136371   0.711   4.525   2.155  0.6243 -0.9790  0.6692
 8245SOL    HW236372   0.650   4.540   2.281  1.2258  1.6189 -0.4530
 8246SOL     OW36373   3.112   0.175   6.908  0.0871 -0.7779  0.4304
 8246SOL    HW136374   3.200   0.210   6.899 -0.6549  0.9554 -0.0667
 8246SOL    HW236375   3.130   0.081   6.898  1.2047 -0.5183 -0.0171
 8247SOL     OW36376   2.299   3.692   5.815 -1.2565 -0.0539  0.5215
 8247SOL    HW136377   2.333   3.603   5.803 -0.4816  0.1066  1.5150
 8247SOL    HW236378   2.249   3.715   5.737  0.3389  0.6266 -0.2944
 8248SOL     OW36379   3.395   4.504   5.647  0.1812  0.0281 -0.1156
 8248SOL    HW136380   3.424   4.594   5.631 -0.9537 -0.0957 -2.7886
 8248SOL    HW236381   3.479   4.457   5.649 -1.0187 -2.1223 -0.8980
 8249SOL     OW36382   1.881   0.216  11.014 -0.2731 -0.5944 -0.5787
 8249SOL    HW136383   1.921   0.297  10.981 -1.4858  0.7493  1.2359
 8249SOL    HW236384   1.821   0.256  11.077  0.9653  1.0790 -0.4464
 8250SOL     OW36385   1.366   1.441   6.948  0.4804 -0.0976  0.5612
 8250SOL    HW136386   1.287   1.494   6.940 -0.3642 -1.5805 -0.8301
 8250SOL    HW236387   1.370   1.417   6.856  0.5626  0.5232  0.4039
 8251SOL     OW36388   4.518   1.111   5.216 -0.6400  0.1891  0.1965
 8251SOL    HW136389   4.591   1.048   5.212  0.4119  1.4916 -1.0203
 8251SOL    HW236390   4.447   1.056   5.184 -0.2569 -0.9723  1.3274
 8252SOL     OW36391   1.651   4.026   6.554 -0.3498  0.1352 -0.0482
 8252SOL    HW136392   1.604   3.966   6.495  0.7756  0.2521 -1.0678
 8252SOL    HW236393   1.617   4.110   6.523 -0.0089  0.2679 -0.0576
 8253SOL     OW36394   4.056   4.038   5.274  0.7544  0.2740 -0.0585
 8253SOL    HW136395   4.057   3.959   5.328 -0.9914  2.0461  2.5715
 8253SOL    HW236396   4.069   4.015   5.182  0.6112 -1.6958  0.4114
 8254SOL     OW36397   1.389   2.208  16.494  0.0876  0.4118  0.4224
 8254SOL    HW136398   1.428   2.137  16.443  0.3808  1.2295 -0.5010
 8254SOL    HW236399   1.430   2.282  16.448 -0.9137  1.6306  1.4896
 8255SOL     OW36400   0.587   3.644  13.338  0.0339 -0.3151 -0.7137
 8255SOL    HW136401   0.577   3.718  13.398  2.4614 -0.5829  0.0137
 8255SOL    HW236402   0.614   3.569  13.391  2.3043  0.5606 -0.6015
 8256SOL     OW36403   1.354   1.321  10.247 -0.3082 -0.0762 -0.7105
 8256SOL    HW136404   1.279   1.381  10.251  0.0792  0.2933  1.1005
 8256SOL    HW236405   1.397   1.354  10.168 -1.0792  1.2409 -0.5821
 8257SOL     OW36406   1.327   4.102   2.541  0.2343 -0.2854 -0.1645
 8257SOL    HW136407   1.285   4.188   2.533 -0.4424 -0.6716 -0.8335
 8257SOL    HW236408   1.381   4.113   2.619  1.9600 -0.3128 -1.3659
 8258SOL     OW36409   0.551   4.426   7.733 -0.0251  0.1376 -0.1053
 8258SOL    HW136410   0.477   4.379   7.695 -0.5438 -0.3385  1.4707
 8258SOL    HW236411   0.500   4.502   7.760 -0.7660 -0.9381  1.5402
 8259SOL     OW36412   4.255   0.396   3.698 -0.1063 -0.5356 -0.4246
 8259SOL    HW136413   4.233   0.311   3.738  2.1272 -1.2490 -0.6613
 8259SOL    HW236414   4.275   0.437   3.782  1.2833 -0.1464 -0.9353
 8260SOL     OW36415   1.118   4.162  15.620  0.0178  0.1336  0.0637
 8260SOL    HW136416   1.031   4.148  15.656 -0.9645 -2.4623 -3.2688
 8260SOL    HW236417   1.147   4.072  15.626 -0.1044  0.1003  0.1582
 8261SOL     OW36418   4.613   0.730   4.519 -0.0365  0.4790  0.1760
 8261SOL    HW136419   4.589   0.693   4.604 -2.2430 -0.2399 -0.7522
 8261SOL    HW236420   4.699   0.688   4.519 -0.4806 -0.4375  0.3136
 8262SOL     OW36421   2.498   1.660  11.061 -0.1177 -0.2730 -0.4489
 8262SOL    HW136422   2.464   1.659  11.151 -0.5814 -0.0435 -0.6261
 8262SOL    HW236423   2.591   1.674  11.080 -0.5853  1.5011  0.5756
 8263SOL     OW36424   3.381   4.472  10.761 -0.3232  0.3106  0.0877
 8263SOL    HW136425   3.312   4.455  10.826 -0.1611  1.0575  0.4577
 8263SOL    HW236426   3.353   4.554  10.721  0.6933  1.0914  0.9847
 8264SOL     OW36427   4.547   3.516   6.481  0.1151  0.6602  0.0251
 8264SOL    HW136428   4.518   3.593   6.529 -1.9808  1.1059 -1.9782
 8264SOL    HW236429   4.643   3.522   6.483  0.1993 -0.1596 -2.0294
 8265SOL     OW36430   4.025   3.121   9.693  0.3283 -0.4993  0.3101
 8265SOL    HW136431   4.048   3.181   9.764 -3.4567  0.2679  0.8908
 8265SOL    HW236432   4.102   3.101   9.640 -0.2593  1.3216 -1.2529
 8266SOL     OW36433   1.746   1.323   2.543 -0.6313 -0.0484  0.3838
 8266SOL    HW136434   1.749   1.339   2.448  0.1831 -2.4926 -0.0134
 8266SOL    HW236435   1.658   1.346   2.572  0.0572  0.2232  2.2145
 8267SOL     OW36436   0.334   1.325  12.217  0.0341 -0.1893  0.0300
 8267SOL    HW136437   0.341   1.311  12.123  2.6766 -2.0345  0.5126
 8267SOL    HW236438   0.424   1.297  12.233  0.2497  1.6896  2.1421
 8268SOL     OW36439   1.516   3.412   4.395  0.2127  0.2796  0.7584
 8268SOL    HW136440   1.590   3.389   4.339  1.5356  1.2684  2.1125
 8268SOL    HW236441   1.449   3.419   4.327 -0.2698 -0.4726  1.1531
 8269SOL     OW36442   2.579   1.316  17.210 -0.2155 -0.0899  0.1079
 8269SOL    HW136443   2.519   1.244  17.231  0.2572  0.0826  2.0110
 8269SOL    HW236444   2.519   1.380  17.171 -2.0375 -2.2513 -0.6504
 8270SOL     OW36445   2.076   3.848   3.558 -0.0703 -0.2161  0.5059
 8270SOL    HW136446   2.065   3.895   3.641 -1.8681 -2.3599  1.5020
 8270SOL    HW236447   1.989   3.807   3.559 -0.7617  1.2465  0.8168
 8271SOL     OW36448   4.243   3.085  16.743  0.4471 -0.4145  0.1073
 8271SOL    HW136449   4.157   3.126  16.735  0.9167  0.4349 -0.4970
 8271SOL    HW236450   4.284   3.131  16.671 -0.4264 -0.4760 -0.4251
 8272SOL     OW36451   2.752   2.015  11.087  0.3479 -0.1583 -0.0617
 8272SOL    HW136452   2.782   2.046  11.173  1.4301 -3.1338  0.6262
 8272SOL    HW236453   2.741   2.098  11.039 -1.8228 -1.6168 -2.0780
 8273SOL     OW36454   4.540   0.275   4.738  0.1858 -0.0235 -0.0224
 8273SOL    HW136455   4.449   0.247   4.739 -0.1124  1.0371  2.3566
 8273SOL    HW236456   4.574   0.213   4.803 -0.9525 -0.5004  0.1092
 8274SOL     OW36457   3.286   1.146   2.211 -0.0533  0.6890 -0.3259
 8274SOL    HW136458   3.270   1.134   2.304 -0.7384  1.9124 -0.2824
 8274SOL    HW236459   3.292   1.053   2.192  1.5141  0.3035  1.9991
 8275SOL     OW36460   1.897   1.495   8.063 -0.0135  0.0471 -0.4279
 8275SOL    HW136461   1.834   1.554   8.102 -0.0045 -0.1689 -0.0889
 8275SOL    HW236462   1.922   1.444   8.140  1.1699 -0.4156 -1.1113
 8276SOL     OW36463   2.172   3.321   8.398 -0.1160  0.4013  1.1417
 8276SOL    HW136464   2.188   3.395   8.341  0.7538 -0.2902  0.4936
 8276SOL    HW236465   2.171   3.257   8.327  0.1214 -0.0904  1.5724
 8277SOL     OW36466   2.635   0.267   1.070 -0.6063 -0.0200 -0.2756
 8277SOL    HW136467   2.661   0.219   1.148  1.3853  1.5394  0.0249
 8277SOL    HW236468   2.592   0.350   1.090 -0.9330 -0.8862  2.4638
 8278SOL     OW36469   4.429   3.153   1.252  0.6931 -0.4632  0.3615
 8278SOL    HW136470   4.412   3.202   1.333  0.1703  0.1940 -0.1405
 8278SOL    HW236471   4.517   3.187   1.240  0.8768 -1.0352  0.0758
 8279SOL     OW36472   1.315   3.101  17.360  0.0656  0.3711  0.2839
 8279SOL    HW136473   1.243   3.043  17.336  0.3215  0.3653 -0.4729
 8279SOL    HW236474   1.279   3.147  17.436 -0.5058  0.3811  0.0079
 8280SOL     OW36475   4.359   3.791   7.608 -0.1262  0.5306 -0.1837
 8280SOL    HW136476   4.295   3.736   7.564 -2.5280  2.6215  0.6621
 8280SOL    HW236477   4.329   3.787   7.699  2.6032 -0.6321  0.6650
 8281SOL     OW36478   1.639   1.934   4.228  0.6331 -0.2605 -0.2851
 8281SOL    HW136479   1.606   1.994   4.296 -2.3071  0.0316 -1.9316
 8281SOL    HW236480   1.734   1.940   4.223  0.6216  0.8460  0.7029
 8282SOL     OW36481   2.081   4.425  11.805 -0.1175  0.2893 -0.2966
 8282SOL    HW136482   1.997   4.443  11.848 -1.5272 -1.3394 -2.3632
 8282SOL    HW236483   2.079   4.331  11.821 -0.5791 -0.0631 -2.4060
 8283SOL     OW36484   0.715   4.046   4.198 -0.1240  0.1338  0.2540
 8283SOL    HW136485   0.690   4.133   4.230 -0.6941 -0.6308  1.8275
 8283SOL    HW236486   0.761   4.006   4.272  1.5514 -0.8173 -1.2931
 8284SOL     OW36487   3.323   3.959  16.494  0.6525  0.1943 -0.3450
 8284SOL    HW136488   3.334   3.887  16.431  0.9301  0.7486 -0.9286
 8284SOL    HW236489   3.412   3.995  16.487  0.7050 -0.0298 -0.8643
 8285SOL     OW36490   3.941   2.626   5.320 -0.2190  0.5525 -0.9338
 8285SOL    HW136491   4.029   2.623   5.282  0.0407  1.4228 -0.3827
 8285SOL    HW236492   3.909   2.543   5.284 -3.1128  1.8280 -1.2366
 8286SOL     OW36493   3.149   3.593   7.579 -0.2119  0.3721  0.1761
 8286SOL    HW136494   3.132   3.504   7.610  3.2958  0.3258  1.9361
 8286SOL    HW236495   3.079   3.647   7.616 -1.8074 -1.9021  0.5054
 8287SOL     OW36496   3.573   2.155   1.540 -0.8045 -0.4823 -0.6310
 8287SOL    HW136497   3.557   2.241   1.581 -1.0893 -1.2429  0.8576
 8287SOL    HW236498   3.512   2.107   1.597 -1.5783  1.2246  0.0209
 8288SOL     OW36499   4.204   1.308   7.662 -0.2856  0.2228 -0.5446
 8288SOL    HW136500   4.143   1.289   7.733 -0.8678  0.3576 -1.0010
 8288SOL    HW236501   4.189   1.236   7.601  1.6129 -2.1786  1.8407
 8289SOL     OW36502   0.943   1.924   6.653 -0.1886  0.0614  0.0304
 8289SOL    HW136503   0.896   1.862   6.708  1.4921 -2.8654 -1.8217
 8289SOL    HW236504   0.920   2.009   6.690  0.6595  0.4969 -0.4480
 8290SOL     OW36505   1.188   2.691   4.616 -0.3693 -0.0674  0.4770
 8290SOL    HW136506   1.177   2.616   4.674  1.0730 -0.0388  0.7734
 8290SOL    HW236507   1.117   2.750   4.643 -1.1168 -0.5872 -0.3570
 8291SOL     OW36508   0.821   0.529  16.489  0.0905  0.5407 -0.5046
 8291SOL    HW136509   0.801   0.594  16.557 -0.9242  2.4044 -2.5836
 8291SOL    HW236510   0.910   0.501  16.509  0.2685  0.8742 -0.8388
 8292SOL     OW36511   3.926   2.837  10.631  0.3771 -0.2012  0.2684
 8292SOL    HW136512   3.872   2.824  10.553 -1.8889  2.8349  1.3188
 8292SOL    HW236513   3.851   2.846  10.689  0.4779 -2.3732  0.7388
 8293SOL     OW36514   4.290   0.847   4.465  0.3740 -0.6027 -0.3680
 8293SOL    HW136515   4.286   0.898   4.385 -1.9043 -0.7712 -0.3808
 8293SOL    HW236516   4.233   0.772   4.446 -0.5115  0.1883 -0.8411
 8294SOL     OW36517   3.080   3.309  16.107  0.3004 -0.0413 -0.3988
 8294SOL    HW136518   3.097   3.346  16.021  1.9172  3.1140  1.2677
 8294SOL    HW236519   3.106   3.217  16.100 -0.5767 -0.4355  1.4566
 8295SOL     OW36520   2.081   2.959   7.138  0.2449 -0.6417  0.2292
 8295SOL    HW136521   1.993   2.945   7.172 -0.3403  0.0793 -1.0071
 8295SOL    HW236522   2.067   2.926   7.050 -0.6752 -1.4209  0.6693
 8296SOL     OW36523   0.830   3.147   1.481 -0.6159  0.2451  0.0619
 8296SOL    HW136524   0.833   3.091   1.558 -3.7293 -0.2289 -0.1470
 8296SOL    HW236525   0.748   3.196   1.495 -0.6284  0.5643 -1.1749
 8297SOL     OW36526   0.849   4.427   4.748  0.3024  0.2990 -0.0014
 8297SOL    HW136527   0.939   4.423   4.714  0.0407 -0.2845 -0.6345
 8297SOL    HW236528   0.833   4.335   4.768  0.1617  0.5349  0.9620
 8298SOL     OW36529   1.386   3.609   5.334 -0.8018 -0.2081 -0.6765
 8298SOL    HW136530   1.457   3.659   5.373  1.2005 -2.6789 -1.1804
 8298SOL    HW236531   1.437   3.540   5.291  0.3163  1.6661 -2.3173
 8299SOL     OW36532   3.361   2.108   7.735 -0.0606  0.2061 -0.1288
 8299SOL    HW136533   3.334   2.098   7.644 -1.0509 -0.4382  0.2356
 8299SOL    HW236534   3.312   2.044   7.787  1.2556  1.4436  2.6348
 8300SOL     OW36535   2.822   0.401  16.547 -0.0666 -0.7204  0.1496
 8300SOL    HW136536   2.861   0.480  16.583 -1.6374  1.5564 -3.1427
 8300SOL    HW236537   2.763   0.364  16.612 -0.2542  0.7083  0.7800
 8301SOL     OW36538   4.334   3.679   4.704 -0.7376  0.3379 -0.0967
 8301SOL    HW136539   4.395   3.742   4.742  0.0177  0.0669 -0.8424
 8301SOL    HW236540   4.349   3.598   4.753  0.1576  1.0942  0.8691
 8302SOL     OW36541   3.733   0.049   9.318 -0.3503  0.4812 -0.1146
 8302SOL    HW136542   3.701   0.115   9.380 -0.1087 -1.2502  1.8820
 8302SOL    HW236543   3.827   0.063   9.332 -0.8586  0.3785  3.4353
 8303SOL     OW36544   2.280   2.021   8.435  0.5391  0.6520 -0.0889
 8303SOL    HW136545   2.303   1.970   8.357  0.2535  0.1255  0.1726
 8303SOL    HW236546   2.347   1.999   8.500 -0.3766 -0.2647  0.5239
 8304SOL     OW36547   1.878   2.735   1.890 -0.3601  0.0544 -0.1555
 8304SOL    HW136548   1.816   2.807   1.884 -0.0373  0.3710  0.2692
 8304SOL    HW236549   1.955   2.783   1.859 -0.7719  1.4824  1.0246
 8305SOL     OW36550   1.997   0.629   4.833  0.0910 -0.1883 -0.0162
 8305SOL    HW136551   1.945   0.550   4.849 -3.9463  2.2721 -1.0833
 8305SOL    HW236552   1.994   0.635   4.737 -1.1981  2.4217  0.2038
 8306SOL     OW36553   3.771   3.228   1.807 -0.5597  0.8397 -0.1134
 8306SOL    HW136554   3.759   3.281   1.729 -0.2173 -1.3607 -1.6467
 8306SOL    HW236555   3.725   3.149   1.781  0.8469 -0.0228  0.0197
 8307SOL     OW36556   1.072   3.472   7.387 -0.1737 -0.2788 -0.3757
 8307SOL    HW136557   1.098   3.558   7.419  0.0970  0.2337 -1.9680
 8307SOL    HW236558   1.139   3.417   7.428 -0.6105  0.6946  1.6235
 8308SOL     OW36559   2.585   2.928  12.121  0.4178 -0.0713  0.6029
 8308SOL    HW136560   2.576   2.834  12.138 -0.2750 -0.1961 -0.4751
 8308SOL    HW236561   2.524   2.974  12.179  1.6234  0.9300  1.0602
 8309SOL     OW36562   1.741   3.183  16.016 -0.1428 -0.6299  0.1860
 8309SOL    HW136563   1.670   3.143  16.066 -0.3846 -0.3267  0.0862
 8309SOL    HW236564   1.694   3.265  15.998  3.7105  1.5338 -0.1098
 8310SOL     OW36565   0.475   3.293   2.438 -0.1739  0.7773  0.0203
 8310SOL    HW136566   0.494   3.200   2.428  0.7095  0.8942  0.5876
 8310SOL    HW236567   0.561   3.335   2.444 -0.6344  1.7552 -0.1885
 8311SOL     OW36568   2.588   0.483   1.683  0.4143  0.2767 -0.0413
 8311SOL    HW136569   2.522   0.416   1.701  1.3180 -0.6331 -0.1274
 8311SOL    HW236570   2.573   0.492   1.589  1.4607  1.5796 -0.0873
 8312SOL     OW36571   0.632   3.462  10.068  0.0210  0.0824  0.7083
 8312SOL    HW136572   0.666   3.550  10.088 -1.7043  0.0337  3.8970
 8312SOL    HW236573   0.656   3.455   9.975 -1.7187 -1.8172  0.3999
 8313SOL     OW36574   4.251   0.230   9.401  0.5396 -0.2605  0.2434
 8313SOL    HW136575   4.204   0.258   9.480 -0.0877  0.3161 -0.3322
 8313SOL    HW236576   4.335   0.216   9.446  1.1087 -0.0158 -0.7622
 8314SOL     OW36577   0.523   3.916   6.545 -0.0350  0.3340 -0.0591
 8314SOL    HW136578   0.456   3.956   6.489  0.4114  2.2742  0.8160
 8314SOL    HW236579   0.602   3.968   6.532  0.6730 -0.7608 -0.0817
 8315SOL     OW36580   1.828   0.712   1.323  0.2898  0.4447 -0.4613
 8315SOL    HW136581   1.799   0.786   1.269  0.2636  0.1640 -0.8311
 8315SOL    HW236582   1.896   0.740   1.383 -0.7591 -1.3331  1.5445
 8316SOL     OW36583   1.362   2.338   8.606 -0.4433 -0.0902 -0.0060
 8316SOL    HW136584   1.420   2.275   8.650  0.4496  1.5706  1.1811
 8316SOL    HW236585   1.400   2.420   8.637 -0.7124 -0.0192  0.1331
 8317SOL     OW36586   2.739   1.388  12.451 -0.5145  0.1507 -0.5014
 8317SOL    HW136587   2.746   1.483  12.444 -0.5732  0.3040  1.5167
 8317SOL    HW236588   2.666   1.378  12.512 -2.2627  0.6472 -2.5277
 8318SOL     OW36589   3.639   2.709   9.298 -0.5707 -0.2728  0.4854
 8318SOL    HW136590   3.722   2.746   9.327  1.1695 -2.7147 -1.3216
 8318SOL    HW236591   3.655   2.617   9.276 -0.7156 -0.4044  0.9367
 8319SOL     OW36592   2.642   0.272   5.233  0.0940 -0.1400  0.7196
 8319SOL    HW136593   2.574   0.339   5.228  1.7520  1.2106 -3.4737
 8319SOL    HW236594   2.697   0.310   5.301 -0.5058 -0.4261  1.3708
 8320SOL     OW36595   0.968   1.585  13.395 -0.4742  0.0744  0.3698
 8320SOL    HW136596   0.903   1.654  13.383  0.8447  1.0515 -1.3759
 8320SOL    HW236597   1.025   1.581  13.318 -1.2990 -2.5408 -0.1010
 8321SOL     OW36598   1.854   1.673   9.771 -0.1723  0.4500  0.8967
 8321SOL    HW136599   1.935   1.659   9.821  1.5270  0.5297 -1.8114
 8321SOL    HW236600   1.879   1.738   9.705  0.8357  0.0736  0.8981
 8322SOL     OW36601   4.618   0.255  12.497 -0.1323 -0.4101  0.3694
 8322SOL    HW136602   4.547   0.278  12.557  0.0864 -1.1939  0.9368
 8322SOL    HW236603   4.689   0.220  12.551 -1.3734 -1.4985  1.3035
 8323SOL     OW36604   3.407   2.485   3.783  0.3044 -0.0788 -0.0265
 8323SOL    HW136605   3.455   2.547   3.838 -0.7008 -0.2722  1.0807
 8323SOL    HW236606   3.434   2.397   3.809 -2.4321 -1.0231 -0.3399
 8324SOL     OW36607   4.005   4.339   4.044  0.4916 -0.3768 -0.6527
 8324SOL    HW136608   4.029   4.270   4.106  1.9949 -0.8583 -1.7860
 8324SOL    HW236609   4.087   4.388   4.036 -0.1827  0.7496 -0.6957
 8325SOL     OW36610   3.252   4.374   6.038 -0.5924  0.5547  0.2451
 8325SOL    HW136611   3.198   4.452   6.028  1.3620  1.7766 -0.7334
 8325SOL    HW236612   3.219   4.344   6.123 -1.6915  0.3862 -0.2334
 8326SOL     OW36613   0.703   3.666   7.536 -0.1256  0.2875  0.5949
 8326SOL    HW136614   0.760   3.654   7.460  0.8125  0.6040  1.2443
 8326SOL    HW236615   0.699   3.579   7.576 -0.5583  0.1595  0.2676
 8327SOL     OW36616   0.656   0.885   9.651 -0.7150 -0.4452 -0.1215
 8327SOL    HW136617   0.732   0.849   9.697 -0.8728 -0.3134  0.2378
 8327SOL    HW236618   0.705   0.947   9.598  0.1130 -0.4224  0.6692
 8328SOL     OW36619   2.328   1.867   4.930 -0.2284 -0.2002  0.4798
 8328SOL    HW136620   2.411   1.906   4.902 -0.4002 -0.7087 -0.7179
 8328SOL    HW236621   2.324   1.779   4.894 -0.5928 -0.0551  0.1629
 8329SOL     OW36622   2.224   4.596   0.877  0.2302 -0.5675  0.1836
 8329SOL    HW136623   2.292   4.632   0.934 -2.0695  1.0258  1.9155
 8329SOL    HW236624   2.215   4.675   0.823  0.4505 -1.8729 -1.7790
 8330SOL     OW36625   0.865   0.301   4.085  0.3560  0.2441 -0.1990
 8330SOL    HW136626   0.817   0.268   4.161  0.0238 -1.2560 -1.0704
 8330SOL    HW236627   0.915   0.375   4.121  0.9840  0.1798 -0.9524
 8331SOL     OW36628   4.359   4.546  13.058 -0.3834  0.0933 -0.3837
 8331SOL    HW136629   4.347   4.495  12.978 -0.2376  0.1779 -0.4593
 8331SOL    HW236630   4.311   4.492  13.120 -1.3097 -0.3305 -1.4755
 8332SOL     OW36631   1.677   4.419   3.635 -0.2130 -0.1995  0.4386
 8332SOL    HW136632   1.770   4.420   3.658 -0.6128 -0.4108  2.0828
 8332SOL    HW236633   1.684   4.346   3.573 -2.2552 -1.3497  1.5679
 8333SOL     OW36634   2.793   1.978   6.261  0.0183  0.3705  0.0588
 8333SOL    HW136635   2.761   2.063   6.289 -0.2199 -0.2372  1.6400
 8333SOL    HW236636   2.759   1.974   6.172  1.2829 -1.8487 -0.3323
 8334SOL     OW36637   0.007   0.185   9.076  0.0243 -0.2118  0.7305
 8334SOL    HW136638   4.688   0.111   9.059 -1.0969  0.9292 -0.4670
 8334SOL    HW236639   0.024   0.213   8.986 -1.0470  1.5542  1.0908
 8335SOL     OW36640   0.713   3.180   8.030  0.3136 -0.0342  0.2608
 8335SOL    HW136641   0.633   3.233   8.027  1.7161  2.0984  1.3210
 8335SOL    HW236642   0.731   3.158   7.938 -3.7457  2.2770 -1.0741
 8336SOL     OW36643   0.325   4.540   5.844 -0.1642 -0.4385 -0.0540
 8336SOL    HW136644   0.380   4.585   5.780  1.7263 -2.9566 -0.2129
 8336SOL    HW236645   0.340   4.447   5.829  0.9980 -0.3646  0.6275
 8337SOL     OW36646   3.972   2.549   0.302  0.6033 -0.4362 -0.0862
 8337SOL    HW136647   4.046   2.488   0.305  1.5867  0.7024 -1.7621
 8337SOL    HW236648   4.022   2.622   0.265  0.1942 -0.1946 -0.1542
 8338SOL     OW36649   1.775   4.560   9.110  0.0588 -0.2195  0.0787
 8338SOL    HW136650   1.752   4.560   9.203 -0.4285 -1.9406 -0.0489
 8338SOL    HW236651   1.713   4.508   9.059 -1.2416  1.5212 -0.1492
 8339SOL     OW36652   1.182   2.342  16.630 -0.3344  0.2401  0.5625
 8339SOL    HW136653   1.189   2.370  16.539 -0.6970  0.1212  0.4970
 8339SOL    HW236654   1.259   2.286  16.636  0.2016  1.0483  1.1856
 8340SOL     OW36655   3.958   1.508   6.742 -0.2561 -0.8446 -0.2491
 8340SOL    HW136656   3.899   1.532   6.814 -0.2862 -2.1981  0.1795
 8340SOL    HW236657   4.041   1.498   6.789 -0.9871 -2.8427  0.6572
 8341SOL     OW36658   2.939   2.247  14.375 -0.2441 -0.3572  0.5984
 8341SOL    HW136659   2.982   2.171  14.414  0.2389  1.5539  3.8275
 8341SOL    HW236660   2.987   2.263  14.294 -2.5186  4.7990  0.2798
 8342SOL     OW36661   3.160   3.428  15.594  0.2442 -0.2987 -0.1656
 8342SOL    HW136662   3.164   3.345  15.546 -4.3313  0.3315 -1.6464
 8342SOL    HW236663   3.223   3.480  15.544 -1.5157 -0.1970 -2.3329
 8343SOL     OW36664   3.447   4.552  16.296 -0.6119  0.0980  0.1648
 8343SOL    HW136665   3.362   4.563  16.254 -0.7187 -1.6844 -0.0943
 8343SOL    HW236666   3.474   4.644  16.293 -2.1793  0.6609  3.0477
 8344SOL     OW36667   2.101   2.296   1.464  0.2361  0.3343 -0.1086
 8344SOL    HW136668   2.009   2.310   1.485  0.1235  0.1179 -0.4609
 8344SOL    HW236669   2.124   2.255   1.547  1.0864 -3.6215 -2.2965
 8345SOL     OW36670   3.911   2.117   5.806 -0.0490  0.1602 -0.5523
 8345SOL    HW136671   3.899   2.038   5.859 -1.4583 -0.2739 -1.4922
 8345SOL    HW236672   3.833   2.122   5.751 -0.0402 -0.5314 -0.6204
 8346SOL     OW36673   3.944   4.717  11.923  0.2239 -0.2053  0.0414
 8346SOL    HW136674   4.029   4.724  11.879  1.0857 -0.5078  1.6775
 8346SOL    HW236675   3.893   0.047  11.880 -1.7562 -1.5503  0.2481
 8347SOL     OW36676   4.683   4.535  10.445 -0.6120  0.2275 -0.0913
 8347SOL    HW136677   4.733   4.466  10.488  0.6341  1.2303  0.0762
 8347SOL    HW236678   0.012   4.570  10.387  0.6628  1.3385  2.0693
 8348SOL     OW36679   4.371   4.681   7.968  0.1704  0.6524  0.3755
 8348SOL    HW136680   4.296   4.704   7.913  0.3436 -0.2395 -0.2359
 8348SOL    HW236681   4.444   4.716   7.916 -0.9304 -0.5661 -1.9685
 8349SOL     OW36682   2.910   0.657   9.156 -0.0049  0.0222 -0.1030
 8349SOL    HW136683   2.950   0.684   9.073  0.5966 -0.9697 -0.1380
 8349SOL    HW236684   2.962   0.582   9.185 -2.1922 -1.1165  0.8548
 8350SOL     OW36685   1.347   1.449   7.428  0.7069  0.4759  0.0906
 8350SOL    HW136686   1.387   1.518   7.375  1.1449  0.7675  0.7998
 8350SOL    HW236687   1.383   1.474   7.513  3.0797 -0.4260 -0.6225
 8351SOL     OW36688   2.132   1.735  16.596 -0.0481 -0.6126 -0.2663
 8351SOL    HW136689   2.036   1.728  16.595  0.1356 -2.8193 -2.0329
 8351SOL    HW236690   2.147   1.777  16.511 -1.0088 -2.3165 -1.2864
 8352SOL     OW36691   1.243   3.464   4.242  0.1792 -0.4097  0.0163
 8352SOL    HW136692   1.205   3.525   4.305  0.0110  1.4238 -1.8460
 8352SOL    HW236693   1.207   3.379   4.269  1.1968 -0.5081  1.0462
 8353SOL     OW36694   3.568   2.618   4.764 -0.2515  0.3524 -0.3099
 8353SOL    HW136695   3.662   2.608   4.780 -0.5846 -2.2791  0.0543
 8353SOL    HW236696   3.534   2.538   4.805  0.3201  0.6607  0.7751
 8354SOL     OW36697   1.765   2.186   5.962  0.0266 -0.0323 -0.0813
 8354SOL    HW136698   1.685   2.146   5.995  0.6624  0.5376  2.1011
 8354SOL    HW236699   1.809   2.114   5.917 -2.8095 -1.5843 -0.3250
 8355SOL     OW36700   1.122   2.724  16.752  0.1588 -0.0861 -0.1937
 8355SOL    HW136701   1.059   2.764  16.692  1.6462  1.0274 -1.0105
 8355SOL    HW236702   1.136   2.637  16.717 -0.9665 -1.5991  3.1233
 8356SOL     OW36703   3.009   4.305   5.897 -0.0509 -0.9484  0.3350
 8356SOL    HW136704   2.991   4.288   5.990  3.8364 -0.3039  1.1979
 8356SOL    HW236705   3.102   4.286   5.887  0.6713  2.4453  0.8332
 8357SOL     OW36706   3.720   2.914   7.745 -0.0708 -0.4421  1.0727
 8357SOL    HW136707   3.810   2.935   7.719 -0.3850  2.0245  1.9390
 8357SOL    HW236708   3.717   2.825   7.711  0.2633  0.7151 -1.9344
 8358SOL     OW36709   0.244   0.907   3.878 -0.5654  0.1420 -0.1686
 8358SOL    HW136710   0.255   0.984   3.822  1.4298 -0.0239 -0.0034
 8358SOL    HW236711   0.311   0.855   3.833  1.4698  3.1350 -0.6580
 8359SOL     OW36712   4.196   3.320   2.756 -0.1320 -0.1793  0.0514
 8359SOL    HW136713   4.253   3.290   2.685  0.8779  0.0236  0.7904
 8359SOL    HW236714   4.111   3.298   2.717 -0.4841 -0.9145  1.2391
 8360SOL     OW36715   1.875   0.493   6.371 -0.1440 -0.0859 -0.6094
 8360SOL    HW136716   1.866   0.494   6.275 -0.5392  0.4457 -0.5667
 8360SOL    HW236717   1.968   0.512   6.380 -0.4196  0.1803  1.5106
 8361SOL     OW36718   3.578   1.043  17.108 -0.3708 -0.5830  0.1954
 8361SOL    HW136719   3.586   1.042  17.013 -1.3659  1.6396  0.0859
 8361SOL    HW236720   3.628   1.122  17.129  1.8413 -1.9509  0.0252
 8362SOL     OW36721   1.508   3.761   5.711  0.1422  0.2923  0.2896
 8362SOL    HW136722   1.424   3.768   5.757 -0.0575  2.0962 -0.3335
 8362SOL    HW236723   1.550   3.830   5.764  1.6217 -0.0276 -0.4661
 8363SOL     OW36724   0.535   0.993  11.113 -0.1704  0.0496  0.1834
 8363SOL    HW136725   0.513   0.962  11.201  0.6876  0.1790  0.4447
 8363SOL    HW236726   0.501   1.083  11.119 -0.5577 -0.1062  0.3721
 8364SOL     OW36727   0.138   4.552   3.380  0.1989  0.4941  0.0222
 8364SOL    HW136728   0.052   4.554   3.422 -0.0297  1.2846 -0.4915
 8364SOL    HW236729   0.153   4.644   3.359  0.3879  0.3347 -0.5389
 8365SOL     OW36730   4.665   2.712   7.857  0.4134  0.4260  0.4727
 8365SOL    HW136731   4.700   2.752   7.776  0.3559  1.6417  1.0456
 8365SOL    HW236732   4.611   2.642   7.821 -1.9768  2.1428  0.7811
 8366SOL     OW36733   3.596   3.124  15.400  0.4598 -0.2284 -0.0883
 8366SOL    HW136734   3.641   3.209  15.406  0.6204 -0.4957  2.4456
 8366SOL    HW236735   3.504   3.147  15.385  0.5725 -0.7707 -1.6167
 8367SOL     OW36736   0.160   0.683   6.273 -0.3721  0.1448  0.2993
 8367SOL    HW136737   0.129   0.728   6.195 -0.2100  2.4116  1.5373
 8367SOL    HW236738   0.081   0.678   6.327 -2.5086 -0.5565 -2.8594
 8368SOL     OW36739   1.033   0.635   5.553 -0.1300 -0.1748 -0.0378
 8368SOL    HW136740   0.979   0.657   5.478  2.3217 -0.0420 -1.7581
 8368SOL    HW236741   1.116   0.678   5.532 -0.5626  0.0968 -1.2032
 8369SOL     OW36742   3.939   4.285   7.862 -0.5729  0.5436 -0.6036
 8369SOL    HW136743   3.894   4.248   7.786  0.9674 -0.8714 -0.8429
 8369SOL    HW236744   3.893   4.251   7.939 -2.9759  1.2720 -1.7136
 8370SOL     OW36745   4.190   1.397   2.746 -0.2977 -0.1108 -0.2499
 8370SOL    HW136746   4.193   1.442   2.662  0.3020 -0.0960 -0.2209
 8370SOL    HW236747   4.232   1.314   2.724  0.2727 -0.4589  2.0923
 8371SOL     OW36748   3.277   3.694   2.835  0.4313 -0.5305 -0.1602
 8371SOL    HW136749   3.212   3.630   2.863  0.7902  0.0181  1.9456
 8371SOL    HW236750   3.257   3.767   2.894  0.5889 -0.5781 -0.0476
 8372SOL     OW36751   0.211   0.672   9.404  0.0178 -0.3446  0.4434
 8372SOL    HW136752   0.200   0.762   9.434  0.2212  0.4084 -1.7582
 8372SOL    HW236753   0.298   0.659   9.441 -0.1670 -0.4280  0.8568
 8373SOL     OW36754   4.070   2.354  13.186  0.1351 -0.3367  0.0291
 8373SOL    HW136755   4.149   2.392  13.147  0.2112 -1.9858 -1.4077
 8373SOL    HW236756   4.012   2.430  13.191 -0.2842 -0.7914  1.9807
 8374SOL     OW36757   2.771   1.035  14.450  0.0593 -0.4955 -0.0852
 8374SOL    HW136758   2.817   0.988  14.519  0.8952  1.3756  0.6352
 8374SOL    HW236759   2.724   1.102  14.500  1.6685  2.0447 -1.9483
 8375SOL     OW36760   0.810   3.369   1.705  0.3926 -0.1426  0.9490
 8375SOL    HW136761   0.796   3.280   1.735  2.8706 -0.6561  0.5255
 8375SOL    HW236762   0.780   3.422   1.779  2.6533  1.8531  0.4335
 8376SOL     OW36763   4.211   0.785   7.958 -0.2299 -0.5882  0.0477
 8376SOL    HW136764   4.137   0.838   7.928 -1.0429 -1.8763 -0.2184
 8376SOL    HW236765   4.289   0.839   7.944  0.7179 -1.6405  1.2538
 8377SOL     OW36766   0.784   2.446   2.292  0.4255  0.5056 -0.1188
 8377SOL    HW136767   0.776   2.411   2.381 -0.1382 -0.3718 -0.5073
 8377SOL    HW236768   0.878   2.459   2.280  0.8393 -0.1206  2.3145
 8378SOL     OW36769   4.015   1.956   1.760  0.2980  0.4409  0.0103
 8378SOL    HW136770   3.973   1.962   1.674 -1.1483 -0.1629  0.6672
 8378SOL    HW236771   3.944   1.986   1.816  0.9715  3.5471 -0.8391
 8379SOL     OW36772   1.933   4.529   5.541  0.6505 -0.4895 -0.2667
 8379SOL    HW136773   1.868   4.579   5.590  1.7873  0.0713  0.6664
 8379SOL    HW236774   1.880   4.456   5.508 -1.7441  0.1540  2.0956
 8380SOL     OW36775   1.636   1.105   9.398 -0.0247 -0.1080 -0.0681
 8380SOL    HW136776   1.685   1.029   9.428 -1.0341 -0.5328  0.5046
 8380SOL    HW236777   1.712   1.163   9.395 -1.8461  2.2821 -0.1196
 8381SOL     OW36778   2.880   2.407   8.846  0.6187  0.1721  0.3527
 8381SOL    HW136779   2.942   2.359   8.902  1.7323  1.6916  0.4019
 8381SOL    HW236780   2.830   2.461   8.906 -2.0508 -0.7600 -1.0335
 8382SOL     OW36781   0.078   0.894   3.276 -0.5449 -0.2292  0.7528
 8382SOL    HW136782   0.035   0.915   3.193 -0.7689  0.5297  1.0650
 8382SOL    HW236783   0.151   0.850   3.232 -0.1355  1.6198 -0.4272
 8383SOL     OW36784   1.595   2.475  17.055  0.3573 -0.5234 -0.8460
 8383SOL    HW136785   1.520   2.508  17.007 -0.0818 -0.9253 -0.4381
 8383SOL    HW236786   1.668   2.516  17.008 -0.2121 -1.9347 -2.9723
 8384SOL     OW36787   2.214   1.338   2.343  0.0989  0.8896  0.2537
 8384SOL    HW136788   2.187   1.427   2.364 -2.2571  0.5897 -1.5839
 8384SOL    HW236789   2.134   1.287   2.358 -0.0857  1.4397  1.1549
 8385SOL     OW36790   2.917   1.794   1.624 -0.2466 -1.0362  0.1418
 8385SOL    HW136791   2.867   1.713   1.618 -2.9682  0.7406 -1.5160
 8385SOL    HW236792   2.955   1.825   1.541  1.6333 -1.5728  0.8212
 8386SOL     OW36793   1.749   1.931  12.114 -0.4754  0.4222 -0.1172
 8386SOL    HW136794   1.797   1.869  12.168 -0.2147 -0.2596 -1.1268
 8386SOL    HW236795   1.814   1.956  12.049 -1.6465  1.2699 -0.9662
 8387SOL     OW36796   3.285   4.533  12.881 -0.7744  0.0912  0.2566
 8387SOL    HW136797   3.353   4.507  12.819 -1.4525 -0.3448 -0.2909
 8387SOL    HW236798   3.324   4.495  12.960  2.6120  2.4179 -0.2646
 8388SOL     OW36799   3.367   4.456   8.448  0.0812 -0.4407  0.3840
 8388SOL    HW136800   3.373   4.441   8.353  0.8721  0.1388  0.3433
 8388SOL    HW236801   3.275   4.459   8.473  0.0980  1.9956  0.1206
 8389SOL     OW36802   4.211   2.532   9.243  0.5460 -0.5123 -0.1625
 8389SOL    HW136803   4.125   2.573   9.252  1.2337  1.6215 -3.5244
 8389SOL    HW236804   4.232   2.548   9.151 -3.1724  1.0137 -0.7320
 8390SOL     OW36805   2.870   2.133   2.321  0.2265  0.3969 -0.1016
 8390SOL    HW136806   2.810   2.099   2.388 -0.3378 -0.0914 -0.8507
 8390SOL    HW236807   2.843   2.093   2.238  0.0717  1.8366 -0.7373
 8391SOL     OW36808   1.446   1.515  13.237 -0.7011 -0.1319 -0.0237
 8391SOL    HW136809   1.370   1.572  13.249 -1.6844 -0.7210 -3.4612
 8391SOL    HW236810   1.482   1.549  13.155 -1.6063 -0.7696 -0.6937
 8392SOL     OW36811   3.827   4.168   9.015 -0.1829  0.0324 -0.2203
 8392SOL    HW136812   3.798   4.250   8.976  0.7716 -0.2911 -1.6045
 8392SOL    HW236813   3.746   4.134   9.053 -1.1310  1.7649 -0.7171
 8393SOL     OW36814   2.950   2.029  15.191  0.3023  0.2037  0.0281
 8393SOL    HW136815   2.858   2.002  15.202  0.3813  1.0354  2.7367
 8393SOL    HW236816   2.957   2.087  15.116 -0.6012 -0.2940 -0.4512
 8394SOL     OW36817   0.198   2.526   1.281 -0.3952  0.3010  0.0969
 8394SOL    HW136818   0.288   2.494   1.279  0.0062  1.4912 -0.7560
 8394SOL    HW236819   0.145   2.446   1.275  0.4078 -0.2612  0.4995
 8395SOL     OW36820   1.569   2.942   9.012 -0.1272 -0.1920  0.1000
 8395SOL    HW136821   1.516   2.886   9.069 -0.2385 -0.8554 -0.6547
 8395SOL    HW236822   1.659   2.909   9.015  0.4148  1.1824 -0.9595
 8396SOL     OW36823   1.618   3.028   3.896  0.1144  0.2589 -0.0545
 8396SOL    HW136824   1.678   3.102   3.889 -1.6238  1.7962  1.2591
 8396SOL    HW236825   1.564   3.037   3.818  2.7995 -0.2357 -1.9647
 8397SOL     OW36826   0.877   1.231   2.482  0.2764 -0.2266  0.1226
 8397SOL    HW136827   0.811   1.292   2.515  0.2816 -1.2758  2.0724
 8397SOL    HW236828   0.886   1.163   2.548 -0.8737 -0.5352 -0.0306
 8398SOL     OW36829   2.716   3.200   7.945 -0.1009  0.3159 -0.4496
 8398SOL    HW136830   2.799   3.151   7.953 -0.7829 -0.9926 -1.4157
 8398SOL    HW236831   2.729   3.267   8.012 -0.8003 -0.5922  0.6004
 8399SOL     OW36832   2.462   0.587   6.084  0.2143 -0.0564  0.1631
 8399SOL    HW136833   2.529   0.532   6.126 -1.3028 -3.7386 -2.2132
 8399SOL    HW236834   2.396   0.518   6.085  0.2162 -0.0005  3.2126
 8400SOL     OW36835   0.939   0.303   6.961  0.3888 -0.3221 -0.1509
 8400SOL    HW136836   0.891   0.353   7.027 -0.9846 -1.0010 -0.6452
 8400SOL    HW236837   0.961   0.230   7.019  1.0952 -0.3400 -0.4399
 8401SOL     OW36838   2.875   1.627   6.299  0.0932  0.6961  0.5175
 8401SOL    HW136839   2.945   1.628   6.365  1.4061  0.8927 -0.8682
 8401SOL    HW236840   2.910   1.679   6.227  0.2614  0.5675  0.5065
 8402SOL     OW36841   1.824   4.311   0.659  0.2145  0.3520 -0.0104
 8402SOL    HW136842   1.870   4.324   0.576  0.8691 -0.3996  0.2346
 8402SOL    HW236843   1.894   4.269   0.710  0.5895  0.6441 -0.2834
 8403SOL     OW36844   0.045   0.243   2.625  0.1659 -0.1225 -0.3912
 8403SOL    HW136845   4.690   0.233   2.617  0.0007  1.4911 -0.4651
 8403SOL    HW236846   0.063   0.256   2.718  1.3128  2.4769 -0.9851
 8404SOL     OW36847   0.063   0.714   3.701  0.2596  0.0763  0.2613
 8404SOL    HW136848   0.004   0.779   3.661 -0.7650 -0.0099  1.6563
 8404SOL    HW236849   0.106   0.690   3.619  0.8190  1.0647  0.2587
 8405SOL     OW36850   4.061   0.616   9.830  0.0239  0.1831  0.5629
 8405SOL    HW136851   4.018   0.625   9.745 -0.7873 -1.0409  0.8475
 8405SOL    HW236852   4.091   0.707   9.837  1.5673 -0.2548 -0.3183
 8406SOL     OW36853   2.088   3.495   4.319  0.2124 -0.4151 -0.5963
 8406SOL    HW136854   2.170   3.532   4.351 -1.3406  1.0116  1.8363
 8406SOL    HW236855   2.065   3.441   4.395 -1.6437 -0.6393 -1.3097
 8407SOL     OW36856   2.854   2.806  14.406  0.0312  0.4863 -0.2702
 8407SOL    HW136857   2.806   2.852  14.337 -1.3085  1.4735  1.3092
 8407SOL    HW236858   2.779   2.761  14.446  1.1719 -0.7955  0.4107
 8408SOL     OW36859   4.335   4.609   2.975 -0.1617  0.0282 -0.5887
 8408SOL    HW136860   4.279   4.537   2.947 -0.9936  0.6760 -0.5954
 8408SOL    HW236861   4.387   4.574   3.047 -0.8510  0.1240 -0.0465
 8409SOL     OW36862   3.746   4.476   4.025 -0.4444 -0.0671  0.1815
 8409SOL    HW136863   3.812   4.410   4.045 -1.6004 -1.5370 -0.8020
 8409SOL    HW236864   3.795   4.542   3.978  2.6905 -1.4114  1.5604
 8410SOL     OW36865   3.851   3.857   4.585  0.1439  0.3139 -0.0729
 8410SOL    HW136866   3.787   3.818   4.645  1.7899 -0.6583  1.0410
 8410SOL    HW236867   3.841   3.950   4.608  0.5230  0.3275  0.0284
 8411SOL     OW36868   1.640   0.713   9.273 -0.3655 -0.5194  0.5935
 8411SOL    HW136869   1.641   0.786   9.210 -0.0485  0.2408  1.4776
 8411SOL    HW236870   1.724   0.671   9.256  0.6202  1.6269  0.1621
 8412SOL     OW36871   0.638   0.111  14.666 -0.4072  0.6672  0.0156
 8412SOL    HW136872   0.642   0.158  14.583 -1.1712 -1.3056 -1.1373
 8412SOL    HW236873   0.682   0.028  14.649  0.4653  0.8891  1.1952
 8413SOL     OW36874   1.444   0.374   3.511  0.0743  0.1850  0.6872
 8413SOL    HW136875   1.532   0.337   3.521  0.7522  1.4387 -0.6296
 8413SOL    HW236876   1.413   0.309   3.448  2.6697 -0.6876  0.2976
 8414SOL     OW36877   1.726   3.987   4.250 -0.1846  0.1335 -0.3122
 8414SOL    HW136878   1.635   3.959   4.243 -0.9804  2.3119  1.1428
 8414SOL    HW236879   1.719   4.065   4.305  1.0228 -0.2730  0.3877
 8415SOL     OW36880   0.173   4.591  10.340  0.5705  0.4279 -0.3124
 8415SOL    HW136881   0.258   4.548  10.336 -0.4937 -1.6285 -0.8836
 8415SOL    HW236882   0.190   4.655  10.409 -1.2012 -0.6973  1.1846
 8416SOL     OW36883   2.046   4.449   2.348 -0.2268 -0.0544 -0.5273
 8416SOL    HW136884   2.111   4.456   2.278  0.1876 -0.3000 -0.1681
 8416SOL    HW236885   2.039   4.535   2.389  0.7821  1.1540 -2.9446
 8417SOL     OW36886   0.776   0.450   0.865 -0.4274  0.0347 -0.5092
 8417SOL    HW136887   0.835   0.400   0.809 -1.7764 -1.8832 -0.2347
 8417SOL    HW236888   0.785   0.428   0.958  1.3918  0.9010 -0.4955
 8418SOL     OW36889   0.249   3.196   3.529  0.1140  0.3650  0.3824
 8418SOL    HW136890   0.192   3.148   3.469 -2.0514  3.4531 -0.0403
 8418SOL    HW236891   0.290   3.257   3.467 -0.3139 -0.7604 -0.9880
 8419SOL     OW36892   2.229   0.829  10.984  0.3264 -0.0932  0.1705
 8419SOL    HW136893   2.205   0.916  11.016  2.5356  0.4585  0.3108
 8419SOL    HW236894   2.181   0.835  10.901 -0.5274 -1.3416  0.5716
 8420SOL     OW36895   2.615   4.463  14.907 -0.6326 -0.4085 -0.0595
 8420SOL    HW136896   2.587   4.482  14.817 -1.2263 -1.7411 -0.1629
 8420SOL    HW236897   2.606   4.368  14.910 -0.3669 -0.4213  0.3334
 8421SOL     OW36898   2.042   3.539   7.059 -0.4999  0.3579 -0.6926
 8421SOL    HW136899   2.064   3.472   7.123  0.4051  3.7439  2.5123
 8421SOL    HW236900   1.973   3.497   7.007 -0.7357 -0.4785  0.3149
 8422SOL     OW36901   1.810   3.146   0.525  0.1694 -0.4103 -0.3762
 8422SOL    HW136902   1.785   3.145   0.433  1.3128  1.0047 -0.7026
 8422SOL    HW236903   1.759   3.074   0.561 -0.1408  0.0464  0.1016
 8423SOL     OW36904   1.629   4.572   5.535  0.3235 -0.1817  0.9425
 8423SOL    HW136905   1.591   4.632   5.470 -1.3494 -0.3583  1.7460
 8423SOL    HW236906   1.655   4.643   5.594  1.2646 -0.4500  0.8428
 8424SOL     OW36907   3.761   3.242  15.024 -0.3860  0.0649 -0.5567
 8424SOL    HW136908   3.692   3.303  15.046 -1.4311 -1.4151  0.2790
 8424SOL    HW236909   3.823   3.254  15.096 -0.0008 -2.4758 -0.4573
 8425SOL     OW36910   0.573   3.559   2.971  0.1716 -0.4582 -0.0237
 8425SOL    HW136911   0.569   3.584   2.878  0.5958 -1.2343 -0.2519
 8425SOL    HW236912   0.602   3.642   3.009 -0.0988 -0.6350  0.5542
 8426SOL     OW36913   3.284   0.309   9.424  0.1290  0.6019  0.8078
 8426SOL    HW136914   3.315   0.288   9.336 -1.7500 -0.4679  0.3910
 8426SOL    HW236915   3.248   0.225   9.453 -1.9985  1.0030 -0.6611
 8427SOL     OW36916   3.987   1.863   7.133  0.0232 -0.1230 -0.2773
 8427SOL    HW136917   4.049   1.797   7.165  1.8764  0.4103 -2.7967
 8427SOL    HW236918   4.034   1.945   7.119 -1.3701  0.5757 -0.8772
 8428SOL     OW36919   0.198   1.974   5.571 -0.1345  0.0436 -0.2683
 8428SOL    HW136920   0.202   1.881   5.546 -2.0506 -0.2021  0.3524
 8428SOL    HW236921   0.107   1.994   5.551  0.1260  1.8322  0.4034
 8429SOL     OW36922   1.666   0.413   5.640 -0.1033  0.2832  0.5247
 8429SOL    HW136923   1.581   0.455   5.631  0.0754  0.8026  1.2563
 8429SOL    HW236924   1.688   0.405   5.547  2.2547  1.7855  0.9543
 8430SOL     OW36925   0.228   2.677   6.216  0.1232  0.5502 -0.0612
 8430SOL    HW136926   0.175   2.597   6.204  0.1838  0.6802 -1.2266
 8430SOL    HW236927   0.266   2.688   6.129 -0.8240  1.1891 -0.3959
 8431SOL     OW36928   1.020   0.134   1.760  0.8397  0.0319  0.2559
 8431SOL    HW136929   0.970   0.133   1.842 -0.7739  0.4879 -0.7351
 8431SOL    HW236930   0.947   0.127   1.699  1.5452 -1.8177 -0.3646
 8432SOL     OW36931   3.918   0.714   5.001 -0.4236 -0.3911  0.0883
 8432SOL    HW136932   3.913   0.682   4.911 -1.6815 -3.1859  1.1766
 8432SOL    HW236933   3.826   0.733   5.018 -0.3030 -1.2650  1.7326
 8433SOL     OW36934   1.996   0.228   7.826  0.1907  0.0944  0.1052
 8433SOL    HW136935   2.076   0.197   7.783 -0.0448  1.5854 -1.4032
 8433SOL    HW236936   1.984   0.156   7.888  0.3732  1.0202  1.2246
 8434SOL     OW36937   3.470   2.961  11.773 -0.3005 -0.3970  0.6439
 8434SOL    HW136938   3.480   2.873  11.735 -2.4287  0.1667 -1.1916
 8434SOL    HW236939   3.472   2.955  11.869  0.8251 -1.1628  0.5780
 8435SOL     OW36940   4.671   2.044   2.487  0.2116 -0.0721  0.2980
 8435SOL    HW136941   0.007   2.017   2.434  0.1254 -0.3843  0.3330
 8435SOL    HW236942   4.698   2.019   2.575  0.5001 -0.6553  0.0394
 8436SOL     OW36943   4.531   1.508  12.622 -0.4248 -0.1859  0.2418
 8436SOL    HW136944   4.553   1.582  12.678 -1.0019 -0.1352  0.3987
 8436SOL    HW236945   4.442   1.486  12.650  0.2280 -1.2242  1.5156
 8437SOL     OW36946   3.288   4.495   3.737  0.1176  0.1337  0.1530
 8437SOL    HW136947   3.283   4.570   3.677  1.4184  0.3131  0.2563
 8437SOL    HW236948   3.351   4.439   3.691 -2.2101 -0.4118 -2.4034
 8438SOL     OW36949   2.127   3.825   8.493  0.1605  0.5713 -0.0108
 8438SOL    HW136950   2.188   3.781   8.552 -2.0745 -0.4109  1.5800
 8438SOL    HW236951   2.066   3.860   8.559 -0.2443  0.6842 -0.4455
 8439SOL     OW36952   0.436   2.211   2.839  0.1213  0.3625  0.1840
 8439SOL    HW136953   0.474   2.213   2.751  0.2582  2.0307  0.2876
 8439SOL    HW236954   0.405   2.120   2.833 -0.0196  0.4871 -1.0356
 8440SOL     OW36955   4.658   1.202   8.238 -0.0665  0.0745  0.5635
 8440SOL    HW136956   4.688   1.147   8.310 -1.2883  3.3848  3.6043
 8440SOL    HW236957   4.569   1.168   8.229  0.5439 -1.1134 -1.0287
 8441SOL     OW36958   0.328   4.176   2.216  0.3260 -0.1735  0.0368
 8441SOL    HW136959   0.384   4.246   2.183  0.9507 -1.0444 -0.7164
 8441SOL    HW236960   0.241   4.215   2.204  0.7605 -0.1575 -3.0251
 8442SOL     OW36961   1.142   1.092   6.739  0.0040 -0.1544  0.4097
 8442SOL    HW136962   1.164   1.018   6.796 -0.6705 -1.3664 -0.9077
 8442SOL    HW236963   1.053   1.095   6.773 -0.4754  0.8480 -0.9157
 8443SOL     OW36964   3.325   1.991   5.131  0.3384 -0.3200 -0.0969
 8443SOL    HW136965   3.312   2.041   5.051 -0.7792 -0.7701 -0.2014
 8443SOL    HW236966   3.320   1.899   5.108  0.1046 -0.3556  0.0848
 8444SOL     OW36967   2.981   0.276  16.129  0.1289  0.5852 -0.1546
 8444SOL    HW136968   3.071   0.244  16.138 -0.2067  0.0592  1.2280
 8444SOL    HW236969   2.941   0.248  16.211 -0.6116  0.3851 -0.5855
 8445SOL     OW36970   1.244   2.043   4.695  0.1861  0.7071 -0.0787
 8445SOL    HW136971   1.264   2.132   4.725 -0.7084  1.3298 -1.3604
 8445SOL    HW236972   1.154   2.060   4.667  0.6133  0.8431 -1.3386
 8446SOL     OW36973   2.707   1.385   9.510 -0.7834 -0.0745  0.4587
 8446SOL    HW136974   2.763   1.330   9.564  0.8056  1.1943  0.1016
 8446SOL    HW236975   2.628   1.330   9.505 -0.5029 -0.3283 -1.1345
 8447SOL     OW36976   4.381   3.043   1.899  0.0989 -0.5457  0.0023
 8447SOL    HW136977   4.356   3.077   1.813 -0.3611 -1.5064 -0.2426
 8447SOL    HW236978   4.319   2.974   1.921 -2.8044  1.2992 -2.3833
 8448SOL     OW36979   1.085   3.039   7.106  0.2499  0.0376  0.2115
 8448SOL    HW136980   0.995   3.011   7.091  0.3026  0.9703 -1.8000
 8448SOL    HW236981   1.070   3.133   7.107  2.9488  0.4608  0.6357
 8449SOL     OW36982   2.946   3.555  11.417  0.1025  0.0146  0.2245
 8449SOL    HW136983   2.858   3.517  11.425 -0.8658  1.6138 -3.1739
 8449SOL    HW236984   2.927   3.601  11.335  2.4871  0.2620 -0.2026
 8450SOL     OW36985   2.528   3.208   8.911 -0.0764 -0.3258  0.3120
 8450SOL    HW136986   2.433   3.202   8.905 -0.2381  3.2773 -1.2861
 8450SOL    HW236987   2.557   3.186   8.822 -1.0069 -1.0882  0.2068
 8451SOL     OW36988   1.336   1.075  11.784  0.3180  0.3761  0.0605
 8451SOL    HW136989   1.283   1.147  11.748  0.8055  0.7115  0.0223
 8451SOL    HW236990   1.422   1.116  11.777  1.0132 -1.4020 -1.5161
 8452SOL     OW36991   0.524   1.384   3.207 -0.2687 -0.1644  0.0738
 8452SOL    HW136992   0.445   1.400   3.259 -0.5616  0.9094 -0.6996
 8452SOL    HW236993   0.523   1.461   3.150 -1.8633 -1.4587 -1.6413
 8453SOL     OW36994   3.753   2.589   7.186 -0.6260 -0.1065 -0.7870
 8453SOL    HW136995   3.835   2.545   7.163  0.0297  1.4517 -1.4090
 8453SOL    HW236996   3.741   2.648   7.112  3.1714  0.5869 -0.8336
 8454SOL     OW36997   4.639   0.267   3.974  0.1329 -0.0726  0.1750
 8454SOL    HW136998   4.576   0.246   3.905 -0.9947 -0.3939  1.3009
 8454SOL    HW236999   4.721   0.234   3.938 -0.8192 -1.2996 -0.8995
 8455SOL     OW37000   4.117   3.483   3.722  0.1475  0.3007  0.3900
 8455SOL    HW137001   4.050   3.421   3.751  0.1142  1.0571  1.9481
 8455SOL    HW237002   4.070   3.566   3.724  0.3338  0.4413 -1.6554
 8456SOL     OW37003   1.687   2.255  13.181 -0.5746 -0.3906 -0.2738
 8456SOL    HW137004   1.631   2.179  13.169 -0.4226 -0.6861  0.8284
 8456SOL    HW237005   1.768   2.212  13.209 -0.8130 -0.3823  0.4439
 8457SOL     OW37006   1.614   3.351   9.313 -0.6671 -0.5596  0.0673
 8457SOL    HW137007   1.608   3.376   9.221  1.6733 -3.3094 -0.8461
 8457SOL    HW237008   1.522   3.336   9.331 -0.3013  0.2495  2.5655
 8458SOL     OW37009   0.150   3.719   7.796 -0.1639  0.7406  0.4681
 8458SOL    HW137010   0.228   3.666   7.808  0.3930  1.3055 -0.6751
 8458SOL    HW237011   0.138   3.718   7.701  1.7340  1.1921  0.2188
 8459SOL     OW37012   0.037   0.758  17.431  0.1626  0.5701  0.1468
 8459SOL    HW137013   0.130   0.746  17.450 -0.0818 -0.1840  0.8496
 8459SOL    HW237014   0.039   0.781  17.338 -1.7646  1.0561  0.2117
 8460SOL     OW37015   3.144   1.673   8.622 -0.2925 -0.9060  0.4457
 8460SOL    HW137016   3.057   1.712   8.629  0.2966  0.6649 -0.9408
 8460SOL    HW237017   3.193   1.714   8.693  2.0816  0.3561 -1.8900
 8461SOL     OW37018   0.304   4.246  14.000 -0.0632  0.3251  0.3057
 8461SOL    HW137019   0.220   4.291  14.012 -0.1946  0.4230 -0.9462
 8461SOL    HW237020   0.279   4.187  13.928  0.1636 -0.3104  0.7468
 8462SOL     OW37021   0.092   4.043   8.586 -0.3624  0.7416 -0.1192
 8462SOL    HW137022   0.032   4.013   8.655  0.7641 -0.0253  0.5340
 8462SOL    HW237023   0.077   3.964   8.535  3.4585 -1.3357  2.0243
 8463SOL     OW37024   1.021   4.470   3.750 -0.2349 -0.1701 -0.2630
 8463SOL    HW137025   0.935   4.433   3.731 -1.7196  1.7077  2.7696
 8463SOL    HW237026   1.029   4.457   3.845  0.4804 -0.9234 -0.4257
 8464SOL     OW37027   1.678   1.204  17.665 -0.1514  0.0465 -0.3473
 8464SOL    HW137028   1.693   1.236  17.753  3.2238  1.6596 -1.5240
 8464SOL    HW237029   1.592   1.162  17.668  0.0055 -0.0730  2.1323
 8465SOL     OW37030   3.424   2.807   6.719 -0.1985 -0.4553 -0.1568
 8465SOL    HW137031   3.500   2.765   6.679  0.6904  0.5484  0.5100
 8465SOL    HW237032   3.467   2.879   6.765 -0.9936  0.4332 -0.8268
 8466SOL     OW37033   4.579   2.671   5.973 -0.2963  0.0469  0.4977
 8466SOL    HW137034   4.577   2.604   5.905 -0.1277  1.3868 -0.8199
 8466SOL    HW237035   4.488   2.695   5.993 -1.3432 -1.6597 -2.1708
 8467SOL     OW37036   3.479   2.405   7.134  0.0750  0.7068  0.5150
 8467SOL    HW137037   3.463   2.492   7.098 -1.0047 -0.2382 -1.2627
 8467SOL    HW237038   3.574   2.408   7.130  0.0224 -0.9674 -1.5024
 8468SOL     OW37039   0.239   3.477   0.772 -0.0473  0.4459 -0.3855
 8468SOL    HW137040   0.225   3.383   0.758  0.6244  0.4885 -1.3243
 8468SOL    HW237041   0.209   3.510   0.687 -0.2157 -1.3113 -1.0022
 8469SOL     OW37042   3.717   0.674   3.079 -0.4029 -0.4975 -0.2323
 8469SOL    HW137043   3.696   0.626   3.159  2.0044 -1.6440 -0.2748
 8469SOL    HW237044   3.799   0.718   3.101  0.4688 -1.5814 -1.3569
 8470SOL     OW37045   0.898   2.124   6.823  0.6120  0.0329 -0.1672
 8470SOL    HW137046   0.886   2.048   6.880 -0.7525 -0.5392 -1.2354
 8470SOL    HW237047   0.899   2.199   6.882  2.5640  1.0867 -1.5321
 8471SOL     OW37048   0.268   3.622   8.436 -0.1901  0.2575 -0.1012
 8471SOL    HW137049   0.333   3.645   8.370  0.0812  0.9480  0.4149
 8471SOL    HW237050   0.192   3.653   8.387 -1.7911  0.6363  2.6139
 8472SOL     OW37051   3.449   0.047   9.189 -0.4699 -0.1956  0.3835
 8472SOL    HW137052   3.464   0.140   9.203  2.9023 -0.4788 -1.2041
 8472SOL    HW237053   3.541   0.024   9.198 -0.7292 -1.4387 -0.0579
 8473SOL     OW37054   3.032   1.411   6.501  0.3916  0.5403  0.0677
 8473SOL    HW137055   3.095   1.374   6.563 -2.0631 -1.9098  1.0727
 8473SOL    HW237056   3.010   1.493   6.545 -1.6432  1.7410 -3.1391
 8474SOL     OW37057   2.921   3.006  14.604  0.1594 -0.2983 -0.1016
 8474SOL    HW137058   2.914   2.940  14.673  0.2131  1.2978  1.4050
 8474SOL    HW237059   2.933   2.948  14.528 -0.3229 -0.7253  0.1463
 8475SOL     OW37060   1.525   2.235  12.605  0.6517 -0.2452 -0.3834
 8475SOL    HW137061   1.484   2.161  12.651  2.5326 -0.2170  1.3157
 8475SOL    HW237062   1.601   2.234  12.663  0.6415 -2.2940 -0.3877
 8476SOL     OW37063   1.804   4.698  12.567  0.1473  0.2705  0.0401
 8476SOL    HW137064   1.710   4.680  12.568 -0.2210  2.1854  0.3502
 8476SOL    HW237065   1.820   4.702  12.473 -0.3924  1.7201  0.0137
 8477SOL     OW37066   0.069   1.217  10.864 -0.0464  0.5233  0.4646
 8477SOL    HW137067   0.161   1.243  10.865 -0.3215  1.5114  0.1561
 8477SOL    HW237068   0.021   1.299  10.856 -0.3682  0.2760 -0.0709
 8478SOL     OW37069   0.637   3.063  16.429 -0.3843  0.0995 -0.2817
 8478SOL    HW137070   0.714   3.008  16.444 -0.2560  0.6644  1.1201
 8478SOL    HW237071   0.564   3.001  16.440  1.1371 -1.4620  1.0390
 8479SOL     OW37072   1.594   3.052   4.891 -0.0777 -0.1370  0.0670
 8479SOL    HW137073   1.596   3.137   4.847 -0.9897  1.0779  2.3513
 8479SOL    HW237074   1.580   3.006   4.809  0.5255  1.0515 -0.6965
 8480SOL     OW37075   1.228   3.221   8.600  0.5303  0.5524 -0.7052
 8480SOL    HW137076   1.317   3.188   8.589  0.6691  0.7935 -0.3044
 8480SOL    HW237077   1.183   3.191   8.522 -1.6079  0.4718  0.5447
 8481SOL     OW37078   4.140   2.505   6.285 -0.1369  0.1415 -0.1835
 8481SOL    HW137079   4.050   2.480   6.306 -0.0800 -0.2196 -0.3729
 8481SOL    HW237080   4.129   2.523   6.192  0.4172 -0.5596 -0.3874
 8482SOL     OW37081   4.600   0.590   4.761  0.2445 -0.1683  0.3962
 8482SOL    HW137082   4.610   0.528   4.834  2.3646 -0.0570  0.1975
 8482SOL    HW237083   4.548   0.538   4.699  3.2418 -0.4568 -1.8370
 8483SOL     OW37084   3.251   4.220   9.269  0.2246  0.0128 -0.1929
 8483SOL    HW137085   3.322   4.189   9.326 -1.1768  1.1565  2.1668
 8483SOL    HW237086   3.291   4.305   9.251  0.2562  0.1468  0.4990
 8484SOL     OW37087   0.411   3.140   8.638 -0.1373 -0.5922  0.2350
 8484SOL    HW137088   0.375   3.058   8.670  0.5478 -1.1606 -0.4603
 8484SOL    HW237089   0.501   3.119   8.612 -0.9604 -2.8758 -0.7783
 8485SOL     OW37090   4.115   2.569   3.058 -0.2894  0.4961  0.1382
 8485SOL    HW137091   4.179   2.582   3.127  1.0939  1.4490 -1.3185
 8485SOL    HW237092   4.040   2.548   3.113  0.8406  1.4694  2.0250
 8486SOL     OW37093   0.737   4.170  11.228  0.6032  0.0490  0.4594
 8486SOL    HW137094   0.675   4.148  11.297  1.8228 -1.1673  1.1792
 8486SOL    HW237095   0.719   4.262  11.208  0.1866 -0.6947 -2.5963
 8487SOL     OW37096   2.084   4.024   2.695 -0.0414 -0.3590 -0.1582
 8487SOL    HW137097   2.062   4.104   2.647 -0.4876  0.4248  1.3494
 8487SOL    HW237098   2.179   4.029   2.698 -0.1408  0.7981  1.3953
 8488SOL     OW37099   0.438   0.517   2.252 -0.5132  0.2265 -0.1341
 8488SOL    HW137100   0.487   0.436   2.243  0.9909  0.9042  2.2599
 8488SOL    HW237101   0.423   0.523   2.157  3.0099  0.4397 -0.6800
 8489SOL     OW37102   3.138   4.020   0.627  0.0179 -0.2807 -0.9644
 8489SOL    HW137103   3.099   3.938   0.598 -0.7794 -0.1707 -0.1886
 8489SOL    HW237104   3.217   4.021   0.572 -0.3291  0.0147 -1.4586
 8490SOL     OW37105   3.912   4.166  15.388  0.1079 -0.4691  0.3630
 8490SOL    HW137106   4.005   4.168  15.411  0.4102 -3.4004 -0.5384
 8490SOL    HW237107   3.923   4.145  15.296  0.6322 -0.0605  0.3350
 8491SOL     OW37108   0.555   3.597   1.793  0.3090  0.5722  0.1965
 8491SOL    HW137109   0.509   3.630   1.871  1.0108  0.5461  0.6291
 8491SOL    HW237110   0.517   3.511   1.777  0.1820  0.1923  2.4823
 8492SOL     OW37111   1.050   4.525   5.935 -0.3193  0.5762 -0.4942
 8492SOL    HW137112   1.034   4.616   5.909 -2.8873  0.1496 -0.4109
 8492SOL    HW237113   1.131   4.528   5.987 -0.3195  0.5714 -0.4936
 8493SOL     OW37114   3.278   0.680   2.884  0.0741 -0.2294  0.3085
 8493SOL    HW137115   3.248   0.640   2.803  0.0106  0.3906  0.0300
 8493SOL    HW237116   3.194   0.696   2.927 -0.0089  0.9093 -0.2760
 8494SOL     OW37117   1.515   3.498  10.240 -0.1838  0.3274  0.1147
 8494SOL    HW137118   1.458   3.513  10.165  1.5789  0.1045 -1.2493
 8494SOL    HW237119   1.515   3.582  10.286 -0.2410  1.8142 -2.5913
 8495SOL     OW37120   3.612   1.820  11.942 -1.0777 -0.1800 -0.1537
 8495SOL    HW137121   3.636   1.864  12.024 -1.1515 -3.1829  1.5064
 8495SOL    HW237122   3.552   1.754  11.979 -0.4362 -1.5535 -1.5880
 8496SOL     OW37123   2.602   2.649   6.544 -0.3281 -0.3666 -0.1835
 8496SOL    HW137124   2.576   2.733   6.582  2.2714  0.7627 -0.8553
 8496SOL    HW237125   2.698   2.653   6.548 -0.2864 -1.0943 -0.4596
 8497SOL     OW37126   1.108   3.010  14.076  0.4603  0.4017  0.0364
 8497SOL    HW137127   1.019   3.037  14.097  0.4384 -2.1347  3.2740
 8497SOL    HW237128   1.165   3.086  14.089  1.5303  0.0413 -2.4293
 8498SOL     OW37129   2.651   0.995   2.150 -0.0251  0.0619 -0.9107
 8498SOL    HW137130   2.684   1.050   2.079  0.2168  0.8264 -0.2068
 8498SOL    HW237131   2.597   1.052   2.205 -0.3945  0.6032 -1.8341
 8499SOL     OW37132   4.466   4.569   8.357 -0.0640 -0.0194  0.2903
 8499SOL    HW137133   4.380   4.608   8.341 -0.3642 -0.9422 -0.3692
 8499SOL    HW237134   4.513   4.644   8.392  0.3540  0.2621 -0.8831
 8500SOL     OW37135   2.139   3.912   7.756 -0.1483  0.1447  0.4312
 8500SOL    HW137136   2.186   3.987   7.793  0.8978  0.6230 -1.8614
 8500SOL    HW237137   2.055   3.918   7.800 -0.3705 -0.7976  0.1385
 8501SOL     OW37138   1.400   3.443   7.353  0.0450  0.1295 -0.1151
 8501SOL    HW137139   1.446   3.517   7.393  0.3093 -0.2365  0.2607
 8501SOL    HW237140   1.460   3.368   7.352  0.0373  0.1452 -2.1938
 8502SOL     OW37141   1.753   2.895   6.460  0.2990 -0.0573  0.1758
 8502SOL    HW137142   1.824   2.960   6.454 -0.6872  1.2656  2.4659
 8502SOL    HW237143   1.684   2.936   6.512 -0.4685 -1.9317  0.6268
 8503SOL     OW37144   1.438   0.968   7.234  0.1474 -0.6986  0.5051
 8503SOL    HW137145   1.349   0.946   7.207  0.6069 -0.3173 -1.2955
 8503SOL    HW237146   1.439   1.058   7.200  1.0564 -0.1937  1.8574
 8504SOL     OW37147   4.086   1.030   6.425 -0.2255 -0.0054  0.1484
 8504SOL    HW137148   4.024   0.965   6.392  1.9675 -1.3156 -1.3961
 8504SOL    HW237149   4.125   0.986   6.500 -1.4068 -1.1070  0.1106
 8505SOL     OW37150   4.677   4.637   3.532 -0.1089  0.3651  0.3003
 8505SOL    HW137151   4.606   4.682   3.487 -0.3668 -0.5365 -0.1951
 8505SOL    HW237152   4.627   4.582   3.592 -1.0680  1.6183  0.6380
 8506SOL     OW37153   1.549   2.095   6.972  0.5148  0.1364  0.0985
 8506SOL    HW137154   1.478   2.137   6.923 -0.7730 -1.8319  0.2690
 8506SOL    HW237155   1.592   2.061   6.893 -3.0188 -0.3582 -1.6119
 8507SOL     OW37156   2.827   0.648   5.263  0.5551  0.2407  0.7317
 8507SOL    HW137157   2.771   0.657   5.340 -0.1123 -0.5745  0.3386
 8507SOL    HW237158   2.850   0.740   5.252  1.5212 -0.3404 -2.1968
 8508SOL     OW37159   0.872   2.790   2.353 -0.4331  0.4433 -0.3876
 8508SOL    HW137160   0.954   2.741   2.347 -0.0958  0.9590  0.0061
 8508SOL    HW237161   0.901   2.868   2.304 -0.2785  0.7283  0.1589
 8509SOL     OW37162   1.570   0.443   6.631 -0.5043 -0.0553  0.2666
 8509SOL    HW137163   1.532   0.496   6.561 -1.5617 -0.8690  0.2316
 8509SOL    HW237164   1.508   0.447   6.704 -0.5291  0.4150  0.2223
 8510SOL     OW37165   1.144   2.014   8.629 -0.1291  0.5999  0.8182
 8510SOL    HW137166   1.221   1.963   8.604 -2.0827 -1.6576 -0.6281
 8510SOL    HW237167   1.176   2.037   8.716 -1.6577  0.3258  1.4626
 8511SOL     OW37168   1.255   3.177   2.641 -0.1638  0.1297  0.3890
 8511SOL    HW137169   1.330   3.233   2.618 -1.3161  1.2514 -0.6267
 8511SOL    HW237170   1.238   3.145   2.552  2.2262 -0.5744  0.1674
 8512SOL     OW37171   1.984   0.830   4.555  0.1451  0.6771 -0.2654
 8512SOL    HW137172   1.891   0.849   4.559 -0.6879 -3.0115 -1.9355
 8512SOL    HW237173   2.026   0.914   4.535 -0.7084  1.1954  0.1245
 8513SOL     OW37174   1.368   4.635  12.868 -0.4211 -0.1850 -0.1816
 8513SOL    HW137175   1.277   4.658  12.889  0.0420  0.7105  0.8545
 8513SOL    HW237176   1.417   4.695  12.924 -1.2467 -0.8136  1.2242
 8514SOL     OW37177   0.416   0.690   2.937  0.2098 -0.6712  0.4184
 8514SOL    HW137178   0.375   0.713   2.854 -0.9249 -0.1891  1.1090
 8514SOL    HW237179   0.448   0.602   2.918 -1.2245 -1.4035  1.3758
 8515SOL     OW37180   4.195   4.145  17.265 -0.2677 -0.0352 -0.0436
 8515SOL    HW137181   4.152   4.059  17.265 -1.0125  0.3396 -0.4371
 8515SOL    HW237182   4.129   4.197  17.311  0.2788 -1.0817  1.9494
 8516SOL     OW37183   0.446   4.228   1.861 -0.1744 -0.1812  0.9189
 8516SOL    HW137184   0.501   4.299   1.825 -0.2945  0.5186  2.1238
 8516SOL    HW237185   0.410   4.268   1.940 -0.0783  1.0568  0.3484
 8517SOL     OW37186   1.273   3.405  14.627 -0.4466 -0.8421 -0.3849
 8517SOL    HW137187   1.201   3.428  14.686 -1.1687  0.0481 -1.6290
 8517SOL    HW237188   1.353   3.423  14.678 -0.8701  1.3999 -0.5619
 8518SOL     OW37189   2.901   0.163  13.076 -0.0477  0.1964 -1.1211
 8518SOL    HW137190   2.934   0.151  13.165 -0.9991 -4.2521 -1.3701
 8518SOL    HW237191   2.833   0.095  13.077  1.5726 -1.4432 -1.7006
 8519SOL     OW37192   1.510   2.837  11.957 -0.7487  0.3561  0.0551
 8519SOL    HW137193   1.577   2.768  11.957  0.5246  1.5782  0.1642
 8519SOL    HW237194   1.436   2.792  11.917 -1.4690  0.9459  0.7398
 8520SOL     OW37195   2.621   3.107  10.722  0.8384  0.1478 -0.4410
 8520SOL    HW137196   2.636   3.016  10.749  2.3084  0.4591 -0.2103
 8520SOL    HW237197   2.649   3.163  10.793 -0.1432  1.9628 -1.4723
 8521SOL     OW37198   3.035   2.104   8.521 -0.4618 -0.0368 -0.4388
 8521SOL    HW137199   3.128   2.084   8.527 -0.4610  0.5530  1.5195
 8521SOL    HW237200   3.022   2.182   8.467 -1.2232 -1.6292 -2.5831
 8522SOL     OW37201   1.546   4.418   0.095 -0.2378  0.2391  0.0809
 8522SOL    HW137202   1.599   4.498   0.100  0.2385 -0.0911  0.3159
 8522SOL    HW237203   1.472   4.432   0.155 -1.0708  1.7331 -1.2998
 8523SOL     OW37204   4.246   2.389   4.746 -0.3917  0.0591  0.2670
 8523SOL    HW137205   4.305   2.313   4.746  0.2352  0.5464  0.1355
 8523SOL    HW237206   4.302   2.457   4.708 -1.2335  0.2087 -0.7203
 8524SOL     OW37207   4.507   0.310   8.200  0.2622 -0.5503  0.6923
 8524SOL    HW137208   4.601   0.300   8.182  0.1365 -2.9570  1.3724
 8524SOL    HW237209   4.519   0.357   8.282  0.7011  0.0754  0.2678
 8525SOL     OW37210   1.227   0.430   8.529 -0.2320  0.3992  0.0159
 8525SOL    HW137211   1.189   0.518   8.531  0.6823  0.8364 -1.9072
 8525SOL    HW237212   1.149   0.381   8.555 -0.4499  1.1557  0.7960
 8526SOL     OW37213   0.100   2.901   9.242 -0.4766  0.4484 -1.0227
 8526SOL    HW137214   0.149   2.929   9.320  1.6502 -5.8207 -0.0793
 8526SOL    HW237215   0.008   2.899   9.267 -0.4322 -1.1466 -1.0198
 8527SOL     OW37216   3.852   4.665   7.693 -0.3013  0.0901 -0.2326
 8527SOL    HW137217   3.902   4.630   7.767 -1.6242 -0.7145  0.2795
 8527SOL    HW237218   3.775   4.611   7.708  0.7070 -1.5929 -1.1289
 8528SOL     OW37219   2.845   3.302  10.816 -0.1324  0.2435 -0.5836
 8528SOL    HW137220   2.931   3.337  10.794  1.0910 -1.5677  1.3903
 8528SOL    HW237221   2.795   3.346  10.747  0.3231 -1.3166 -1.9014
 8529SOL     OW37222   0.806   1.647   5.871 -0.6088  0.0339 -0.0146
 8529SOL    HW137223   0.852   1.606   5.944 -0.1162  0.4863 -0.0757
 8529SOL    HW237224   0.867   1.645   5.798  0.5143 -0.9768  0.9574
 8530SOL     OW37225   2.893   3.862   1.737  0.2078 -0.1549  0.5251
 8530SOL    HW137226   2.913   3.955   1.731 -1.2148  0.1394  0.3015
 8530SOL    HW237227   2.801   3.865   1.761 -0.1541 -0.1392 -0.8572
 8531SOL     OW37228   4.028   0.608   0.827  0.2865  0.3498 -0.1484
 8531SOL    HW137229   4.060   0.621   0.738  2.2091 -2.7098  0.0937
 8531SOL    HW237230   3.979   0.687   0.850 -0.7628 -0.5127  0.6055
 8532SOL     OW37231   3.534   2.594   3.351  0.5507  0.2883  0.0404
 8532SOL    HW137232   3.480   2.654   3.300  2.0016 -0.0675 -1.9156
 8532SOL    HW237233   3.521   2.621   3.442  1.4834  0.0153  0.2619
 8533SOL     OW37234   0.151   3.720   9.103 -0.4660  0.0336  0.1511
 8533SOL    HW137235   0.140   3.803   9.056  1.1647 -0.6051 -1.3508
 8533SOL    HW237236   0.207   3.756   9.172 -0.1195 -1.7675  0.7982
 8534SOL     OW37237   2.357   2.344   1.348 -1.0972 -0.4722 -0.1356
 8534SOL    HW137238   2.377   2.274   1.285 -0.8670 -0.7432  0.2372
 8534SOL    HW237239   2.264   2.326   1.362 -1.2358  0.7652  0.5217
 8535SOL     OW37240   2.063   1.500   5.704 -0.2255 -0.2164 -0.1879
 8535SOL    HW137241   2.045   1.588   5.736 -0.1909 -0.0102 -0.7277
 8535SOL    HW237242   2.154   1.517   5.681  0.5070 -2.0977  1.2873
 8536SOL     OW37243   0.273   2.140  14.082  0.2543  0.0137 -0.5765
 8536SOL    HW137244   0.210   2.140  14.010  1.8887  0.1212 -1.9966
 8536SOL    HW237245   0.302   2.231  14.082 -2.6881  0.9525 -3.0409
 8537SOL     OW37246   2.554   0.261   7.403 -0.1977 -0.2396  0.1435
 8537SOL    HW137247   2.599   0.235   7.483  1.1134 -1.2200 -0.9140
 8537SOL    HW237248   2.619   0.325   7.375 -0.6703 -0.4977 -1.5973
 8538SOL     OW37249   0.400   2.537  11.453 -0.5219 -0.9176  0.2257
 8538SOL    HW137250   0.461   2.484  11.504  0.5178 -0.9781 -1.0604
 8538SOL    HW237251   0.459   2.610  11.435  0.0885 -1.6133 -0.5865
 8539SOL     OW37252   2.953   4.694  13.915  0.7561  0.0900  0.5581
 8539SOL    HW137253   2.988   4.716  14.001  1.3823 -0.7782  0.5282
 8539SOL    HW237254   2.951   0.039  13.871  0.6030  0.0631  0.5126
 8540SOL     OW37255   2.796   2.737   3.467 -0.2119  0.2473 -0.2533
 8540SOL    HW137256   2.760   2.663   3.517 -2.5009 -0.1354 -2.4525
 8540SOL    HW237257   2.744   2.813   3.492 -1.7611 -0.6579 -0.7250
 8541SOL     OW37258   1.707   1.311  16.826  0.2876  0.0825 -0.2172
 8541SOL    HW137259   1.774   1.265  16.876  0.5256  0.4552 -0.1860
 8541SOL    HW237260   1.642   1.242  16.815  2.1913 -1.8484  0.7622
 8542SOL     OW37261   1.791   0.086   1.756 -0.2778 -0.0521  0.1133
 8542SOL    HW137262   1.744   0.127   1.683 -0.7133 -0.7172  0.0171
 8542SOL    HW237263   1.718   0.044   1.802 -0.6902 -0.7379 -1.1672
 8543SOL     OW37264   3.852   3.038   6.798  0.1178  0.2127 -0.4514
 8543SOL    HW137265   3.917   3.064   6.863 -0.8776  0.0027  0.6254
 8543SOL    HW237266   3.866   2.945   6.781 -0.9245 -0.0617  0.1988
 8544SOL     OW37267   3.577   1.395   6.644 -0.0688  0.0468 -0.5202
 8544SOL    HW137268   3.608   1.485   6.640 -0.8792  0.2589 -2.3053
 8544SOL    HW237269   3.514   1.392   6.572 -0.8168 -3.8440  0.2704
 8545SOL     OW37270   3.845   0.187   8.611 -0.8983  0.1411 -0.0879
 8545SOL    HW137271   3.806   0.273   8.626 -1.8204  0.0276 -1.9134
 8545SOL    HW237272   3.784   0.160   8.543 -1.6112  0.2218  0.5169
 8546SOL     OW37273   4.065   4.539  11.198  0.8287  0.1441  0.3345
 8546SOL    HW137274   4.143   4.489  11.224  1.2384  0.0584 -1.0764
 8546SOL    HW237275   4.105   4.593  11.130  0.0625  1.3942  0.8673
 8547SOL     OW37276   1.609   4.144   1.610 -0.6009  0.3835  0.0833
 8547SOL    HW137277   1.567   4.214   1.561 -1.7428  0.5068  1.2435
 8547SOL    HW237278   1.700   4.171   1.598 -0.7499 -0.1483 -2.2702
 8548SOL     OW37279   3.167   1.837   4.403  0.6267  0.1981 -0.2268
 8548SOL    HW137280   3.084   1.884   4.410  0.8131  0.4281  0.5045
 8548SOL    HW237281   3.234   1.905   4.398  0.6433  0.0939 -1.3220
 8549SOL     OW37282   2.724   4.584  16.211  0.0601 -0.4619  0.8611
 8549SOL    HW137283   2.771   4.517  16.161  0.4941 -1.3847  2.4892
 8549SOL    HW237284   2.773   4.582  16.293  1.2346 -0.9038  0.1404
 8550SOL     OW37285   2.255   1.954   1.958 -0.2801  0.3406 -0.1537
 8550SOL    HW137286   2.347   1.945   1.934 -0.7253  0.0364 -1.7127
 8550SOL    HW237287   2.217   1.889   1.899  0.9680 -2.3149  1.9689
 8551SOL     OW37288   3.978   0.201   3.117  0.4038  0.4591 -0.4043
 8551SOL    HW137289   4.003   0.282   3.162 -0.7989  0.0859  0.9426
 8551SOL    HW237290   3.928   0.226   3.040  0.2108  0.6834 -0.2066
 8552SOL     OW37291   1.654   2.502  11.651  0.0889 -0.2138  0.6507
 8552SOL    HW137292   1.624   2.584  11.691  1.7286 -0.1224  1.6533
 8552SOL    HW237293   1.670   2.444  11.725 -1.2030 -2.7666 -1.0568
 8553SOL     OW37294   1.237   0.052   5.097 -0.3911 -0.7563  0.1759
 8553SOL    HW137295   1.254   4.716   5.042  2.0595 -1.3314  1.7247
 8553SOL    HW237296   1.243   0.019   5.187 -1.2371 -1.3459  0.0205
 8554SOL     OW37297   0.990   2.728  14.768  0.0003 -0.1091  0.4338
 8554SOL    HW137298   0.967   2.774  14.849 -0.6971  2.9959 -1.4872
 8554SOL    HW237299   0.909   2.730  14.716  0.1074  0.1711  0.2753
 8555SOL     OW37300   2.066   1.447   6.157  0.2119 -0.1853  0.4110
 8555SOL    HW137301   2.007   1.507   6.113  1.3005  0.5116 -0.1149
 8555SOL    HW237302   2.064   1.370   6.100 -0.9545 -0.2277  0.5225
 8556SOL     OW37303   1.398   4.167  16.246  0.3440  0.1638  0.2103
 8556SOL    HW137304   1.414   4.114  16.168  0.7104 -0.1759  0.5143
 8556SOL    HW237305   1.318   4.214  16.222  0.8671  0.9907  0.0773
 8557SOL     OW37306   2.868   1.938   6.863 -0.0871  0.1959 -0.4065
 8557SOL    HW137307   2.919   1.858   6.874 -0.5232  0.1234  1.0985
 8557SOL    HW237308   2.872   1.981   6.948  0.9350  2.2604 -1.5279
 8558SOL     OW37309   1.246   0.947   1.577  0.1574 -0.1634  0.2596
 8558SOL    HW137310   1.256   0.896   1.496  0.8527  1.4017 -0.6430
 8558SOL    HW237311   1.172   0.903   1.618 -0.5588  1.8312  1.1149
 8559SOL     OW37312   0.794   2.256   1.923  0.0649 -0.2395 -0.3610
 8559SOL    HW137313   0.782   2.164   1.947  0.5981 -0.7451 -2.0323
 8559SOL    HW237314   0.722   2.264   1.861 -1.1146 -0.2967  1.0047
 8560SOL     OW37315   2.108   1.723   9.434 -0.5847 -0.1549 -0.1464
 8560SOL    HW137316   2.191   1.675   9.438  0.1305  0.7884 -3.1947
 8560SOL    HW237317   2.129   1.799   9.378  0.5168  1.0596  1.9250
 8561SOL     OW37318   4.084   4.634  11.545 -0.3286  0.2097  0.3928
 8561SOL    HW137319   4.014   4.569  11.534  0.4755 -0.8164  1.2174
 8561SOL    HW237320   4.157   4.592  11.500  0.2788  0.0416  1.5325
 8562SOL     OW37321   0.210   1.244   3.373 -0.0093 -0.0010  0.3409
 8562SOL    HW137322   0.189   1.151   3.381 -0.4484  0.1283  0.6980
 8562SOL    HW237323   0.201   1.260   3.279 -0.8045  0.5690  0.5157
 8563SOL     OW37324   4.380   3.357   4.441  0.2172  0.3520 -0.1710
 8563SOL    HW137325   4.328   3.277   4.439 -0.0339  0.5423 -1.3241
 8563SOL    HW237326   4.323   3.431   4.462  0.5882 -0.1827  2.6775
 8564SOL     OW37327   2.012   1.829   3.965 -0.4214  0.1101  0.2085
 8564SOL    HW137328   2.089   1.781   3.996  1.5689  1.7664 -2.0797
 8564SOL    HW237329   1.935   1.777   3.985 -0.6670 -0.2917 -1.7905
 8565SOL     OW37330   1.242   0.001   8.509  0.0475 -0.0942  0.4080
 8565SOL    HW137331   1.233   4.661   8.456  2.9842  0.9592 -1.6683
 8565SOL    HW237332   1.329   0.026   8.478  0.3379 -0.8063  0.6539
 8566SOL     OW37333   1.213   2.459   8.023  0.4270 -0.6672 -0.7121
 8566SOL    HW137334   1.121   2.476   8.041  1.1089  4.1186 -1.7903
 8566SOL    HW237335   1.223   2.403   8.100  0.0364 -1.4551 -1.2428
 8567SOL     OW37336   2.092   0.486   7.865  0.3985  0.3897  0.2217
 8567SOL    HW137337   2.059   0.500   7.954 -0.7333  1.2825 -0.3311
 8567SOL    HW237338   2.035   0.412   7.845 -0.4640  0.8019  1.1742
 8568SOL     OW37339   0.482   0.197   5.843  0.4968  0.4858 -0.1899
 8568SOL    HW137340   0.402   0.152   5.816  0.3309 -0.2806  1.6154
 8568SOL    HW237341   0.464   0.199   5.937  0.5603 -2.3635 -0.1229
 8569SOL     OW37342   0.287   2.293   4.289 -0.4187  0.1894  0.2757
 8569SOL    HW137343   0.319   2.234   4.356 -0.5021 -0.3247 -0.1381
 8569SOL    HW237344   0.294   2.372   4.342 -4.1097  0.9176 -0.3363
 8570SOL     OW37345   2.308   2.855   6.438 -0.5295  0.0136 -0.7801
 8570SOL    HW137346   2.301   2.761   6.424 -2.4070  0.1745 -0.9795
 8570SOL    HW237347   2.378   2.857   6.504 -0.5696  2.9507 -0.8201
 8571SOL     OW37348   3.789   2.667   7.660  0.4740  0.2889  0.4945
 8571SOL    HW137349   3.765   2.677   7.568  2.1920  5.8230  0.6823
 8571SOL    HW237350   3.753   2.579   7.671 -1.5501  1.2023  1.2101
 8572SOL     OW37351   4.043   2.131   9.205  0.2602  0.2214  0.4762
 8572SOL    HW137352   4.005   2.108   9.290  0.5632  0.7784  0.7638
 8572SOL    HW237353   4.135   2.141   9.229  0.6757 -2.5146 -0.0146
 8573SOL     OW37354   0.739   1.917   8.886  0.2332 -0.0929 -0.4688
 8573SOL    HW137355   0.753   1.897   8.979  1.6903 -0.5787 -0.7949
 8573SOL    HW237356   0.823   1.893   8.847 -1.2093 -2.1459 -2.2891
 8574SOL     OW37357   1.234   0.356  13.985 -0.2668  0.0292 -0.6474
 8574SOL    HW137358   1.312   0.314  13.948 -0.8819 -0.8956 -0.8933
 8574SOL    HW237359   1.181   0.281  14.012 -1.0441  0.8978  0.2107
 8575SOL     OW37360   0.850   2.139   5.746 -0.2155 -0.1251  0.4173
 8575SOL    HW137361   0.856   2.073   5.677  0.2511  1.4853 -1.1086
 8575SOL    HW237362   0.880   2.098   5.827 -2.1280 -0.0331  1.1570
 8576SOL     OW37363   1.930   0.656  10.825 -0.0542 -0.7849 -0.0504
 8576SOL    HW137364   1.847   0.611  10.809 -0.1686 -0.1854 -1.1282
 8576SOL    HW237365   1.914   0.725  10.889  0.3817 -0.9807  0.2639
 8577SOL     OW37366   0.087   1.395   4.463 -0.2763 -0.4076  0.1106
 8577SOL    HW137367   4.735   1.386   4.439  0.4244 -3.2863 -1.5283
 8577SOL    HW237368   0.126   1.445   4.391  0.8671 -0.7246  0.4995
 8578SOL     OW37369   1.161   3.914   5.448  0.3037 -0.1495  0.0463
 8578SOL    HW137370   1.207   3.936   5.367 -1.5267  0.0892 -0.9322
 8578SOL    HW237371   1.219   3.954   5.512  1.2043 -0.3852 -0.6165
 8579SOL     OW37372   1.859   1.011   1.543 -0.2000  0.0111  0.2509
 8579SOL    HW137373   1.904   0.943   1.492 -0.7221 -0.8793  0.9755
 8579SOL    HW237374   1.904   1.008   1.627  1.8870  2.0164 -0.7875
 8580SOL     OW37375   0.370   3.056   7.623 -0.4649  0.9367 -0.2088
 8580SOL    HW137376   0.437   3.121   7.644  0.8401 -1.2870  2.5013
 8580SOL    HW237377   0.292   3.111   7.622 -0.5658  0.7429 -2.5194
 8581SOL     OW37378   2.816   0.665   8.464 -0.1820  0.0740  0.1278
 8581SOL    HW137379   2.760   0.657   8.541 -0.5831  0.5983 -0.1129
 8581SOL    HW237380   2.770   0.727   8.408 -3.0473 -0.1271  2.2783
 8582SOL     OW37381   3.202   2.160   9.150  0.2315 -0.2188 -0.0572
 8582SOL    HW137382   3.294   2.150   9.176  0.2656  1.7031  0.5853
 8582SOL    HW237383   3.159   2.178   9.234  1.3379 -0.1970  0.5093
 8583SOL     OW37384   3.960   2.466   7.077  0.6755 -0.6757 -0.4347
 8583SOL    HW137385   3.983   2.407   7.149 -0.0469 -2.6491 -1.8286
 8583SOL    HW237386   3.984   2.410   7.003 -0.4127  0.7921 -1.8753
 8584SOL     OW37387   2.805   1.396   6.167  0.1350  0.0180  0.1573
 8584SOL    HW137388   2.710   1.407   6.157  0.3102  1.3422 -0.0736
 8584SOL    HW237389   2.829   1.483   6.200 -1.8673 -0.4905  2.9764
 8585SOL     OW37390   3.028   1.316  10.212 -0.0456  0.1822  0.8117
 8585SOL    HW137391   3.040   1.408  10.235  2.3839  0.5025 -1.7928
 8585SOL    HW237392   3.052   1.287  10.300  0.4279 -2.7766 -0.3172
 8586SOL     OW37393   4.032   2.343   6.831 -0.5897 -0.8593  0.0278
 8586SOL    HW137394   3.982   2.267   6.802 -0.3113 -1.5237  1.2790
 8586SOL    HW237395   4.119   2.306   6.844  0.0371  1.1939  1.7844
 8587SOL     OW37396   2.759   2.508   3.183 -0.6824  0.5157  0.0957
 8587SOL    HW137397   2.731   2.574   3.119 -1.1857  1.2943  1.1030
 8587SOL    HW237398   2.724   2.540   3.266 -1.0479 -1.5885  0.7635
 8588SOL     OW37399   1.843   2.822   4.379  0.3642  0.3913  0.7942
 8588SOL    HW137400   1.804   2.871   4.307  1.8531 -1.4296 -1.2311
 8588SOL    HW237401   1.931   2.803   4.346  0.4788  0.7565  0.8907
 8589SOL     OW37402   3.755   3.132   3.798  0.0337 -0.0343  0.1755
 8589SOL    HW137403   3.673   3.180   3.808  0.9013  1.3661  0.4520
 8589SOL    HW237404   3.766   3.094   3.885  0.2369  1.3966  0.7747
 8590SOL     OW37405   1.587   0.781   3.392  0.1968 -0.2025  0.6545
 8590SOL    HW137406   1.593   0.876   3.407  1.8978 -0.1131 -0.5717
 8590SOL    HW237407   1.518   0.759   3.454 -1.6683  0.9482 -1.0296
 8591SOL     OW37408   1.335   0.395   9.083 -0.7396 -0.1927 -0.4415
 8591SOL    HW137409   1.319   0.414   8.991 -0.8561  2.2336  0.0628
 8591SOL    HW237410   1.430   0.380   9.086 -0.9832 -1.6484  0.0828
 8592SOL     OW37411   1.580   3.317   1.426 -0.2675  0.2303 -0.2314
 8592SOL    HW137412   1.618   3.388   1.478 -0.2970  1.8039 -2.3689
 8592SOL    HW237413   1.651   3.288   1.368  2.2213  1.0563  2.4448
 8593SOL     OW37414   0.941   2.962   2.574  0.3386 -0.2868 -0.6661
 8593SOL    HW137415   1.010   2.905   2.608 -0.6315 -1.0447  0.0029
 8593SOL    HW237416   0.879   2.898   2.539  0.5074 -0.7563 -0.1026
 8594SOL     OW37417   0.617   0.931   5.890  0.2228 -0.2867  0.4510
 8594SOL    HW137418   0.677   0.875   5.841  0.7513  1.7358 -1.2096
 8594SOL    HW237419   0.668   0.944   5.970  0.2214  1.1085  0.2120
 8595SOL     OW37420   3.830   1.656   6.121  0.1727 -0.5046 -0.3102
 8595SOL    HW137421   3.756   1.598   6.106  0.0250 -1.0321  2.4855
 8595SOL    HW237422   3.836   1.654   6.216  0.0050  0.6229 -0.2700
 8596SOL     OW37423   3.885   2.447   6.322 -0.2189  0.6446 -0.3661
 8596SOL    HW137424   3.813   2.404   6.278 -1.5820 -0.4649  2.9267
 8596SOL    HW237425   3.872   2.433   6.416  1.1847  1.8922  0.0277
 8597SOL     OW37426   0.473   4.439  10.146 -0.3235 -0.2444 -0.0461
 8597SOL    HW137427   0.396   4.382  10.141 -1.7019  1.7247 -1.2675
 8597SOL    HW237428   0.456   4.483  10.230 -1.0839 -3.5460  1.5245
 8598SOL     OW37429   3.450   0.277   8.434  0.7397 -1.0934 -0.0155
 8598SOL    HW137430   3.389   0.206   8.454 -0.3777  0.0263  0.5548
 8598SOL    HW237431   3.464   0.317   8.519 -0.3548 -0.1306 -0.2828
 8599SOL     OW37432   1.155   1.277   2.416 -0.3124 -0.6507  0.6298
 8599SOL    HW137433   1.148   1.315   2.329 -1.1783  0.3587  1.1387
 8599SOL    HW237434   1.070   1.233   2.422  1.3771 -3.7370  2.0800
 8600SOL     OW37435   3.909   1.892   6.747  0.3149 -0.1482  0.2140
 8600SOL    HW137436   3.870   1.813   6.710 -1.0509  1.0596 -0.9037
 8600SOL    HW237437   3.873   1.904   6.835  0.9627  2.3611  0.1373
 8601SOL     OW37438   1.449   3.248   0.311 -0.2340  0.1046 -0.0205
 8601SOL    HW137439   1.457   3.257   0.406 -0.5558  1.7312 -0.1502
 8601SOL    HW237440   1.467   3.337   0.280 -1.0155  0.2387 -0.0939
 8602SOL     OW37441   2.123   0.825   6.866  0.0006  0.2808  0.4971
 8602SOL    HW137442   2.028   0.829   6.862 -0.0618  1.0187  2.5379
 8602SOL    HW237443   2.149   0.746   6.819 -0.7626 -0.1017  0.7279
 8603SOL     OW37444   1.991   1.057   7.221  0.2584 -0.8277  0.7266
 8603SOL    HW137445   2.045   0.977   7.225  1.5349  0.1294  2.6462
 8603SOL    HW237446   1.917   1.035   7.277 -0.8678  2.0375  0.3324
 8604SOL     OW37447   3.741   0.328   7.139 -0.0055 -0.5327 -0.0045
 8604SOL    HW137448   3.747   0.339   7.044  1.1452 -0.4770  0.0642
 8604SOL    HW237449   3.816   0.376   7.176  0.2541 -0.8647 -0.1033
 8605SOL     OW37450   4.249   4.431  16.821 -0.3405 -0.1864 -0.0268
 8605SOL    HW137451   4.240   4.403  16.912 -1.3643 -0.6062 -0.2630
 8605SOL    HW237452   4.288   4.517  16.837  1.5173 -1.4947  2.5114
 8606SOL     OW37453   1.164   1.116   0.044  0.2135 -0.0975 -0.1561
 8606SOL    HW137454   1.145   1.079  17.714  1.6396 -2.0769  0.3835
 8606SOL    HW237455   1.118   1.200   0.051  0.5873  0.0676  0.3147
 8607SOL     OW37456   1.963   4.179   4.805  0.1528 -0.3496 -0.1662
 8607SOL    HW137457   2.009   4.255   4.769  0.6922 -1.3307 -1.5384
 8607SOL    HW237458   2.025   4.107   4.817  0.4644 -0.0814 -0.1811
 8608SOL     OW37459   1.690   2.258   7.130  0.6008  0.5536  0.2528
 8608SOL    HW137460   1.628   2.329   7.109 -2.3722 -2.6330 -1.9174
 8608SOL    HW237461   1.657   2.194   7.066 -0.2442  1.5255 -0.2845
 8609SOL     OW37462   4.614   2.112   4.984  0.2427  0.1758  0.1348
 8609SOL    HW137463   4.696   2.098   4.936  0.0685 -0.8700  0.1415
 8609SOL    HW237464   4.586   2.035   5.033  1.7605 -1.6711 -1.8666
 8610SOL     OW37465   3.951   4.089   2.260  0.3000 -0.1144 -1.0156
 8610SOL    HW137466   3.906   4.173   2.262 -1.6414 -1.1615 -0.4733
 8610SOL    HW237467   3.890   4.032   2.213 -0.5125  2.1443 -2.6969
 8611SOL     OW37468   1.188   1.162   3.485  0.5629 -0.3876 -0.5835
 8611SOL    HW137469   1.132   1.149   3.562  1.4229 -0.0966  0.0826
 8611SOL    HW237470   1.201   1.071   3.459  2.9526 -0.4094  0.7034
 8612SOL     OW37471   2.718   4.549   7.528  0.4804  0.6619 -0.1125
 8612SOL    HW137472   2.813   4.564   7.535  0.4147  0.8167  0.4303
 8612SOL    HW237473   2.700   4.502   7.609  1.2744  1.2981  0.4310
 8613SOL     OW37474   1.111   0.716  17.364 -0.1647  1.1038 -0.4294
 8613SOL    HW137475   1.156   0.632  17.376  0.1126  1.3594  0.3134
 8613SOL    HW237476   1.073   0.718  17.276  2.3305  2.9736 -1.4449
 8614SOL     OW37477   1.690   3.115   6.114  0.5248  0.4678  0.1251
 8614SOL    HW137478   1.760   3.117   6.050 -0.7628  1.9816 -1.2332
 8614SOL    HW237479   1.717   3.190   6.166 -1.2403  0.2669  1.3296
 8615SOL     OW37480   2.762   4.086   0.475 -0.2021  0.0761  0.7352
 8615SOL    HW137481   2.829   4.154   0.479  2.2420 -2.3203  0.2875
 8615SOL    HW237482   2.825   4.015   0.464 -0.3999  0.3869 -2.3981
 8616SOL     OW37483   0.169   4.202  13.714  0.8475 -0.1558  0.2108
 8616SOL    HW137484   0.097   4.172  13.658  0.5413  1.6626 -0.3836
 8616SOL    HW237485   0.129   4.255  13.783 -1.2316  1.8801 -2.5212
 8617SOL     OW37486   1.450   2.160   5.455 -0.0811  0.5535  0.5525
 8617SOL    HW137487   1.371   2.195   5.495 -1.0994 -1.3520  0.1689
 8617SOL    HW237488   1.443   2.215   5.377  0.9864 -2.8678 -1.9348
 8618SOL     OW37489   3.099   4.358   6.277 -1.1835 -0.2298 -0.0981
 8618SOL    HW137490   3.110   4.311   6.359  1.9948  0.8093  0.0890
 8618SOL    HW237491   3.073   4.449   6.293  2.4196  1.1139 -1.7190
 8619SOL     OW37492   3.101   2.080   4.145 -0.1626  0.5471  0.0276
 8619SOL    HW137493   3.179   2.072   4.200 -1.9723  0.6188  2.6402
 8619SOL    HW237494   3.030   2.091   4.209  0.5251 -0.2940  0.9197
 8620SOL     OW37495   4.558   3.609   7.254  0.0962  0.0966 -0.3874
 8620SOL    HW137496   4.522   3.538   7.201 -0.2081  0.0424 -0.1061
 8620SOL    HW237497   4.648   3.616   7.220  0.4705 -1.7470  0.2165
 8621SOL     OW37498   1.439   0.327  15.890  1.0813  0.2633  0.0911
 8621SOL    HW137499   1.373   0.387  15.855  1.1120  0.6536  0.7105
 8621SOL    HW237500   1.511   0.334  15.827  0.8362 -0.4538 -0.2769
 8622SOL     OW37501   3.568   3.772   2.901 -0.2238 -0.1503  0.0604
 8622SOL    HW137502   3.553   3.732   2.986  0.5188  0.4121  0.4492
 8622SOL    HW237503   3.526   3.713   2.837  0.9556 -0.7567 -0.1445
 8623SOL     OW37504   0.342   1.197   6.182 -0.2241 -0.1290  0.2337
 8623SOL    HW137505   0.292   1.141   6.242  0.3072 -1.6957 -0.7762
 8623SOL    HW237506   0.274   1.249   6.139  0.6820 -0.2246 -1.2915
 8624SOL     OW37507   4.233   3.403   9.629 -0.7569 -0.0752  0.3919
 8624SOL    HW137508   4.320   3.419   9.665 -1.7829  0.4933  2.6808
 8624SOL    HW237509   4.187   3.415   9.713  3.2526 -3.3397  3.0503
 8625SOL     OW37510   0.119   4.662   3.783 -0.9420 -0.3068 -0.2524
 8625SOL    HW137511   0.123   4.734   3.846 -0.0644  1.3296 -2.1753
 8625SOL    HW237512   0.055   4.704   3.726 -1.2578  1.3455  1.3101
 8626SOL     OW37513   4.121   1.009   2.035 -0.1719 -0.7097 -0.1993
 8626SOL    HW137514   4.210   1.029   2.008 -0.1223 -0.4464  0.1453
 8626SOL    HW237515   4.082   1.044   1.955  0.6928  2.2380  0.6465
 8627SOL     OW37516   2.569   3.130   1.868  0.0807  0.2135  0.0862
 8627SOL    HW137517   2.538   3.117   1.957  0.6934 -2.7947 -0.1321
 8627SOL    HW237518   2.550   3.042   1.835  0.8421  0.7578 -1.8259
 8628SOL     OW37519   1.425   2.813   2.840 -0.1389 -0.2202  0.2436
 8628SOL    HW137520   1.490   2.742   2.836 -3.1915 -2.9875 -0.3589
 8628SOL    HW237521   1.478   2.887   2.811  0.6434 -0.5091  0.9272
 8629SOL     OW37522   3.753   2.806  17.001 -0.1240 -0.5111 -0.1087
 8629SOL    HW137523   3.665   2.768  16.989 -0.2579  0.0341 -0.8226
 8629SOL    HW237524   3.781   2.780  16.913  1.0031 -0.1439  0.1424
 8630SOL     OW37525   2.091   0.496  17.637  0.0863 -0.2351  0.7779
 8630SOL    HW137526   2.138   0.533  17.561 -1.6145  1.0160  0.3349
 8630SOL    HW237527   2.030   0.565  17.663  0.6000  0.2931  0.5851
 8631SOL     OW37528   3.615   1.962   5.310 -0.0436 -0.0756  0.1644
 8631SOL    HW137529   3.663   1.910   5.374 -0.4091  2.1621  2.2344
 8631SOL    HW237530   3.660   1.936   5.229 -1.5037  1.3482 -1.1241
 8632SOL     OW37531   1.036   3.807   2.729  0.5208 -0.2376 -0.1655
 8632SOL    HW137532   1.082   3.799   2.646  1.4827  1.8134  0.1720
 8632SOL    HW237533   1.026   3.712   2.738 -0.5119 -0.1943 -0.8834
 8633SOL     OW37534   1.737   3.287   3.867 -0.5299  0.5652  0.6145
 8633SOL    HW137535   1.814   3.323   3.910  1.1915 -0.9265 -1.1685
 8633SOL    HW237536   1.669   3.354   3.870 -0.6609  0.3986  1.2684
 8634SOL     OW37537   1.760   4.349   3.346  0.0838 -0.0050  0.2824
 8634SOL    HW137538   1.809   4.277   3.308 -0.1976 -0.6105  1.0826
 8634SOL    HW237539   1.729   4.394   3.267 -0.1777  0.0427  0.4121
 8635SOL     OW37540   1.535   2.957   0.481 -0.5737 -0.4582  0.3877
 8635SOL    HW137541   1.520   2.938   0.388  0.8469  0.4847 -0.0167
 8635SOL    HW237542   1.444   2.947   0.509 -0.3969 -1.1273  0.7350
 8636SOL     OW37543   3.535   0.245   6.070 -0.0396 -0.5139  0.1507
 8636SOL    HW137544   3.453   0.196   6.059 -0.3097  0.5404 -2.4946
 8636SOL    HW237545   3.561   0.254   5.978  0.9515  3.4837  0.8485
 8637SOL     OW37546   0.735   2.714   8.121 -0.0012 -0.3390  0.8933
 8637SOL    HW137547   0.679   2.647   8.161  0.3942 -1.9952 -1.3278
 8637SOL    HW237548   0.800   2.650   8.092 -0.7325 -0.0766 -1.2673
 8638SOL     OW37549   0.838   0.647   8.307 -0.7510 -0.0638  0.5064
 8638SOL    HW137550   0.848   0.583   8.237 -1.2582  1.1150 -0.6469
 8638SOL    HW237551   0.898   0.614   8.373 -1.3091  0.0786  1.0825
 8639SOL     OW37552   4.347   1.553   9.659 -0.2075 -0.5109 -0.1062
 8639SOL    HW137553   4.276   1.526   9.718 -1.1592 -0.7159 -1.3426
 8639SOL    HW237554   4.358   1.471   9.610  0.8089 -1.0179  0.9524
 8640SOL     OW37555   1.774   3.650   5.176  0.3186 -0.0466 -0.1104
 8640SOL    HW137556   1.782   3.621   5.085 -0.5270 -2.0159  0.4409
 8640SOL    HW237557   1.696   3.598   5.197 -1.2098  2.6362  0.8442
 8641SOL     OW37558   3.043   4.047   9.552 -0.5060 -0.6743  0.6280
 8641SOL    HW137559   3.043   4.060   9.457  0.0940  0.2900  0.7523
 8641SOL    HW237560   2.974   3.984   9.570  1.3225 -2.6694  0.6842
 8642SOL     OW37561   3.921   4.125   8.695  0.0735  0.2734 -0.4454
 8642SOL    HW137562   3.827   4.108   8.702 -0.4643  3.4166 -0.0908
 8642SOL    HW237563   3.958   4.043   8.727 -1.1151 -1.6851 -4.1616
 8643SOL     OW37564   2.714   2.838   5.478 -0.0415 -0.7088 -0.0501
 8643SOL    HW137565   2.633   2.838   5.529  1.3952 -0.8210  2.1964
 8643SOL    HW237566   2.698   2.923   5.436 -0.8062 -0.2930  1.0873
 8644SOL     OW37567   0.891   1.012   6.389 -0.1015  0.1654 -0.2711
 8644SOL    HW137568   0.916   0.920   6.382  0.7072  0.4210 -0.7422
 8644SOL    HW237569   0.826   1.007   6.459  3.3148 -1.3010  2.7952
 8645SOL     OW37570   3.083   1.916   6.653  0.1373 -0.2712  0.2018
 8645SOL    HW137571   3.024   1.946   6.722 -0.8994 -1.3157 -0.2355
 8645SOL    HW237572   3.147   1.988   6.652  1.0135 -1.0176  1.6123
 8646SOL     OW37573   3.261   1.158   0.510  0.7181  0.2537  1.0203
 8646SOL    HW137574   3.231   1.071   0.482 -0.6004  1.5905 -1.7378
 8646SOL    HW237575   3.337   1.166   0.452 -0.0877  2.0136  0.2133
 8647SOL     OW37576   4.378   1.736   9.107 -0.8179 -0.0462  0.4032
 8647SOL    HW137577   4.286   1.735   9.133 -0.6829  3.1891  0.9926
 8647SOL    HW237578   4.418   1.787   9.178 -2.4510  1.6197  0.1009
 8648SOL     OW37579   3.094   3.080   1.759 -0.1675 -0.3900  0.2303
 8648SOL    HW137580   3.068   2.991   1.783 -0.3564 -0.7736 -1.4087
 8648SOL    HW237581   3.011   3.128   1.755  0.4832  0.7009 -0.1827
 8649SOL     OW37582   0.111   0.631   1.373  0.2734 -0.1282 -0.2441
 8649SOL    HW137583   0.066   0.702   1.419  1.7035  0.2660  0.5407
 8649SOL    HW237584   0.060   0.554   1.397  1.4003 -0.5691  0.7342
 8650SOL     OW37585   2.776   1.599   7.346  0.3564 -0.1251 -0.0668
 8650SOL    HW137586   2.849   1.538   7.352 -0.3088 -0.9198  0.0267
 8650SOL    HW237587   2.729   1.599   7.429  1.0829  0.4297  0.3434
 8651SOL     OW37588   2.819   0.844  10.861 -0.1556  0.0482  0.2509
 8651SOL    HW137589   2.847   0.911  10.923 -0.4931 -0.4046  0.8911
 8651SOL    HW237590   2.825   0.760  10.906  0.6691  0.5504  1.0681
 8652SOL     OW37591   1.527   4.272   4.376  0.3838  0.0602 -0.2094
 8652SOL    HW137592   1.473   4.343   4.341 -0.0628  0.8378  2.0376
 8652SOL    HW237593   1.608   4.322   4.388  0.1317  0.6985 -1.1564
 8653SOL     OW37594   4.039   3.419  11.972 -0.1641  0.2127 -0.3218
 8653SOL    HW137595   3.957   3.467  11.990 -0.6347 -0.0255 -1.8612
 8653SOL    HW237596   4.102   3.456  12.034  0.0432 -2.3680  1.0133
 8654SOL     OW37597   4.608   4.259   6.606  0.5039  0.0400 -0.3617
 8654SOL    HW137598   4.573   4.347   6.618  1.7023  0.6380 -1.3015
 8654SOL    HW237599   4.645   4.249   6.693  1.9420 -1.2535 -1.1091
 8655SOL     OW37600   1.910   3.135   7.571 -0.1882 -0.4697  0.3742
 8655SOL    HW137601   1.900   3.146   7.665  2.4297 -0.2050  0.6005
 8655SOL    HW237602   1.856   3.060   7.545 -0.3118 -0.3442  0.2659
 8656SOL     OW37603   0.327   1.265   9.311 -0.1424  0.2687 -0.2554
 8656SOL    HW137604   0.267   1.209   9.360  1.1461 -0.6581  0.2423
 8656SOL    HW237605   0.324   1.224   9.224  3.0185  2.0313 -1.1923
 8657SOL     OW37606   0.713   2.770  10.279 -0.5571 -0.3760 -0.2671
 8657SOL    HW137607   0.654   2.842  10.302  0.5245  0.7314 -0.9710
 8657SOL    HW237608   0.765   2.810  10.209  0.4430 -0.2983  0.5344
 8658SOL     OW37609   2.839   4.677   2.036 -0.2535  0.2758  0.2613
 8658SOL    HW137610   2.749   4.645   2.034 -0.3602  0.5497  0.8972
 8658SOL    HW237611   2.831   4.729   1.956  0.8676  0.0505 -0.0025
 8659SOL     OW37612   1.369   3.592   9.996  0.0933  0.0150 -0.2337
 8659SOL    HW137613   1.278   3.577   9.969 -0.0828 -0.0660  0.3825
 8659SOL    HW237614   1.391   3.674   9.953 -1.1714  0.6943  0.3973
 8660SOL     OW37615   4.274   2.880   0.809 -0.0948 -0.2357 -0.1556
 8660SOL    HW137616   4.213   2.902   0.880  0.0762 -2.9137  0.8314
 8660SOL    HW237617   4.357   2.867   0.855  0.5400  1.9048 -0.6799
 8661SOL     OW37618   0.909   0.404   5.618  0.3254 -0.0074 -0.3658
 8661SOL    HW137619   0.992   0.366   5.646  1.6842  0.1178 -4.2171
 8661SOL    HW237620   0.948   0.483   5.580 -1.2156  0.0095 -1.9107
 8662SOL     OW37621   2.325   4.720   5.719 -0.1866 -0.2516  0.3792
 8662SOL    HW137622   2.281   0.022   5.645 -0.3205  0.0081  0.6077
 8662SOL    HW237623   2.282   4.635   5.710  0.4837 -0.4715 -0.8214
 8663SOL     OW37624   2.531   1.018   4.032 -0.1586  0.1817 -0.1968
 8663SOL    HW137625   2.471   1.087   4.062  0.9018  0.3304  1.5412
 8663SOL    HW237626   2.619   1.055   4.039  0.2283 -0.9830  1.0236
 8664SOL     OW37627   1.846   1.636   6.039  0.0229 -0.0385 -0.2025
 8664SOL    HW137628   1.797   1.691   5.978  0.1497  1.4099  1.0012
 8664SOL    HW237629   1.779   1.581   6.079  2.0764 -2.5048 -0.1699
 8665SOL     OW37630   0.960   4.579   7.586 -0.5160 -0.1992 -0.2237
 8665SOL    HW137631   0.944   4.666   7.624 -0.1223 -0.5962  0.8563
 8665SOL    HW237632   1.032   4.560   7.646  0.5094 -1.0520 -1.7528
 8666SOL     OW37633   1.260   0.392   2.066 -0.3803  0.7355  0.3786
 8666SOL    HW137634   1.347   0.431   2.058  0.0482 -0.0635  1.0987
 8666SOL    HW237635   1.253   0.370   2.158 -0.9248  1.1847  0.4404
 8667SOL     OW37636   3.622   1.697   9.212 -0.0035  0.1994  0.7114
 8667SOL    HW137637   3.632   1.614   9.258  1.1951 -0.8198 -1.4001
 8667SOL    HW237638   3.620   1.754   9.289  0.1308 -2.3367  2.5914
 8668SOL     OW37639   1.014   3.739   7.562  0.3761  0.6954 -0.3456
 8668SOL    HW137640   0.934   3.780   7.595  0.8489  1.7247 -0.4896
 8668SOL    HW237641   1.038   3.784   7.481 -1.1997 -0.1284 -1.2916
 8669SOL     OW37642   3.557   4.116   3.419  0.4751  0.2437  0.0363
 8669SOL    HW137643   3.572   4.042   3.478  1.2432  1.3957  1.2746
 8669SOL    HW237644   3.523   4.066   3.345  1.4990 -0.2749 -0.0741
 8670SOL     OW37645   1.291   4.313   2.201 -0.2662 -0.2028  0.0100
 8670SOL    HW137646   1.286   4.221   2.173 -3.1308 -0.4699  1.3619
 8670SOL    HW237647   1.219   4.358   2.157 -0.6695 -0.5729  0.2908
 8671SOL     OW37648   2.995   4.118   3.164  0.4480 -0.0875 -0.3835
 8671SOL    HW137649   2.968   4.027   3.176  1.5525 -0.5921 -1.7744
 8671SOL    HW237650   3.045   4.136   3.244 -2.3359 -0.4794  1.4278
 8672SOL     OW37651   2.460   2.665   7.094  0.1496  0.0276 -0.3722
 8672SOL    HW137652   2.407   2.740   7.067 -0.7275  0.0056  1.3211
 8672SOL    HW237653   2.403   2.599   7.133  3.6677 -1.4871  2.2293
 8673SOL     OW37654   1.849   1.500   1.295 -0.3845  0.8205 -0.1252
 8673SOL    HW137655   1.851   1.473   1.203 -0.4052 -0.5724  0.2849
 8673SOL    HW237656   1.887   1.418   1.325 -2.8041  0.0839  0.9520
 8674SOL     OW37657   3.854   2.733  13.158 -0.4634  0.2342 -0.5859
 8674SOL    HW137658   3.766   2.750  13.191 -0.8760 -2.5395 -0.2358
 8674SOL    HW237659   3.884   2.667  13.220 -0.9932  1.6290  1.1607
 8675SOL     OW37660   4.476   3.568   1.140  0.3205  0.1501  0.0384
 8675SOL    HW137661   4.561   3.610   1.127 -0.1265  0.5731 -1.4785
 8675SOL    HW237662   4.486   3.537   1.230  0.0129 -1.0292 -0.3295
 8676SOL     OW37663   2.338   1.494   8.277 -0.7541  0.0232 -0.4506
 8676SOL    HW137664   2.370   1.583   8.267  0.2383 -0.2274  0.5785
 8676SOL    HW237665   2.351   1.469   8.185 -0.5080  3.0748 -1.2354
 8677SOL     OW37666   2.312   4.678   0.485 -0.0212 -0.0713  0.1514
 8677SOL    HW137667   2.277   4.687   0.574  1.9484  1.3009  0.7846
 8677SOL    HW237668   2.368   4.601   0.496 -1.8077 -1.6306 -1.7089
 8678SOL     OW37669   3.451   4.458  12.672 -0.3103  0.4088  0.0579
 8678SOL    HW137670   3.535   4.500  12.656  1.2631 -2.3864  0.9792
 8678SOL    HW237671   3.478   4.367  12.680  0.3862  0.7532  1.5334
 8679SOL     OW37672   2.851   2.091   7.079  0.1125  0.9971  0.3673
 8679SOL    HW137673   2.786   2.155   7.108 -1.2606 -0.1339 -0.2268
 8679SOL    HW237674   2.897   2.073   7.161 -2.4128 -0.8120  1.3770
 8680SOL     OW37675   0.486   3.724   8.310  0.3079  0.1154  0.2866
 8680SOL    HW137676   0.468   3.817   8.327  3.5317  1.2322 -2.4241
 8680SOL    HW237677   0.560   3.707   8.367 -0.3993 -1.4920  0.7228
 8681SOL     OW37678   3.695   0.669  11.163 -0.1461 -0.8630  0.1947
 8681SOL    HW137679   3.721   0.612  11.236 -1.0015 -1.1139  0.3076
 8681SOL    HW237680   3.677   0.753  11.206 -0.9168 -0.5725 -0.7115
 8682SOL     OW37681   0.619   0.591  13.072 -0.4813  0.1268 -0.2199
 8682SOL    HW137682   0.598   0.618  13.161 -1.8136 -0.4565 -0.3623
 8682SOL    HW237683   0.539   0.619  13.028 -0.3703  2.3922  1.0118
 8683SOL     OW37684   2.988   3.766   5.323  0.5267 -0.1242  0.0256
 8683SOL    HW137685   2.894   3.776   5.338  0.3409 -1.1455 -0.4230
 8683SOL    HW237686   2.982   3.714   5.242 -1.5732 -1.1792  0.8594
 8684SOL     OW37687   4.280   1.507   6.690  0.0267 -0.0615 -0.0928
 8684SOL    HW137688   4.230   1.554   6.623  0.4640 -0.8984 -1.0101
 8684SOL    HW237689   4.315   1.584   6.733  3.3498 -0.7589 -1.5520
 8685SOL     OW37690   4.458   1.017   6.485  0.0187  0.3964 -0.3987
 8685SOL    HW137691   4.435   1.101   6.445 -0.6063  0.8875  1.0291
 8685SOL    HW237692   4.517   1.048   6.554 -0.2803 -0.5848  0.3040
 8686SOL     OW37693   1.700   2.916   2.275  0.0040 -0.0533  0.4139
 8686SOL    HW137694   1.715   2.897   2.368 -0.9776  0.4136  0.6641
 8686SOL    HW237695   1.766   2.859   2.235 -0.1093 -2.4645  3.5991
 8687SOL     OW37696   3.038   2.056  10.932 -0.0259  0.3776  0.0634
 8687SOL    HW137697   2.967   1.998  10.903  2.0612 -0.8455 -2.6242
 8687SOL    HW237698   3.010   2.141  10.898 -1.3151  0.2756  0.8813
 8688SOL     OW37699   1.805   0.878   3.574  0.2639  0.0599  0.0995
 8688SOL    HW137700   1.896   0.850   3.573  0.7408  1.6176  0.6571
 8688SOL    HW237701   1.777   0.828   3.497 -1.2096  1.3478 -0.1989
 8689SOL     OW37702   2.120   3.160  12.987 -0.3430  0.3210 -0.1471
 8689SOL    HW137703   2.150   3.208  13.064 -0.7259  0.3123  0.0056
 8689SOL    HW237704   2.091   3.077  13.023  2.9903 -0.7645  0.0786
 8690SOL     OW37705   3.083   3.232   1.184 -0.0482  0.4899 -0.2097
 8690SOL    HW137706   3.178   3.221   1.180 -0.1770 -1.0095  1.0399
 8690SOL    HW237707   3.059   3.267   1.098 -1.2027 -1.4538 -0.6828
 8691SOL     OW37708   4.062   1.406   3.518 -0.1068 -0.2628 -0.8251
 8691SOL    HW137709   4.142   1.403   3.465  0.4261  2.1568 -0.1417
 8691SOL    HW237710   4.066   1.318   3.554 -0.3298 -0.5580 -1.5154
 8692SOL     OW37711   0.490   0.583   5.043  0.5031 -0.6350 -0.3304
 8692SOL    HW137712   0.508   0.604   4.951  2.2854 -1.0498 -0.0866
 8692SOL    HW237713   0.440   0.502   5.041  0.1008 -0.4009  0.5237
 8693SOL     OW37714   1.724   1.684   2.276  0.5450 -0.2686 -0.7326
 8693SOL    HW137715   1.687   1.744   2.210  1.5662  0.5627 -0.5483
 8693SOL    HW237716   1.813   1.675   2.243  0.3339  0.0253 -1.3843
 8694SOL     OW37717   3.792   4.072  13.846  0.2935  0.0083  0.5766
 8694SOL    HW137718   3.875   4.120  13.845 -2.3802  4.6854 -0.1992
 8694SOL    HW237719   3.775   4.064  13.752 -1.3349  1.4157  0.7536
 8695SOL     OW37720   2.783   2.065  15.601 -0.5582 -0.6733 -0.1877
 8695SOL    HW137721   2.724   1.991  15.587 -1.7103  0.2073 -0.0299
 8695SOL    HW237722   2.713   2.125  15.628  0.1435  1.1769 -2.4223
 8696SOL     OW37723   3.078   4.507   3.050  0.0953  0.1434  0.1486
 8696SOL    HW137724   3.068   4.584   2.994 -3.7687 -0.4817 -0.0159
 8696SOL    HW237725   2.985   4.502   3.074 -0.2748 -2.2442 -1.7651
 8697SOL     OW37726   2.594   2.773  14.427  0.1807  0.0783 -0.7807
 8697SOL    HW137727   2.535   2.823  14.483 -0.4879 -0.1272 -1.2932
 8697SOL    HW237728   2.633   2.731  14.503 -1.7393 -0.2989 -0.0153
 8698SOL     OW37729   2.149   2.233   4.584  0.6160 -0.2040  0.3042
 8698SOL    HW137730   2.114   2.160   4.634 -0.3960  0.4831  0.5982
 8698SOL    HW237731   2.064   2.262   4.551  1.7796  2.5709 -0.2288
 8699SOL     OW37732   0.187   3.294   9.025  0.3480 -0.3757  0.0908
 8699SOL    HW137733   0.181   3.385   8.995 -0.7353 -1.3046 -2.4841
 8699SOL    HW237734   0.148   3.303   9.112 -1.1306 -2.4354 -0.3617
 8700SOL     OW37735   2.617   0.679   6.344  0.2681  0.1244  0.4148
 8700SOL    HW137736   2.609   0.597   6.393  1.3612 -0.7553 -0.8898
 8700SOL    HW237737   2.705   0.708   6.369 -0.2062 -2.2001  4.7930
 8701SOL     OW37738   0.179   0.746   9.155  0.1075 -0.5232 -0.6774
 8701SOL    HW137739   0.209   0.724   9.243  0.2647  1.9754 -0.1039
 8701SOL    HW237740   0.119   0.819   9.162  1.8313  0.9851 -1.7105
 8702SOL     OW37741   1.041   1.771  15.063 -0.1843 -0.4374 -0.3959
 8702SOL    HW137742   0.973   1.753  14.997  0.5928  1.1902 -1.6341
 8702SOL    HW237743   1.004   1.736  15.144 -3.8505  3.9208 -0.1637
 8703SOL     OW37744   3.861   0.903   5.256  1.1108  0.1303 -0.3015
 8703SOL    HW137745   3.873   0.964   5.183 -0.3714 -0.2457 -0.8684
 8703SOL    HW237746   3.941   0.915   5.307 -0.1442  1.6574  1.3169
 8704SOL     OW37747   2.511   1.034   8.487  0.0097 -0.1414 -0.1158
 8704SOL    HW137748   2.443   1.004   8.547 -1.2146  1.5683 -0.6359
 8704SOL    HW237749   2.546   1.101   8.547  0.9312 -0.4246 -0.3323
 8705SOL     OW37750   3.012   0.680  16.596 -0.2714 -0.6746 -0.1279
 8705SOL    HW137751   2.978   0.762  16.560  1.2565  1.3639  3.0626
 8705SOL    HW237752   2.964   0.666  16.677  1.0747 -1.0526  0.6056
 8706SOL     OW37753   1.188   0.112   8.780 -0.0141  0.3020  0.0808
 8706SOL    HW137754   1.258   0.177   8.788  0.1158 -0.1011  2.3061
 8706SOL    HW237755   1.180   0.101   8.685 -0.1261 -1.0426  0.2549
 8707SOL     OW37756   0.729   2.296   5.395  0.0502 -0.0841 -0.1661
 8707SOL    HW137757   0.725   2.233   5.467 -1.0199  1.0008  0.7139
 8707SOL    HW237758   0.714   2.242   5.318 -0.8311 -0.6572  0.4077
 8708SOL     OW37759   2.624   3.427   4.017 -0.6243  0.1682  0.5369
 8708SOL    HW137760   2.637   3.363   4.087 -0.4500 -1.6671 -1.1450
 8708SOL    HW237761   2.574   3.372   3.957 -0.4361  1.8883 -1.2048
 8709SOL     OW37762   3.845   2.768   5.957  0.4280  0.3521  0.4817
 8709SOL    HW137763   3.769   2.710   5.969  0.7159  0.1488  1.3505
 8709SOL    HW237764   3.798   2.849   5.941 -0.9027 -0.3549  0.7925
 8710SOL     OW37765   0.655   1.279   9.361 -0.0725 -0.5005 -0.1056
 8710SOL    HW137766   0.664   1.370   9.387 -1.4648  0.0463 -1.5967
 8710SOL    HW237767   0.562   1.273   9.337  0.2501  0.3220 -1.5294
 8711SOL     OW37768   3.065   2.202   0.262 -0.1233  0.2583 -0.1327
 8711SOL    HW137769   3.013   2.281   0.245  1.5409  0.6459 -3.2989
 8711SOL    HW237770   2.998   2.135   0.246  1.9125 -1.5261 -1.1770
 8712SOL     OW37771   0.991   2.113   5.377 -0.4185  0.0918 -0.0637
 8712SOL    HW137772   0.991   2.080   5.287 -0.7584  0.3730 -0.1691
 8712SOL    HW237773   1.025   2.199   5.351 -0.9884 -0.4011 -2.4710
 8713SOL     OW37774   4.035   0.931  15.375 -0.4081  0.4532 -0.0629
 8713SOL    HW137775   4.117   0.919  15.328  0.1381  3.8721  0.0325
 8713SOL    HW237776   4.054   1.020  15.404  2.7574 -0.7604  1.5676
 8714SOL     OW37777   0.048   1.527  12.502 -0.3233 -0.3873 -0.6067
 8714SOL    HW137778   0.085   1.559  12.585 -2.1689  2.0571 -0.7135
 8714SOL    HW237779   4.696   1.536  12.529  0.9367  1.1045  3.1616
 8715SOL     OW37780   1.796   4.225   9.861 -0.1039  0.4179  0.4505
 8715SOL    HW137781   1.849   4.162   9.910 -1.0746 -1.9751 -1.5803
 8715SOL    HW237782   1.779   4.294   9.925  0.9265  0.6345  0.4884
 8716SOL     OW37783   2.199   3.210  15.262 -0.1145  0.9864  0.7104
 8716SOL    HW137784   2.187   3.237  15.171  1.0244 -2.4663 -0.4587
 8716SOL    HW237785   2.203   3.290  15.314  1.8702  0.0700  1.9729
 8717SOL     OW37786   2.101   1.193  14.298 -0.4841  0.3959 -0.1377
 8717SOL    HW137787   2.093   1.264  14.361  0.2752  0.2436  0.1304
 8717SOL    HW237788   2.013   1.188  14.260 -0.4295 -0.8122 -0.1184
 8718SOL     OW37789   1.028   0.895   1.739  0.4967 -0.3476 -0.0013
 8718SOL    HW137790   1.069   0.861   1.818  0.8822  0.5089  0.1696
 8718SOL    HW237791   1.012   0.984   1.770  0.9439 -0.4515  0.5292
 8719SOL     OW37792   2.145   0.602  11.123 -0.1021 -0.3553  0.0337
 8719SOL    HW137793   2.093   0.646  11.191 -1.7338 -0.6357 -1.0313
 8719SOL    HW237794   2.178   0.682  11.084  1.4591 -1.8323 -1.6237
 8720SOL     OW37795   4.078   0.732   2.719 -0.2050 -0.1164  0.8745
 8720SOL    HW137796   4.009   0.754   2.656 -0.5920 -1.5262  0.8076
 8720SOL    HW237797   4.104   0.643   2.696 -2.8483 -0.0262 -2.5039
 8721SOL     OW37798   1.367   2.617   6.189 -0.0800 -0.0297 -0.6451
 8721SOL    HW137799   1.437   2.633   6.126 -0.5775 -0.1992 -1.2332
 8721SOL    HW237800   1.293   2.618   6.128  0.0448  0.1060 -0.7927
 8722SOL     OW37801   0.858   4.704  10.125  0.4811 -0.3716 -0.1133
 8722SOL    HW137802   0.881   4.634  10.186 -1.5402  0.8288  2.0159
 8722SOL    HW237803   0.939   0.015  10.119 -0.5068  1.0867 -1.1844
 8723SOL     OW37804   4.353   3.927   9.341  0.5488  0.5424 -0.3029
 8723SOL    HW137805   4.321   3.853   9.392  0.6388  0.7874  0.1078
 8723SOL    HW237806   4.418   3.965   9.399  2.0988 -2.6724  0.0407
 8724SOL     OW37807   4.723   4.149   3.682  0.3731 -0.5625  0.1337
 8724SOL    HW137808   0.077   4.142   3.700  0.2842 -2.6815 -0.2020
 8724SOL    HW237809   4.695   4.059   3.701 -2.2541 -0.2978 -2.4070
 8725SOL     OW37810   0.197   0.318   5.543  0.1832 -0.0279 -0.2859
 8725SOL    HW137811   0.226   0.267   5.619  1.4621  0.3274 -0.5397
 8725SOL    HW237812   0.204   0.252   5.474  2.0897  0.2218 -0.3408
 8726SOL     OW37813   2.604   2.675   8.219 -0.0422  0.0304  0.0552
 8726SOL    HW137814   2.586   2.688   8.126 -2.5626 -0.8450  0.4242
 8726SOL    HW237815   2.625   2.764   8.249  3.6451 -0.5665 -0.7371
 8727SOL     OW37816   4.738   1.008   8.410 -0.0163  0.6798 -0.1357
 8727SOL    HW137817   0.078   1.020   8.357 -0.4792  0.1336 -0.9337
 8727SOL    HW237818   0.033   1.008   8.500  1.7723 -3.0658 -0.8232
 8728SOL     OW37819   3.409   1.792   5.410  0.1599 -0.1334 -0.3765
 8728SOL    HW137820   3.471   1.850   5.366  0.4120 -0.3419 -0.2961
 8728SOL    HW237821   3.459   1.732   5.466  1.8505  2.2047  0.5889
 8729SOL     OW37822   2.254   3.015  13.240  0.4924  0.3401  0.2291
 8729SOL    HW137823   2.307   2.942  13.207  1.6282  0.7263  1.2369
 8729SOL    HW237824   2.163   2.988  13.228  1.5648 -2.3356 -1.9235
 8730SOL     OW37825   4.442   3.286  13.677  0.2581  0.3037  0.0610
 8730SOL    HW137826   4.452   3.224  13.749  0.8095  0.9039  0.4965
 8730SOL    HW237827   4.528   3.327  13.686 -0.5004  2.0235 -0.4188
 8731SOL     OW37828   0.656   1.141   7.885 -0.0361  0.5212  0.3065
 8731SOL    HW137829   0.670   1.188   7.803  0.9283  0.7297  0.5804
 8731SOL    HW237830   0.706   1.062   7.865 -1.8119  0.0113 -2.0847
 8732SOL     OW37831   0.432   2.975   6.364 -0.1498  0.4510 -0.2579
 8732SOL    HW137832   0.467   3.060   6.338 -0.2550  0.6303  0.1888
 8732SOL    HW237833   0.442   2.942   6.274 -2.1281  1.6941 -0.9103
 8733SOL     OW37834   4.408   1.605   8.099 -0.1727  0.2674 -0.1826
 8733SOL    HW137835   4.349   1.531   8.115  2.4845 -2.1902 -1.7837
 8733SOL    HW237836   4.438   1.600   8.009 -2.7529 -4.5404 -0.8074
 8734SOL     OW37837   1.169   1.745   8.314 -0.6881 -0.9836 -0.2502
 8734SOL    HW137838   1.074   1.739   8.304 -0.7223 -0.1740 -0.4040
 8734SOL    HW237839   1.170   1.735   8.409  0.0456 -2.7330 -0.4501
 8735SOL     OW37840   4.471   4.503   6.643  0.3012  0.5116 -0.3408
 8735SOL    HW137841   4.407   4.572   6.625 -2.1257 -1.8176 -0.7267
 8735SOL    HW237842   4.547   4.555   6.615  0.8132 -0.4359 -0.7264
 8736SOL     OW37843   1.645   1.034  11.977 -0.7555 -0.1224  0.0558
 8736SOL    HW137844   1.737   1.059  11.984 -1.3502  1.6806  1.4305
 8736SOL    HW237845   1.631   1.077  11.893 -0.6564  2.1310  1.1922
 8737SOL     OW37846   2.637   3.393   6.670 -0.1320 -0.1257 -0.0468
 8737SOL    HW137847   2.549   3.371   6.701 -0.4643  0.5923 -0.4927
 8737SOL    HW237848   2.693   3.384   6.747  0.6557  0.8644 -0.4983
 8738SOL     OW37849   1.135   3.628   5.462 -0.2608  0.2162  0.2651
 8738SOL    HW137850   1.223   3.635   5.423 -0.4524  0.2459 -0.1667
 8738SOL    HW237851   1.107   3.717   5.483  1.2310  0.1464  2.5036
 8739SOL     OW37852   4.502   1.861  13.459  0.0602  0.0290 -0.2053
 8739SOL    HW137853   4.456   1.848  13.376  3.7071 -0.3942 -2.2099
 8739SOL    HW237854   4.593   1.839  13.437  0.5476  0.2510  1.6119
 8740SOL     OW37855   3.148   1.483   2.482  0.1623 -0.3870  0.1741
 8740SOL    HW137856   3.114   1.570   2.502  1.6187  0.0357  0.7520
 8740SOL    HW237857   3.198   1.505   2.404  0.6652 -2.1992 -0.0055
 8741SOL     OW37858   2.554   4.092   8.527 -0.2783 -0.2308 -0.6448
 8741SOL    HW137859   2.563   4.000   8.503  0.8492 -0.4333  0.5411
 8741SOL    HW237860   2.523   4.075   8.617 -1.3347  0.5365 -0.8561
 8742SOL     OW37861   2.484   2.681   6.293  0.1125 -0.3413 -0.2645
 8742SOL    HW137862   2.542   2.658   6.366 -0.1172 -1.5259 -0.4515
 8742SOL    HW237863   2.453   2.595   6.264  0.7456 -2.4422  5.1630
 8743SOL     OW37864   0.820   3.015   7.185  0.0555  0.3242 -0.1254
 8743SOL    HW137865   0.840   3.103   7.217  0.2587  0.5017 -0.7389
 8743SOL    HW237866   0.726   3.002   7.198  0.4694 -0.2106  2.3323
 8744SOL     OW37867   1.597   3.322   5.552  0.1306  0.0721  0.0264
 8744SOL    HW137868   1.612   3.300   5.644  3.0513 -1.4210 -0.8048
 8744SOL    HW237869   1.533   3.392   5.563 -0.4001 -0.4971  0.6243
 8745SOL     OW37870   3.630   3.553   0.920 -0.0665  0.1579 -0.4361
 8745SOL    HW137871   3.633   3.527   1.012  0.8575 -0.0794 -0.5377
 8745SOL    HW237872   3.718   3.589   0.907 -0.3658  1.1778  0.3689
 8746SOL     OW37873   3.884   1.586  17.171 -0.8334  0.5163 -0.3486
 8746SOL    HW137874   3.816   1.541  17.121 -0.4381 -0.4680 -0.0128
 8746SOL    HW237875   3.955   1.525  17.152 -1.5246 -0.3007 -0.2912
 8747SOL     OW37876   4.568   0.697   2.861  0.0228  0.0413  0.3669
 8747SOL    HW137877   4.522   0.707   2.777  1.7967 -1.9163 -0.8344
 8747SOL    HW237878   4.536   0.777   2.903 -2.8878 -0.8115 -0.2517
 8748SOL     OW37879   2.216   4.305   0.267  0.0436 -0.4438 -0.3755
 8748SOL    HW137880   2.295   4.347   0.299 -0.6983  0.6850 -0.0502
 8748SOL    HW237881   2.248   4.215   0.260 -0.1382 -0.6428  1.4616
 8749SOL     OW37882   1.861   1.249   0.847 -0.3835 -0.2384 -0.4074
 8749SOL    HW137883   1.844   1.270   0.755  1.5216  3.3344  0.0692
 8749SOL    HW237884   1.931   1.183   0.844  0.6307  0.7753  1.2276
 8750SOL     OW37885   0.260   1.162  14.421  0.2732 -0.2183 -0.0388
 8750SOL    HW137886   0.196   1.118  14.476  0.5401 -1.2641 -0.5671
 8750SOL    HW237887   0.338   1.106  14.423  0.2729 -0.2978 -2.1193
 8751SOL     OW37888   2.814   3.181   6.441  0.8818  0.0253  0.4808
 8751SOL    HW137889   2.824   3.273   6.414  0.4050  0.0516  0.3771
 8751SOL    HW237890   2.845   3.154   6.354 -0.3906 -0.9426  0.3303
 8752SOL     OW37891   1.825   2.459   1.960  0.6240 -0.0248  0.4821
 8752SOL    HW137892   1.837   2.544   1.918 -0.9868  0.8639  1.8593
 8752SOL    HW237893   1.915   2.451   1.992  0.6617  0.4658  0.5010
 8753SOL     OW37894   3.279   1.861   1.634 -0.2325  0.0156  0.2063
 8753SOL    HW137895   3.194   1.873   1.677 -0.7043  3.3845 -1.6356
 8753SOL    HW237896   3.333   1.930   1.672  0.5955 -1.5554  1.8373
 8754SOL     OW37897   3.606   2.622   7.944 -0.0899  0.1982 -0.5882
 8754SOL    HW137898   3.570   2.575   8.019  1.3217 -0.0549 -0.0676
 8754SOL    HW237899   3.613   2.553   7.879 -0.8285 -0.9377  0.5377
 8755SOL     OW37900   1.259   3.636  15.761  0.8625  0.6323  0.1372
 8755SOL    HW137901   1.333   3.633  15.701  0.2981  2.0674 -0.6340
 8755SOL    HW237902   1.181   3.617  15.710  0.1671 -0.1546  1.4923
 8756SOL     OW37903   4.297   3.193  17.003  0.1981  0.4217  0.1677
 8756SOL    HW137904   4.390   3.194  16.979  0.1965  2.3541  0.2603
 8756SOL    HW237905   4.261   3.187  16.914  1.3643 -2.1532 -0.1412
 8757SOL     OW37906   4.273   2.912   7.589  0.0363  1.0038 -0.3083
 8757SOL    HW137907   4.299   2.860   7.513 -0.8123  0.3096 -0.1230
 8757SOL    HW237908   4.340   2.890   7.654 -0.2626 -0.8122 -0.6249
 8758SOL     OW37909   0.619   3.677   9.312 -0.5340  0.2767  0.1670
 8758SOL    HW137910   0.683   3.738   9.276  0.0586  0.3883  1.3972
 8758SOL    HW237911   0.600   3.614   9.243 -2.3232  3.5969 -2.3293
 8759SOL     OW37912   2.438   0.465   1.129  0.1663  0.6666 -0.1536
 8759SOL    HW137913   2.446   0.500   1.041  0.4320  2.2764  0.5159
 8759SOL    HW237914   2.343   0.453   1.127  0.2981 -0.0354 -1.7046
 8760SOL     OW37915   4.384   4.030   1.537  0.0246  0.1332  0.1411
 8760SOL    HW137916   4.460   4.088   1.548 -0.0700  0.1859  0.5066
 8760SOL    HW237917   4.310   4.082   1.567  0.5260  0.1563  1.3519
 8761SOL     OW37918   4.192   1.325  10.766 -0.0956  0.5114  0.0414
 8761SOL    HW137919   4.272   1.291  10.805 -1.4797 -0.9190  1.7058
 8761SOL    HW237920   4.134   1.248  10.761  0.2535  0.2538  0.0016
 8762SOL     OW37921   0.539   2.744   5.418 -0.4808  0.3261 -0.7771
 8762SOL    HW137922   0.515   2.761   5.327 -1.7495  1.6259 -0.1917
 8762SOL    HW237923   0.472   2.789   5.468  0.3265 -0.6083  1.1344
 8763SOL     OW37924   3.027   3.498   2.385  0.1527  0.2953  0.2769
 8763SOL    HW137925   2.999   3.411   2.355  0.4850 -1.2119  4.2149
 8763SOL    HW237926   3.116   3.474   2.411 -0.4280 -1.4568  0.6701
 8764SOL     OW37927   4.560   3.770   9.460  0.1569  0.3144 -0.0539
 8764SOL    HW137928   4.513   3.744   9.539 -1.5266  0.7298 -0.9108
 8764SOL    HW237929   4.542   3.702   9.396  1.5579  0.5001 -0.6446
 8765SOL     OW37930   1.872   0.483   7.379  0.6939 -0.2297  0.5240
 8765SOL    HW137931   1.883   0.398   7.422 -0.8015 -1.0894 -0.8058
 8765SOL    HW237932   1.778   0.485   7.396 -0.0901  0.7625 -3.9631
 8766SOL     OW37933   0.202   3.336   2.431 -0.6620  0.4683  0.8369
 8766SOL    HW137934   0.291   3.350   2.464 -0.1412 -0.9800  0.0795
 8766SOL    HW237935   0.188   3.411   2.373  0.8825 -0.1833 -0.3904
 8767SOL     OW37936   2.546   1.665   3.294 -0.3852 -0.0268  0.8521
 8767SOL    HW137937   2.517   1.709   3.374  1.5553  0.3137  1.3654
 8767SOL    HW237938   2.587   1.731   3.237 -0.0016 -0.6410  0.4254
 8768SOL     OW37939   1.133   2.577  14.571  0.1845 -0.5853  0.4785
 8768SOL    HW137940   1.211   2.625  14.545 -0.2173  0.0151  0.3873
 8768SOL    HW237941   1.082   2.641  14.620  0.4297 -0.2441  0.2893
 8769SOL     OW37942   2.900   2.179   4.450 -0.0061  0.6017  0.6918
 8769SOL    HW137943   2.966   2.248   4.444  2.2710 -1.7336 -0.8700
 8769SOL    HW237944   2.917   2.142   4.536 -3.0874  1.6668  1.7541
 8770SOL     OW37945   2.820   1.156   3.394 -0.3685  0.6623 -0.0466
 8770SOL    HW137946   2.827   1.247   3.422  0.5649  1.4923 -2.9654
 8770SOL    HW237947   2.727   1.137   3.405 -0.3665  0.9675  0.4571
 8771SOL     OW37948   2.826   0.526   2.404 -0.0517  0.0765  0.3483
 8771SOL    HW137949   2.814   0.605   2.351 -2.0543 -0.8212 -0.5780
 8771SOL    HW237950   2.759   0.469   2.366  2.5901 -0.2450 -3.8334
 8772SOL     OW37951   3.165   0.158   8.215  0.4466 -0.1293  0.0068
 8772SOL    HW137952   3.133   0.208   8.290 -2.1051 -0.1338 -1.0663
 8772SOL    HW237953   3.100   0.087   8.212  0.4478 -0.1703  0.8536
 8773SOL     OW37954   1.915   1.814  15.620 -0.1931 -0.2527  0.0366
 8773SOL    HW137955   1.888   1.727  15.650 -0.0067 -0.4804 -0.4546
 8773SOL    HW237956   1.876   1.809  15.533  2.7224 -1.0912 -1.2360
 8774SOL     OW37957   0.836   3.681  17.156  0.8064  0.0968 -0.3067
 8774SOL    HW137958   0.780   3.641  17.090  0.4853  1.8831 -1.1069
 8774SOL    HW237959   0.892   3.725  17.092  0.7718 -1.0257 -1.1093
 8775SOL     OW37960   0.892   3.110   7.770 -0.4179  0.1726 -0.3239
 8775SOL    HW137961   0.902   3.098   7.676 -1.0223  1.3432 -0.5468
 8775SOL    HW237962   0.905   3.204   7.758 -0.1667 -0.4034 -4.4403
 8776SOL     OW37963   3.164   2.161   3.728 -0.6152 -0.2678 -0.1527
 8776SOL    HW137964   3.117   2.229   3.679  1.3560  1.5166  0.4481
 8776SOL    HW237965   3.221   2.213   3.784 -1.2439 -1.9656  2.0369
 8777SOL     OW37966   0.540   1.974  14.244  0.2584  0.3636  0.3273
 8777SOL    HW137967   0.626   1.949  14.208 -0.5063  0.9532 -1.9100
 8777SOL    HW237968   0.489   1.966  14.164  0.6396 -1.0130  0.2159
 8778SOL     OW37969   1.592   2.794  16.144 -0.3476  0.5405 -0.3463
 8778SOL    HW137970   1.681   2.825  16.126  0.1927 -1.0678 -0.4216
 8778SOL    HW237971   1.604   2.700  16.132 -1.3043  0.2221  1.1963
 8779SOL     OW37972   3.537   0.593   6.105  0.6940  0.0072  0.2280
 8779SOL    HW137973   3.535   0.537   6.183  1.2489 -0.6351 -0.2185
 8779SOL    HW237974   3.512   0.679   6.138 -1.3276 -0.2871 -0.5029
 8780SOL     OW37975   1.489   0.597   6.852 -0.0297  1.0017 -0.0772
 8780SOL    HW137976   1.534   0.671   6.812  2.1533 -0.2398  0.1040
 8780SOL    HW237977   1.549   0.554   6.913 -0.1716  0.8175 -0.0670
 8781SOL     OW37978   2.734   3.598  10.452 -0.0109  0.4416  0.1451
 8781SOL    HW137979   2.820   3.639  10.460  0.3298 -0.0002 -1.4268
 8781SOL    HW237980   2.688   3.676  10.419  0.3053  0.0262 -1.2764
 8782SOL     OW37981   2.778   3.827   3.062  0.3727  0.6987 -0.0845
 8782SOL    HW137982   2.824   3.897   3.015  2.2502  0.4382  1.3356
 8782SOL    HW237983   2.800   3.745   3.018 -0.1695 -0.1802  1.2880
 8783SOL     OW37984   1.982   3.865   7.556  0.4703 -0.0486  0.9824
 8783SOL    HW137985   1.909   3.910   7.597 -0.3727  0.0990 -0.7207
 8783SOL    HW237986   2.048   3.880   7.624  0.5503  0.1573  0.8598
 8784SOL     OW37987   2.114   3.138  12.716 -0.7289 -0.2940 -0.0528
 8784SOL    HW137988   2.086   3.047  12.711  0.1082 -0.5618  0.0366
 8784SOL    HW237989   2.122   3.150  12.811 -0.4376 -1.7786  0.1138
 8785SOL     OW37990   3.926   3.519  16.777  0.4663 -0.6100  0.0783
 8785SOL    HW137991   3.919   3.451  16.844 -1.4848 -0.2364  0.2404
 8785SOL    HW237992   3.965   3.592  16.827 -2.0427  1.3230 -0.8043
 8786SOL     OW37993   3.011   1.202   8.180 -0.1668  0.4277  0.4021
 8786SOL    HW137994   3.104   1.184   8.164 -0.7656  0.0282 -2.6225
 8786SOL    HW237995   2.960   1.157   8.112  0.6627  0.9052 -0.5254
 8787SOL     OW37996   0.106   2.078   3.550  0.1420 -0.6054  0.1514
 8787SOL    HW137997   0.141   2.160   3.587 -1.3381 -1.0333  2.5156
 8787SOL    HW237998   0.012   2.090   3.558  0.1189 -2.2203  2.3979
 8788SOL     OW37999   1.502   3.923  17.710  0.2135  0.2187  0.0720
 8788SOL    HW138000   1.574   3.862  17.725  0.0878  0.0491 -0.0144
 8788SOL    HW238001   1.545   4.007  17.693  0.9544 -0.2097 -0.1885
 8789SOL     OW38002   2.701   0.537   5.925  0.0208  0.1913 -0.3536
 8789SOL    HW138003   2.628   0.589   5.959  0.0021 -0.7978  1.1256
 8789SOL    HW238004   2.726   0.588   5.849  2.0427  0.1694  0.2969
 8790SOL     OW38005   0.756   0.173   1.630 -0.3522 -0.0500 -0.3394
 8790SOL    HW138006   0.666   0.189   1.603  0.4527  0.5305 -2.7229
 8790SOL    HW238007   0.771   0.249   1.686 -1.3415 -1.0084  1.2236
 8791SOL     OW38008   2.863   4.314   2.378 -0.1984 -0.3567 -0.0716
 8791SOL    HW138009   2.913   4.390   2.408 -0.6733 -0.1967  0.3129
 8791SOL    HW238010   2.905   4.285   2.297  1.8803  0.2528  0.7957
 8792SOL     OW38011   3.230   1.237   8.754  0.2293 -0.1941 -0.4768
 8792SOL    HW138012   3.294   1.253   8.823 -0.8196  1.1633  0.1954
 8792SOL    HW238013   3.151   1.289   8.772  1.1330  1.4552 -1.2474
 8793SOL     OW38014   3.861   0.300   5.331 -0.3278  0.2469 -0.4119
 8793SOL    HW138015   3.895   0.226   5.381  1.7793  0.7015 -1.1500
 8793SOL    HW238016   3.901   0.374   5.378  0.0797  1.4680 -2.6751
 8794SOL     OW38017   3.030   2.016   6.378  0.1998  0.0907  0.1291
 8794SOL    HW138018   2.941   2.000   6.346 -0.4454  1.5335  1.1695
 8794SOL    HW238019   3.034   1.958   6.453 -0.7798  0.9740  0.8641
 8795SOL     OW38020   1.017   2.283   8.924  0.4012 -0.5277  0.1361
 8795SOL    HW138021   0.953   2.224   8.963  1.0999 -1.6595 -0.4383
 8795SOL    HW238022   1.075   2.212   8.895 -1.2853 -2.4700  1.5226
 8796SOL     OW38023   2.871   2.875  16.439 -0.0209 -0.1330  0.0295
 8796SOL    HW138024   2.839   2.800  16.390  1.1328  0.6854 -1.9863
 8796SOL    HW238025   2.889   2.928  16.361  2.7440  0.8423  1.3266
 8797SOL     OW38026   0.212   0.950   3.502  0.5048 -0.6542 -0.7147
 8797SOL    HW138027   0.160   0.930   3.424  1.7914  2.0247 -2.2862
 8797SOL    HW238028   0.248   0.865   3.529 -0.2179 -0.1586  1.7205
 8798SOL     OW38029   4.233   0.944   7.685  0.5898  0.1774 -0.2179
 8798SOL    HW138030   4.207   0.858   7.716  2.1597  0.0045  0.6392
 8798SOL    HW238031   4.234   0.937   7.590  0.5131  1.4104 -0.3124
 8799SOL     OW38032   3.523   0.799   2.824  0.1760 -0.0778 -0.2978
 8799SOL    HW138033   3.435   0.762   2.834  0.1946  0.0518  0.3776
 8799SOL    HW238034   3.549   0.824   2.913  2.4155 -0.0817 -0.9466
 8800SOL     OW38035   2.856   0.523   6.407 -0.0081  0.0481 -0.1136
 8800SOL    HW138036   2.944   0.530   6.444 -0.6473 -1.5022  1.7521
 8800SOL    HW238037   2.856   0.587   6.336 -0.6460  1.2148  0.9417
 8801SOL     OW38038   2.026   1.076   3.398  0.0011  0.2405 -0.2924
 8801SOL    HW138039   2.054   0.992   3.435 -1.4101  0.2041  0.7047
 8801SOL    HW238040   2.022   1.134   3.474  0.2324 -0.4695  0.2673
 8802SOL     OW38041   2.816   1.573   8.912 -0.0508  0.2740 -0.1791
 8802SOL    HW138042   2.762   1.511   8.961 -0.2374  0.6770  0.1305
 8802SOL    HW238043   2.755   1.610   8.849  1.2312  1.1011 -0.9334
 8803SOL     OW38044   2.515   1.525   8.501  0.2699 -0.4677 -0.2854
 8803SOL    HW138045   2.446   1.562   8.557 -0.2103 -1.0364 -0.5022
 8803SOL    HW238046   2.466   1.507   8.421  1.9880 -1.3666 -1.1300
 8804SOL     OW38047   2.730   0.355  13.889 -0.8043 -0.1587 -0.2931
 8804SOL    HW138048   2.664   0.340  13.821 -0.4160 -1.7153 -0.3239
 8804SOL    HW238049   2.704   0.444  13.913  2.2718  0.8470 -0.7015
 8805SOL     OW38050   2.253   4.392  13.782 -0.4483 -0.0201  0.0343
 8805SOL    HW138051   2.332   4.377  13.834 -1.2174 -0.7967  0.9699
 8805SOL    HW238052   2.176   4.373  13.835  0.6680 -0.8098  1.3780
 8806SOL     OW38053   2.994   2.239   7.480  0.1242 -0.4267  0.0838
 8806SOL    HW138054   2.899   2.241   7.491  0.0750 -0.3151 -0.3461
 8806SOL    HW238055   3.020   2.272   7.566  0.4880  0.1598 -0.2520
 8807SOL     OW38056   1.008   3.491   8.966  0.4571 -0.4718  0.0351
 8807SOL    HW138057   0.937   3.529   8.913  0.3399 -2.3738 -1.1566
 8807SOL    HW238058   1.083   3.550   8.974 -2.1995  3.4259 -3.3315
 8808SOL     OW38059   2.378   1.526   7.446 -0.5916  0.5605 -0.8552
 8808SOL    HW138060   2.323   1.562   7.376 -0.0690  0.7677 -1.1551
 8808SOL    HW238061   2.340   1.438   7.455 -0.7868  0.7008 -0.3093
 8809SOL     OW38062   4.408   0.720  11.907 -0.1684  0.1899  0.2328
 8809SOL    HW138063   4.321   0.687  11.930 -0.8040  2.2560  0.7864
 8809SOL    HW238064   4.460   0.694  11.983  0.7751  0.7111 -0.2358
 8810SOL     OW38065   0.082   4.597   5.931 -0.2361 -0.6398  0.7736
 8810SOL    HW138066   0.166   4.585   5.886  0.0866 -1.6773  1.6555
 8810SOL    HW238067   0.098   4.684   5.967 -1.2675  0.0471 -0.4255
 8811SOL     OW38068   2.238   1.543  14.162 -0.3876 -0.1429  0.6146
 8811SOL    HW138069   2.222   1.459  14.119  1.2732  0.5905 -1.4249
 8811SOL    HW238070   2.332   1.537  14.182 -0.1866 -0.8646 -0.5666
 8812SOL     OW38071   0.262   0.807  17.256  0.0303 -0.4859 -0.1725
 8812SOL    HW138072   0.304   0.776  17.175  1.8354  1.4322  0.0306
 8812SOL    HW238073   0.227   0.893  17.235 -1.3390 -1.3249 -1.2886
 8813SOL     OW38074   3.536   1.446  10.387  0.2799 -0.4116 -0.0952
 8813SOL    HW138075   3.520   1.462  10.295  0.0120  0.1450  0.0535
 8813SOL    HW238076   3.564   1.355  10.377 -1.1388 -1.2647  3.5531
 8814SOL     OW38077   2.122   0.850   4.951  0.6247 -0.2190 -0.3514
 8814SOL    HW138078   2.143   0.821   5.040  1.7686  0.2710 -0.4604
 8814SOL    HW238079   2.070   0.775   4.924  0.2160  0.2090 -0.7509
 8815SOL     OW38080   2.207   4.535   2.924 -1.1062 -0.2479 -0.2401
 8815SOL    HW138081   2.122   4.568   2.952 -0.4734  0.9608  0.2846
 8815SOL    HW238082   2.269   4.604   2.950 -0.4324  0.0695 -2.6269
 8816SOL     OW38083   3.082   3.678   6.810 -0.3972 -0.0439  0.0843
 8816SOL    HW138084   3.093   3.638   6.896  1.2986  2.2941  0.9432
 8816SOL    HW238085   3.152   3.630   6.768 -0.0856  0.9539 -0.5508
 8817SOL     OW38086   0.093   1.980   4.106  0.2366 -0.5992 -0.5260
 8817SOL    HW138087   0.168   1.983   4.047  1.3822 -0.5670  0.9332
 8817SOL    HW238088   0.027   2.030   4.058  1.0166  1.6712  0.7669
 8818SOL     OW38089   0.919   4.506   9.586 -0.3639  0.0186 -0.3105
 8818SOL    HW138090   0.987   4.507   9.653  0.4737 -0.9782 -1.1434
 8818SOL    HW238091   0.846   4.526   9.645  1.0605  2.3167  0.6390
 8819SOL     OW38092   0.854   3.639  12.676  0.4253 -0.1677  0.2967
 8819SOL    HW138093   0.882   3.632  12.767 -1.8827 -0.2254  1.0051
 8819SOL    HW238094   0.940   3.636  12.634  0.2975  3.1593 -0.1939
 8820SOL     OW38095   2.172   1.641   4.219  0.3070  0.6539 -0.2291
 8820SOL    HW138096   2.187   1.605   4.131 -0.9184 -0.0209 -0.1723
 8820SOL    HW238097   2.201   1.732   4.210 -1.4331  1.2730  0.3598
 8821SOL     OW38098   0.419   0.303   3.476  0.0646  0.1451 -0.0537
 8821SOL    HW138099   0.438   0.220   3.519 -1.8279 -0.7721 -1.0052
 8821SOL    HW238100   0.436   0.366   3.545 -1.9722  2.1572 -1.3983
 8822SOL     OW38101   1.592   2.435   8.892  0.7932 -0.1599 -0.0678
 8822SOL    HW138102   1.529   2.503   8.869 -1.7291 -2.0543  1.3267
 8822SOL    HW238103   1.645   2.444   8.812  0.7681  1.6893  0.1080
 8823SOL     OW38104   2.643   2.141   5.036 -0.2818  0.2450 -0.2383
 8823SOL    HW138105   2.626   2.225   4.993 -0.7798  0.4691  0.3985
 8823SOL    HW238106   2.583   2.147   5.110  1.4985 -1.2705  1.3443
 8824SOL     OW38107   3.324   0.342  15.459  0.4235 -0.0464 -0.3307
 8824SOL    HW138108   3.371   0.269  15.499  0.3313  0.6101  1.0020
 8824SOL    HW238109   3.333   0.314  15.368  1.0583 -0.8491 -0.0168
 8825SOL     OW38110   3.820   0.658   3.806  0.6327  0.0214 -0.0753
 8825SOL    HW138111   3.778   0.611   3.734 -1.3300 -0.3755  1.3219
 8825SOL    HW238112   3.901   0.690   3.765  0.1218  2.3714  0.7384
 8826SOL     OW38113   3.409   3.584   9.494 -0.2343  0.0635  0.1617
 8826SOL    HW138114   3.417   3.604   9.401 -0.2654 -2.2779 -0.3586
 8826SOL    HW238115   3.492   3.616   9.530 -0.0582  0.1716 -0.3456
 8827SOL     OW38116   2.299   4.304  11.282  0.3400 -0.9138  0.1007
 8827SOL    HW138117   2.391   4.332  11.276  0.3802 -0.9410  0.5975
 8827SOL    HW238118   2.278   4.323  11.374  2.0889  0.9221  0.1199
 8828SOL     OW38119   0.745   4.388   3.469  0.7349 -0.1034 -0.2357
 8828SOL    HW138120   0.779   4.361   3.554  0.6232 -0.6203 -0.3515
 8828SOL    HW238121   0.674   4.324   3.466  2.2674 -1.8323  0.4770
 8829SOL     OW38122   4.083   4.206   9.457 -0.4138 -0.1000 -0.5518
 8829SOL    HW138123   4.043   4.232   9.375 -2.4809  1.6186  1.0080
 8829SOL    HW238124   4.108   4.114   9.446  0.8487  0.3684 -1.5320
 8830SOL     OW38125   0.437   4.390   2.097 -0.1051 -0.0845  0.2491
 8830SOL    HW138126   0.364   4.450   2.084 -0.1952 -0.4057 -0.6998
 8830SOL    HW238127   0.504   4.435   2.148 -0.6072 -0.7074  1.4776
 8831SOL     OW38128   4.721   4.413   7.969 -0.0723  0.1106 -0.5147
 8831SOL    HW138129   4.630   4.430   7.993  0.7431  1.9428  1.2668
 8831SOL    HW238130   0.004   4.359   8.044  0.7047  0.5787 -0.4088
 8832SOL     OW38131   1.057   2.490   5.729  0.3577 -0.5007  0.4772
 8832SOL    HW138132   1.012   2.504   5.813  2.6654  2.0016  1.2883
 8832SOL    HW238133   0.976   2.495   5.678  2.2528  1.4818 -2.3037
 8833SOL     OW38134   1.638   1.654   0.377 -0.2303 -0.1388 -0.7174
 8833SOL    HW138135   1.642   1.714   0.303  0.8319  1.5302  0.6970
 8833SOL    HW238136   1.553   1.618   0.352  0.1371 -0.0117 -2.1082
 8834SOL     OW38137   2.723   1.789   4.134 -0.3117  0.3307  0.0937
 8834SOL    HW138138   2.746   1.764   4.044 -2.0553  0.7954 -0.4787
 8834SOL    HW238139   2.800   1.829   4.175  0.8011 -2.3080  0.5720
 8835SOL     OW38140   1.248   3.854   7.224 -0.0060  0.0480  0.1483
 8835SOL    HW138141   1.313   3.870   7.291 -0.4730  1.4619  0.2545
 8835SOL    HW238142   1.277   3.907   7.149  1.7220  0.1389  0.8897
 8836SOL     OW38143   2.452   1.896   7.725  0.5122  1.1273  0.0477
 8836SOL    HW138144   2.386   1.873   7.660 -0.4688 -0.1993  1.5150
 8836SOL    HW238145   2.487   1.817   7.764 -2.4746  0.2511  0.9322
 8837SOL     OW38146   3.168   1.406  16.111 -0.3618  0.4485 -0.1616
 8837SOL    HW138147   3.106   1.368  16.174  1.0181 -0.7050  0.5043
 8837SOL    HW238148   3.165   1.499  16.132  0.4111 -0.0543  2.2075
 8838SOL     OW38149   0.711   1.624   3.684 -0.3282 -0.2458 -0.2702
 8838SOL    HW138150   0.721   1.704   3.735 -0.0042  0.0253 -0.7555
 8838SOL    HW238151   0.619   1.640   3.662 -0.8170  1.5168  2.9896
 8839SOL     OW38152   0.853   2.938   1.672 -0.4877  0.0611  1.2194
 8839SOL    HW138153   0.937   2.980   1.693  0.3167 -0.8925 -0.0887
 8839SOL    HW238154   0.817   2.940   1.761  1.2248 -0.1821  1.9203
 8840SOL     OW38155   2.250   2.696   0.435  0.4899 -0.1686 -0.3705
 8840SOL    HW138156   2.257   2.660   0.523  0.7476  1.8335  0.4374
 8840SOL    HW238157   2.316   2.765   0.438  1.4393 -1.0675 -0.8588
 8841SOL     OW38158   3.858   4.531   9.620  0.5133 -0.3658  0.7306
 8841SOL    HW138159   3.949   4.512   9.597  0.2027 -1.3565  0.2833
 8841SOL    HW238160   3.863   4.520   9.715  1.5682  1.7673  0.9137
 8842SOL     OW38161   4.100   4.679  13.123  0.2158  0.1553  0.2376
 8842SOL    HW138162   4.181   4.725  13.146 -0.0532  1.5531 -1.6155
 8842SOL    HW238163   4.127   4.591  13.147 -1.9380  0.4388  3.7306
 8843SOL     OW38164   4.549   0.998  13.941 -0.0979 -0.2209 -0.2173
 8843SOL    HW138165   4.620   0.937  13.925 -0.1269 -0.4113  0.3838
 8843SOL    HW238166   4.582   1.037  14.022  0.8932  1.7979 -1.5838
 8844SOL     OW38167   0.600   1.819   5.199  0.1317 -0.3225 -0.2359
 8844SOL    HW138168   0.521   1.775   5.167 -1.0077  0.3386  1.6679
 8844SOL    HW238169   0.595   1.791   5.291 -1.1005  1.0508  0.1215
 8845SOL     OW38170   2.078   2.577   4.497  0.6001 -0.1431 -0.1236
 8845SOL    HW138171   2.094   2.644   4.430  0.7136  0.3223  0.3607
 8845SOL    HW238172   2.115   2.500   4.455  1.0141 -0.2412  0.4235
 8846SOL     OW38173   0.281   0.439   2.806  0.5223  0.1281  0.2111
 8846SOL    HW138174   0.201   0.485   2.781  0.0302 -2.0362 -2.2447
 8846SOL    HW238175   0.331   0.446   2.724 -1.3572  0.1912 -0.9456
 8847SOL     OW38176   1.882   1.186   3.202 -0.6897  0.1590 -0.2582
 8847SOL    HW138177   1.939   1.161   3.129 -1.7841 -0.1626 -1.0013
 8847SOL    HW238178   1.941   1.153   3.270 -0.3606  1.1715 -0.0554
 8848SOL     OW38179   1.513   4.403   2.016 -0.3593 -0.5829  0.6718
 8848SOL    HW138180   1.560   4.329   1.977  0.5487 -0.2649  1.1696
 8848SOL    HW238181   1.434   4.362   2.050 -0.4230 -1.1983 -0.2052
 8849SOL     OW38182   2.844   1.666   2.664  0.3982 -0.6175  0.1698
 8849SOL    HW138183   2.864   1.610   2.739 -0.1528 -0.7689  0.1997
 8849SOL    HW238184   2.817   1.742   2.716 -0.6905 -0.6391 -0.3700
 8850SOL     OW38185   1.632   3.714   2.278 -0.7539  0.4595  0.1338
 8850SOL    HW138186   1.704   3.652   2.268 -0.6331  0.0501  3.5656
 8850SOL    HW238187   1.683   3.780   2.324  1.3753 -1.0207 -0.1391
 8851SOL     OW38188   0.822   2.521  16.284 -0.1885  0.1601  0.2989
 8851SOL    HW138189   0.786   2.490  16.201  0.1444  1.0188 -0.1583
 8851SOL    HW238190   0.909   2.558  16.267 -1.2616  1.8042 -1.6654
 8852SOL     OW38191   1.790   1.991   9.406  0.4346  0.5705 -0.2048
 8852SOL    HW138192   1.780   2.084   9.424 -1.9568  0.4199 -0.7090
 8852SOL    HW238193   1.835   1.962   9.486 -2.1024  1.3206  1.5031
 8853SOL     OW38194   2.267   4.731  13.835 -0.4774 -0.0875  0.1146
 8853SOL    HW138195   2.320   4.654  13.814 -0.5345  0.2022 -1.0873
 8853SOL    HW238196   2.247   0.032  13.751  1.1613  0.7815  0.1313
 8854SOL     OW38197   2.465   4.712  14.721  0.4691 -0.0874  0.0229
 8854SOL    HW138198   2.495   4.628  14.685 -2.2276 -0.9349 -0.2291
 8854SOL    HW238199   2.400   4.679  14.782 -0.7403 -1.3459 -1.9317
 8855SOL     OW38200   3.193   0.239   8.957  0.0303 -0.5289  0.2716
 8855SOL    HW138201   3.272   0.215   9.006 -0.0815  1.0840  1.2467
 8855SOL    HW238202   3.152   0.154   8.943 -2.0410  0.7147 -1.1276
 8856SOL     OW38203   3.583   4.519   8.638  0.2484 -0.2943  0.6019
 8856SOL    HW138204   3.519   4.477   8.581  0.3004  0.5512 -0.0856
 8856SOL    HW238205   3.547   4.605   8.660  0.0678 -0.3918  0.6828
 8857SOL     OW38206   2.075   1.776   6.238  0.1520  0.4317  0.4512
 8857SOL    HW138207   2.094   1.869   6.252 -1.2436  0.8298 -0.2584
 8857SOL    HW238208   2.135   1.762   6.164  1.0921 -1.0705  1.5020
 8858SOL     OW38209   2.959   0.513   6.090 -0.3317  0.2361  0.4834
 8858SOL    HW138210   2.908   0.532   6.011 -1.6337 -0.9598  1.0188
 8858SOL    HW238211   2.955   0.418   6.102  0.5167  0.2681  0.9723
 8859SOL     OW38212   2.797   0.346   5.492 -0.2086  0.0913  0.2898
 8859SOL    HW138213   2.780   0.263   5.537  0.8171 -0.9818 -1.2512
 8859SOL    HW238214   2.778   0.414   5.555 -0.5932  1.1824 -1.0018
 8860SOL     OW38215   1.305   3.960  10.590 -0.3467 -0.2166 -0.7667
 8860SOL    HW138216   1.235   3.953  10.654  0.3284  2.6233  0.2546
 8860SOL    HW238217   1.330   3.868  10.598  3.0526  1.0282  2.9245
 8861SOL     OW38218   2.636   3.013   4.771  0.0251  0.0864  0.5002
 8861SOL    HW138219   2.668   2.988   4.685  1.4859  0.9430  0.7934
 8861SOL    HW238220   2.548   2.980   4.751 -0.2579  2.3228 -1.9217
 8862SOL     OW38221   4.155   0.514   7.853  0.5491 -0.0447  0.1314
 8862SOL    HW138222   4.135   0.595   7.899  1.4696  0.5832 -0.5800
 8862SOL    HW238223   4.082   0.462   7.888  0.2108  1.1963  1.2723
 8863SOL     OW38224   3.551   0.319   8.100 -0.3416  0.3157  0.2826
 8863SOL    HW138225   3.622   0.343   8.159  0.5850 -3.2214  0.6198
 8863SOL    HW238226   3.486   0.282   8.160 -0.7962 -0.1634 -0.5013
 8864SOL     OW38227   2.697   0.702   6.920  0.0972  0.3353  0.7753
 8864SOL    HW138228   2.758   0.771   6.893 -0.4157  0.3059 -0.4392
 8864SOL    HW238229   2.644   0.683   6.843  0.3408 -0.0948  0.7161
 8865SOL     OW38230   2.052   2.574   8.735 -0.2571 -0.2525 -0.1807
 8865SOL    HW138231   2.073   2.664   8.709  0.0070  0.0485  1.0644
 8865SOL    HW238232   2.134   2.528   8.722 -1.0419 -1.4816 -0.7858
 8866SOL     OW38233   4.039   2.101   8.219  0.0213  0.0609 -0.0490
 8866SOL    HW138234   4.112   2.062   8.171 -0.0013 -1.3501  1.0668
 8866SOL    HW238235   3.978   2.150   8.163  0.8268  1.3767  0.2143
 8867SOL     OW38236   1.378   3.863   9.864 -0.5094  0.3154 -0.0317
 8867SOL    HW138237   1.315   3.931   9.842  1.1529  0.8151 -3.2374
 8867SOL    HW238238   1.456   3.895   9.818  0.5864 -0.5394  1.2011
 8868SOL     OW38239   2.423   0.872   7.615 -0.3400 -0.2571 -0.0242
 8868SOL    HW138240   2.440   0.778   7.623  0.7164 -0.0457  0.2330
 8868SOL    HW238241   2.388   0.878   7.526  0.3103 -0.4744 -0.2964
 8869SOL     OW38242   1.241   0.845  12.190 -0.1842  0.2178 -0.3190
 8869SOL    HW138243   1.272   0.931  12.161 -0.1474 -0.8139 -3.4117
 8869SOL    HW238244   1.186   0.821  12.115  0.4715 -2.2459 -0.0306
 8870SOL     OW38245   2.670   1.510   6.448 -0.1472  0.5138  0.2307
 8870SOL    HW138246   2.734   1.536   6.382 -1.1487 -2.3132 -1.7983
 8870SOL    HW238247   2.593   1.551   6.410  0.4282  1.0679 -0.3592
 8871SOL     OW38248   4.346   3.267   2.552 -0.4891  0.5777 -0.2098
 8871SOL    HW138249   4.419   3.208   2.532 -0.3959 -0.0302  1.9439
 8871SOL    HW238250   4.363   3.343   2.497  1.0888  0.0870 -0.3890
 8872SOL     OW38251   2.787   4.295   7.891  0.2695  0.3214  0.0002
 8872SOL    HW138252   2.734   4.255   7.822 -0.6747 -1.5164  1.7811
 8872SOL    HW238253   2.769   4.384   7.860 -1.9753 -0.1643 -0.1203
 8873SOL     OW38254   0.649   2.106   5.227 -0.3470 -0.2563  0.3588
 8873SOL    HW138255   0.688   2.020   5.208  1.0784 -0.4169  4.1226
 8873SOL    HW238256   0.559   2.073   5.232 -0.0621 -1.0767  0.1645
 8874SOL     OW38257   1.905   2.205   8.118 -0.6098  0.7847 -0.2101
 8874SOL    HW138258   1.937   2.204   8.028  0.6204  2.0179  0.2020
 8874SOL    HW238259   1.864   2.119   8.114  2.6846 -0.8503  1.0319
 8875SOL     OW38260   1.280   1.502  11.299  0.2615  0.2492  0.2442
 8875SOL    HW138261   1.215   1.568  11.273 -1.3079 -1.1245  0.6916
 8875SOL    HW238262   1.335   1.554  11.358  1.1400 -1.2126  0.6952
 8876SOL     OW38263   2.551   2.209   9.404 -0.6637  0.7013  0.4596
 8876SOL    HW138264   2.530   2.270   9.474 -0.6088 -0.3701  1.4041
 8876SOL    HW238265   2.624   2.256   9.364  0.6703 -0.5030  1.4642
 8877SOL     OW38266   3.983   4.077   6.601  0.2406  0.1410 -0.2813
 8877SOL    HW138267   4.046   4.006   6.596  0.3122  0.2217 -0.5303
 8877SOL    HW238268   4.019   4.126   6.675 -2.1302  1.4880 -0.0319
 8878SOL     OW38269   4.552   4.001  12.562 -0.5705  0.1252 -0.9586
 8878SOL    HW138270   4.516   3.914  12.576 -0.3259  0.5562  2.3654
 8878SOL    HW238271   4.501   4.039  12.491 -0.0282 -0.0598 -1.4463
 8879SOL     OW38272   3.777   4.375  16.490 -0.0722  0.5398  0.0743
 8879SOL    HW138273   3.831   4.402  16.564  0.7713  0.3210 -0.4679
 8879SOL    HW238274   3.776   4.455  16.439 -1.8556  1.2630  1.2096
 8880SOL     OW38275   0.102   3.136  12.248  0.0263  0.1964 -0.4079
 8880SOL    HW138276   0.174   3.181  12.292 -0.5512  0.7700 -0.0478
 8880SOL    HW238277   0.072   3.090  12.327  1.6599 -0.9276 -0.4537
 8881SOL     OW38278   2.425   3.968   4.847 -0.0656 -0.1116  0.5867
 8881SOL    HW138279   2.465   3.947   4.931  1.6441 -1.0326 -0.4729
 8881SOL    HW238280   2.434   3.881   4.808 -0.6488 -0.9337  2.2698
 8882SOL     OW38281   2.911   3.066  13.681 -0.3849  0.2708 -0.1997
 8882SOL    HW138282   2.836   3.118  13.653 -1.2897 -2.4193 -2.7317
 8882SOL    HW238283   2.982   3.130  13.676 -1.1635  1.1829  0.3744
 8883SOL     OW38284   3.446   0.424   6.598  0.3876 -0.0545 -0.2689
 8883SOL    HW138285   3.432   0.502   6.545  0.6147 -0.1251 -0.4319
 8883SOL    HW238286   3.528   0.445   6.642  0.5429 -1.0934 -0.0610
 8884SOL     OW38287   1.153   1.700   8.579 -0.0838  0.4878 -0.2894
 8884SOL    HW138288   1.229   1.740   8.622 -1.8158  1.5060  1.8478
 8884SOL    HW238289   1.155   1.617   8.626  1.2258  0.5498 -0.2165
 8885SOL     OW38290   1.784   3.486   7.817 -0.1204 -0.7814 -0.9705
 8885SOL    HW138291   1.711   3.432   7.789  0.8158 -2.5070 -0.1061
 8885SOL    HW238292   1.846   3.460   7.749  0.7415  1.6024 -1.0945
 8886SOL     OW38293   0.400   2.843   3.323 -0.0255 -1.3092 -0.0698
 8886SOL    HW138294   0.388   2.831   3.417  0.8753 -0.7975  0.1079
 8886SOL    HW238295   0.489   2.809   3.319  0.1639 -0.9577  1.0298
 8887SOL     OW38296   0.639   3.038   9.071 -0.1225 -0.1263 -0.2234
 8887SOL    HW138297   0.629   3.122   9.026  0.5432  0.1422  0.1287
 8887SOL    HW238298   0.554   3.020   9.111  0.1828 -0.6314  0.1899
 8888SOL     OW38299   4.132   2.103   8.719 -0.0612 -0.3316 -0.1215
 8888SOL    HW138300   4.134   2.195   8.744 -1.0610 -0.3181 -0.0748
 8888SOL    HW238301   4.101   2.060   8.798 -0.8069 -0.3858 -0.4405
 8889SOL     OW38302   3.632   2.804  14.522 -0.6695  0.0480 -0.1719
 8889SOL    HW138303   3.627   2.793  14.427 -1.0873 -0.7439 -0.0504
 8889SOL    HW238304   3.555   2.759  14.555  0.9370 -1.0749  2.0629
 8890SOL     OW38305   1.262   3.670   6.098 -0.2276  0.2843 -0.9659
 8890SOL    HW138306   1.191   3.731   6.119  1.6013  1.4507  1.8240
 8890SOL    HW238307   1.334   3.732   6.105 -2.6826  2.8630  1.4695
 8891SOL     OW38308   3.660   2.164  12.094  0.5091 -0.2085 -0.0991
 8891SOL    HW138309   3.647   2.077  12.129 -1.7564  0.3584  0.4232
 8891SOL    HW238310   3.668   2.215  12.175 -1.2900  0.7129 -0.4993
 8892SOL     OW38311   1.264   2.981  16.196 -0.7187 -0.1305  0.0259
 8892SOL    HW138312   1.300   2.935  16.272 -0.1800  0.4273  0.1100
 8892SOL    HW238313   1.172   2.980  16.223 -0.7418 -2.0301 -0.1466
 8893SOL     OW38314   1.982   0.605  10.453 -0.4164  0.4634 -0.0846
 8893SOL    HW138315   2.051   0.582  10.515  1.2463  1.0762 -1.7172
 8893SOL    HW238316   1.946   0.517  10.445 -0.6074  0.5187  0.1566
 8894SOL     OW38317   1.511   1.096   5.213 -0.4948  0.0318 -0.1924
 8894SOL    HW138318   1.588   1.108   5.157  0.4506 -0.3915  1.0280
 8894SOL    HW238319   1.493   1.188   5.233 -1.2062  0.3633 -2.3284
 8895SOL     OW38320   2.166   1.262   1.649 -0.1200 -0.2908 -0.8251
 8895SOL    HW138321   2.090   1.320   1.654  0.2373 -0.1735  3.0171
 8895SOL    HW238322   2.224   1.325   1.606 -0.5595  0.5136 -0.2341
 8896SOL     OW38323   2.475   3.283   4.816 -0.1058 -0.2261 -0.3412
 8896SOL    HW138324   2.517   3.198   4.829 -2.2878 -1.3709 -0.7278
 8896SOL    HW238325   2.432   3.300   4.900 -0.6036 -0.5349 -0.5310
 8897SOL     OW38326   2.924   3.701   6.494  0.1971 -0.6131  0.3113
 8897SOL    HW138327   2.985   3.640   6.535  2.8106  1.1398 -0.9993
 8897SOL    HW238328   2.891   3.660   6.414 -1.4048  0.9936  0.1558
 8898SOL     OW38329   4.322   3.925   6.020  0.3180  0.0898  0.2741
 8898SOL    HW138330   4.381   3.994   6.049  0.5138 -0.0990  0.3225
 8898SOL    HW238331   4.284   3.968   5.943 -0.5108  2.1324  1.8355
 8899SOL     OW38332   0.601   3.668   6.166  0.2418 -0.6486 -0.5382
 8899SOL    HW138333   0.690   3.635   6.157  0.4403 -0.3792  0.3938
 8899SOL    HW238334   0.563   3.671   6.078  1.6141  3.2416 -1.0185
 8900SOL     OW38335   3.118   4.415   4.179  0.3807  0.0435  0.2360
 8900SOL    HW138336   3.105   4.369   4.096 -1.8434  1.5813 -0.2861
 8900SOL    HW238337   3.156   4.499   4.151 -2.2468  0.4154 -2.2109
 8901SOL     OW38338   3.420   2.991   8.453 -0.0617  0.3304 -0.2249
 8901SOL    HW138339   3.506   2.949   8.457 -0.6570 -0.9070 -0.3941
 8901SOL    HW238340   3.364   2.925   8.412 -0.3411 -0.0214  0.7191
 8902SOL     OW38341   0.288   1.486   5.252 -0.0943 -0.0866  0.3888
 8902SOL    HW138342   0.309   1.402   5.211 -0.0517 -1.1044  2.4641
 8902SOL    HW238343   0.377   1.520   5.258 -0.0244 -0.4529  1.4983
 8903SOL     OW38344   4.416   0.464  12.244 -0.9155 -0.2584  0.1865
 8903SOL    HW138345   4.370   0.380  12.240 -3.0809  0.9800 -0.5377
 8903SOL    HW238346   4.507   0.434  12.247 -1.2899 -1.5423 -1.4904
 8904SOL     OW38347   1.456   3.247  17.164 -0.6004  0.1621 -0.4880
 8904SOL    HW138348   1.438   3.189  17.090 -3.4971 -1.0315  1.1871
 8904SOL    HW238349   1.403   3.207  17.232  0.4829 -0.1515  0.1825
 8905SOL     OW38350   0.355   1.354   9.716 -0.3756  0.5095 -0.0304
 8905SOL    HW138351   0.328   1.443   9.735  2.6329  1.8028 -1.8762
 8905SOL    HW238352   0.335   1.352   9.623 -1.9991  2.4281  0.2781
 8906SOL     OW38353   3.456   4.302  17.071 -0.1476 -0.0419  0.2687
 8906SOL    HW138354   3.428   4.211  17.059 -3.4528  0.9249  0.8609
 8906SOL    HW238355   3.425   4.341  16.990 -0.3119  0.1204  0.4117
 8907SOL     OW38356   2.882   1.087   1.507 -0.1854  0.1099  0.2100
 8907SOL    HW138357   2.897   1.047   1.593 -0.9427  1.0502  0.7874
 8907SOL    HW238358   2.972   1.097   1.477 -0.1018  2.8824  1.3479
 8908SOL     OW38359   3.790   2.279   0.139 -0.0460 -0.1136  0.0099
 8908SOL    HW138360   3.774   2.221   0.214  1.4598  0.5153  0.8263
 8908SOL    HW238361   3.786   2.363   0.185 -0.2315  0.1977 -0.5715
 8909SOL     OW38362   1.074   2.208   4.862  0.2045  0.2826 -0.0500
 8909SOL    HW138363   1.035   2.184   4.778  1.0288 -0.3693 -0.2430
 8909SOL    HW238364   1.129   2.279   4.828 -0.3690  0.7815  0.0648
 8910SOL     OW38365   2.101   0.887  15.491 -0.0563 -0.2429  0.4410
 8910SOL    HW138366   2.071   0.850  15.409  1.5585 -1.6215  0.4632
 8910SOL    HW238367   2.020   0.892  15.542 -1.1749 -1.9386 -1.1883
 8911SOL     OW38368   1.232   2.661   8.985  0.3599  0.0134  0.6617
 8911SOL    HW138369   1.231   2.576   9.028  1.8361 -0.4693 -0.2440
 8911SOL    HW238370   1.278   2.723   9.042 -1.5741  1.5798  0.5243
 8912SOL     OW38371   3.689   2.164  11.488 -0.1815 -0.3489 -0.0180
 8912SOL    HW138372   3.725   2.236  11.436  0.5260 -0.2569  0.5877
 8912SOL    HW238373   3.658   2.220  11.560 -0.9226  0.7622 -1.2068
 8913SOL     OW38374   1.203   0.569   1.825  0.0138 -0.1745 -0.3394
 8913SOL    HW138375   1.289   0.579   1.783 -0.0618  1.8475 -0.0033
 8913SOL    HW238376   1.221   0.518   1.904  0.7259  0.5003 -0.0720
 8914SOL     OW38377   2.611   1.974  11.498  0.8551 -0.0805  0.6530
 8914SOL    HW138378   2.608   1.947  11.589  2.2197 -3.2926 -0.2448
 8914SOL    HW238379   2.647   1.893  11.460 -0.3987 -0.6504  0.6860
 8915SOL     OW38380   3.062   0.241  16.630 -0.5440 -0.3450  0.1736
 8915SOL    HW138381   3.011   0.283  16.699 -1.4603  0.0915 -0.7763
 8915SOL    HW238382   3.103   0.318  16.591 -1.0492  0.2241  0.7687
 8916SOL     OW38383   2.938   2.368  11.023  0.2542 -0.1334  0.0933
 8916SOL    HW138384   2.847   2.351  11.048 -1.0382  0.6495 -4.0770
 8916SOL    HW238385   2.925   2.453  10.980 -0.8460 -0.7905 -0.8830
 8917SOL     OW38386   1.813   1.275   5.516 -0.3681  0.5439 -0.4320
 8917SOL    HW138387   1.884   1.293   5.577 -0.4934 -1.0967  0.1874
 8917SOL    HW238388   1.765   1.207   5.564  0.0246  0.2056 -0.5267
 8918SOL     OW38389   2.192   2.293   2.739 -0.2906 -0.3383 -0.1981
 8918SOL    HW138390   2.113   2.247   2.712 -0.6361  0.2026 -0.1205
 8918SOL    HW238391   2.164   2.328   2.824  0.3985 -1.0168  0.3038
 8919SOL     OW38392   0.937   1.840  17.216  0.7248 -0.2445  0.9114
 8919SOL    HW138393   0.936   1.806  17.305  1.2377 -1.4746  0.4606
 8919SOL    HW238394   0.954   1.932  17.231  1.7336 -0.0046 -1.6185
 8920SOL     OW38395   4.211   0.161   7.648 -0.4268  0.6645 -0.5631
 8920SOL    HW138396   4.123   0.199   7.645 -0.6531  0.1645 -0.1576
 8920SOL    HW238397   4.205   0.118   7.733 -0.1232 -1.0767 -1.4381
 8921SOL     OW38398   3.398   1.122  16.897 -0.1877  0.2228  0.0357
 8921SOL    HW138399   3.443   1.206  16.896  0.5921 -0.2225 -2.7787
 8921SOL    HW238400   3.349   1.122  16.979  0.9464 -0.1471  0.7187
 8922SOL     OW38401   0.731   0.104  13.767  0.5495  0.0638  0.3557
 8922SOL    HW138402   0.821   0.072  13.765 -0.3010 -2.2763  0.0325
 8922SOL    HW238403   0.691   0.085  13.682  0.7740 -0.6717  0.4177
 8923SOL     OW38404   0.904   3.609   3.029  0.2122  0.2298 -0.3327
 8923SOL    HW138405   0.930   3.541   3.091  2.2776  1.2300 -0.0828
 8923SOL    HW238406   0.907   3.571   2.942  0.8902  2.5336 -1.3219
 8924SOL     OW38407   1.011   3.888   1.240  0.0459 -0.2990  0.8306
 8924SOL    HW138408   1.041   3.820   1.300  0.9133  0.4035  1.1997
 8924SOL    HW238409   0.916   3.879   1.240  0.0276 -0.3090 -2.1114
 8925SOL     OW38410   1.855   1.745  16.668  0.3774  0.0176 -0.4897
 8925SOL    HW138411   1.884   1.746  16.760  1.1434  0.7176 -0.7383
 8925SOL    HW238412   1.790   1.676  16.682 -0.1756  0.5743 -0.3279
 8926SOL     OW38413   0.450   3.052   5.757  0.3496 -0.2800 -0.3022
 8926SOL    HW138414   0.419   3.140   5.779 -0.6051 -0.1710 -2.0550
 8926SOL    HW238415   0.511   3.036   5.829  0.6189  1.0913 -0.2199
 8927SOL     OW38416   4.068   4.178   4.276  0.2524 -0.4106 -0.3007
 8927SOL    HW138417   3.986   4.176   4.326  1.0192 -1.3456  0.9127
 8927SOL    HW238418   4.126   4.225   4.335  0.0889 -1.2216  0.5015
 8928SOL     OW38419   2.790   2.050   2.077 -0.7232 -0.3126 -0.3251
 8928SOL    HW138420   2.834   1.975   2.118 -1.9934  0.1003  1.7516
 8928SOL    HW238421   2.773   2.016   1.989  2.9494 -1.6871 -0.5146
 8929SOL     OW38422   4.478   3.855  12.830 -0.0750  0.1101  0.3056
 8929SOL    HW138423   4.537   3.834  12.757  0.7741  0.8661  0.7825
 8929SOL    HW238424   4.453   3.767  12.860 -0.5455 -0.3315 -1.3957
 8930SOL     OW38425   3.295   4.088   9.041  0.6281 -0.4586  0.1145
 8930SOL    HW138426   3.275   4.133   9.123 -2.3695  0.7556 -1.2758
 8930SOL    HW238427   3.389   4.108   9.033  0.5153  0.6446  1.5853
 8931SOL     OW38428   1.862   3.881  10.215 -0.2706 -0.3110 -0.0219
 8931SOL    HW138429   1.949   3.841  10.214 -0.3206 -0.4219  0.2261
 8931SOL    HW238430   1.836   3.891  10.306  2.2030  1.8297  0.4160
 8932SOL     OW38431   2.231   2.683   1.748 -0.0172 -0.1683 -0.2033
 8932SOL    HW138432   2.233   2.700   1.653  0.5696 -1.1275 -0.3670
 8932SOL    HW238433   2.197   2.762   1.788  0.1545 -0.6096  0.8069
 8933SOL     OW38434   0.584   3.975  10.170 -0.5961  0.3263  0.2648
 8933SOL    HW138435   0.605   4.054  10.220  3.8169 -1.0805  0.6384
 8933SOL    HW238436   0.583   4.003  10.079 -1.7981 -0.7608 -0.0604
 8934SOL     OW38437   2.865   1.289   6.795 -0.6709  0.2246 -0.0853
 8934SOL    HW138438   2.777   1.262   6.822 -0.7610 -0.6497 -1.2625
 8934SOL    HW238439   2.842   1.380   6.776 -0.1443  0.4534  0.3879
 8935SOL     OW38440   2.207   0.127   7.643 -0.2322 -0.4911  0.6448
 8935SOL    HW138441   2.179   0.045   7.601 -2.5259  0.8249 -0.4044
 8935SOL    HW238442   2.237   0.165   7.560  1.0810  1.2735  1.9479
 8936SOL     OW38443   4.109   2.413   8.044  0.0385 -0.3800  0.4956
 8936SOL    HW138444   4.043   2.345   8.054 -0.6291 -0.0164 -1.4696
 8936SOL    HW238445   4.125   2.427   8.137 -0.1363  0.4071  0.4108
 8937SOL     OW38446   0.176   3.373   7.270 -0.0087 -0.5918 -0.3728
 8937SOL    HW138447   0.252   3.317   7.290  0.3049 -0.1219 -0.2501
 8937SOL    HW238448   0.207   3.418   7.191 -1.1913 -1.6670 -1.4525
 8938SOL     OW38449   0.068   0.186   6.375  0.1902 -0.5292  1.0364
 8938SOL    HW138450   4.714   0.177   6.355  0.1515 -1.4495  1.6257
 8938SOL    HW238451   0.108   0.119   6.318  0.9597 -0.3856  1.4073
 8939SOL     OW38452   3.269   3.483  17.372  0.2522 -0.0531 -0.7651
 8939SOL    HW138453   3.235   3.450  17.289 -1.9212  2.0667 -0.7098
 8939SOL    HW238454   3.255   3.403  17.423 -0.3279  0.5894  0.0938
 8940SOL     OW38455   4.400   0.184   8.609 -0.3255  0.8483 -0.6877
 8940SOL    HW138456   4.304   0.181   8.607 -0.3468  0.6172  1.4511
 8940SOL    HW238457   4.432   0.146   8.527 -1.4122 -2.2752  0.3067
 8941SOL     OW38458   1.196   4.443   8.070  0.2045  0.1381  0.4563
 8941SOL    HW138459   1.153   4.523   8.041 -0.2560 -0.3396 -0.1845
 8941SOL    HW238460   1.263   4.437   8.002  0.7201  1.3546  0.8507
 8942SOL     OW38461   3.698   3.728   7.098 -0.2740  0.5989 -0.0552
 8942SOL    HW138462   3.634   3.719   7.169 -1.0175  0.0263 -0.8058
 8942SOL    HW238463   3.642   3.744   7.023  1.8173  1.9440 -1.3359
 8943SOL     OW38464   4.361   3.418   4.837 -0.8353  0.1818 -0.3993
 8943SOL    HW138465   4.390   3.342   4.886 -2.2539  0.0379  0.2099
 8943SOL    HW238466   4.278   3.387   4.801 -0.9138 -0.0453 -0.0142
 8944SOL     OW38467   1.918   0.564   5.655 -0.1861  0.2538 -0.4326
 8944SOL    HW138468   1.828   0.530   5.663  0.2564 -0.4776  1.5108
 8944SOL    HW238469   1.919   0.567   5.560  1.7858 -1.2426 -0.4724
 8945SOL     OW38470   3.108   0.931  12.395 -0.3115 -0.3195 -0.4960
 8945SOL    HW138471   3.060   0.850  12.380 -0.1026 -0.2719 -1.4423
 8945SOL    HW238472   3.196   0.897  12.413 -0.7757 -1.7395 -0.8912
 8946SOL     OW38473   1.301   0.848   2.826  1.1296 -0.2121 -0.3603
 8946SOL    HW138474   1.213   0.826   2.857  1.2242  1.1239  0.8439
 8946SOL    HW238475   1.285   0.942   2.816  1.7762  0.0565  1.1143
 8947SOL     OW38476   4.516   0.505   5.512  0.2092 -0.1991  0.5284
 8947SOL    HW138477   4.519   0.420   5.557 -3.2967 -1.5218 -1.6354
 8947SOL    HW238478   4.422   0.514   5.493 -0.1273 -0.3877  2.1015
 8948SOL     OW38479   3.575   2.614  13.316  0.3706 -0.2204 -0.5753
 8948SOL    HW138480   3.497   2.645  13.362  0.5252  0.2157 -0.6164
 8948SOL    HW238481   3.617   2.553  13.377  0.4148 -0.0860 -0.4725
 8949SOL     OW38482   4.641   2.711   6.643  0.0819  0.1558 -0.0077
 8949SOL    HW138483   4.577   2.683   6.709  0.4151  3.4737  1.7408
 8949SOL    HW238484   4.588   2.766   6.586 -0.7517  0.0664  0.6768
 8950SOL     OW38485   4.491   1.747   7.370 -0.0501  0.1422 -0.1099
 8950SOL    HW138486   4.419   1.772   7.312  0.0254 -1.4554 -0.8831
 8950SOL    HW238487   4.443   1.727   7.451  0.5754 -2.8965 -0.5200
 8951SOL     OW38488   3.037   3.792   5.710  0.5736  0.2026  0.1081
 8951SOL    HW138489   3.021   3.788   5.805  2.2596  0.5610  0.4183
 8951SOL    HW238490   2.976   3.860   5.683  0.9828  1.0361  1.2357
 8952SOL     OW38491   1.385   2.252  14.788 -0.2100  0.4603  0.1002
 8952SOL    HW138492   1.466   2.262  14.738  0.1828  0.8170  0.8166
 8952SOL    HW238493   1.331   2.216  14.717  0.8113  3.5581 -2.2807
 8953SOL     OW38494   1.665   0.746   6.352 -0.1858 -0.0843 -0.2974
 8953SOL    HW138495   1.741   0.689   6.361 -0.9692 -1.4309 -1.9798
 8953SOL    HW238496   1.592   0.685   6.365 -0.3471  0.4215  1.1338
 8954SOL     OW38497   3.945   3.276   3.057  0.1132 -0.1823 -0.0333
 8954SOL    HW138498   3.919   3.257   3.147  0.9140 -2.1794 -0.2065
 8954SOL    HW238499   4.033   3.237   3.049 -0.2332 -1.1427  0.7917
 8955SOL     OW38500   2.628   2.115   0.516 -0.6310  0.2513 -0.3149
 8955SOL    HW138501   2.655   2.157   0.597 -1.3168  1.6984 -0.8426
 8955SOL    HW238502   2.675   2.032   0.523  0.3837  0.7079 -1.6666
 8956SOL     OW38503   1.174   1.222   8.514  0.4370  0.6768 -0.0324
 8956SOL    HW138504   1.132   1.306   8.493 -1.1395 -0.5495 -1.8701
 8956SOL    HW238505   1.135   1.209   8.601 -0.0169 -0.1248 -0.3490
 8957SOL     OW38506   0.538   3.626  15.659 -0.4306 -0.5656 -0.0205
 8957SOL    HW138507   0.513   3.674  15.738 -2.0719  1.1711 -1.5893
 8957SOL    HW238508   0.515   3.682  15.585  0.7826 -0.0917 -0.0349
 8958SOL     OW38509   4.580   0.724  10.628  0.0202  0.4844 -0.4596
 8958SOL    HW138510   4.514   0.782  10.590 -3.3684 -1.7986  1.9224
 8958SOL    HW238511   4.596   0.661  10.559  0.5873  1.0749 -0.8595
 8959SOL     OW38512   1.883   0.531   3.032 -0.3087  0.1289  0.3643
 8959SOL    HW138513   1.815   0.597   3.017 -0.4325 -0.0755  0.0153
 8959SOL    HW238514   1.956   0.587   3.060 -0.6571  1.6730 -1.7898
 8960SOL     OW38515   2.073   1.638  17.564  0.0530 -0.2249 -0.3329
 8960SOL    HW138516   2.074   1.556  17.514  1.7314  0.3736 -1.2784
 8960SOL    HW238517   2.160   1.638  17.604  0.0626 -2.1014 -0.3442
 8961SOL     OW38518   1.505   0.859  10.264 -0.0955 -0.1210 -0.4064
 8961SOL    HW138519   1.437   0.917  10.300  1.1490  0.1747  1.4778
 8961SOL    HW238520   1.592   0.896  10.280 -0.0165 -0.6456  0.3696
 8962SOL     OW38521   2.112   0.858   7.505 -0.3125  0.2058 -0.1071
 8962SOL    HW138522   2.041   0.810   7.463  0.2910  0.6784 -1.6709
 8962SOL    HW238523   2.141   0.806   7.580 -0.8726 -0.1715 -0.1530
 8963SOL     OW38524   2.604   1.293   3.002  0.3228  0.0556 -0.6625
 8963SOL    HW138525   2.598   1.341   3.085  1.0153 -0.2838 -0.4090
 8963SOL    HW238526   2.525   1.337   2.972 -0.6228 -1.8463 -0.9774
 8964SOL     OW38527   1.347   2.071   7.505  0.2395  0.5184 -0.5932
 8964SOL    HW138528   1.285   2.049   7.436  1.7203  1.4028 -2.1956
 8964SOL    HW238529   1.323   2.157   7.537 -0.8822  0.3387 -0.9620
 8965SOL     OW38530   2.871   1.036  14.185 -0.0606 -0.5250  0.1563
 8965SOL    HW138531   2.847   1.040  14.277 -1.0219 -1.7382 -0.0295
 8965SOL    HW238532   2.790   0.997  14.152 -3.7525  4.0427  3.7826
 8966SOL     OW38533   1.120   2.371  15.372 -0.5029 -0.4139  0.2733
 8966SOL    HW138534   1.137   2.316  15.295 -0.2148 -0.4185  0.3404
 8966SOL    HW238535   1.201   2.363  15.423  0.3860  0.4958 -0.9999
 8967SOL     OW38536   0.138   4.452   9.487 -0.3487  0.4368 -0.1207
 8967SOL    HW138537   0.223   4.461   9.531 -1.5084  2.4455  1.7211
 8967SOL    HW238538   0.113   4.543   9.473 -1.8492 -0.1339 -1.0703
 8968SOL     OW38539   3.817   1.386   2.593  0.1314  0.2394 -0.7900
 8968SOL    HW138540   3.782   1.443   2.662 -0.5727 -1.8423  0.5852
 8968SOL    HW238541   3.798   1.295   2.618  1.5593 -0.1595 -1.1510
 8969SOL     OW38542   0.638   3.081   8.374  0.0038  0.1625  0.6767
 8969SOL    HW138543   0.714   3.075   8.316 -1.9716 -1.9685 -1.7263
 8969SOL    HW238544   0.603   2.997   8.345 -0.2203  0.4045  0.2442
 8970SOL     OW38545   1.332   2.783  17.206  0.2517  0.2135 -0.3961
 8970SOL    HW138546   1.246   2.814  17.234 -0.3642 -0.3301 -1.6662
 8970SOL    HW238547   1.358   2.863  17.160  1.6252  0.2677  0.4860
 8971SOL     OW38548   3.901   1.439  10.002  0.8558 -0.2199  0.0758
 8971SOL    HW138549   3.821   1.390   9.984  0.9475 -0.9044  1.4529
 8971SOL    HW238550   3.870   1.529  10.002  1.1450 -0.1145  0.6018
 8972SOL     OW38551   1.722   1.138   4.745  0.3247 -0.0616 -0.1299
 8972SOL    HW138552   1.803   1.133   4.797  0.9171  0.8173 -0.9703
 8972SOL    HW238553   1.759   1.162   4.659 -2.8984  1.8850 -0.9584
 8973SOL     OW38554   0.206   3.701   2.647  0.0516  0.1972 -0.0480
 8973SOL    HW138555   0.214   3.765   2.576 -1.3728  1.0838  0.5944
 8973SOL    HW238556   0.263   3.731   2.718 -0.1901  0.0804  0.1964
 8974SOL     OW38557   1.915   2.183   2.015 -0.4209  0.0101 -0.3512
 8974SOL    HW138558   1.869   2.260   1.980 -0.2516  1.5586  2.8781
 8974SOL    HW238559   1.940   2.140   1.933 -0.1085  0.9199 -0.7304
 8975SOL     OW38560   3.591   3.458   1.943 -0.2550  0.3487  0.4298
 8975SOL    HW138561   3.565   3.417   1.860  1.8172 -0.8871  0.3976
 8975SOL    HW238562   3.628   3.386   1.994  0.8069  0.8272  0.3213
 8976SOL     OW38563   2.683   4.074   5.246 -0.0078 -0.3964  0.1270
 8976SOL    HW138564   2.705   4.032   5.329 -1.6727  0.4510  0.9905
 8976SOL    HW238565   2.664   4.165   5.266 -0.5956 -0.3508 -0.6657
 8977SOL     OW38566   0.678   0.116   6.341  0.1197 -0.1941  0.1586
 8977SOL    HW138567   0.648   0.094   6.253  2.1220 -2.5044  0.0530
 8977SOL    HW238568   0.706   0.207   6.329  0.3892 -0.4854 -1.3404
 8978SOL     OW38569   0.269   3.263   1.928 -0.2147 -0.2582 -0.3820
 8978SOL    HW138570   0.301   3.270   2.018 -1.0883  1.0478 -0.1644
 8978SOL    HW238571   0.174   3.262   1.941 -0.2334 -1.5430 -0.5977
 8979SOL     OW38572   0.815   1.397   5.654  0.1325 -0.4430 -0.1658
 8979SOL    HW138573   0.859   1.478   5.681 -0.4344 -0.2965  0.3171
 8979SOL    HW238574   0.809   1.417   5.560 -0.2043  1.5436  0.2650
 8980SOL     OW38575   0.633   0.137   8.887 -0.2669  0.9952 -0.0832
 8980SOL    HW138576   0.658   0.170   8.800 -2.4969  0.6663 -0.8683
 8980SOL    HW238577   0.680   0.195   8.947 -0.8575  3.0848 -1.6047
 8981SOL     OW38578   0.405   3.084   0.445  0.6495  0.1463  0.2854
 8981SOL    HW138579   0.406   2.999   0.488 -1.6296 -0.1785 -0.2905
 8981SOL    HW238580   0.325   3.065   0.396 -0.4884 -0.8433  2.5442
 8982SOL     OW38581   0.085   3.415  11.292 -0.0340 -0.2787 -0.2878
 8982SOL    HW138582   0.150   3.363  11.244  1.3051  0.1971  1.0275
 8982SOL    HW238583   0.084   3.367  11.374  1.3814 -2.0411 -1.2993
 8983SOL     OW38584   3.631   0.492   2.870 -0.4058  0.0900 -0.6234
 8983SOL    HW138585   3.585   0.575   2.859  0.4951  0.5948 -0.6037
 8983SOL    HW238586   3.706   0.525   2.920  0.0345 -1.6335 -0.1477
 8984SOL     OW38587   3.202   4.301   5.576  0.5505 -0.5512 -0.1077
 8984SOL    HW138588   3.265   4.371   5.594  1.5560 -1.6899  0.8190
 8984SOL    HW238589   3.250   4.227   5.612  0.5475 -0.0290  0.9868
 8985SOL     OW38590   1.061   0.247   3.726  0.0390 -0.3108 -0.5131
 8985SOL    HW138591   0.992   0.206   3.674 -1.3917  1.1665  0.1957
 8985SOL    HW238592   1.052   0.201   3.810  0.8702 -0.2204 -0.3736
 8986SOL     OW38593   1.450   0.288  15.191 -0.0979  0.0723  0.4062
 8986SOL    HW138594   1.397   0.366  15.212 -0.8963 -0.1670 -0.7369
 8986SOL    HW238595   1.499   0.270  15.271  0.2335  0.5812  0.3172
 8987SOL     OW38596   4.533   1.083   9.864 -0.0144  0.2939 -0.3188
 8987SOL    HW138597   4.571   1.042   9.941  0.6876  0.5809 -0.5103
 8987SOL    HW238598   4.542   1.009   9.804 -3.3052 -0.0376 -0.3534
 8988SOL     OW38599   0.413   3.885   4.948 -0.3163  0.1908  0.0360
 8988SOL    HW138600   0.492   3.857   4.902 -0.1189 -1.2501  1.2611
 8988SOL    HW238601   0.380   3.957   4.895 -0.2980 -1.2186 -1.8852
 8989SOL     OW38602   1.706   1.112   2.800  0.3675 -0.1956 -0.0192
 8989SOL    HW138603   1.683   1.095   2.892  1.4411  0.0205  0.2911
 8989SOL    HW238604   1.730   1.205   2.795 -0.1404  0.0455  1.8863
 8990SOL     OW38605   4.570   4.631   5.301 -0.2761  0.0137 -0.3806
 8990SOL    HW138606   4.651   4.668   5.265 -0.2338 -0.3973 -0.7226
 8990SOL    HW238607   4.497   4.691   5.286  0.4929  1.2076  0.7594
 8991SOL     OW38608   3.005   0.633   5.737 -0.1453  0.2236  0.1371
 8991SOL    HW138609   3.094   0.666   5.722  0.8524 -1.1851  2.9632
 8991SOL    HW238610   3.020   0.539   5.723 -0.3892  0.5522 -2.3418
 8992SOL     OW38611   4.662   0.385   4.236 -0.2045  0.5578 -0.2990
 8992SOL    HW138612   4.642   0.331   4.159  1.1703  0.0961 -0.3320
 8992SOL    HW238613   4.661   0.322   4.308 -1.5253  2.2212  1.1053
 8993SOL     OW38614   3.364   2.887   5.325  0.0634  0.0703  0.0975
 8993SOL    HW138615   3.400   2.850   5.406  0.0220 -0.0761  0.0498
 8993SOL    HW238616   3.405   2.973   5.317  1.9787 -0.6390  2.2396
 8994SOL     OW38617   1.748   1.387   2.871 -0.0999  0.6360 -0.2546
 8994SOL    HW138618   1.820   1.449   2.863 -0.2788  1.1369  1.9977
 8994SOL    HW238619   1.712   1.414   2.956 -0.0966  1.6270 -0.5714
 8995SOL     OW38620   2.030   3.889   3.838  0.0201 -0.4130 -0.2575
 8995SOL    HW138621   1.956   3.931   3.796 -2.0827 -1.1203  2.7028
 8995SOL    HW238622   2.004   3.903   3.929  0.2426 -1.3319 -0.0489
 8996SOL     OW38623   3.628   2.255   3.085 -0.0808  0.1111 -0.2876
 8996SOL    HW138624   3.632   2.223   2.995  0.2126  1.1045 -0.6287
 8996SOL    HW238625   3.561   2.321   3.067  0.2112 -0.1905 -2.4756
 8997SOL     OW38626   3.147   2.785   9.018 -0.3985  0.3050 -0.1829
 8997SOL    HW138627   3.228   2.800   9.067  0.0246 -0.5904 -0.6069
 8997SOL    HW238628   3.109   2.707   9.059  3.6957 -0.2260  2.5374
 8998SOL     OW38629   3.293   1.202  14.785 -0.6569 -0.0122 -0.1749
 8998SOL    HW138630   3.388   1.190  14.777 -0.7147 -0.8516  0.3129
 8998SOL    HW238631   3.287   1.280  14.840  2.0235  0.1506 -0.1006
 8999SOL     OW38632   3.457   1.061   2.684 -0.1859  0.4743 -0.0731
 8999SOL    HW138633   3.420   0.993   2.741  1.2061  0.3155  0.6450
 8999SOL    HW238634   3.538   1.015   2.663 -0.3245  0.1799  0.0334
 9000SOL     OW38635   3.334   4.289   4.776 -0.1958 -0.1732  0.0371
 9000SOL    HW138636   3.378   4.258   4.855  0.3853  1.6719  0.4304
 9000SOL    HW238637   3.254   4.323   4.817 -0.2994 -0.3095 -0.0516
 9001SOL     OW38638   3.019   0.207  15.140  0.3150  0.3252 -0.6608
 9001SOL    HW138639   2.968   0.135  15.103  0.6448 -0.7323  0.9618
 9001SOL    HW238640   2.957   0.279  15.132 -0.0114 -0.0450 -1.5474
 9002SOL     OW38641   4.514   1.152  13.160  0.3035  0.0927  0.1002
 9002SOL    HW138642   4.556   1.187  13.082 -0.1689  0.8122  0.1727
 9002SOL    HW238643   4.427   1.134  13.125 -0.2276 -1.4773  2.2235
 9003SOL     OW38644   1.289   1.449   0.051  0.1609 -0.0628 -0.1619
 9003SOL    HW138645   1.294   1.544   0.053 -0.8932 -0.0239  0.6203
 9003SOL    HW238646   1.323   1.426  17.720 -1.1629  1.1814 -1.0129
 9004SOL     OW38647   3.259   0.174   6.080 -0.3259 -0.1502 -0.5525
 9004SOL    HW138648   3.262   0.118   6.158 -0.6779 -0.0929 -0.4992
 9004SOL    HW238649   3.181   0.227   6.095 -1.1466 -0.8327 -2.3383
 9005SOL     OW38650   1.042   0.763   5.976 -0.4233 -0.1818 -0.1285
 9005SOL    HW138651   1.137   0.759   5.985 -0.4100 -1.8879 -1.0957
 9005SOL    HW238652   1.030   0.858   5.972 -2.0649 -0.3363  0.7288
 9006SOL     OW38653   1.115   0.497   6.006  0.3315  0.4344  0.5941
 9006SOL    HW138654   1.165   0.458   5.935  0.3440  1.8120 -0.1488
 9006SOL    HW238655   1.070   0.567   5.959  0.7726  0.1119 -0.3006
 9007SOL     OW38656   2.408   2.781   5.149 -0.3712 -0.2286 -0.4258
 9007SOL    HW138657   2.435   2.873   5.153 -0.6278 -0.1563 -0.3712
 9007SOL    HW238658   2.347   2.787   5.223  0.7250 -0.3079  0.4937
 9008SOL     OW38659   2.441   4.431   2.149 -0.6114 -0.3672 -0.4347
 9008SOL    HW138660   2.386   4.456   2.222  1.7969  1.2954  0.8094
 9008SOL    HW238661   2.368   4.395   2.099 -1.6398  2.5335 -1.0013
 9009SOL     OW38662   0.421   1.156  15.345 -0.0702 -0.5182 -0.6894
 9009SOL    HW138663   0.472   1.114  15.276  0.1108 -0.6780 -0.4559
 9009SOL    HW238664   0.486   1.218  15.379  1.3538 -1.4834 -1.7057
 9010SOL     OW38665   0.746   4.099   5.560  0.0794 -0.1345  0.4013
 9010SOL    HW138666   0.783   4.011   5.552 -0.3465 -0.3291  0.5672
 9010SOL    HW238667   0.729   4.110   5.654  0.9304 -1.7645  0.7556
 9011SOL     OW38668   4.612   4.604   5.627  0.1419  0.2927  0.6982
 9011SOL    HW138669   4.578   4.693   5.619  1.6571  0.7412 -0.8620
 9011SOL    HW238670   4.690   4.609   5.572  0.7592 -1.2910  1.4193
 9012SOL     OW38671   0.685   0.713   8.575  0.2934 -0.3074  0.3644
 9012SOL    HW138672   0.598   0.753   8.571  0.5291 -0.0060 -1.6377
 9012SOL    HW238673   0.671   0.627   8.535  0.0547  0.6241 -1.5888
 9013SOL     OW38674   0.372   4.435   5.405  0.1169  0.2332  0.9281
 9013SOL    HW138675   0.320   4.413   5.328 -1.4990 -0.3984  2.2088
 9013SOL    HW238676   0.437   4.370   5.380 -1.0209 -0.9923  1.2026
 9014SOL     OW38677   3.243   2.349  10.958  0.1609  0.1583  0.1958
 9014SOL    HW138678   3.148   2.339  10.958  0.2138 -0.2470 -1.9895
 9014SOL    HW238679   3.263   2.337  11.051  1.5800 -1.5372 -0.3155
 9015SOL     OW38680   0.082   3.727   1.277  0.4146 -0.1320 -0.0561
 9015SOL    HW138681   0.045   3.651   1.322 -0.9635  0.6225  0.0827
 9015SOL    HW238682   0.032   3.731   1.195  0.0311  0.6692  0.2131
 9016SOL     OW38683   1.648   2.980   7.943 -0.0584 -0.3298 -0.5226
 9016SOL    HW138684   1.570   3.015   7.987  0.3928  2.3302 -1.8919
 9016SOL    HW238685   1.643   2.889   7.973  1.4032 -0.4851 -0.7825
 9017SOL     OW38686   4.121   1.759   5.641  0.0786  0.2366 -0.8328
 9017SOL    HW138687   4.159   1.771   5.728 -0.7150  0.5855 -0.5341
 9017SOL    HW238688   4.119   1.664   5.628  0.8790  0.1335 -0.1783
 9018SOL     OW38689   2.328   3.509   6.899 -0.3458  0.6191  0.1180
 9018SOL    HW138690   2.239   3.497   6.866 -0.3404 -2.3135  1.1344
 9018SOL    HW238691   2.378   3.446   6.847  0.4067  1.9810 -0.7887
 9019SOL     OW38692   2.278   2.545   8.046 -0.4057 -0.2457 -0.4902
 9019SOL    HW138693   2.249   2.548   7.955  1.0298  0.0629 -0.9372
 9019SOL    HW238694   2.301   2.637   8.059 -1.8993 -0.0867  1.0608
 9020SOL     OW38695   4.230   4.159   7.747 -0.1437  0.5152 -0.0331
 9020SOL    HW138696   4.138   4.184   7.736 -0.3911 -1.1822 -1.8444
 9020SOL    HW238697   4.252   4.188   7.835 -2.8405  2.5728 -0.0329
 9021SOL     OW38698   1.043   0.492  14.265 -0.1357  0.1655  0.2256
 9021SOL    HW138699   1.081   0.542  14.192  2.2443 -1.4386  0.3805
 9021SOL    HW238700   0.989   0.427  14.221 -1.3134  0.0616  1.8240
 9022SOL     OW38701   1.983   1.236   1.895  0.0760  0.5873  0.5279
 9022SOL    HW138702   2.078   1.232   1.890  0.0971  1.7187  0.1860
 9022SOL    HW238703   1.958   1.153   1.855 -1.9154  1.5536 -0.2169
 9023SOL     OW38704   3.593   1.638   4.885 -0.5602 -0.1427 -0.0619
 9023SOL    HW138705   3.525   1.591   4.933  1.6191 -1.0624  2.1411
 9023SOL    HW238706   3.670   1.604   4.930 -1.8337 -0.6224  1.7475
 9024SOL     OW38707   1.161   1.646   5.180 -0.2159  0.1634  0.2877
 9024SOL    HW138708   1.223   1.658   5.109 -1.3043  0.8589 -0.5444
 9024SOL    HW238709   1.156   1.552   5.199 -1.0438 -0.2909 -2.2756
 9025SOL     OW38710   2.165   0.498   5.754 -0.1157  0.4740  0.1131
 9025SOL    HW138711   2.074   0.493   5.725 -0.3611 -0.2899  1.0131
 9025SOL    HW238712   2.210   0.470   5.673 -0.5687  0.5922 -0.1783
 9026SOL     OW38713   0.014   4.090   9.948 -0.8684 -0.3203  0.3418
 9026SOL    HW138714   0.007   4.156   9.880 -0.1367 -1.6943 -1.0699
 9026SOL    HW238715   0.004   4.009   9.898  0.8263 -0.4994  0.3005
 9027SOL     OW38716   4.237   3.693  13.481 -0.4393 -0.6303 -0.0075
 9027SOL    HW138717   4.231   3.684  13.386  2.0712 -0.8124 -0.1374
 9027SOL    HW238718   4.274   3.609  13.508  2.2683  0.3121 -0.8374
 9028SOL     OW38719   1.836   4.678  10.984 -0.3780 -0.2876 -0.0914
 9028SOL    HW138720   1.852   0.027  11.016  0.8874 -1.2355  1.8965
 9028SOL    HW238721   1.915   4.657  10.933 -0.4368 -0.2464 -0.2001
 9029SOL     OW38722   0.256   3.943  12.467 -0.1472 -0.4366  0.4304
 9029SOL    HW138723   0.247   3.886  12.542 -0.0375 -0.5014  0.3938
 9029SOL    HW238724   0.182   4.002  12.484 -0.6745 -0.8659 -0.3701
 9030SOL     OW38725   4.041   1.821   9.615 -0.4033  0.2411 -0.3337
 9030SOL    HW138726   4.042   1.883   9.688 -3.2355  1.0656 -1.0162
 9030SOL    HW238727   4.113   1.759   9.631  0.0278  0.7506 -0.3129
 9031SOL     OW38728   0.041   3.184   3.885 -0.3791  0.0388  0.3176
 9031SOL    HW138729   0.121   3.205   3.836 -1.2525 -1.8490 -1.9172
 9031SOL    HW238730   4.738   3.269   3.877 -1.6773 -0.5183  1.2110
 9032SOL     OW38731   1.286   3.287  10.853  0.5781 -0.0459 -0.1967
 9032SOL    HW138732   1.374   3.253  10.868  0.2097 -0.7443  0.3700
 9032SOL    HW238733   1.262   3.317  10.940 -0.2499  0.9019 -0.7474
 9033SOL     OW38734   3.700   1.614  14.440  0.0312  0.2941 -0.2662
 9033SOL    HW138735   3.708   1.698  14.485  0.1843  0.1586 -0.0378
 9033SOL    HW238736   3.611   1.614  14.405  0.6123 -1.8244 -1.7383
 9034SOL     OW38737   2.649   1.698  11.433  0.2444  0.0910  0.1469
 9034SOL    HW138738   2.657   1.627  11.497 -1.3481 -0.3698 -0.1653
 9034SOL    HW238739   2.562   1.700  11.394  0.7645  2.2246 -0.8981
 9035SOL     OW38740   4.289   2.842   5.734 -0.1213  0.5382  0.3186
 9035SOL    HW138741   4.295   2.773   5.800 -0.3051 -0.0591 -0.2991
 9035SOL    HW238742   4.274   2.786   5.658 -0.4773  1.6802 -0.4526
 9036SOL     OW38743   1.592   4.328   6.197 -0.5706  0.1863 -0.4810
 9036SOL    HW138744   1.688   4.329   6.201 -0.5554 -2.5464  0.1696
 9036SOL    HW238745   1.582   4.418   6.167 -1.7112 -0.2940 -1.5391
 9037SOL     OW38746   0.879   1.147   5.741 -0.3620  0.4526 -0.3771
 9037SOL    HW138747   0.870   1.239   5.716 -1.1409  0.3404 -0.5272
 9037SOL    HW238748   0.952   1.145   5.803 -0.5898  1.8255 -0.0743
 9038SOL     OW38749   0.198   2.936   5.336 -0.3172 -0.6853  0.2368
 9038SOL    HW138750   0.198   2.841   5.339  0.2029 -0.7552 -2.7821
 9038SOL    HW238751   0.286   2.949   5.373  0.3656 -0.5695 -1.4288
 9039SOL     OW38752   3.052   2.796   7.228 -0.5920 -0.5748 -0.2130
 9039SOL    HW138753   2.999   2.819   7.152 -3.1574 -0.8590  1.5282
 9039SOL    HW238754   3.035   2.877   7.276  2.3119 -0.5262  0.7199
 9040SOL     OW38755   1.601   2.029   3.865 -0.1952  0.2811 -0.0264
 9040SOL    HW138756   1.654   2.069   3.934 -0.5001 -0.4719  0.6497
 9040SOL    HW238757   1.517   2.074   3.870  0.8271  2.3706 -1.7639
 9041SOL     OW38758   2.692   2.612   6.005 -0.2581 -0.4704 -0.5060
 9041SOL    HW138759   2.658   2.525   6.026  2.0041 -1.1956  0.1460
 9041SOL    HW238760   2.777   2.584   5.972  0.5742 -1.0989  2.1677
 9042SOL     OW38761   3.597   2.976   6.850 -0.2623  0.4517 -0.0608
 9042SOL    HW138762   3.637   2.894   6.878 -1.9980 -0.6472 -0.8548
 9042SOL    HW238763   3.675   3.027   6.826 -0.9804  0.9368 -1.3564
 9043SOL     OW38764   3.067   1.666  10.849  0.5287  0.5595 -0.5955
 9043SOL    HW138765   3.089   1.720  10.925  2.2251 -2.1851  0.9040
 9043SOL    HW238766   3.140   1.672  10.788  1.7396  0.7728  0.8629
 9044SOL     OW38767   3.316   0.820  13.646  0.5892 -0.0332 -0.0327
 9044SOL    HW138768   3.355   0.749  13.595  1.4237 -2.1764  3.5112
 9044SOL    HW238769   3.367   0.896  13.619  0.6820 -0.5003 -1.1354
 9045SOL     OW38770   4.700   2.079   8.364 -0.1973 -0.2597 -0.1917
 9045SOL    HW138771   4.616   2.101   8.405 -0.6418  0.0079 -1.2638
 9045SOL    HW238772   4.727   2.000   8.411  0.9161  0.0773 -0.2693
 9046SOL     OW38773   4.032   1.686   8.470  0.2814 -0.2323  0.3270
 9046SOL    HW138774   4.072   1.756   8.521 -0.3408  0.3609 -0.0038
 9046SOL    HW238775   3.942   1.709   8.491  0.3272 -0.8839  1.2519
 9047SOL     OW38776   2.702   2.195   8.751 -0.1933 -0.0051 -0.0748
 9047SOL    HW138777   2.783   2.243   8.770  0.6298 -1.3374 -0.2279
 9047SOL    HW238778   2.645   2.239   8.814  1.3705  0.0940  1.2787
 9048SOL     OW38779   3.206   3.656   3.476 -0.0551  0.0760  0.3074
 9048SOL    HW138780   3.138   3.588   3.475  0.2709 -0.2280 -0.7078
 9048SOL    HW238781   3.230   3.669   3.385 -1.6751  0.5887 -0.0531
 9049SOL     OW38782   2.834   4.706   6.815 -0.2159  0.6878 -0.2122
 9049SOL    HW138783   2.905   4.676   6.757 -0.3262  0.9331 -0.4742
 9049SOL    HW238784   2.892   0.021   6.868  0.1295 -0.7713  0.9098
 9050SOL     OW38785   0.815   2.448   7.618  0.0494  0.6136 -0.4950
 9050SOL    HW138786   0.742   2.504   7.644 -1.9966 -2.4379  0.3467
 9050SOL    HW238787   0.811   2.378   7.683 -1.9099  1.1535 -0.0350
 9051SOL     OW38788   0.400   3.049   4.161  0.5693  0.6018 -0.2921
 9051SOL    HW138789   0.455   2.978   4.196  0.3457  1.1607  1.1643
 9051SOL    HW238790   0.334   3.051   4.230  1.9006 -0.6739  1.0094
 9052SOL     OW38791   2.120   3.534  11.359 -0.1484  0.2417 -0.1242
 9052SOL    HW138792   2.185   3.569  11.421  1.9496 -1.8903 -1.1246
 9052SOL    HW238793   2.137   3.582  11.278  0.1306  1.0219  0.3850
 9053SOL     OW38794   3.014   2.028   0.662 -0.3218 -0.1473  0.0562
 9053SOL    HW138795   3.001   2.086   0.736 -1.1934 -0.0461 -0.1801
 9053SOL    HW238796   3.060   2.091   0.606 -0.0800  0.7694  1.2717
 9054SOL     OW38797   1.476   2.662  16.743  0.2942  0.0916 -0.4221
 9054SOL    HW138798   1.467   2.618  16.828 -0.7322  1.7673  0.3328
 9054SOL    HW238799   1.440   2.749  16.761  2.2171  0.9733 -0.9043
 9055SOL     OW38800   0.484   3.972  11.766  0.4093  0.3118  0.3565
 9055SOL    HW138801   0.479   3.954  11.860  2.8208 -0.7406  0.3045
 9055SOL    HW238802   0.417   3.916  11.726 -0.1170  0.8180  0.5306
 9056SOL     OW38803   2.710   0.961   4.686  0.0155  0.3800 -0.6010
 9056SOL    HW138804   2.721   1.003   4.601  3.1147  0.3970 -0.1914
 9056SOL    HW238805   2.707   1.036   4.746  3.6871  0.2488 -0.2517
 9057SOL     OW38806   0.348   3.304   2.200  0.2127  0.3686 -0.3483
 9057SOL    HW138807   0.415   3.324   2.265 -0.3044 -1.0476  0.6383
 9057SOL    HW238808   0.275   3.295   2.262  0.6126  3.1075  0.4869
 9058SOL     OW38809   1.593   2.717   7.748 -0.1064  0.7940  0.2156
 9058SOL    HW138810   1.640   2.748   7.826 -0.6905  0.9270  0.5099
 9058SOL    HW238811   1.511   2.680   7.779 -0.0903  1.8447  1.4960
 9059SOL     OW38812   1.253   0.998   0.664  0.0282  0.1927  0.9943
 9059SOL    HW138813   1.272   1.092   0.666  0.1724  0.2186 -1.2418
 9059SOL    HW238814   1.334   0.953   0.690  0.3213  0.6575  0.8903
 9060SOL     OW38815   2.378   2.816  13.135  0.0432 -0.5884 -0.6521
 9060SOL    HW138816   2.345   2.752  13.197 -0.4934 -0.1613 -0.5006
 9060SOL    HW238817   2.470   2.789  13.138  0.5178  1.2523  1.5635
 9061SOL     OW38818   1.746   0.956  12.798  0.5188 -0.0207 -0.6124
 9061SOL    HW138819   1.746   0.894  12.871 -0.1376 -1.7626 -2.0774
 9061SOL    HW238820   1.812   1.016  12.833 -0.7315  0.3503  1.1026
 9062SOL     OW38821   3.862   2.282   8.121 -0.3118  0.6201 -0.3916
 9062SOL    HW138822   3.822   2.227   8.188  1.2549  1.7582  1.4950
 9062SOL    HW238823   3.828   2.366   8.150  0.9864  1.1594 -0.4240
 9063SOL     OW38824   3.731   2.895   3.236  0.3620  0.3465  0.5274
 9063SOL    HW138825   3.815   2.942   3.237 -0.7281  2.2619  1.1693
 9063SOL    HW238826   3.674   2.969   3.256  0.9505  1.0466 -0.3794
 9064SOL     OW38827   0.935   3.588   6.372  0.2036  0.0276 -0.2510
 9064SOL    HW138828   0.850   3.621   6.402  0.9913 -0.3759  2.4591
 9064SOL    HW238829   0.946   3.520   6.439  2.3979  0.9733  0.3501
 9065SOL     OW38830   1.362   4.070  11.116 -0.1885  0.3995 -0.8976
 9065SOL    HW138831   1.343   4.086  11.024  2.1519  2.6592 -1.0066
 9065SOL    HW238832   1.355   4.162  11.143  0.0479  0.4335 -0.9496
 9066SOL     OW38833   2.881   3.931   6.360  0.1528 -0.2305 -0.0698
 9066SOL    HW138834   2.908   3.887   6.279  1.0633  0.2217 -0.0158
 9066SOL    HW238835   2.892   3.863   6.426  3.2935 -0.7283 -1.1080
 9067SOL     OW38836   0.348   2.403   8.548 -0.2504  0.4964  0.1866
 9067SOL    HW138837   0.284   2.416   8.618  0.3463 -1.4836  1.1035
 9067SOL    HW238838   0.297   2.362   8.479 -0.6431  1.7484 -0.2652
 9068SOL     OW38839   2.760   3.403   8.177 -0.0686 -0.2937 -0.2343
 9068SOL    HW138840   2.777   3.345   8.251 -1.8088  1.3108  1.4144
 9068SOL    HW238841   2.768   3.490   8.217 -1.0829 -0.9566  1.3746
 9069SOL     OW38842   0.076   1.073   2.328  0.5194  0.3371  0.6905
 9069SOL    HW138843   0.127   0.993   2.326  2.2167  1.4138  0.7833
 9069SOL    HW238844   0.134   1.124   2.271 -0.3847  0.4331 -0.1382
 9070SOL     OW38845   1.907   2.743   7.786 -0.0247 -0.5440 -0.0086
 9070SOL    HW138846   1.901   2.649   7.798 -1.0068 -0.7046 -1.6826
 9070SOL    HW238847   1.945   2.744   7.698 -1.8068  1.0439 -0.7664
 9071SOL     OW38848   3.922   3.005   8.349 -0.1992 -0.1631  0.5637
 9071SOL    HW138849   3.999   3.000   8.405 -0.1003  1.1799  0.5533
 9071SOL    HW238850   3.861   3.039   8.414  0.1070  1.3534  0.0517
 9072SOL     OW38851   1.324   0.352   8.755 -0.2997  0.3765 -0.2834
 9072SOL    HW138852   1.419   0.342   8.742 -0.1650  0.7169  0.4212
 9072SOL    HW238853   1.295   0.379   8.668 -0.7525 -1.1599 -0.6198
 9073SOL     OW38854   2.351   1.097   7.745  0.1136 -0.1643  0.5821
 9073SOL    HW138855   2.356   1.007   7.713 -0.4060 -0.1868  0.5665
 9073SOL    HW238856   2.437   1.115   7.782  0.1802 -0.4061  0.5421
 9074SOL     OW38857   3.140   2.854  12.086 -0.0080 -0.1129  0.5433
 9074SOL    HW138858   3.153   2.779  12.145  1.2928 -0.5393 -0.2930
 9074SOL    HW238859   3.047   2.873  12.101 -0.1392 -0.2130 -0.1675
 9075SOL     OW38860   0.415   4.405   6.567  0.3777  0.1209  0.2410
 9075SOL    HW138861   0.381   4.476   6.514  0.5529 -0.6060 -0.8406
 9075SOL    HW238862   0.388   4.429   6.656  1.5496  0.3197  0.5442
 9076SOL     OW38863   3.773   4.725  13.453  0.0546 -0.4365 -0.6788
 9076SOL    HW138864   3.776   4.634  13.425  0.9554 -0.6114 -0.0232
 9076SOL    HW238865   3.861   0.023  13.454 -0.4985  0.8033  1.0007
 9077SOL     OW38866   4.434   0.615   3.227  0.1467  0.5198 -0.0649
 9077SOL    HW138867   4.351   0.597   3.183  0.1901 -0.7585  0.3791
 9077SOL    HW238868   4.431   0.546   3.293  1.5114  0.7869  0.2823
 9078SOL     OW38869   2.058   0.705   3.513  0.0397  0.4633 -0.1248
 9078SOL    HW138870   2.082   0.749   3.431 -1.9042  0.6076 -0.6369
 9078SOL    HW238871   2.035   0.621   3.474 -1.0407  1.5971 -1.9720
 9079SOL     OW38872   0.649   3.280  11.017  0.1037  0.1884 -0.0504
 9079SOL    HW138873   0.687   3.226  11.086 -1.4894 -0.8061  0.0659
 9079SOL    HW238874   0.676   3.370  11.033  0.3230  0.0826  0.1658
 9080SOL     OW38875   0.762   0.784   8.840 -0.4318  0.4088 -0.6908
 9080SOL    HW138876   0.746   0.767   8.748  0.3838  2.2077 -1.1798
 9080SOL    HW238877   0.804   0.701   8.864 -3.5561 -1.1360 -0.5929
 9081SOL     OW38878   0.409   3.637   7.788 -0.1264  0.6192  0.0700
 9081SOL    HW138879   0.449   3.724   7.781  1.3004  0.0533  1.0690
 9081SOL    HW238880   0.433   3.612   7.877  0.2328 -0.5082 -0.3400
 9082SOL     OW38881   3.326   3.580   6.763  0.5465 -0.0278  0.1103
 9082SOL    HW138882   3.362   3.549   6.846 -0.5501  0.5796  0.8097
 9082SOL    HW238883   3.401   3.627   6.727 -0.6000  0.3473 -1.7740
 9083SOL     OW38884   2.730   4.193   6.530  0.5275 -0.0311 -0.5756
 9083SOL    HW138885   2.737   4.280   6.569 -0.0058 -0.0041 -0.5448
 9083SOL    HW238886   2.822   4.176   6.509  1.0322  0.2731  1.3373
 9084SOL     OW38887   0.077   0.614   0.004 -0.6729  0.2226 -0.0172
 9084SOL    HW138888   0.049   0.700  17.730 -2.9467 -0.0217  1.4374
 9084SOL    HW238889   0.172   0.624   0.014 -0.8680 -0.1882  2.3091
 9085SOL     OW38890   1.206   2.231   4.317 -0.2627 -0.3016 -0.3623
 9085SOL    HW138891   1.192   2.297   4.385  0.3760 -0.0948 -0.4321
 9085SOL    HW238892   1.115   2.221   4.289 -0.3079 -1.5536  0.2193
 9086SOL     OW38893   4.221   0.911   6.626 -0.2678  0.4915  0.0633
 9086SOL    HW138894   4.247   0.863   6.705 -1.4312 -2.2899 -1.2764
 9086SOL    HW238895   4.304   0.922   6.580 -0.5522 -0.2101 -0.6046
 9087SOL     OW38896   1.093   0.523   7.375  0.6229 -0.0785 -0.0614
 9087SOL    HW138897   1.087   0.612   7.339  3.7446 -0.8966 -2.5278
 9087SOL    HW238898   1.106   0.463   7.302  0.1843  0.4981 -0.6118
 9088SOL     OW38899   0.226   0.728   7.466  0.4078  0.1216 -0.5182
 9088SOL    HW138900   0.316   0.711   7.438  0.9479  1.2003  0.5432
 9088SOL    HW238901   0.176   0.687   7.396  0.8427 -2.2500  0.5873
 9089SOL     OW38902   3.027   2.072  10.595  0.2186 -0.5332 -0.1978
 9089SOL    HW138903   2.946   2.071  10.543 -0.1977  0.7702  0.4353
 9089SOL    HW238904   3.017   2.151  10.648  1.7346 -0.5842  0.1583
 9090SOL     OW38905   0.373   3.766   0.913 -0.1307 -0.4154  0.6243
 9090SOL    HW138906   0.414   3.840   0.956  1.5008 -0.5374 -0.7351
 9090SOL    HW238907   0.446   3.705   0.908 -0.1037 -0.3485  0.1382
 9091SOL     OW38908   2.606   3.759   6.223  0.0150  0.2760 -0.3152
 9091SOL    HW138909   2.576   3.706   6.149  1.2687 -0.5410 -0.2362
 9091SOL    HW238910   2.627   3.690   6.286 -0.6726  0.5535  0.2170
 9092SOL     OW38911   2.584   4.604   1.977  0.2054  0.3639  0.0575
 9092SOL    HW138912   2.569   4.545   2.051 -2.8909 -0.8952 -1.5641
 9092SOL    HW238913   2.568   4.549   1.900  0.9034  0.7158 -0.3365
 9093SOL     OW38914   1.821   0.908   9.486 -0.3246 -0.2239  0.1975
 9093SOL    HW138915   1.901   0.913   9.435  1.2595 -1.3515  2.5650
 9093SOL    HW238916   1.798   0.815   9.476  0.4487 -0.3997  0.0864
 9094SOL     OW38917   0.295   0.741  14.677 -0.6034  0.2471 -0.4330
 9094SOL    HW138918   0.293   0.676  14.747 -0.6950 -0.3431 -0.9879
 9094SOL    HW238919   0.329   0.813  14.731  0.5189 -0.7828  0.2374
 9095SOL     OW38920   4.336   3.742   2.228  0.5715 -0.1344 -0.1600
 9095SOL    HW138921   4.309   3.659   2.188 -1.5332 -0.8236  2.7306
 9095SOL    HW238922   4.422   3.767   2.195  0.8181 -1.5234 -0.5642
 9096SOL     OW38923   1.656   2.781   3.611 -0.4597  0.1114 -0.8309
 9096SOL    HW138924   1.711   2.721   3.661 -2.2931  0.5699  1.7410
 9096SOL    HW238925   1.571   2.741   3.630  0.4571 -1.6481 -0.4652
 9097SOL     OW38926   0.777   2.380  16.048 -0.2076 -0.0277  0.0428
 9097SOL    HW138927   0.792   2.436  15.971 -0.9749 -0.9565 -0.7767
 9097SOL    HW238928   0.849   2.318  16.050  0.5800  0.8491 -1.0993
 9098SOL     OW38929   0.501   3.616   1.455  0.3809 -0.2722  0.1719
 9098SOL    HW138930   0.435   3.554   1.486 -0.9798  0.6440 -0.8864
 9098SOL    HW238931   0.448   3.664   1.390 -2.0891 -1.2994  1.4231
 9099SOL     OW38932   1.777   4.067   3.822 -0.1329 -0.4654  0.6485
 9099SOL    HW138933   1.704   4.018   3.860 -2.0350  1.9911  0.1556
 9099SOL    HW238934   1.767   4.152   3.865 -1.1500 -0.5688  0.6329
 9100SOL     OW38935   2.123   4.209   3.194  0.5722  0.1035  0.0725
 9100SOL    HW138936   2.028   4.216   3.193  0.5527 -0.1015  0.4094
 9100SOL    HW238937   2.126   4.118   3.225 -0.8506  0.3265  0.8701
 9101SOL     OW38938   0.703   1.899   4.244 -0.2288 -0.3273 -0.2817
 9101SOL    HW138939   0.738   1.955   4.175  1.1040  2.0616  2.3415
 9101SOL    HW238940   0.726   1.810   4.218 -0.1439 -0.0350 -1.2140
 9102SOL     OW38941   2.991   2.440   3.304 -0.4314 -0.1414  0.0950
 9102SOL    HW138942   2.906   2.449   3.261  1.0905 -1.3407 -3.0733
 9102SOL    HW238943   3.013   2.527   3.339 -0.2550  0.9951 -2.8453
 9103SOL     OW38944   0.573   0.801   2.558  1.1504  0.3244  0.3078
 9103SOL    HW138945   0.580   0.710   2.586  1.1664  0.1330 -0.3140
 9103SOL    HW238946   0.659   0.827   2.525  0.7044  1.1551 -0.2076
 9104SOL     OW38947   2.141   0.025  12.527  0.4299  0.2102  0.0223
 9104SOL    HW138948   2.106   4.682  12.562  0.6408 -0.5292 -1.4745
 9104SOL    HW238949   2.174   0.048  12.613 -0.1053 -0.9304  0.5419
 9105SOL     OW38950   1.099   0.270  13.465  0.2134  0.9624  0.6162
 9105SOL    HW138951   1.115   0.356  13.502 -2.6366  1.4204  0.8339
 9105SOL    HW238952   1.131   0.285  13.376  1.8927 -0.1422  1.0451
 9106SOL     OW38953   4.079   3.901  14.032 -0.1044 -0.4579 -0.0141
 9106SOL    HW138954   3.988   3.907  14.060  0.2982 -0.9452  1.4360
 9106SOL    HW238955   4.082   3.990  13.997 -2.6049 -0.0946  0.6607
 9107SOL     OW38956   3.448   1.548   3.243  0.4302  0.1154  0.1475
 9107SOL    HW138957   3.403   1.516   3.321 -2.9324 -0.1487 -1.9274
 9107SOL    HW238958   3.530   1.506   3.270 -1.0873 -1.7607  1.8400
 9108SOL     OW38959   2.005   3.005   0.226 -0.8359 -0.0398 -0.0360
 9108SOL    HW138960   2.012   2.985   0.319 -1.6357 -2.9854 -0.6223
 9108SOL    HW238961   1.973   2.923   0.189  1.6160 -1.5997  1.3534
 9109SOL     OW38962   4.459   3.471   9.772 -0.2960  0.0485  0.1367
 9109SOL    HW138963   4.477   3.564   9.786  0.4677 -0.0153 -0.4187
 9109SOL    HW238964   4.549   3.447   9.750 -0.1566  1.3265 -0.6509
 9110SOL     OW38965   4.009   3.551   3.394  0.1300  0.2474 -0.6815
 9110SOL    HW138966   3.991   3.626   3.451 -1.0793  0.8595 -1.8469
 9110SOL    HW238967   3.990   3.603   3.316  1.5794 -1.5262 -2.2023
 9111SOL     OW38968   1.788   1.453   7.041 -0.9342  0.4210 -0.1053
 9111SOL    HW138969   1.753   1.522   7.097 -0.1404 -0.3779  1.3792
 9111SOL    HW238970   1.846   1.416   7.107  0.2401 -0.4522 -1.6250
 9112SOL     OW38971   2.408   2.600  11.404  0.1409  0.3988 -0.0170
 9112SOL    HW138972   2.374   2.687  11.426 -1.0450 -0.0621 -0.0419
 9112SOL    HW238973   2.428   2.598  11.311  1.6246  0.2958  0.2982
 9113SOL     OW38974   4.301   1.708   3.215 -0.5112 -0.5420 -0.7489
 9113SOL    HW138975   4.214   1.720   3.253 -0.0810  0.0149  0.0497
 9113SOL    HW238976   4.305   1.612   3.218 -0.1120 -0.4529  2.1226
 9114SOL     OW38977   1.830   4.302   8.234  0.3076 -0.3377  0.2441
 9114SOL    HW138978   1.768   4.309   8.307 -0.7314  2.3952 -0.8992
 9114SOL    HW238979   1.861   4.392   8.231 -0.0506 -0.1068  3.4324
 9115SOL     OW38980   0.189   2.407   3.560  0.6833 -0.4412 -0.7189
 9115SOL    HW138981   0.264   2.451   3.600  0.5429  2.0002 -3.1303
 9115SOL    HW238982   0.172   2.346   3.632  0.8321 -0.6986 -0.9015
 9116SOL     OW38983   0.945   2.547   8.091 -0.2112  0.0230 -0.0758
 9116SOL    HW138984   0.961   2.505   8.176  1.8229 -1.7919 -1.3478
 9116SOL    HW238985   0.901   2.483   8.035  1.8581 -2.5402  1.2145
 9117SOL     OW38986   0.907   3.436   5.867 -0.8256 -0.2725 -1.0547
 9117SOL    HW138987   0.873   3.390   5.790 -2.2165 -0.3983 -0.3689
 9117SOL    HW238988   0.924   3.368   5.932 -0.1971  1.0599  0.1750
 9118SOL     OW38989   2.125   4.222   5.787 -0.0973 -0.1119  0.1480
 9118SOL    HW138990   2.203   4.175   5.814 -0.5003  0.5311  2.4145
 9118SOL    HW238991   2.060   4.162   5.823  0.4605 -0.9985 -0.3135
 9119SOL     OW38992   0.789   0.316   9.921  0.2808  0.5537  0.3616
 9119SOL    HW138993   0.862   0.367   9.957 -0.4070  0.1464  2.3336
 9119SOL    HW238994   0.829   0.288   9.839 -0.8731  1.0162 -0.3618
 9120SOL     OW38995   2.056   1.232   5.757  0.0799  0.0276 -0.2990
 9120SOL    HW138996   2.069   1.324   5.731  1.7845 -0.6533 -1.8292
 9120SOL    HW238997   2.001   1.237   5.835  1.6246  0.2484  0.7804
 9121SOL     OW38998   0.267   0.673   5.240 -0.2834 -0.4565 -0.8794
 9121SOL    HW138999   0.325   0.640   5.171 -1.5394 -0.5601 -1.8666
 9121SOL    HW239000   0.308   0.628   5.314 -1.3396  2.0084  1.1654
 9122SOL     OW39001   2.183   0.184   2.220  0.6784 -0.1795  0.3590
 9122SOL    HW139002   2.120   0.244   2.180  1.0528 -1.7624 -2.6702
 9122SOL    HW239003   2.224   0.253   2.271  0.5549  0.2155 -0.0747
 9123SOL     OW39004   4.405   0.176   2.859  0.3338  0.0929 -0.5176
 9123SOL    HW139005   4.365   0.089   2.850  0.5452 -0.2329  1.7207
 9123SOL    HW239006   4.465   0.162   2.932  0.3220  0.5998 -0.4164
 9124SOL     OW39007   0.227   4.392   9.030  0.0860  0.0273 -0.0673
 9124SOL    HW139008   0.213   4.480   9.064 -0.6492 -0.0745 -0.1205
 9124SOL    HW239009   0.208   4.396   8.936 -0.9964  0.7241  0.1876
 9125SOL     OW39010   0.365   0.392  12.756  0.4174 -0.2475 -0.3495
 9125SOL    HW139011   0.389   0.457  12.822  0.8705 -0.8365  0.0652
 9125SOL    HW239012   0.353   0.318  12.815  1.3541 -0.1373 -0.0214
 9126SOL     OW39013   3.435   2.028  12.760  0.0532 -0.2548  0.1663
 9126SOL    HW139014   3.513   2.042  12.706  0.9866  0.0409  1.5752
 9126SOL    HW239015   3.442   2.111  12.807  4.7829 -0.8392  0.5545
 9127SOL     OW39016   0.898   1.202   5.443 -0.5174  0.1528  0.0838
 9127SOL    HW139017   0.834   1.251   5.392  0.2515  0.8079 -0.2488
 9127SOL    HW239018   0.854   1.177   5.524  1.1450 -1.0063  0.6450
 9128SOL     OW39019   3.861   1.489   8.331 -0.0590 -0.0379  0.3779
 9128SOL    HW139020   3.924   1.540   8.382 -0.6291  0.8243  0.2215
 9128SOL    HW239021   3.842   1.562   8.271  0.2665 -1.1036 -1.0214
 9129SOL     OW39022   1.882   3.572   4.925  0.1497 -0.1498 -0.0012
 9129SOL    HW139023   1.971   3.588   4.895 -0.4961  1.3990 -1.0783
 9129SOL    HW239024   1.837   3.633   4.866  0.9364 -0.4813 -0.9357
 9130SOL     OW39025   1.154   3.761   4.325  0.5722 -0.5917 -0.2889
 9130SOL    HW139026   1.246   3.788   4.322  0.8299 -1.7999 -2.9047
 9130SOL    HW239027   1.117   3.848   4.307 -0.9052 -1.1807 -0.1269
 9131SOL     OW39028   1.827   1.139  11.046  0.1038  0.2659  0.2644
 9131SOL    HW139029   1.874   1.213  11.008  0.5895 -0.4056 -0.4396
 9131SOL    HW239030   1.735   1.167  11.040 -0.5655 -2.0248 -0.6185
 9132SOL     OW39031   0.079   3.536   3.573 -0.2567  0.5653  0.1184
 9132SOL    HW139032   0.054   3.463   3.516 -0.7357 -1.1857  2.6001
 9132SOL    HW239033   0.144   3.567   3.510  0.3866  1.5274  1.2554
 9133SOL     OW39034   0.477   0.580  10.260  0.4280  0.0067 -0.8265
 9133SOL    HW139035   0.540   0.508  10.250 -0.4919 -1.0900  1.2846
 9133SOL    HW239036   0.483   0.637  10.183 -1.3320 -0.8405 -1.5812
 9134SOL     OW39037   3.362   4.444   6.944  0.4632  0.1133  0.3992
 9134SOL    HW139038   3.326   4.365   6.986 -1.1691  0.7146  0.1313
 9134SOL    HW239039   3.454   4.434   6.969  0.8733 -0.3186 -1.2951
 9135SOL     OW39040   0.337   0.840   3.154 -0.0340  0.0462 -0.1013
 9135SOL    HW139041   0.387   0.826   3.074  1.8554  0.0417  1.0729
 9135SOL    HW239042   0.306   0.930   3.146  0.6253  0.1263 -1.8319
 9136SOL     OW39043   0.812   1.980  12.307 -0.1732 -0.0282  0.1967
 9136SOL    HW139044   0.892   1.937  12.335 -0.4403 -1.6062 -1.4842
 9136SOL    HW239045   0.820   1.964  12.214  0.5744 -0.0090  0.2638
 9137SOL     OW39046   1.256   2.830   7.806 -0.0665  0.3479  0.4115
 9137SOL    HW139047   1.279   2.877   7.886 -1.9259 -1.8146  2.2105
 9137SOL    HW239048   1.292   2.742   7.821 -0.7465  0.2291  1.3382
 9138SOL     OW39049   3.546   4.096   2.393 -0.1427  0.3178  0.1549
 9138SOL    HW139050   3.572   4.074   2.303 -1.5156 -1.2735  0.1415
 9138SOL    HW239051   3.622   4.064   2.440 -1.6056 -1.0753  1.5871
 9139SOL     OW39052   4.653   2.788   5.511  0.4252 -0.1338  0.0605
 9139SOL    HW139053   4.581   2.849   5.493  2.1656  2.0853  0.6863
 9139SOL    HW239054   4.713   2.857   5.539  0.2019  0.8507 -1.8380
 9140SOL     OW39055   0.332   4.382  12.611 -0.5097 -0.1814  0.1376
 9140SOL    HW139056   0.361   4.336  12.532  2.6736 -0.1033  1.2727
 9140SOL    HW239057   0.342   4.317  12.681  0.1232  2.2671  2.3355
 9141SOL     OW39058   0.361   4.506   8.026  0.1006 -0.6296  0.4629
 9141SOL    HW139059   0.359   4.412   8.009  1.0142 -0.8350  1.4571
 9141SOL    HW239060   0.274   4.517   8.064 -0.8534 -3.9040 -0.7039
 9142SOL     OW39061   0.855   2.695   7.413 -0.3686  0.5663 -0.4119
 9142SOL    HW139062   0.855   2.600   7.400  0.4098  0.4526  0.4034
 9142SOL    HW239063   0.830   2.728   7.326  0.9815 -0.7777 -1.2999
 9143SOL     OW39064   4.277   0.225   4.630 -0.0425 -0.0282  0.8913
 9143SOL    HW139065   4.184   0.234   4.651  0.1187 -0.9483  2.0266
 9143SOL    HW239066   4.279   0.201   4.538 -1.3896 -2.6536  1.5372
 9144SOL     OW39067   0.518   2.296   7.030  0.0967  0.5997 -0.2002
 9144SOL    HW139068   0.513   2.289   6.934 -1.4289 -0.2949 -0.0492
 9144SOL    HW239069   0.556   2.209   7.046 -1.8350  0.1226  1.6410
 9145SOL     OW39070   0.845   4.515   1.877  0.1893 -0.1090  0.2328
 9145SOL    HW139071   0.820   4.607   1.871  0.0367 -0.1362  0.4494
 9145SOL    HW239072   0.777   4.453   1.850  0.1895  0.2511 -0.5959
 9146SOL     OW39073   1.762   4.134  12.523  0.0266 -0.0209 -0.0929
 9146SOL    HW139074   1.827   4.121  12.454  2.5889  1.9500  1.9450
 9146SOL    HW239075   1.680   4.154  12.478  1.0979  1.3368 -1.4627
 9147SOL     OW39076   1.842   1.280  13.946 -0.0235  0.5639  0.4691
 9147SOL    HW139077   1.839   1.247  14.036  1.4465 -2.4577 -0.5750
 9147SOL    HW239078   1.753   1.314  13.948  0.3416  1.4592  1.9012
 9148SOL     OW39079   3.845   4.348   2.199 -0.1736 -0.5258 -0.4321
 9148SOL    HW139080   3.754   4.371   2.218  0.0300  0.7732 -1.0096
 9148SOL    HW239081   3.827   4.339   2.105  2.1971 -0.4398 -0.8956
 9149SOL     OW39082   3.546   1.972   1.974  0.1764  0.4944  0.1543
 9149SOL    HW139083   3.515   2.062   1.969 -1.2808 -0.0516 -0.4072
 9149SOL    HW239084   3.469   1.931   1.936  1.0332  1.1188 -2.2237
 9150SOL     OW39085   0.503   2.669  12.425  0.2172  0.1522  0.0211
 9150SOL    HW139086   0.510   2.680  12.330  0.8525  0.9218  0.1536
 9150SOL    HW239087   0.482   2.576  12.429 -0.0791  0.2472  0.6377
 9151SOL     OW39088   2.746   2.293  10.013 -0.6783 -0.8584 -0.4140
 9151SOL    HW139089   2.656   2.280  10.044 -0.7369  0.1902 -0.1344
 9151SOL    HW239090   2.760   2.385  10.037 -1.5702 -0.5737 -0.9854
 9152SOL     OW39091   4.087   3.905   4.437  0.2640  0.4755 -0.2414
 9152SOL    HW139092   4.126   3.825   4.402  0.7887  2.2602 -3.7194
 9152SOL    HW239093   4.011   3.900   4.379  0.3864 -2.0457 -0.1877
 9153SOL     OW39094   3.885   1.912   3.975  0.3365  0.1159 -0.5677
 9153SOL    HW139095   3.867   1.819   3.992  2.8306 -0.2407  0.1192
 9153SOL    HW239096   3.978   1.903   3.996 -0.0508 -2.8522  0.0039
 9154SOL     OW39097   2.429   0.451   5.023  0.3040 -0.5426 -0.0336
 9154SOL    HW139098   2.484   0.484   4.952  2.2074  1.1696  2.2333
 9154SOL    HW239099   2.416   0.363   4.987 -0.7270 -0.3351 -0.1584
 9155SOL     OW39100   4.663   2.832   2.056  0.3729 -0.1671 -0.4457
 9155SOL    HW139101   0.018   2.820   2.066  0.8215  2.3627 -1.4484
 9155SOL    HW239102   4.658   2.924   2.028  1.9340  0.2368  0.5693
 9156SOL     OW39103   4.151   4.728   6.742 -0.1305 -0.2748 -0.2270
 9156SOL    HW139104   4.171   0.044   6.666  1.7294 -1.5990 -0.7053
 9156SOL    HW239105   4.229   4.692   6.784  0.6586  0.5315 -0.9952
 9157SOL     OW39106   0.457   1.527  14.251  0.2746  0.0217 -0.4324
 9157SOL    HW139107   0.379   1.491  14.293 -0.4241 -0.7880 -2.4291
 9157SOL    HW239108   0.534   1.501  14.300  0.0464 -1.1624 -0.7073
 9158SOL     OW39109   1.651   0.058   3.727  0.0538 -0.4628  0.1808
 9158SOL    HW139110   1.577   0.089   3.673  0.6966 -0.0282 -0.4553
 9158SOL    HW239111   1.686   0.136   3.771  1.4240 -1.5662  1.0165
 9159SOL     OW39112   1.962   1.088  14.680 -0.2476 -0.4367  0.0463
 9159SOL    HW139113   1.952   0.996  14.652 -1.5425  0.4793 -2.5162
 9159SOL    HW239114   2.023   1.088  14.754  1.3001 -1.0812 -1.2394
 9160SOL     OW39115   4.178   1.932   6.715  0.0487  0.3563 -0.0860
 9160SOL    HW139116   4.087   1.918   6.741  0.8338 -2.6042  1.0129
 9160SOL    HW239117   4.206   1.944   6.806 -0.9507  0.4860  0.2050
 9161SOL     OW39118   1.466   3.090   3.672 -0.2978  0.6764  0.4519
 9161SOL    HW139119   1.424   3.159   3.619  0.0729 -0.1498 -0.9011
 9161SOL    HW239120   1.394   3.040   3.711 -0.2182  0.5406  0.4217
 9162SOL     OW39121   2.966   0.632   4.772 -0.2681  0.0743  0.1927
 9162SOL    HW139122   2.958   0.612   4.866 -0.2063 -0.7213  0.0240
 9162SOL    HW239123   3.058   0.657   4.768 -0.1512 -0.2030  1.0426
 9163SOL     OW39124   4.032   3.944  17.288  0.3264 -0.0305 -0.0288
 9163SOL    HW139125   3.990   3.879  17.231 -1.0927  0.4298  0.5033
 9163SOL    HW239126   3.959   3.958  17.348  0.6709  0.6918  0.2236
 9164SOL     OW39127   1.686   2.307  17.276 -0.2714  0.1820 -0.5510
 9164SOL    HW139128   1.642   2.366  17.215 -0.4152  1.3143  0.6518
 9164SOL    HW239129   1.645   2.324  17.361  0.6421  0.4449 -0.1621
 9165SOL     OW39130   2.142   2.557   7.431 -0.3873  0.0365  0.2342
 9165SOL    HW139131   2.121   2.464   7.440  2.3302 -0.5010  0.8429
 9165SOL    HW239132   2.211   2.549   7.365  1.1423 -4.3812  2.4604
 9166SOL     OW39133   4.638   1.951  14.079  0.0284 -0.4907 -0.1602
 9166SOL    HW139134   4.698   1.876  14.081 -0.8881 -1.2481 -1.3417
 9166SOL    HW239135   4.673   2.006  14.009  1.6790 -0.9986  0.2420
 9167SOL     OW39136   4.300   3.387  12.627  0.7344 -0.0727 -0.5132
 9167SOL    HW139137   4.270   3.323  12.562  1.8806 -0.3725 -0.7448
 9167SOL    HW239138   4.309   3.344  12.712  1.5302  0.2365 -0.4469
 9168SOL     OW39139   0.026   2.670   7.560 -0.2771  0.1798  0.1178
 9168SOL    HW139140   0.008   2.591   7.510  1.0501 -0.1662  0.1785
 9168SOL    HW239141   0.075   2.629   7.631  0.0249 -0.6626 -0.5811
 9169SOL     OW39142   1.379   4.143   9.344  0.5538  0.1407  0.0218
 9169SOL    HW139143   1.361   4.098   9.427 -0.5519  0.2790 -0.1353
 9169SOL    HW239144   1.386   4.069   9.283  0.9415 -0.1207  0.3893
 9170SOL     OW39145   3.357   0.857   6.623  0.2811 -0.2745 -0.1183
 9170SOL    HW139146   3.283   0.800   6.644 -1.7107  1.8187 -1.4966
 9170SOL    HW239147   3.354   0.918   6.696 -0.0191 -1.9396  1.2713
 9171SOL     OW39148   4.236   2.749   8.218  0.4167  0.6333 -0.5325
 9171SOL    HW139149   4.272   2.754   8.306 -0.5809 -0.0249 -0.0916
 9171SOL    HW239150   4.144   2.769   8.235  1.1220 -0.7368  4.9286
 9172SOL     OW39151   1.746   4.016   4.851 -0.6265  0.1826  0.3635
 9172SOL    HW139152   1.798   3.940   4.822  0.6309  1.5897 -1.1064
 9172SOL    HW239153   1.808   4.088   4.859 -1.4513  0.9740 -0.4082
 9173SOL     OW39154   4.736   0.958   5.614 -0.2954 -0.4200 -0.4201
 9173SOL    HW139155   4.687   0.896   5.561  1.8082 -1.8917 -0.6530
 9173SOL    HW239156   0.050   0.997   5.545 -0.8160  0.6119 -0.2515
 9174SOL     OW39157   3.456   3.248   5.755 -0.0492 -0.3680 -0.8980
 9174SOL    HW139158   3.466   3.169   5.702 -0.6320 -1.0737  0.0534
 9174SOL    HW239159   3.549   3.262   5.776 -0.8540  0.0888  2.4200
 9175SOL     OW39160   0.063   2.130   8.132  0.3951 -0.1774 -0.1777
 9175SOL    HW139161   0.111   2.048   8.120  2.2385  0.8093  0.4515
 9175SOL    HW239162   0.013   2.095   8.205  0.7085  1.0891  0.6476
 9176SOL     OW39163   1.979   4.703   7.963 -0.0064  0.4153 -0.1201
 9176SOL    HW139164   2.038   4.646   7.914 -0.2281  1.3398 -1.4705
 9176SOL    HW239165   2.043   0.021   8.007 -1.8254  1.0904  1.6331
 9177SOL     OW39166   4.090   3.797  12.798 -0.7299 -0.6996 -0.0925
 9177SOL    HW139167   4.171   3.843  12.778 -1.3695  0.2696 -0.4938
 9177SOL    HW239168   4.098   3.710  12.760 -0.8857 -0.4070 -0.7801
 9178SOL     OW39169   1.779   2.131   8.862 -0.1668  0.3686  0.3189
 9178SOL    HW139170   1.865   2.091   8.871 -0.8082 -1.4653 -1.4313
 9178SOL    HW239171   1.768   2.146   8.768 -0.0588 -1.7830 -0.0525
 9179SOL     OW39172   0.560   4.087   3.126  0.1782  0.1516 -0.3911
 9179SOL    HW139173   0.477   4.062   3.165  0.2067  3.2715  1.6706
 9179SOL    HW239174   0.534   4.177   3.108 -0.2838  0.3561  1.3216
 9180SOL     OW39175   4.696   1.951   7.277 -0.1717  0.4033  0.0230
 9180SOL    HW139176   4.619   1.896   7.294 -0.7239  1.1526 -0.0383
 9180SOL    HW239177   4.669   2.003   7.201  0.4814  0.0665 -0.4330
 9181SOL     OW39178   3.249   1.735  12.211  0.0995 -0.4865  0.4658
 9181SOL    HW139179   3.170   1.732  12.265 -2.0695  0.5870 -2.6384
 9181SOL    HW239180   3.264   1.830  12.207  1.4359 -0.7167  0.0798
 9182SOL     OW39181   2.184   2.783   9.071  0.2155  0.4712  0.2763
 9182SOL    HW139182   2.119   2.715   9.057  1.4083 -0.2671 -1.7890
 9182SOL    HW239183   2.169   2.807   9.162 -1.0887  1.5476 -0.2228
 9183SOL     OW39184   2.890   2.256  15.398 -0.0203 -0.3711  0.3185
 9183SOL    HW139185   2.835   2.187  15.433  0.7413 -0.2901  1.6778
 9183SOL    HW239186   2.969   2.230  15.446 -0.4689 -0.9674  0.7197
 9184SOL     OW39187   3.822   3.119   1.506 -0.0329 -0.0783  0.3849
 9184SOL    HW139188   3.738   3.072   1.509  0.2571 -0.5855  0.6180
 9184SOL    HW239189   3.873   3.064   1.447 -0.5863 -0.9851  0.7473
 9185SOL     OW39190   2.094   3.395   2.584  0.7998 -0.7709  0.0005
 9185SOL    HW139191   2.115   3.483   2.552  0.3510 -0.3349  0.9142
 9185SOL    HW239192   2.156   3.343   2.532  1.1002 -0.5929  0.1820
 9186SOL     OW39193   0.604   0.538   2.646 -0.0775  0.4522 -0.0316
 9186SOL    HW139194   0.602   0.459   2.700 -0.1806  0.3543 -0.1786
 9186SOL    HW239195   0.638   0.496   2.567 -1.8487 -0.9448 -0.0604
 9187SOL     OW39196   3.441   1.918   3.005 -0.3752  0.0519 -0.3449
 9187SOL    HW139197   3.386   1.848   3.039 -1.4985  1.5461  0.9179
 9187SOL    HW239198   3.479   1.875   2.928  0.9255 -0.7220  0.7245
 9188SOL     OW39199   2.773   4.724   0.131  0.3908  0.0858 -0.2089
 9188SOL    HW139200   2.820   4.659   0.080 -1.0611 -0.9202 -0.2718
 9188SOL    HW239201   2.808   0.066   0.094  0.2270 -0.6756 -2.0753
 9189SOL     OW39202   3.436   2.794   7.805  0.0553  0.0212  0.0757
 9189SOL    HW139203   3.370   2.725   7.802  0.5493 -0.2915 -3.6883
 9189SOL    HW239204   3.515   2.748   7.833 -0.5884 -1.5475 -0.6676
 9190SOL     OW39205   4.677   3.219  15.588  0.0710  0.0426 -0.9028
 9190SOL    HW139206   4.678   3.147  15.525  1.1162  0.5187 -1.4326
 9190SOL    HW239207   0.028   3.250  15.592  0.9319 -2.9554  2.2088
 9191SOL     OW39208   1.842   1.880   3.262 -0.1878 -0.0919  0.3039
 9191SOL    HW139209   1.937   1.870   3.265 -0.2046  0.1839  1.7126
 9191SOL    HW239210   1.819   1.790   3.240  1.4672 -0.7959  1.4862
 9192SOL     OW39211   0.542   0.056   2.073 -0.4699  0.0081  0.3807
 9192SOL    HW139212   0.451   0.056   2.102 -1.7201 -1.8696 -3.5035
 9192SOL    HW239213   0.578   4.708   2.092  2.0749  1.3099  1.5417
 9193SOL     OW39214   0.725   4.571  14.256  0.5065  0.0645  0.0135
 9193SOL    HW139215   0.779   4.600  14.183  0.1272  2.0873  0.5370
 9193SOL    HW239216   0.656   4.521  14.212 -1.3681  2.0355  0.7106
 9194SOL     OW39217   0.002   0.965  13.590  0.1007 -0.3264 -0.8829
 9194SOL    HW139218   4.680   0.992  13.521 -2.8179 -2.1577  1.0133
 9194SOL    HW239219   4.698   1.009  13.663  1.5196 -1.1196  0.4289
 9195SOL     OW39220   2.066   4.612   7.728  0.3707  0.1311 -0.3185
 9195SOL    HW139221   2.053   4.517   7.728  1.0240  0.0425 -0.8487
 9195SOL    HW239222   1.985   4.642   7.688 -0.3254 -1.4284 -0.1058
 9196SOL     OW39223   1.290   1.115   2.890  0.2251 -0.1543  0.0977
 9196SOL    HW139224   1.365   1.174   2.876 -1.4542  1.9203 -0.0598
 9196SOL    HW239225   1.215   1.167   2.861  1.0055 -0.8238 -3.1770
 9197SOL     OW39226   0.362   0.243   1.711  0.0414 -0.1404 -0.2735
 9197SOL    HW139227   0.271   0.217   1.696  0.0145 -1.6577  2.4836
 9197SOL    HW239228   0.352   0.272   1.802  2.0383 -0.5609  0.0938
 9198SOL     OW39229   3.947   2.792   8.726 -0.1854  0.4343  0.2370
 9198SOL    HW139230   3.980   2.807   8.814  1.2305 -4.0314  0.4586
 9198SOL    HW239231   3.901   2.710   8.741  1.6092 -0.5315  0.4083
 9199SOL     OW39232   0.766   4.629   4.917  0.3615 -0.1085 -0.0972
 9199SOL    HW139233   0.770   4.606   5.010 -0.2914 -1.0628 -0.2998
 9199SOL    HW239234   0.806   4.551   4.879 -0.9221 -0.4071 -0.8431
 9200SOL     OW39235   1.440   1.630   1.984 -0.5887  0.7877 -0.4781
 9200SOL    HW139236   1.404   1.701   1.931 -2.6026  0.6032  0.6588
 9200SOL    HW239237   1.533   1.652   1.979 -0.9174  2.3149  0.0910
 9201SOL     OW39238   2.945   1.691  14.150  0.1735 -0.7199 -0.3203
 9201SOL    HW139239   2.972   1.735  14.231  0.6863 -0.9245 -0.3828
 9201SOL    HW239240   3.003   1.739  14.091 -0.4481  2.1316  1.3508
 9202SOL     OW39241   2.814   1.260  15.953  0.5376  0.1237 -0.0930
 9202SOL    HW139242   2.834   1.345  15.915 -0.6118 -0.1581 -1.3156
 9202SOL    HW239243   2.868   1.204  15.897 -0.3937  0.0399 -0.8968
 9203SOL     OW39244   3.538   1.139   5.254 -0.1517 -0.0740  0.0806
 9203SOL    HW139245   3.524   1.196   5.330 -1.1935  0.9699 -0.8844
 9203SOL    HW239246   3.505   1.055   5.284 -1.2109  1.0535  2.0543
 9204SOL     OW39247   1.578   1.390  10.386 -0.2944 -0.0993  0.1139
 9204SOL    HW139248   1.584   1.318  10.449  1.2227  1.1977  1.4377
 9204SOL    HW239249   1.498   1.357  10.346  0.2633 -0.6344 -0.5700
 9205SOL     OW39250   2.053   0.259   8.577 -0.1715  0.5811 -0.0651
 9205SOL    HW139251   1.992   0.201   8.622 -2.4209  0.7125 -2.9676
 9205SOL    HW239252   2.041   0.224   8.489 -2.9120 -1.1798  1.0226
 9206SOL     OW39253   3.569   0.708  16.485 -0.3126 -0.5467 -0.0287
 9206SOL    HW139254   3.585   0.772  16.415  2.4977 -0.3811  0.7513
 9206SOL    HW239255   3.612   0.754  16.558 -0.7759  0.6002 -0.4737
 9207SOL     OW39256   2.767   2.330   6.127 -0.0909  0.8623 -0.4214
 9207SOL    HW139257   2.855   2.292   6.129 -0.8236 -0.7896  0.7480
 9207SOL    HW239258   2.734   2.317   6.216  1.3368 -0.4158 -0.0779
 9208SOL     OW39259   0.655   2.988   3.755  0.1791  0.2342 -0.4679
 9208SOL    HW139260   0.562   3.009   3.760 -0.3993 -2.6649  1.0600
 9208SOL    HW239261   0.642   2.900   3.719 -0.0919 -0.5287  1.5355
 9209SOL     OW39262   0.323   2.551   0.365 -0.2901  0.2918  0.1240
 9209SOL    HW139263   0.237   2.591   0.356 -0.9302 -1.1706 -0.1613
 9209SOL    HW239264   0.341   2.528   0.274  2.2642  2.5731  0.0701
 9210SOL     OW39265   0.467   2.195   3.831  0.0883  0.2073  0.1211
 9210SOL    HW139266   0.505   2.215   3.746 -0.5984  1.2094  0.0613
 9210SOL    HW239267   0.506   2.253   3.897  0.9141  1.9397 -1.9232
 9211SOL     OW39268   4.018   1.347   8.707  0.2980  0.4702 -0.1554
 9211SOL    HW139269   3.971   1.412   8.655  0.3465  0.6894  0.0759
 9211SOL    HW239270   4.029   1.385   8.794  0.5525 -0.8713  0.3951
 9212SOL     OW39271   1.148   2.278  16.142  0.2604  0.9349 -0.2945
 9212SOL    HW139272   1.061   2.255  16.174  0.2514  0.4368 -0.6736
 9212SOL    HW239273   1.132   2.353  16.085  1.4052  0.9430 -0.6118
 9213SOL     OW39274   0.845   4.384   5.781  0.3916  0.2247  0.1186
 9213SOL    HW139275   0.905   4.450   5.816 -1.2567  1.1262  1.2605
 9213SOL    HW239276   0.913   4.317   5.774  0.4626 -0.0919  3.4547
 9214SOL     OW39277   4.560   0.159  10.139  0.3133 -0.1547  0.0452
 9214SOL    HW139278   4.482   0.104  10.132  1.7379 -2.4027  1.9041
 9214SOL    HW239279   4.584   0.155  10.232 -2.4847 -1.6411  0.7236
 9215SOL     OW39280   0.099   1.826   7.475  0.7130  0.0109  0.3152
 9215SOL    HW139281   0.110   1.747   7.422 -2.1702 -0.3232  0.2008
 9215SOL    HW239282   0.063   1.887   7.411  1.5551  0.2235  0.0417
 9216SOL     OW39283   1.404   2.105   6.269 -0.4534 -0.6083  0.3231
 9216SOL    HW139284   1.397   2.190   6.226 -1.0198 -0.3874  0.8621
 9216SOL    HW239285   1.442   2.050   6.200 -0.0108 -1.9239  1.6261
 9217SOL     OW39286   1.254   2.847   7.000  0.2065  0.0679 -0.4114
 9217SOL    HW139287   1.268   2.879   6.911  0.2403 -0.7268 -0.6864
 9217SOL    HW239288   1.192   2.913   7.032  2.1469  1.6439  0.0755
 9218SOL     OW39289   0.708   2.231  12.177 -0.0112  0.2066  0.2782
 9218SOL    HW139290   0.724   2.193  12.264 -1.5634 -0.2797  0.3590
 9218SOL    HW239291   0.625   2.192  12.151  0.8539 -0.7202 -1.0916
 9219SOL     OW39292   1.075   1.893  13.139 -0.1836  0.3062  0.1531
 9219SOL    HW139293   0.982   1.885  13.119 -0.5784 -1.1577  2.5885
 9219SOL    HW239294   1.089   1.988  13.136 -0.3561  0.3322  0.1615
 9220SOL     OW39295   1.315   3.205   1.635  0.1309  1.0503  0.9774
 9220SOL    HW139296   1.315   3.275   1.700 -0.8305 -0.6118  2.7418
 9220SOL    HW239297   1.249   3.241   1.576  1.8040  2.0471 -0.3077
 9221SOL     OW39298   3.001   3.464   3.440 -0.2361 -0.0463  0.6789
 9221SOL    HW139299   2.937   3.395   3.457  0.4082 -0.4693  1.3866
 9221SOL    HW239300   2.942   3.540   3.436 -2.2457 -1.6566 -0.0477
 9222SOL     OW39301   3.984   2.970   7.594 -0.7211 -0.3315  0.2944
 9222SOL    HW139302   4.070   2.936   7.568 -2.2384 -4.0082  0.0516
 9222SOL    HW239303   4.007   3.061   7.573 -1.0568 -1.0067 -3.0066
 9223SOL     OW39304   4.516   0.201   2.605  0.2990  0.0242 -0.3441
 9223SOL    HW139305   4.501   0.110   2.581 -0.0209  0.3135 -1.2655
 9223SOL    HW239306   4.461   0.211   2.682 -1.4298  0.2621 -1.6175
 9224SOL     OW39307   4.061   4.351   3.056 -0.4942  0.0520 -0.1092
 9224SOL    HW139308   3.996   4.301   3.008 -0.0056  0.8241 -1.5827
 9224SOL    HW239309   4.125   4.361   2.985 -2.5650  0.4627 -1.9062
 9225SOL     OW39310   3.931   0.646  16.850  0.2860 -0.0773 -0.5649
 9225SOL    HW139311   3.889   0.565  16.822  0.1862 -0.2994  0.2453
 9225SOL    HW239312   3.874   0.711  16.809 -0.3894 -0.7961 -0.7687
 9226SOL     OW39313   0.937   4.231   9.548  0.0884 -0.1858 -0.5731
 9226SOL    HW139314   0.902   4.318   9.566 -0.5635 -0.5466 -0.0893
 9226SOL    HW239315   1.016   4.258   9.501  0.5943  0.5864  0.7254
 9227SOL     OW39316   1.102   2.514  15.954  0.3216  0.2130 -0.2094
 9227SOL    HW139317   1.141   2.599  15.973 -1.7754  0.6024  2.3051
 9227SOL    HW239318   1.066   2.540  15.869 -0.7721  1.1857  0.5413
 9228SOL     OW39319   1.811   1.375   6.564  0.4484 -0.1983 -0.9313
 9228SOL    HW139320   1.757   1.301   6.591  0.4450  0.2919  0.3875
 9228SOL    HW239321   1.887   1.336   6.607  0.7610  0.8056 -0.5815
 9229SOL     OW39322   3.792   3.777   2.486 -0.4109  0.3497  1.0667
 9229SOL    HW139323   3.835   3.715   2.427 -1.2096  2.1752 -1.4007
 9229SOL    HW239324   3.699   3.772   2.465  0.1256  0.3415 -1.3367
 9230SOL     OW39325   1.742   4.392   4.998  0.6441 -0.3904 -0.5489
 9230SOL    HW139326   1.796   4.370   5.073  2.1055  0.2076 -1.4387
 9230SOL    HW239327   1.777   4.336   4.929  0.1960  0.6948 -1.6520
 9231SOL     OW39328   1.401   3.771  13.473  0.1641 -0.1177  0.3854
 9231SOL    HW139329   1.465   3.705  13.500  1.9111  1.0704 -0.8235
 9231SOL    HW239330   1.442   3.810  13.396  1.0086  0.4740  1.1389
 9232SOL     OW39331   0.745   2.485   9.697 -0.5137  0.3965 -0.5647
 9232SOL    HW139332   0.711   2.519   9.615 -0.1519  1.6082 -0.2183
 9232SOL    HW239333   0.792   2.565   9.721 -2.6081  1.2111  0.8531
 9233SOL     OW39334   2.760   0.060   1.766 -0.0067  0.0052  0.1866
 9233SOL    HW139335   2.831   0.125   1.760 -1.2499  1.4709  1.3152
 9233SOL    HW239336   2.686   0.119   1.780 -1.1816 -1.3764 -0.2592
 9234SOL     OW39337   0.792   0.386  13.667  0.2837 -0.2324  0.1651
 9234SOL    HW139338   0.774   0.312  13.609  2.1811  0.4122 -1.2702
 9234SOL    HW239339   0.821   0.443  13.597 -0.4312  1.2539  1.0854
 9235SOL     OW39340   0.791   3.839   1.972 -0.2130  0.1750 -0.1130
 9235SOL    HW139341   0.711   3.809   2.015 -0.1782  0.8512  0.4315
 9235SOL    HW239342   0.749   3.918   1.937  0.6822  0.9378  0.5434
 9236SOL     OW39343   1.595   0.276   2.662 -0.1744  0.1211  0.0326
 9236SOL    HW139344   1.605   0.353   2.605  1.9258 -0.3770 -0.2903
 9236SOL    HW239345   1.597   0.312   2.751 -1.3446 -1.4149  0.6610
 9237SOL     OW39346   0.401   0.738   0.713 -0.3178  0.3315  0.4629
 9237SOL    HW139347   0.338   0.668   0.694 -0.6984  1.1627 -1.3293
 9237SOL    HW239348   0.444   0.754   0.629  0.4206  0.5748  0.8923
 9238SOL     OW39349   2.120   1.076  11.060 -0.2034 -0.5673  0.5033
 9238SOL    HW139350   2.142   1.149  11.117  0.4761 -0.5010  0.1514
 9238SOL    HW239351   2.026   1.075  11.081  0.5389  0.9704  3.6679
 9239SOL     OW39352   1.975   2.544  12.607 -1.1673  0.5487 -0.5155
 9239SOL    HW139353   2.016   2.457  12.601  1.3757  1.7409 -0.3062
 9239SOL    HW239354   1.922   2.532  12.685 -1.8531  0.3220 -1.0229
 9240SOL     OW39355   1.340   0.418   0.801  0.0710  0.3892 -0.0455
 9240SOL    HW139356   1.308   0.332   0.772 -1.0032  0.7441  0.0962
 9240SOL    HW239357   1.273   0.464   0.851 -1.2303  1.9502 -3.1587
 9241SOL     OW39358   1.196   2.639  15.292  0.4578  0.0330  0.1937
 9241SOL    HW139359   1.176   2.557  15.337 -0.5489 -0.2136 -0.6937
 9241SOL    HW239360   1.141   2.640  15.214  2.0534  2.3928 -0.9184
 9242SOL     OW39361   1.381   1.524  16.731 -0.5222 -0.1021  0.2458
 9242SOL    HW139362   1.333   1.599  16.768  1.1982  0.8778  0.4928
 9242SOL    HW239363   1.313   1.504  16.667 -0.2772 -0.0035 -0.0405
 9243SOL     OW39364   4.272   2.735   6.047 -0.0526  0.9118  0.1508
 9243SOL    HW139365   4.217   2.811   6.027 -1.5950 -0.1669  0.2499
 9243SOL    HW239366   4.202   2.670   6.057  0.9524 -0.5398 -2.1038
 9244SOL     OW39367   0.060   2.669   7.204 -0.5472 -0.0160 -0.3693
 9244SOL    HW139368   0.107   2.731   7.260  0.2538  0.2149 -1.3172
 9244SOL    HW239369   0.104   2.589   7.234  1.4712  0.2500 -2.6814
 9245SOL     OW39370   1.952   1.466   4.303  0.9103  0.1266  0.1046
 9245SOL    HW139371   2.027   1.446   4.360 -0.0093  0.4752  1.4247
 9245SOL    HW239372   2.003   1.536   4.260  0.2460  1.6478  1.7913
 9246SOL     OW39373   4.682   3.433   8.244  0.4559 -0.0232 -0.2798
 9246SOL    HW139374   4.683   3.383   8.326 -4.5452  0.7675  0.2307
 9246SOL    HW239375   4.649   3.357   8.197  0.6192 -1.1916  1.4770
 9247SOL     OW39376   1.701   2.708   6.760 -0.0591 -0.4153  0.0905
 9247SOL    HW139377   1.663   2.620   6.769 -0.9692 -0.4547 -3.8409
 9247SOL    HW239378   1.730   2.701   6.669  4.4728  0.0923  1.5338
 9248SOL     OW39379   0.428   1.666   6.183 -0.1535  0.1602  0.0741
 9248SOL    HW139380   0.444   1.587   6.131  2.5116 -0.0460  1.1962
 9248SOL    HW239381   0.337   1.650   6.206  0.6526  0.8291  3.6964
 9249SOL     OW39382   3.578   0.428   9.719 -0.1801 -0.5882 -0.6700
 9249SOL    HW139383   3.619   0.367   9.657 -0.6571 -0.4360 -1.1398
 9249SOL    HW239384   3.587   0.369   9.794  2.2231 -0.0957 -0.5713
 9250SOL     OW39385   1.486   4.687  12.622 -0.8377  0.3168  0.2109
 9250SOL    HW139386   1.473   0.030  12.668  3.5281  1.3327 -0.3799
 9250SOL    HW239387   1.440   4.624  12.677 -0.4826 -0.0243  0.1183
 9251SOL     OW39388   0.852   3.587   6.125 -0.3720 -0.0231 -0.3703
 9251SOL    HW139389   0.897   3.589   6.209 -0.9686  0.6215 -0.0678
 9251SOL    HW239390   0.897   3.518   6.075 -0.8603 -0.8586  0.3286
 9252SOL     OW39391   3.832   3.268   7.839  0.0216  0.3763 -0.0334
 9252SOL    HW139392   3.769   3.205   7.875 -1.5786  3.0053  1.7417
 9252SOL    HW239393   3.909   3.257   7.895  0.5971  1.2269 -0.6551
 9253SOL     OW39394   3.952   3.967   9.221 -0.4758  0.0704 -0.0108
 9253SOL    HW139395   3.920   3.880   9.198 -0.4028 -0.0020  0.1608
 9253SOL    HW239396   3.954   3.996   9.130 -0.0300 -2.5177 -0.7955
 9254SOL     OW39397   1.026   0.367  16.520  0.0727  0.7923  0.1281
 9254SOL    HW139398   0.978   0.285  16.532 -0.0028  0.8417  0.1596
 9254SOL    HW239399   1.115   0.331  16.515 -1.7075 -3.3704 -1.7937
 9255SOL     OW39400   3.457   4.685  16.879 -0.3516  0.3611  0.0307
 9255SOL    HW139401   3.422   0.000  16.809 -1.2547 -2.3957 -1.6472
 9255SOL    HW239402   3.552   4.680  16.866 -0.0717  3.2198  0.9329
 9256SOL     OW39403   4.222   1.019   6.157  0.1895  0.5029 -0.4726
 9256SOL    HW139404   4.215   1.062   6.242 -1.8660 -2.1741  0.7246
 9256SOL    HW239405   4.296   1.070   6.125 -0.7286  1.8155 -0.4770
 9257SOL     OW39406   2.344   0.536   3.927 -0.3072  0.6660  0.0162
 9257SOL    HW139407   2.288   0.577   3.861 -1.6976 -0.8029  0.2862
 9257SOL    HW239408   2.415   0.500   3.874  1.7170  2.8490  1.2708
 9258SOL     OW39409   2.404   2.464  15.342  0.2532 -0.6160 -0.5191
 9258SOL    HW139410   2.340   2.409  15.297  0.0282 -1.8003  1.2461
 9258SOL    HW239411   2.461   2.509  15.280 -0.0944  3.3728  1.9853
 9259SOL     OW39412   3.734   1.722   3.778 -0.1783 -0.7282  0.1991
 9259SOL    HW139413   3.694   1.776   3.711 -2.1174 -0.1213  1.8688
 9259SOL    HW239414   3.812   1.701   3.726 -0.1812 -1.0432  0.3209
 9260SOL     OW39415   2.150   4.464   2.074 -0.0783  0.2177 -0.3021
 9260SOL    HW139416   2.153   4.559   2.070 -1.7781  0.1803 -2.2978
 9260SOL    HW239417   2.183   4.432   1.990 -0.1627 -0.0117 -0.2486
 9261SOL     OW39418   2.425   3.011   2.737  0.8150  0.2266  0.2449
 9261SOL    HW139419   2.502   3.011   2.680  1.7636 -0.6822  1.5089
 9261SOL    HW239420   2.364   3.002   2.664  1.0760 -0.1463  0.0714
 9262SOL     OW39421   0.467   3.562  16.508  0.1547 -0.0438  0.1514
 9262SOL    HW139422   0.374   3.571  16.527  0.4453 -0.5297  1.8170
 9262SOL    HW239423   0.504   3.549  16.595 -1.8134 -2.3410  0.6386
 9263SOL     OW39424   0.198   1.641   8.341 -0.2655  0.0454  0.4491
 9263SOL    HW139425   0.115   1.595   8.328 -0.7905  1.0845  0.1616
 9263SOL    HW239426   0.263   1.573   8.358  1.1858  1.4811  0.5817
 9264SOL     OW39427   4.591   2.024  13.682  0.1764  0.4153 -0.0677
 9264SOL    HW139428   4.522   2.009  13.747  0.5024 -0.3618  0.0976
 9264SOL    HW239429   4.552   1.999  13.598  1.5269  1.8279 -1.1201
 9265SOL     OW39430   2.251   0.659   3.699 -0.5748  0.0784  0.4538
 9265SOL    HW139431   2.319   0.722   3.679 -0.3992 -0.2252  0.0908
 9265SOL    HW239432   2.193   0.675   3.625 -0.6381  0.3690  0.5672
 9266SOL     OW39433   3.850   1.930  15.983  0.1525  0.1341 -0.1442
 9266SOL    HW139434   3.876   1.883  16.061 -0.4928  0.7119  0.4191
 9266SOL    HW239435   3.933   1.962  15.948  0.3144  1.3202  1.3466
 9267SOL     OW39436   1.376   3.351   3.542 -0.1355 -0.0891 -0.2401
 9267SOL    HW139437   1.352   3.380   3.454 -0.1368  0.3377 -0.0996
 9267SOL    HW239438   1.322   3.408   3.597  3.0201  1.2651  1.4644
 9268SOL     OW39439   1.810   3.437   6.518  0.2012  0.1560 -0.1053
 9268SOL    HW139440   1.778   3.402   6.601  0.4807  0.1113 -0.0151
 9268SOL    HW239441   1.782   3.528   6.520 -0.7459 -0.1670  0.9966
 9269SOL     OW39442   1.186   0.531   6.486 -0.1025  0.2341 -0.0140
 9269SOL    HW139443   1.126   0.507   6.415 -1.0492 -0.1986  0.9203
 9269SOL    HW239444   1.157   0.463   6.547 -0.1636  0.7683  0.5434
 9270SOL     OW39445   0.329   3.274   6.500 -0.2611 -0.0919  0.4783
 9270SOL    HW139446   0.399   3.273   6.565  0.9895  1.8290 -0.8369
 9270SOL    HW239447   0.357   3.343   6.439  0.1898 -0.4415  0.2881
 9271SOL     OW39448   0.533   3.892   9.609  0.0369  0.8197  0.1610
 9271SOL    HW139449   0.472   3.820   9.591  1.1454 -0.1405  0.2924
 9271SOL    HW239450   0.467   3.953   9.575 -1.2089 -1.1678 -0.9750
 9272SOL     OW39451   2.353   2.818  11.962 -0.2887 -0.4652 -0.3957
 9272SOL    HW139452   2.422   2.808  11.896 -2.0445 -0.5389 -2.2238
 9272SOL    HW239453   2.352   2.912  11.977  0.3610 -0.4285 -0.6078
 9273SOL     OW39454   4.387   3.232   7.866 -0.1141 -0.0873  0.3775
 9273SOL    HW139455   4.366   3.143   7.835 -1.0795  0.4680 -0.5598
 9273SOL    HW239456   4.453   3.246   7.798  0.9738  2.2697  1.9244
 9274SOL     OW39457   2.987   3.858   8.057 -0.2308 -0.2730 -0.0362
 9274SOL    HW139458   3.034   3.776   8.060 -2.3674 -1.5227 -0.3633
 9274SOL    HW239459   2.965   3.867   8.150 -0.2360  0.9795 -0.1512
 9275SOL     OW39460   0.552   2.295   4.158 -0.1144 -0.0951  0.6650
 9275SOL    HW139461   0.461   2.312   4.181 -1.3017 -0.7403 -3.5126
 9275SOL    HW239462   0.567   2.203   4.139 -3.4404 -0.3269 -0.8374
 9276SOL     OW39463   4.670   1.729   0.177  0.0059 -0.2490 -0.0234
 9276SOL    HW139464   4.657   1.785   0.253 -1.2780  0.1431 -0.5277
 9276SOL    HW239465   4.603   1.661   0.189 -0.9733  0.3785 -1.8682
 9277SOL     OW39466   0.848   2.323   3.421  0.2000 -0.4261 -0.5426
 9277SOL    HW139467   0.935   2.291   3.447 -0.8191 -1.6928  1.3035
 9277SOL    HW239468   0.833   2.272   3.342  0.4899 -0.7933 -0.3594
 9278SOL     OW39469   0.874   3.310   7.294 -0.6709 -0.1923 -0.6763
 9278SOL    HW139470   0.814   3.364   7.242 -0.4315 -1.8851 -2.6981
 9278SOL    HW239471   0.948   3.370   7.305 -1.0791  0.6194 -2.3945
 9279SOL     OW39472   4.300   3.074   1.013 -0.3409  0.2884  0.4262
 9279SOL    HW139473   4.347   3.091   1.094 -1.5948  0.4927  1.1109
 9279SOL    HW239474   4.362   3.009   0.981 -0.5502 -0.9481  2.5421
 9280SOL     OW39475   2.275   1.292  14.692  0.1298  0.4968 -1.3673
 9280SOL    HW139476   2.306   1.206  14.663 -0.2921 -0.7353  1.8422
 9280SOL    HW239477   2.186   1.302  14.658  0.2923 -0.9072 -2.2020
 9281SOL     OW39478   1.274   1.824   6.232 -0.0698  0.4899  0.1737
 9281SOL    HW139479   1.299   1.885   6.163  1.4668 -1.0838 -0.6450
 9281SOL    HW239480   1.361   1.799   6.262  0.0382 -0.6464 -1.0979
 9282SOL     OW39481   4.113   2.402  15.006  0.3670  0.3297 -0.1448
 9282SOL    HW139482   4.046   2.394  15.074 -1.6404  0.6668 -2.1100
 9282SOL    HW239483   4.147   2.313  14.996 -0.7740 -0.1790  0.4577
 9283SOL     OW39484   1.432   0.349  17.726  0.5226 -0.3258 -0.1515
 9283SOL    HW139485   1.379   0.300   0.033  1.0001 -1.7811 -0.8737
 9283SOL    HW239486   1.521   0.314  17.722  0.3244 -0.8575  0.1988
 9284SOL     OW39487   2.880   2.558   7.480 -1.4905  0.2309  0.7279
 9284SOL    HW139488   2.878   2.462   7.473 -0.5167  0.0682  2.7579
 9284SOL    HW239489   2.861   2.582   7.389  0.2111 -1.5689 -0.0924
 9285SOL     OW39490   4.653   3.526  11.471  0.4470 -0.2394 -0.4268
 9285SOL    HW139491   4.586   3.586  11.436 -0.0064 -1.0033 -0.8547
 9285SOL    HW239492   4.707   3.518  11.392  1.3348 -2.5476  0.4256
 9286SOL     OW39493   0.462   1.521   2.782  0.2851 -0.3243  0.5090
 9286SOL    HW139494   0.410   1.589   2.738 -1.5826 -1.7620  0.5052
 9286SOL    HW239495   0.397   1.475   2.837  1.0370  0.2917  1.9152
 9287SOL     OW39496   3.399   1.794   6.755  0.6227 -0.8871  0.3675
 9287SOL    HW139497   3.432   1.879   6.725 -1.6315 -1.0484 -2.5119
 9287SOL    HW239498   3.327   1.785   6.692 -0.1161  0.1655  1.0509
 9288SOL     OW39499   2.579   0.903  10.719 -0.0805 -0.1114  0.0548
 9288SOL    HW139500   2.656   0.895  10.775 -0.2361  1.8965  0.5407
 9288SOL    HW239501   2.559   0.996  10.720  0.6784  0.0575 -1.0325
 9289SOL     OW39502   3.868   4.196   2.904 -0.0779 -0.4370  0.2894
 9289SOL    HW139503   3.838   4.106   2.907  0.8001 -0.7337  0.1882
 9289SOL    HW239504   3.784   4.242   2.902  0.1508 -0.0735 -1.1750
 9290SOL     OW39505   3.020   4.050   1.895 -0.4866 -0.3970  0.3492
 9290SOL    HW139506   3.028   4.143   1.918 -2.1671 -0.6161  1.7301
 9290SOL    HW239507   3.107   4.037   1.856 -0.4396 -0.3860  0.4512
 9291SOL     OW39508   0.024   2.340   5.885  0.4379 -0.6401 -0.0278
 9291SOL    HW139509   4.709   2.316   5.960 -1.0020 -0.2309 -0.9500
 9291SOL    HW239510   0.040   2.252   5.850 -0.1551 -1.1639  1.0085
 9292SOL     OW39511   0.733   3.472   1.446 -0.6655 -0.1471 -0.0820
 9292SOL    HW139512   0.748   3.444   1.536  0.5881  0.4544 -0.0988
 9292SOL    HW239513   0.646   3.512   1.450 -0.6127  0.1231 -1.7545
 9293SOL     OW39514   3.448   2.482   7.512  0.3120 -0.1619 -0.0559
 9293SOL    HW139515   3.454   2.560   7.457 -0.7123  0.2841  0.4489
 9293SOL    HW239516   3.406   2.429   7.443 -1.6538  0.5466  0.5827
 9294SOL     OW39517   2.899   0.631   7.089 -0.5401  0.0133 -0.1859
 9294SOL    HW139518   2.951   0.554   7.063  1.1919  1.0727  0.1566
 9294SOL    HW239519   2.820   0.629   7.034  0.4529 -2.5350 -1.5321
 9295SOL     OW39520   2.546   1.562  16.746  0.4699 -0.3856 -0.1987
 9295SOL    HW139521   2.472   1.622  16.755  1.3578  0.4581  1.3510
 9295SOL    HW239522   2.505   1.492  16.694  0.9672 -2.6073  2.4295
 9296SOL     OW39523   1.379   3.132   1.366  0.2962 -0.3532 -0.2242
 9296SOL    HW139524   1.434   3.210   1.375 -0.2031  0.0780 -0.9294
 9296SOL    HW239525   1.319   3.137   1.441 -0.4672  0.6516 -0.8907
 9297SOL     OW39526   0.611   4.484   9.058 -0.1302 -0.3396 -0.5852
 9297SOL    HW139527   0.691   4.530   9.083 -1.0359  1.3188 -0.7630
 9297SOL    HW239528   0.550   4.513   9.126 -0.8182 -0.8427 -0.9819
 9298SOL     OW39529   4.599   3.453   2.729 -0.5421 -0.2141  0.3067
 9298SOL    HW139530   4.509   3.473   2.703 -0.2924 -4.1359 -3.6893
 9298SOL    HW239531   4.599   3.357   2.737  1.1382 -0.1036  1.7375
 9299SOL     OW39532   0.521   3.964   1.031  0.5830 -0.0548  0.7737
 9299SOL    HW139533   0.479   4.025   1.091 -0.6065 -1.2519  1.1397
 9299SOL    HW239534   0.573   4.021   0.973 -0.8469 -0.9707 -1.4034
 9300SOL     OW39535   3.505   2.922   4.243  0.2677 -0.6073 -0.6866
 9300SOL    HW139536   3.467   2.958   4.323  1.4395 -2.3258  0.6291
 9300SOL    HW239537   3.433   2.887   4.192 -2.0052  0.2017  1.9480
 9301SOL     OW39538   4.583   2.573   3.324 -0.5699  0.5575  0.6157
 9301SOL    HW139539   4.652   2.509   3.307 -2.5303 -1.0055 -1.5478
 9301SOL    HW239540   4.598   2.612   3.409 -0.0014  1.9941 -0.1438
 9302SOL     OW39541   3.782   4.411   8.900 -0.3643 -0.4989  0.4545
 9302SOL    HW139542   3.803   4.457   8.819 -1.2829  1.0429  1.0846
 9302SOL    HW239543   3.772   4.489   8.954 -0.5158  0.5934 -1.1296
 9303SOL     OW39544   2.411   4.584   4.054 -0.3049  0.0525 -0.6941
 9303SOL    HW139545   2.430   4.662   4.106  1.7203  1.0892 -3.0018
 9303SOL    HW239546   2.358   4.602   3.977 -2.0245  0.7243  0.6246
 9304SOL     OW39547   4.225   2.948   9.562  0.1146 -0.1042 -0.0312
 9304SOL    HW139548   4.308   2.915   9.528 -1.0040 -1.5955 -1.3333
 9304SOL    HW239549   4.190   3.006   9.494  0.5632  0.2725  0.0635
 9305SOL     OW39550   2.516   0.310   2.914 -0.1206 -0.5369  0.1270
 9305SOL    HW139551   2.595   0.354   2.883 -0.4184  0.3678  0.6708
 9305SOL    HW239552   2.473   0.384   2.956  1.2811  0.2738  0.1491
 9306SOL     OW39553   1.355   0.640   3.519  0.1141 -0.7255 -0.1494
 9306SOL    HW139554   1.391   0.556   3.548  1.9390  1.1085  2.9112
 9306SOL    HW239555   1.268   0.632   3.559 -1.5820  1.6141 -3.4162
 9307SOL     OW39556   4.167   2.660   3.992 -0.1977  0.2194  0.0652
 9307SOL    HW139557   4.258   2.684   3.976 -0.2993 -1.8574 -3.5946
 9307SOL    HW239558   4.116   2.693   3.918 -2.4427 -1.3553  0.9134
 9308SOL     OW39559   4.076   2.597   7.398 -0.2780  0.1815 -0.0269
 9308SOL    HW139560   4.070   2.608   7.493  2.5883  0.8219  0.0613
 9308SOL    HW239561   4.167   2.619   7.378 -0.2584 -0.2035 -0.3661
 9309SOL     OW39562   0.975   4.149  11.810 -0.9981  0.0677 -0.2147
 9309SOL    HW139563   1.008   4.216  11.750 -4.0268  1.9806  0.2758
 9309SOL    HW239564   1.060   4.105  11.815 -0.7188  0.4950 -1.1357
 9310SOL     OW39565   1.811   3.805  17.513  0.2474  0.3434  0.3824
 9310SOL    HW139566   1.843   3.808  17.603 -1.3727 -1.9800  1.0269
 9310SOL    HW239567   1.738   3.744  17.521 -2.3844  3.4960  0.2295
 9311SOL     OW39568   1.754   2.594   3.785 -0.0039 -0.0767 -0.6952
 9311SOL    HW139569   1.810   2.593   3.862 -1.7343  0.6303  0.5647
 9311SOL    HW239570   1.671   2.602   3.830 -0.0057  0.1301 -0.7384
 9312SOL     OW39571   4.301   0.289   7.228  0.4369  0.9654 -0.1704
 9312SOL    HW139572   4.244   0.298   7.152  0.2222  0.2031 -0.1018
 9312SOL    HW239573   4.237   0.299   7.299 -0.3837 -1.8493 -0.4855
 9313SOL     OW39574   4.380   0.100   2.217 -0.1261 -0.3622  0.4777
 9313SOL    HW139575   4.320   0.031   2.244  0.3168 -0.2107  1.8586
 9313SOL    HW239576   4.389   0.155   2.295 -0.1382 -1.4158  1.2171
 9314SOL     OW39577   3.231   0.157   7.958  0.3144  0.6659 -0.2250
 9314SOL    HW139578   3.221   0.169   8.053  2.2606  1.3697 -0.1137
 9314SOL    HW239579   3.252   0.248   7.934  1.7752  0.2568 -0.4815
 9315SOL     OW39580   0.836   2.069   1.648 -0.4214 -0.1499 -0.0583
 9315SOL    HW139581   0.843   2.152   1.695 -0.3975 -1.1945  1.7722
 9315SOL    HW239582   0.741   2.070   1.638 -0.1259  1.8306 -2.7381
 9316SOL     OW39583   4.350   0.491   4.603  0.1703 -0.1162  0.0494
 9316SOL    HW139584   4.358   0.512   4.510  0.7223  2.0946  0.5922
 9316SOL    HW239585   4.379   0.400   4.610 -0.8850 -0.4941 -0.6434
 9317SOL     OW39586   3.180   0.669   6.084 -0.2830 -0.0912  0.1486
 9317SOL    HW139587   3.212   0.605   6.020  1.9066 -0.4688  1.6248
 9317SOL    HW239588   3.094   0.629   6.097 -0.3552  0.1865  0.5273
 9318SOL     OW39589   3.100   1.198   6.854 -0.0696  0.5545 -0.0762
 9318SOL    HW139590   3.089   1.226   6.945  0.1881  1.8913 -0.4505
 9318SOL    HW239591   3.007   1.200   6.831  0.0612 -3.0639 -0.8657
 9319SOL     OW39592   4.090   0.498   6.616  0.3770 -0.1656  0.2374
 9319SOL    HW139593   4.083   0.564   6.547 -1.2561  0.1365  0.6973
 9319SOL    HW239594   4.084   0.548   6.697 -2.1325 -0.7789  0.4180
 9320SOL     OW39595   3.788   4.737   0.178 -0.3374 -0.1773 -0.2228
 9320SOL    HW139596   3.772   4.700   0.091 -0.1758  1.8823 -1.1300
 9320SOL    HW239597   3.712   0.055   0.174  1.2643  1.9541  0.0915
 9321SOL     OW39598   3.028   2.820   1.872  0.8055 -0.8371 -0.0267
 9321SOL    HW139599   3.077   2.835   1.953  0.7190  2.0205 -0.5154
 9321SOL    HW239600   2.940   2.842   1.903  1.8300  2.6361  0.3878
 9322SOL     OW39601   3.568   2.102   5.016 -0.4697 -0.0817 -0.2147
 9322SOL    HW139602   3.601   2.022   5.057 -2.2597  0.0633  1.5007
 9322SOL    HW239603   3.650   2.147   4.997 -1.2930  2.8677  3.3135
 9323SOL     OW39604   2.417   1.940   8.046 -0.4051  0.6813  0.5625
 9323SOL    HW139605   2.373   2.003   8.103  0.7320 -0.5113  2.7776
 9323SOL    HW239606   2.349   1.922   7.982 -1.1996  3.0020  0.7522
 9324SOL     OW39607   2.060   3.039   3.868 -0.0256 -0.2078 -0.5503
 9324SOL    HW139608   2.042   3.024   3.961 -1.2217 -0.2127 -0.7904
 9324SOL    HW239609   2.053   3.134   3.859 -3.1226 -0.4821 -0.9775
 9325SOL     OW39610   3.540   3.897   9.263 -0.1293  0.2759  0.0004
 9325SOL    HW139611   3.568   3.926   9.350 -0.2369 -0.1711  0.1869
 9325SOL    HW239612   3.493   3.814   9.269 -2.1836  1.2764 -1.9977
 9326SOL     OW39613   3.550   2.572  17.565  0.3926 -0.1971  0.1174
 9326SOL    HW139614   3.465   2.589  17.525  0.8027  1.7539  0.0716
 9326SOL    HW239615   3.610   2.575  17.491 -1.0641 -3.5733 -1.2007
 9327SOL     OW39616   4.555   2.027   9.723  0.1060 -0.0886 -0.3133
 9327SOL    HW139617   4.542   1.942   9.681  3.4240 -1.1956  0.9449
 9327SOL    HW239618   4.489   2.078   9.676 -0.1912 -1.3218 -1.2360
 9328SOL     OW39619   4.738   1.873   8.557  0.5765 -0.2630 -0.1740
 9328SOL    HW139620   4.645   1.851   8.550  0.4917  0.2814 -0.8176
 9328SOL    HW239621   0.040   1.794   8.592 -2.2739 -1.5742  0.2735
 9329SOL     OW39622   0.112   1.386   8.649  0.0804 -0.3573 -0.2746
 9329SOL    HW139623   0.138   1.350   8.564  0.8397 -0.5635  0.0507
 9329SOL    HW239624   0.160   1.340   8.717  1.4020 -0.8496 -1.5426
 9330SOL     OW39625   0.788   1.703  10.216  0.2107 -0.1186 -0.4391
 9330SOL    HW139626   0.846   1.663  10.281  1.2954  1.6911 -0.2920
 9330SOL    HW239627   0.705   1.659  10.232 -0.7858  0.7896 -3.2419
 9331SOL     OW39628   2.788   3.309  17.530  0.0812  0.1799 -0.2501
 9331SOL    HW139629   2.806   3.365  17.454 -0.1373 -0.1321 -0.5330
 9331SOL    HW239630   2.770   3.374  17.598 -0.9743 -0.8221  0.4212
 9332SOL     OW39631   3.071   1.612   3.774 -0.7993  0.9708  0.2637
 9332SOL    HW139632   3.029   1.533   3.739 -0.5983  0.4979  1.0778
 9332SOL    HW239633   3.146   1.614   3.714 -0.7043 -1.1498  0.2980
 9333SOL     OW39634   1.671   2.937   2.969 -0.2040 -0.5050  0.7438
 9333SOL    HW139635   1.640   2.999   3.034  1.2637 -0.6043  1.5457
 9333SOL    HW239636   1.680   2.859   3.023 -1.2250 -2.7854 -2.3580
 9334SOL     OW39637   3.384   3.893   4.651 -0.0979  0.0484  0.1826
 9334SOL    HW139638   3.323   3.874   4.580 -0.6290  0.1737  0.6032
 9334SOL    HW239639   3.324   3.921   4.720  0.3307  0.3689  0.4194
 9335SOL     OW39640   1.371   1.304   8.808 -0.0576  0.5535 -0.0701
 9335SOL    HW139641   1.401   1.342   8.891 -1.4763  0.2466  0.5830
 9335SOL    HW239642   1.287   1.349   8.817 -0.2868  0.0195  0.4538
 9336SOL     OW39643   3.230   2.560   7.733 -0.3947  0.2383  0.2596
 9336SOL    HW139644   3.239   2.484   7.791 -0.1066  0.8271  1.0011
 9336SOL    HW239645   3.284   2.539   7.657  2.0076  0.0301  2.0378
 9337SOL     OW39646   3.603   2.209   8.436  0.3449 -0.5426  0.2845
 9337SOL    HW139647   3.665   2.158   8.384 -1.1903 -0.4178 -1.6732
 9337SOL    HW239648   3.527   2.235   8.385  0.7536 -1.2990 -0.7105
 9338SOL     OW39649   3.762   0.798   7.953 -0.0391 -0.2877 -0.1895
 9338SOL    HW139650   3.675   0.838   7.957 -0.5803 -1.5968  0.7886
 9338SOL    HW239651   3.749   0.738   8.026 -1.2009 -2.0240 -1.8292
 9339SOL     OW39652   4.654   0.676   8.779 -0.1079 -0.1191  0.6162
 9339SOL    HW139653   4.603   0.595   8.778 -1.1442  0.5360  0.5765
 9339SOL    HW239654   4.724   0.661   8.843 -1.1485 -0.7354  1.6146
 9340SOL     OW39655   2.552   1.102   7.289 -0.0637 -0.2525 -0.3021
 9340SOL    HW139656   2.617   1.115   7.357  0.9770 -0.8219 -1.1929
 9340SOL    HW239657   2.536   1.195   7.272  1.0117  0.1238  0.7604
 9341SOL     OW39658   3.430   0.269  17.311 -0.4730  0.1571 -0.2826
 9341SOL    HW139659   3.363   0.337  17.307 -1.7005 -0.9055  1.9898
 9341SOL    HW239660   3.442   0.238  17.221  0.6862  0.8167 -0.3507
 9342SOL     OW39661   2.463   3.849   2.658 -0.5105 -0.1394 -0.1571
 9342SOL    HW139662   2.471   3.894   2.742 -2.6225 -0.7032  0.3540
 9342SOL    HW239663   2.440   3.925   2.603 -0.4689  0.5468  0.7813
 9343SOL     OW39664   2.717   3.833   8.005 -0.3345 -0.3925 -0.5469
 9343SOL    HW139665   2.702   3.742   7.977 -2.7599  0.0464 -0.7005
 9343SOL    HW239666   2.810   3.824   8.024 -0.7997 -0.2031  1.8497
 9344SOL     OW39667   3.279   0.890   2.176  0.0887  0.1982  0.1960
 9344SOL    HW139668   3.283   0.795   2.174  0.1307  0.2341 -1.8712
 9344SOL    HW239669   3.370   0.907   2.152  0.5182 -3.4543 -0.6568
 9345SOL     OW39670   0.283   2.870   8.744  0.6843 -0.1747  0.4307
 9345SOL    HW139671   0.277   2.790   8.796  0.2769 -0.2852  0.2141
 9345SOL    HW239672   0.290   2.926   8.821 -3.2211 -0.9224  1.2870
 9346SOL     OW39673   2.418   3.908  12.590  0.1746  0.4354 -0.2974
 9346SOL    HW139674   2.338   3.940  12.631 -1.0877 -1.0368 -1.6223
 9346SOL    HW239675   2.401   3.848  12.518  0.0252  1.9230 -1.4963
 9347SOL     OW39676   1.393   2.757   3.412 -0.1024 -0.5907  0.0494
 9347SOL    HW139677   1.358   2.843   3.434  2.0257 -0.1079  1.5379
 9347SOL    HW239678   1.360   2.758   3.322  2.4660  0.3353 -0.8919
 9348SOL     OW39679   4.021   4.710   3.407  0.0748  0.4662 -0.3769
 9348SOL    HW139680   4.013   4.720   3.502 -0.4004 -2.1359 -0.1346
 9348SOL    HW239681   4.025   4.614   3.411 -0.1957  0.4309 -1.0448
 9349SOL     OW39682   1.625   1.143   1.658 -0.1332 -0.0472 -0.0226
 9349SOL    HW139683   1.550   1.103   1.703 -1.0836  1.2561 -0.4313
 9349SOL    HW239684   1.672   1.069   1.621  0.9389  1.5386 -1.7964
 9350SOL     OW39685   2.053   2.726  17.092  0.3371 -0.3024 -0.0027
 9350SOL    HW139686   2.080   2.656  17.033 -1.7929 -0.6042 -0.6478
 9350SOL    HW239687   2.074   2.807  17.045 -0.5218  0.3510  0.7388
 9351SOL     OW39688   2.701   3.736  11.391 -0.6911  0.0613 -0.5525
 9351SOL    HW139689   2.643   3.809  11.370  0.0394  0.6757 -0.4264
 9351SOL    HW239690   2.655   3.661  11.352  1.0814 -0.8216 -0.9485
 9352SOL     OW39691   0.963   1.860   6.181  0.2230  0.2371 -0.2304
 9352SOL    HW139692   0.944   1.827   6.269  2.3504  1.4721  0.6951
 9352SOL    HW239693   1.057   1.842   6.177 -0.3316 -2.6289 -0.7972
 9353SOL     OW39694   4.654   4.669   2.180  0.1229  0.2696 -0.1336
 9353SOL    HW139695   4.582   4.733   2.186  0.7373  1.0019 -0.5642
 9353SOL    HW239696   4.635   4.629   2.095  0.4856  1.7304 -0.9060
 9354SOL     OW39697   2.732   1.746  14.794 -0.2740  0.3070  0.3701
 9354SOL    HW139698   2.744   1.834  14.828 -3.2699  0.9257 -0.1448
 9354SOL    HW239699   2.652   1.711  14.835  0.4353 -1.9896 -0.2011
 9355SOL     OW39700   3.975   4.618  12.870 -0.0614  0.6275  0.0173
 9355SOL    HW139701   4.012   4.666  12.944  1.7200 -1.0749  0.2145
 9355SOL    HW239702   4.028   4.538  12.870 -0.3605  0.4352  2.8710
 9356SOL     OW39703   2.559   4.281   4.543  0.6402 -0.4520  0.0365
 9356SOL    HW139704   2.577   4.334   4.621  0.4544 -0.5910  0.1736
 9356SOL    HW239705   2.648   4.279   4.508  0.5148  0.0828 -0.3083
 9357SOL     OW39706   1.610   3.609   4.777  0.0057  0.9011  0.5512
 9357SOL    HW139707   1.563   3.627   4.696  1.3713 -0.2786 -0.4916
 9357SOL    HW239708   1.569   3.676   4.831 -0.7727 -0.1729  1.3025
 9358SOL     OW39709   2.824   0.660  16.778 -0.2981  0.8466 -0.8193
 9358SOL    HW139710   2.729   0.660  16.764 -0.6828 -0.3200  1.7808
 9358SOL    HW239711   2.830   0.744  16.822 -0.3684  1.1522 -1.3930
 9359SOL     OW39712   2.323   3.058  12.177 -0.4864  0.7178 -0.6668
 9359SOL    HW139713   2.259   2.990  12.199 -0.9738  0.9849 -1.2734
 9359SOL    HW239714   2.319   3.108  12.259  2.2524  1.6860 -1.1318
 9360SOL     OW39715   1.625   1.593   7.522 -0.3347  0.1687 -0.2694
 9360SOL    HW139716   1.676   1.673   7.504  1.1080 -1.4912 -3.5526
 9360SOL    HW239717   1.681   1.530   7.476 -0.0129 -0.1131  0.5104
 9361SOL     OW39718   2.171   0.027   1.952  0.4316  0.4209 -0.6439
 9361SOL    HW139719   2.145   0.107   1.998 -0.2114 -0.4928  0.5640
 9361SOL    HW239720   2.263   0.051   1.943 -0.0229  1.8945 -1.2865
 9362SOL     OW39721   3.839   2.203   6.686  0.5296  0.0730  0.4493
 9362SOL    HW139722   3.792   2.160   6.758  0.1995  0.5615  0.5222
 9362SOL    HW239723   3.832   2.134   6.620 -1.6905  0.2259  0.5223
 9363SOL     OW39724   1.054   2.166   2.736  0.1147 -0.4000  0.1416
 9363SOL    HW139725   1.099   2.216   2.804 -1.5085 -1.0492  1.7017
 9363SOL    HW239726   1.070   2.222   2.660  0.9641 -3.5818 -1.9890
 9364SOL     OW39727   4.695   3.644   8.932 -0.1556  0.3013  0.0432
 9364SOL    HW139728   0.008   3.649   9.011  0.1839  0.4237 -0.1908
 9364SOL    HW239729   0.015   3.652   8.858 -1.4177  1.4238 -0.8503
 9365SOL     OW39730   2.852   0.854   8.917  0.1573  0.4722  0.5226
 9365SOL    HW139731   2.884   0.941   8.893 -1.3426  1.8109  3.3392
 9365SOL    HW239732   2.938   0.814   8.930  0.5777  0.9832 -0.7687
 9366SOL     OW39733   4.435   2.065   6.426  0.5675 -0.4358 -0.1848
 9366SOL    HW139734   4.520   2.030   6.399  0.3929 -0.7213 -0.3557
 9366SOL    HW239735   4.402   2.094   6.342 -1.7186 -1.8711  0.2162
 9367SOL     OW39736   4.483   1.713   3.505 -0.3689  0.2765 -0.4873
 9367SOL    HW139737   4.479   1.784   3.441 -0.8428  1.6084  1.0168
 9367SOL    HW239738   4.576   1.710   3.529 -0.6379 -1.8689  0.3579
 9368SOL     OW39739   4.601   3.668  11.993  0.5333  0.0959  0.3235
 9368SOL    HW139740   4.603   3.753  11.950  1.9170  0.7588  1.6839
 9368SOL    HW239741   4.688   3.630  11.976  0.9804  0.0964  2.4854
 9369SOL     OW39742   4.326   1.760   8.848 -0.0936 -0.1254  0.0731
 9369SOL    HW139743   4.251   1.701   8.839 -0.5407  0.3234  0.7932
 9369SOL    HW239744   4.340   1.740   8.941  1.1588 -0.6720 -0.2451
 9370SOL     OW39745   1.553   0.710   4.900 -0.0843  0.5491  0.6699
 9370SOL    HW139746   1.605   0.764   4.842 -0.0542 -1.1299 -0.8861
 9370SOL    HW239747   1.485   0.769   4.932 -0.7424  1.2136 -2.0183
 9371SOL     OW39748   2.113   0.272   0.038  0.9209  0.4323  0.2479
 9371SOL    HW139749   2.209   0.272   0.049  1.1839 -2.2287 -2.0535
 9371SOL    HW239750   2.103   0.359   0.000 -0.8931  0.8106  1.6095
 9372SOL     OW39751   2.971   3.902   0.403 -0.4749  0.2800  0.1142
 9372SOL    HW139752   2.973   3.823   0.457 -2.1291 -0.7896 -1.3927
 9372SOL    HW239753   2.977   3.868   0.314  0.7073  2.4811 -0.6473
 9373SOL     OW39754   0.153   2.171  17.576  0.2110 -0.6380 -0.3252
 9373SOL    HW139755   0.206   2.094  17.556 -0.4812 -1.3012  0.4255
 9373SOL    HW239756   0.093   2.142  17.644  4.0397 -1.2456  2.7967
 9374SOL     OW39757   0.845   1.269   9.793  0.3719 -0.0394 -0.6061
 9374SOL    HW139758   0.774   1.274   9.729 -0.1236 -2.1037 -0.2443
 9374SOL    HW239759   0.824   1.195   9.850 -1.0030 -0.1759 -1.2837
 9375SOL     OW39760   1.574   3.420  15.986 -0.0681  0.0717 -0.2150
 9375SOL    HW139761   1.583   3.399  16.079  3.7519 -0.7602 -0.7458
 9375SOL    HW239762   1.521   3.499  15.996 -3.1022 -1.7029 -2.0160
 9376SOL     OW39763   1.007   0.057   4.852 -0.6774 -0.5223 -0.0817
 9376SOL    HW139764   1.076   4.732   4.870 -1.0718 -0.4952  1.5543
 9376SOL    HW239765   0.929   0.003   4.862  0.1485 -2.3719 -3.6125
 9377SOL     OW39766   0.818   2.788  17.342  0.5008  0.6199 -0.7446
 9377SOL    HW139767   0.851   2.867  17.299  0.2363  0.4319 -1.2852
 9377SOL    HW239768   0.875   2.725  17.298  0.3442  0.0649 -0.1448
 9378SOL     OW39769   1.579   2.549   3.317 -0.1643  0.1582 -0.4205
 9378SOL    HW139770   1.536   2.468   3.293 -0.8409  0.5248 -0.4303
 9378SOL    HW239771   1.508   2.606   3.344 -0.2252  0.4963 -1.2687
 9379SOL     OW39772   0.882   3.445   6.610  0.0750 -0.6075 -0.0680
 9379SOL    HW139773   0.816   3.385   6.575  0.5773 -0.7071 -0.8440
 9379SOL    HW239774   0.927   3.383   6.668 -1.0982 -0.9754  0.4579
 9380SOL     OW39775   1.841   3.892   6.054 -0.3869 -0.6476 -0.1240
 9380SOL    HW139776   1.871   3.956   6.118 -0.9053 -1.5573  1.0329
 9380SOL    HW239777   1.927   3.858   6.030 -1.1316 -2.3909 -0.3036
 9381SOL     OW39778   1.991   4.241   0.450 -0.3631 -0.6887 -0.3168
 9381SOL    HW139779   2.013   4.160   0.496 -0.5662 -0.8884 -0.5693
 9381SOL    HW239780   2.067   4.254   0.393 -1.3079 -2.7204 -2.0215
 9382SOL     OW39781   2.266   2.199   2.075  0.1141 -0.5897  0.6107
 9382SOL    HW139782   2.362   2.194   2.073  0.2047  1.1491  0.5755
 9382SOL    HW239783   2.245   2.108   2.053  1.0631 -0.7398  0.3322
 9383SOL     OW39784   2.193   1.060  16.857  0.1146 -0.2239  0.1634
 9383SOL    HW139785   2.147   1.140  16.883  0.9070  0.6551 -1.1662
 9383SOL    HW239786   2.284   1.082  16.879  0.0027 -0.2159  0.6176
 9384SOL     OW39787   3.472   4.496  13.336  0.0035 -0.4667  0.0194
 9384SOL    HW139788   3.386   4.537  13.332 -0.3841 -1.1269  1.4439
 9384SOL    HW239789   3.479   4.455  13.250  2.7242 -2.8224  1.3639
 9385SOL     OW39790   4.523   3.915  16.036  0.0891  0.1244 -0.5525
 9385SOL    HW139791   4.479   3.980  16.090  0.4141 -0.6036  0.5824
 9385SOL    HW239792   4.462   3.842  16.021 -1.0641  1.2255 -1.1876
 9386SOL     OW39793   0.156   4.695   4.883 -0.1498 -1.0044 -0.5562
 9386SOL    HW139794   0.121   4.607   4.870 -2.3792 -0.3372  0.8573
 9386SOL    HW239795   0.214   4.702   4.808 -0.2620 -0.3653 -0.5805
 9387SOL     OW39796   0.048   3.274   6.984 -0.5328 -0.3611 -0.6789
 9387SOL    HW139797   0.061   3.208   7.053  0.3777 -0.3045 -0.8013
 9387SOL    HW239798   0.113   3.338   7.012  0.4335 -0.7855 -2.0138
 9388SOL     OW39799   3.662   3.245   8.475  0.9251 -0.5721 -0.1018
 9388SOL    HW139800   3.714   3.301   8.532 -0.7593  1.8394 -0.9201
 9388SOL    HW239801   3.685   3.159   8.508  2.7711  0.6281  1.7026
 9389SOL     OW39802   2.608   1.275   5.898  0.1635  0.6786 -0.0298
 9389SOL    HW139803   2.661   1.343   5.857  0.9456  1.1977  1.8532
 9389SOL    HW239804   2.591   1.313   5.984  0.5026  2.4639 -0.7670
 9390SOL     OW39805   3.518   2.059   8.010 -0.1163  0.4372  0.0175
 9390SOL    HW139806   3.566   1.982   8.041  0.2586  1.7281  2.6694
 9390SOL    HW239807   3.569   2.092   7.936 -0.1698  2.6400  0.9590
 9391SOL     OW39808   2.704   2.364  11.145 -0.1717 -0.2315 -0.1348
 9391SOL    HW139809   2.657   2.299  11.197 -0.0319 -0.8595 -0.7766
 9391SOL    HW239810   2.711   2.443  11.198  2.0736 -0.2322 -0.4009
 9392SOL     OW39811   0.386   3.459   8.614 -0.0858 -0.0892  0.2681
 9392SOL    HW139812   0.356   3.531   8.558 -0.6085 -1.5132 -1.2929
 9392SOL    HW239813   0.419   3.400   8.546 -1.9315  2.4692 -2.8620
 9393SOL     OW39814   1.328   1.696   1.014 -0.3293  0.0531 -0.2207
 9393SOL    HW139815   1.423   1.699   1.022 -0.2423 -0.6995 -0.9961
 9393SOL    HW239816   1.315   1.679   1.108  1.0667 -2.5833 -0.5010
 9394SOL     OW39817   4.706   2.620   4.070  0.0163 -0.1603  0.4261
 9394SOL    HW139818   0.035   2.555   4.055  0.6063  0.3465  0.9420
 9394SOL    HW239819   4.713   2.674   3.991 -0.1567 -3.2217 -1.7005
 9395SOL     OW39820   0.812   4.051   3.216 -0.0611 -0.2656  0.4868
 9395SOL    HW139821   0.729   4.043   3.167  0.9256  0.6728 -1.3417
 9395SOL    HW239822   0.841   3.962   3.195 -1.1979 -0.8936  1.5683
 9396SOL     OW39823   1.728   2.414   8.065 -0.0205  0.6322 -0.5511
 9396SOL    HW139824   1.809   2.365   8.076 -0.6902 -0.5435 -0.9332
 9396SOL    HW239825   1.668   2.360   8.117 -0.3418  1.6879  0.1820
 9397SOL     OW39826   2.467   3.068   8.002 -0.1855  0.4484 -0.0692
 9397SOL    HW139827   2.532   3.110   8.059  0.4839  1.0684 -1.2932
 9397SOL    HW239828   2.524   3.079   7.926  0.0095 -1.5779 -0.2203
 9398SOL     OW39829   4.331   1.198   2.632  0.1151 -0.6299 -0.5050
 9398SOL    HW139830   4.253   1.171   2.583 -0.8152  1.7360 -0.3212
 9398SOL    HW239831   4.395   1.208   2.562 -0.3608  1.0379 -0.7132
 9399SOL     OW39832   2.709   4.137   8.110 -0.2386 -0.1991 -0.0723
 9399SOL    HW139833   2.746   4.199   8.047 -0.8932 -0.6679 -0.9120
 9399SOL    HW239834   2.703   4.053   8.064  1.8155 -0.3222 -0.1405
 9400SOL     OW39835   0.034   3.879   6.565 -0.5509  0.0475 -0.1403
 9400SOL    HW139836   0.119   3.844   6.595  0.6199  1.4618 -1.8653
 9400SOL    HW239837   4.723   3.900   6.644 -1.0121  1.6129 -0.8624
 9401SOL     OW39838   2.454   3.665  11.220  0.5272  0.2079 -0.5146
 9401SOL    HW139839   2.411   3.696  11.140  1.1116 -0.2636 -1.0110
 9401SOL    HW239840   2.429   3.736  11.279  0.7048 -0.2663  0.1341
 9402SOL     OW39841   2.509   0.034   5.320 -0.2897  0.1872 -0.2871
 9402SOL    HW139842   2.558   0.115   5.304 -2.1222  1.2866 -0.3932
 9402SOL    HW239843   2.480   0.046   5.411  0.0953 -2.7499  0.2087
 9403SOL     OW39844   4.047   2.582   6.699  0.0048  0.6136 -0.1472
 9403SOL    HW139845   4.015   2.508   6.751  1.9460 -1.6215 -2.0855
 9403SOL    HW239846   4.139   2.561   6.678 -0.4002  0.8127 -2.1363
 9404SOL     OW39847   0.217   1.132  17.254 -0.0578  0.1724 -0.4185
 9404SOL    HW139848   0.261   1.213  17.281  1.1421 -1.5574  2.8530
 9404SOL    HW239849   0.160   1.152  17.180  0.0727  0.1929 -0.5148
 9405SOL     OW39850   3.463   4.231   4.986 -0.0066  0.1670  0.1695
 9405SOL    HW139851   3.435   4.280   5.063  0.6141  2.2015 -0.9067
 9405SOL    HW239852   3.551   4.205   5.014  0.2448  0.6053 -0.2223
 9406SOL     OW39853   3.306   0.744  17.711 -0.3936 -0.0735 -0.0102
 9406SOL    HW139854   3.352   0.798  17.647 -1.6061 -2.4178 -2.8703
 9406SOL    HW239855   3.384   0.728   0.009  0.8961  0.9762 -1.6029
 9407SOL     OW39856   3.505   3.725   4.006 -0.6411 -0.4933 -0.4550
 9407SOL    HW139857   3.482   3.689   4.092 -2.4139  0.8477 -0.3621
 9407SOL    HW239858   3.518   3.819   4.020  0.2883 -0.5491 -0.9861
 9408SOL     OW39859   0.256   0.618   2.420  0.3305  0.0507 -0.3979
 9408SOL    HW139860   0.316   0.617   2.345 -1.5225 -2.0622 -1.8583
 9408SOL    HW239861   0.284   0.533   2.456  1.1364 -0.8426 -3.1521
 9409SOL     OW39862   0.093   0.393   1.552  0.1998 -0.0107  0.1121
 9409SOL    HW139863   0.123   0.303   1.568  2.0140  0.8184  1.3951
 9409SOL    HW239864   0.041   0.386   1.472  1.0628  0.0065 -0.4607
 9410SOL     OW39865   1.143   1.796   7.055 -0.0831 -0.2365 -0.4888
 9410SOL    HW139866   1.237   1.804   7.071 -0.3707 -0.5814  1.3931
 9410SOL    HW239867   1.121   1.882   7.020 -0.5750 -0.8500 -1.6849
 9411SOL     OW39868   1.856   2.939  15.202 -0.6259 -0.5155 -0.4999
 9411SOL    HW139869   1.848   2.917  15.109 -0.3195 -0.8491 -0.4459
 9411SOL    HW239870   1.791   3.010  15.202 -1.2186 -1.0574  0.6995
 9412SOL     OW39871   2.456   4.353   6.883  0.0837  0.6646 -0.1031
 9412SOL    HW139872   2.380   4.300   6.857 -1.0935  2.5126 -0.4227
 9412SOL    HW239873   2.522   4.284   6.874 -0.4317  0.0633  0.6806
 9413SOL     OW39874   4.112   4.635   9.934 -0.2850 -0.1628  0.2741
 9413SOL    HW139875   4.030   4.587   9.928 -0.0417 -0.2786 -2.2223
 9413SOL    HW239876   4.093   4.711   9.878  0.0791  2.3012  3.5433
 9414SOL     OW39877   3.733   4.482  11.867  0.0321 -0.6392  0.1176
 9414SOL    HW139878   3.729   4.546  11.795  1.6318 -0.8090 -0.1221
 9414SOL    HW239879   3.808   4.515  11.917 -0.0680 -2.3370  1.3510
 9415SOL     OW39880   0.166   4.007   4.280  0.7536 -0.4009 -0.0421
 9415SOL    HW139881   0.182   4.077   4.344  1.0004 -1.9833  1.6390
 9415SOL    HW239882   0.089   4.048   4.240  0.5319  0.2058  0.9906
 9416SOL     OW39883   4.059   4.622   4.137  0.5364  0.2251 -0.7101
 9416SOL    HW139884   4.014   4.563   4.197  1.3599 -1.3950 -1.6631
 9416SOL    HW239885   4.126   4.563   4.103  0.3960  0.5949 -1.6469
 9417SOL     OW39886   2.506   2.655  12.110 -0.5158  0.0371 -0.2716
 9417SOL    HW139887   2.499   2.561  12.094  0.3629 -0.1767  0.5633
 9417SOL    HW239888   2.440   2.685  12.048  0.0046  0.5915 -0.5587
 9418SOL     OW39889   0.851   3.529   1.930  0.9300 -0.0645  0.1996
 9418SOL    HW139890   0.935   3.556   1.892 -0.1553  0.0317 -2.1199
 9418SOL    HW239891   0.807   3.611   1.952  0.8385  0.3165 -1.3715
 9419SOL     OW39892   3.755   0.817  16.695  0.3101  0.3810  0.1296
 9419SOL    HW139893   3.725   0.828  16.785  1.7111 -0.0707  0.6661
 9419SOL    HW239894   3.832   0.874  16.688 -0.2339  1.4248  2.7402
 9420SOL     OW39895   1.317   0.981   5.379  0.3185  0.0148  0.3445
 9420SOL    HW139896   1.249   1.045   5.361 -1.2813 -1.8408 -0.2318
 9420SOL    HW239897   1.393   1.026   5.341 -1.1317  1.1318 -1.2208
 9421SOL     OW39898   1.376   3.922   9.187 -0.1145 -0.4975 -0.6634
 9421SOL    HW139899   1.385   3.827   9.181 -3.8612 -0.8234 -1.5336
 9421SOL    HW239900   1.306   3.950   9.127  0.2442  0.3542 -0.6872
 9422SOL     OW39901   0.223   1.451   3.562 -0.5822 -0.2321  0.2721
 9422SOL    HW139902   0.318   1.456   3.576 -0.9217  2.0911  1.5938
 9422SOL    HW239903   0.218   1.369   3.513 -0.6778 -0.3954  0.5504
 9423SOL     OW39904   2.839   4.458   2.706 -0.0139 -0.0318 -0.3512
 9423SOL    HW139905   2.841   4.364   2.728  0.5894  0.2387  0.7603
 9423SOL    HW239906   2.909   4.462   2.641  1.0101  0.8025  0.8123
 9424SOL     OW39907   3.526   0.133   1.704 -0.0648 -0.5946  0.1585
 9424SOL    HW139908   3.462   0.150   1.635  0.6451 -1.7603 -0.7790
 9424SOL    HW239909   3.530   0.037   1.704 -2.5501 -0.7013 -0.1559
 9425SOL     OW39910   3.022   1.065  12.671  0.0008 -0.1288 -0.3000
 9425SOL    HW139911   3.079   1.142  12.666 -1.0746  0.6968  0.0842
 9425SOL    HW239912   3.039   1.030  12.584 -1.6015 -1.2479 -0.1669
 9426SOL     OW39913   2.250   0.638   2.432 -0.3544  0.8635 -0.7303
 9426SOL    HW139914   2.251   0.675   2.520 -1.1709 -0.0169 -0.3500
 9426SOL    HW239915   2.333   0.672   2.399  0.0594 -0.3769 -0.9712
 9427SOL     OW39916   0.695   3.238   3.842 -0.0010  0.7625  0.5967
 9427SOL    HW139917   0.687   3.155   3.794 -1.5953  0.4127  1.4527
 9427SOL    HW239918   0.747   3.211   3.918  0.1583  2.7834  1.1836
 9428SOL     OW39919   2.485   4.585  16.743 -0.4782 -0.2157  0.0947
 9428SOL    HW139920   2.422   4.533  16.792 -0.8531  0.5441  0.4254
 9428SOL    HW239921   2.433   4.652  16.698 -0.5576 -0.2409  0.1488
 9429SOL     OW39922   4.387   2.058   9.116  0.0161 -0.5553 -0.3147
 9429SOL    HW139923   4.337   2.005   9.055 -0.5428 -1.4188  0.9096
 9429SOL    HW239924   4.422   1.997   9.181 -0.6213 -0.8246 -0.2274
 9430SOL     OW39925   4.739   0.683   8.122 -0.3975  0.2034  0.2454
 9430SOL    HW139926   0.065   0.719   8.182  0.9569 -2.1293  0.1580
 9430SOL    HW239927   0.022   0.590   8.122 -0.4434  0.1921  0.3920
 9431SOL     OW39928   2.062   0.842   8.753 -0.0898 -0.2137 -0.2227
 9431SOL    HW139929   1.982   0.877   8.715  0.0726 -0.5958 -0.9369
 9431SOL    HW239930   2.035   0.753   8.775  1.5291 -0.5024  0.5960
 9432SOL     OW39931   4.679   0.967   3.067 -0.5041  0.0587  0.1599
 9432SOL    HW139932   4.716   0.934   2.985 -1.8007 -1.2359  0.0872
 9432SOL    HW239933   4.603   0.911   3.085 -1.1078  0.8637  0.1141
 9433SOL     OW39934   4.176   4.515  10.237 -0.1394 -0.4945  0.4306
 9433SOL    HW139935   4.164   4.588  10.297 -0.9801 -1.2511  1.1710
 9433SOL    HW239936   4.269   4.493  10.240 -0.0875 -0.2409  0.6932
 9434SOL     OW39937   3.839   3.603   6.855  0.1783  0.2146 -0.5443
 9434SOL    HW139938   3.779   3.530   6.870  4.3314 -3.1446 -0.4044
 9434SOL    HW239939   3.813   3.662   6.925  1.4842 -2.9410  2.6133
 9435SOL     OW39940   4.726   1.214  17.094  0.0345  0.0340 -0.2171
 9435SOL    HW139941   4.699   1.202  17.185  0.3356  0.2937 -0.0912
 9435SOL    HW239942   4.655   1.176  17.043 -0.3887  0.7925 -0.1847
 9436SOL     OW39943   0.372   0.350   4.880  0.0585 -0.1646  0.0570
 9436SOL    HW139944   0.446   0.370   4.823 -1.2655 -1.0865 -2.0143
 9436SOL    HW239945   0.299   0.386   4.830 -1.1647 -1.9610  0.5429
 9437SOL     OW39946   1.095   1.277   2.821  0.1839 -0.0376 -0.1009
 9437SOL    HW139947   1.143   1.313   2.746 -0.4742  0.2411 -0.3828
 9437SOL    HW239948   1.099   1.361   2.868 -0.2943 -0.2639  0.3457
 9438SOL     OW39949   2.722   3.604   1.488  0.3710 -0.0596 -0.4943
 9438SOL    HW139950   2.648   3.581   1.433  0.1152 -0.8811  0.1918
 9438SOL    HW239951   2.700   3.695   1.505 -3.4489 -0.9863 -0.6423
 9439SOL     OW39952   1.822   2.223  14.131 -0.1606  0.2501  0.8732
 9439SOL    HW139953   1.737   2.255  14.101  0.4491 -0.2003 -1.3610
 9439SOL    HW239954   1.874   2.244  14.053  1.5401 -1.6285  1.4985
 9440SOL     OW39955   4.234   1.831  10.992  0.3567  0.3910 -0.5812
 9440SOL    HW139956   4.326   1.857  10.989 -0.3654  3.0185  0.2982
 9440SOL    HW239957   4.242   1.757  10.931 -1.6972 -1.9210  1.9239
 9441SOL     OW39958   4.443   1.290  15.895  0.4237 -0.4107  0.2455
 9441SOL    HW139959   4.473   1.381  15.889 -0.2373 -0.2481 -0.6407
 9441SOL    HW239960   4.525   1.244  15.879 -0.1868 -1.4653  0.1544
 9442SOL     OW39961   4.348   3.390   6.590 -0.3767 -0.0557 -0.0003
 9442SOL    HW139962   4.420   3.435   6.546 -1.0316 -1.3471 -2.4200
 9442SOL    HW239963   4.381   3.393   6.679  1.0596  0.7518 -0.5577
 9443SOL     OW39964   2.232   4.476  17.692  0.0243 -0.0883  0.3575
 9443SOL    HW139965   2.179   4.452   0.012  0.1609  1.0581  0.8150
 9443SOL    HW239966   2.313   4.426  17.702  0.8861  1.1234 -0.5905
 9444SOL     OW39967   1.453   0.555   6.413  0.0799 -0.2996  0.3810
 9444SOL    HW139968   1.362   0.564   6.439  0.5204 -2.0620  2.5129
 9444SOL    HW239969   1.446   0.479   6.356 -2.7059 -0.6232  1.1626
 9445SOL     OW39970   2.152   2.251   6.024 -0.9029  0.0612 -0.5874
 9445SOL    HW139971   2.146   2.346   6.025  1.1242  0.1739  0.6410
 9445SOL    HW239972   2.242   2.234   6.051 -1.2542 -1.1320 -0.1581
 9446SOL     OW39973   0.915   2.086   4.330  0.4691 -0.0085  0.0668
 9446SOL    HW139974   0.865   2.027   4.387  0.3402  0.2699  0.2468
 9446SOL    HW239975   0.976   2.025   4.289  2.1065  0.4391  1.8745
 9447SOL     OW39976   3.408   0.637  15.298  0.3343 -0.0448  0.5627
 9447SOL    HW139977   3.407   0.721  15.252  1.1777  0.0164  0.6500
 9447SOL    HW239978   3.419   0.579  15.223 -0.7469 -0.0449  0.4055
 9448SOL     OW39979   2.493   4.494   8.143  0.2221  0.2937  0.2150
 9448SOL    HW139980   2.566   4.434   8.158  0.5754  0.1684 -1.9532
 9448SOL    HW239981   2.409   4.456   8.167 -0.5340  2.5750  1.2261
 9449SOL     OW39982   4.203   3.299   6.947  0.5142  0.2507 -0.3085
 9449SOL    HW139983   4.182   3.374   6.892  1.5842  0.5540 -0.3034
 9449SOL    HW239984   4.192   3.228   6.883  0.2125  2.1081 -2.3348
 9450SOL     OW39985   4.654   0.417  17.741 -0.7353 -0.0591  0.4916
 9450SOL    HW139986   4.704   0.497   0.001 -0.7869  0.0481  0.1272
 9450SOL    HW239987   4.734   0.366  17.728 -0.1417  1.4424 -1.8316
 9451SOL     OW39988   0.511   2.601   8.572  0.3656 -0.3740 -0.3369
 9451SOL    HW139989   0.556   2.561   8.646  1.2745  0.5810 -0.3695
 9451SOL    HW239990   0.445   2.534   8.554 -1.2717  0.9757  0.5999
 9452SOL     OW39991   2.839   1.934   5.573  0.1188  0.1279 -0.1019
 9452SOL    HW139992   2.813   1.844   5.553  0.0388  0.6177 -2.2088
 9452SOL    HW239993   2.821   1.974   5.488  0.7155  1.1497  0.2533
 9453SOL     OW39994   3.720   4.021  14.458 -0.5390  0.3897 -0.8955
 9453SOL    HW139995   3.667   3.967  14.399  0.7678  0.3053 -2.0056
 9453SOL    HW239996   3.649   4.070  14.499 -1.0403 -0.5619 -0.6309
 9454SOL     OW39997   1.589   2.529  16.140  0.9018 -0.6255  0.1086
 9454SOL    HW139998   1.657   2.470  16.108 -1.4589 -2.2016 -2.0110
 9454SOL    HW239999   1.541   2.469  16.198  2.1964 -0.7672  1.0400
 9455SOL     OW40000   2.409   3.428   8.163 -0.1023  0.0538 -0.3642
 9455SOL    HW140001   2.385   3.418   8.070  1.3493 -0.9692 -0.6275
 9455SOL    HW240002   2.333   3.479   8.192  0.8502  0.9452  0.5490
 9456SOL     OW40003   1.045   1.860  12.424  0.0714 -0.1319 -0.4986
 9456SOL    HW140004   1.114   1.847  12.360  0.1262 -1.9009 -0.0869
 9456SOL    HW240005   1.089   1.928  12.475 -1.1574  0.5217 -0.2922
 9457SOL     OW40006   3.476   2.916   6.154  0.3942 -0.3577 -0.1515
 9457SOL    HW140007   3.433   2.929   6.070  0.5709 -0.5264 -0.2685
 9457SOL    HW240008   3.408   2.942   6.216  1.1657 -1.7947  1.3070
 9458SOL     OW40009   3.153   1.638   7.925 -0.3214 -0.1679 -0.2661
 9458SOL    HW140010   3.148   1.559   7.871  1.0869 -0.8720  0.6374
 9458SOL    HW240011   3.104   1.602   7.999 -0.3334 -0.0797 -0.2317
 9459SOL     OW40012   1.978   1.333   7.233  0.3642  0.6660 -0.6177
 9459SOL    HW140013   1.991   1.241   7.253 -0.7372  0.6066 -0.1682
 9459SOL    HW240014   2.062   1.361   7.196  0.0704  0.5643 -1.3474
 9460SOL     OW40015   0.300   0.278  16.875 -0.2544  0.5854  0.1558
 9460SOL    HW140016   0.326   0.219  16.945 -1.3270  0.3064  0.3171
 9460SOL    HW240017   0.223   0.324  16.910 -0.1369  1.1029 -0.2575
 9461SOL     OW40018   2.191   1.358   3.762 -0.0864 -0.7089 -0.1022
 9461SOL    HW140019   2.232   1.433   3.719 -1.4528  0.6726  0.9772
 9461SOL    HW240020   2.267   1.306   3.786  0.5040  0.2043  0.0190
 9462SOL     OW40021   2.743   3.509   0.316  0.1158 -0.7129  0.0040
 9462SOL    HW140022   2.804   3.517   0.389  0.6858 -0.5981 -0.4873
 9462SOL    HW240023   2.785   3.444   0.260  1.9146 -1.4468  2.2350
 9463SOL     OW40024   3.859   2.280  13.705 -0.1565  0.3298  0.8513
 9463SOL    HW140025   3.831   2.237  13.624  1.6230 -0.1020  0.4536
 9463SOL    HW240026   3.787   2.242  13.756 -0.9593 -0.8526 -1.1690
 9464SOL     OW40027   2.441   0.726   5.838  0.4360 -0.1817  0.0120
 9464SOL    HW140028   2.447   0.820   5.856  1.8033 -0.0470 -1.1822
 9464SOL    HW240029   2.427   0.691   5.926  0.1322  3.9718  1.6231
 9465SOL     OW40030   2.838   3.975  16.957  0.1623 -0.0850  0.0284
 9465SOL    HW140031   2.762   3.920  16.978  1.4813 -1.9775 -0.2546
 9465SOL    HW240032   2.889   3.921  16.897  0.3944  0.2097 -0.0387
 9466SOL     OW40033   1.474   4.067  15.973  0.1217 -0.0156 -0.1586
 9466SOL    HW140034   1.507   3.980  15.997  1.1182  0.7730  1.3620
 9466SOL    HW240035   1.424   4.042  15.896  0.1232  1.1011 -0.5181
 9467SOL     OW40036   0.403   2.689   6.456  0.1246 -0.1315  0.1565
 9467SOL    HW140037   0.407   2.783   6.438 -0.3556 -0.7457 -2.9845
 9467SOL    HW240038   0.317   2.663   6.425 -0.2064  1.1095  0.0225
 9468SOL     OW40039   1.150   1.234  11.318 -0.2842  0.0006 -0.3729
 9468SOL    HW140040   1.174   1.304  11.379 -1.7570  1.5100 -1.5146
 9468SOL    HW240041   1.227   1.177  11.317  1.2509  2.0789 -0.4696
 9469SOL     OW40042   1.263   1.033  10.325 -0.2252  0.2112 -0.5489
 9469SOL    HW140043   1.297   1.031  10.414  0.7350 -1.8545 -0.9592
 9469SOL    HW240044   1.301   1.112  10.288 -0.4405  0.4317 -0.3001
 9470SOL     OW40045   0.945   0.069   7.095  0.4092  1.1640  0.7964
 9470SOL    HW140046   0.985   0.051   7.180 -0.2263  0.6788  0.9950
 9470SOL    HW240047   0.858   0.047   7.129  0.0747  1.0108 -0.1748
 9471SOL     OW40048   1.336   0.342   2.330 -0.1600 -0.2669 -0.7230
 9471SOL    HW140049   1.309   0.252   2.311 -0.6242 -0.2701 -0.0458
 9471SOL    HW240050   1.425   0.345   2.296 -0.6804  2.6136 -1.8882
 9472SOL     OW40051   0.320   3.990  13.636 -0.4163 -0.3550  0.2629
 9472SOL    HW140052   0.260   3.920  13.662  0.3215 -1.0233  0.1762
 9472SOL    HW240053   0.283   4.072  13.670  0.9973  0.0329  0.8709
 9473SOL     OW40054   0.492   1.209   4.321  0.0477  0.3261 -0.3805
 9473SOL    HW140055   0.401   1.209   4.292 -0.0489  0.7810 -0.0650
 9473SOL    HW240056   0.524   1.126   4.285  0.1110 -0.2227  0.9307
 9474SOL     OW40057   0.381   4.060   9.408  0.1321  0.0665 -0.0930
 9474SOL    HW140058   0.462   4.106   9.387 -0.9075  0.4563 -3.3618
 9474SOL    HW240059   0.320   4.124   9.370 -0.0250 -0.5471 -0.8964
 9475SOL     OW40060   3.002   1.316   3.739  0.4573  0.0578  0.1070
 9475SOL    HW140061   3.060   1.270   3.799 -0.0329 -1.0901 -0.2828
 9475SOL    HW240062   2.999   1.264   3.658 -0.5277  1.4674 -0.7613
 9476SOL     OW40063   2.493   0.804   1.596 -0.0700 -0.1713  0.2982
 9476SOL    HW140064   2.558   0.863   1.559 -1.3397  0.7064 -0.5080
 9476SOL    HW240065   2.548   0.748   1.651 -0.0003 -0.7840 -0.3892
 9477SOL     OW40066   1.052   2.161   3.539 -0.1277  0.0225  0.3362
 9477SOL    HW140067   1.131   2.195   3.580  1.3255 -1.3378 -1.3362
 9477SOL    HW240068   1.037   2.082   3.591 -2.4622 -1.2367 -2.2327
 9478SOL     OW40069   2.980   1.270  16.820  0.1598  0.3112  0.8945
 9478SOL    HW140070   2.897   1.318  16.824  1.3474  2.2593  2.3435
 9478SOL    HW240071   3.034   1.322  16.880  2.2425 -1.0108  0.1502
 9479SOL     OW40072   0.531   2.103  14.508  0.0443 -0.4609 -0.5155
 9479SOL    HW140073   0.625   2.122  14.504  0.0097  0.1084  1.3318
 9479SOL    HW240074   0.530   2.071  14.418 -2.2699  0.2891 -0.7509
 9480SOL     OW40075   1.877   1.830   8.348  0.3136  0.2184 -0.1696
 9480SOL    HW140076   1.829   1.858   8.270 -0.8111  2.0826  1.1867
 9480SOL    HW240077   1.949   1.772   8.323  0.0036 -0.1980 -0.0995
 9481SOL     OW40078   1.960   2.839   6.878 -0.1083  0.2989 -0.0116
 9481SOL    HW140079   1.976   2.895   6.801  0.7498 -0.9501 -0.7341
 9481SOL    HW240080   1.885   2.787   6.848 -0.2096  0.6153 -0.3083
 9482SOL     OW40081   2.067   2.508   4.759  0.1934 -0.4208 -0.1311
 9482SOL    HW140082   1.971   2.501   4.764  0.1154 -1.6908 -3.2097
 9482SOL    HW240083   2.076   2.530   4.666 -1.0679 -1.0402 -0.3969
 9483SOL     OW40084   1.038   2.913  15.752  0.4185  0.1898 -0.0107
 9483SOL    HW140085   1.018   2.996  15.795  1.0609 -0.3868  1.3821
 9483SOL    HW240086   1.085   2.859  15.816  2.4883  2.7535  0.6165
 9484SOL     OW40087   1.056   4.660   6.866  0.5978 -0.1873  0.6089
 9484SOL    HW140088   0.999   4.713   6.922  0.1833  0.0569 -0.0474
 9484SOL    HW240089   1.079   4.588   6.925  0.2442  1.4939  2.8020
 9485SOL     OW40090   0.387   2.048  13.010  0.3763 -0.2472  0.2158
 9485SOL    HW140091   0.308   2.007  13.044  0.8420 -0.7782  0.6459
 9485SOL    HW240092   0.361   2.062  12.919  2.5147 -2.2596 -0.7067
 9486SOL     OW40093   4.109   0.885  14.620 -0.1660 -0.3138  0.0895
 9486SOL    HW140094   4.162   0.824  14.570  0.6521 -0.7037  1.4310
 9486SOL    HW240095   4.069   0.826  14.684 -0.0976  2.8867  3.1508
 9487SOL     OW40096   0.559   1.173   3.895  0.4044  0.0073  0.5385
 9487SOL    HW140097   0.473   1.167   3.854  1.3321 -0.8109 -1.3110
 9487SOL    HW240098   0.629   1.156   3.831 -1.2686 -0.0193 -1.2746
 9488SOL     OW40099   1.337   3.022   4.508  0.6076 -0.7492 -0.1955
 9488SOL    HW140100   1.278   3.030   4.433 -0.1986  0.1073  0.5194
 9488SOL    HW240101   1.287   3.045   4.587  2.9293  2.9159  0.2070
 9489SOL     OW40102   3.954   2.912  15.191 -0.1600 -0.0960  0.4179
 9489SOL    HW140103   3.906   2.946  15.116  0.1770 -1.9496 -0.6452
 9489SOL    HW240104   3.931   2.819  15.186 -1.5900  0.3063 -0.6546
 9490SOL     OW40105   2.365   3.420   1.406 -0.0033  0.2207  0.4514
 9490SOL    HW140106   2.453   3.388   1.423  1.1922  3.9589  1.3054
 9490SOL    HW240107   2.391   3.490   1.347 -0.9793 -0.2118 -0.5083
 9491SOL     OW40108   2.266   1.132   2.586 -0.2847  0.2428 -0.4732
 9491SOL    HW140109   2.171   1.135   2.586 -0.2561  1.1121  0.4959
 9491SOL    HW240110   2.290   1.209   2.637 -0.9045  0.4764 -0.5371
 9492SOL     OW40111   3.955   4.503  16.656  0.2830  0.5256 -0.7405
 9492SOL    HW140112   4.024   4.535  16.598 -1.7498  1.3869 -2.6641
 9492SOL    HW240113   4.007   4.471  16.730 -0.0774 -0.1161 -0.7665
 9493SOL     OW40114   2.266   1.765   7.285  0.7622  0.2510 -0.1158
 9493SOL    HW140115   2.204   1.832   7.257  0.6656 -0.3773 -1.4543
 9493SOL    HW240116   2.286   1.787   7.376  0.6872  1.5131 -0.4124
 9494SOL     OW40117   3.671   0.699   4.314 -0.0183 -0.3821 -0.1313
 9494SOL    HW140118   3.626   0.781   4.294  0.2301 -0.3917 -0.7214
 9494SOL    HW240119   3.699   0.672   4.227  1.4504 -1.0322  0.5403
 9495SOL     OW40120   3.388   0.620   6.422 -0.3586 -0.1930  0.0588
 9495SOL    HW140121   3.351   0.581   6.343 -0.3295  0.3847 -0.2383
 9495SOL    HW240122   3.359   0.710   6.406 -1.1741 -0.6131 -0.8610
 9496SOL     OW40123   3.206   1.429  16.895  0.0788 -0.3064  0.0525
 9496SOL    HW140124   3.195   1.434  16.990  2.2955  2.2063  0.1721
 9496SOL    HW240125   3.169   1.512  16.864  0.4287 -0.4178 -0.6477
 9497SOL     OW40126   3.712   2.517   0.284  0.2035 -0.2051  0.2795
 9497SOL    HW140127   3.803   2.547   0.277  0.3554 -0.3611  1.5934
 9497SOL    HW240128   3.667   2.564   0.214 -1.3492  1.2751  2.2623
 9498SOL     OW40129   0.258   1.925   7.655  0.0516 -0.2051 -0.5958
 9498SOL    HW140130   0.193   1.896   7.591  1.1266 -1.4336 -1.1474
 9498SOL    HW240131   0.203   1.923   7.733 -2.6273 -0.6021 -2.5046
 9499SOL     OW40132   3.453   2.703  13.064 -0.7017  0.4285  0.5622
 9499SOL    HW140133   3.514   2.689  13.137 -1.1961  0.9708  1.0760
 9499SOL    HW240134   3.509   2.749  13.002  0.8244 -1.1368  0.7586
 9500SOL     OW40135   2.207   4.171   6.169  0.2197  0.3705 -0.0862
 9500SOL    HW140136   2.263   4.097   6.193 -1.3054 -0.9087 -0.4408
 9500SOL    HW240137   2.181   4.217   6.250 -0.0392  0.4464 -0.2124
 9501SOL     OW40138   0.562   2.751   7.889 -0.3246  1.0471 -0.0101
 9501SOL    HW140139   0.634   2.754   7.826  0.6213  1.7097  1.1166
 9501SOL    HW240140   0.604   2.741   7.974 -1.9440  0.7759  0.7520
 9502SOL     OW40141   3.604   2.984   6.430 -0.5172  0.1158  0.1518
 9502SOL    HW140142   3.617   2.891   6.452 -2.8895 -1.0053 -3.2223
 9502SOL    HW240143   3.581   2.981   6.337 -1.0523 -1.0311  0.3144
 9503SOL     OW40144   0.968   1.306   1.451  0.3568 -0.1226 -0.3454
 9503SOL    HW140145   0.901   1.358   1.496  1.4215 -1.5057  2.8294
 9503SOL    HW240146   1.020   1.261   1.518 -0.4134  0.6663  0.7882
 9504SOL     OW40147   0.828   0.605   3.201 -0.4853 -0.6030  0.1379
 9504SOL    HW140148   0.889   0.563   3.261 -0.7093 -0.3612  0.5339
 9504SOL    HW240149   0.758   0.540   3.198 -1.6149  0.6347 -0.6006
 9505SOL     OW40150   1.839   4.177   6.722  0.6391  0.2522  0.1303
 9505SOL    HW140151   1.841   4.098   6.668  1.9966  0.2459  0.1768
 9505SOL    HW240152   1.923   4.214   6.696  1.0637 -0.1347  0.9364
 9506SOL     OW40153   3.232   3.312   6.663 -0.1909  0.5487 -0.6715
 9506SOL    HW140154   3.209   3.307   6.756  1.4272  0.2879 -0.2824
 9506SOL    HW240155   3.305   3.375   6.664  1.2509 -1.1966  2.8232
 9507SOL     OW40156   2.284   0.371   2.392 -0.0778  0.4001 -0.0869
 9507SOL    HW140157   2.265   0.465   2.394  1.6586  0.7537 -0.2815
 9507SOL    HW240158   2.208   0.335   2.437 -0.0430  0.7273  0.2303
 9508SOL     OW40159   1.368   1.411   6.214 -0.1087 -0.3723 -0.2375
 9508SOL    HW140160   1.393   1.334   6.163 -0.8631 -0.1311 -0.9863
 9508SOL    HW240161   1.454   1.451   6.207 -1.1375  2.2711  2.3946
 9509SOL     OW40162   2.063   1.811   5.718 -0.3051  0.1040 -0.6027
 9509SOL    HW140163   2.130   1.813   5.650  0.0018  0.2571 -0.2959
 9509SOL    HW240164   2.093   1.875   5.783 -0.8048  0.1529 -0.4239
 9510SOL     OW40165   1.738   0.597   4.292  0.1669 -0.2628  0.3678
 9510SOL    HW140166   1.782   0.677   4.264  2.5976 -0.7688  2.8030
 9510SOL    HW240167   1.742   0.542   4.214 -2.0980  0.6681 -0.4036
 9511SOL     OW40168   1.724   1.921   4.833 -0.2131 -0.1844 -0.2966
 9511SOL    HW140169   1.671   1.844   4.856 -0.6091  0.3561  0.6297
 9511SOL    HW240170   1.807   1.877   4.852  0.9353  1.8112 -0.7468
 9512SOL     OW40171   2.684   1.942   3.299  0.7114  0.8570  0.9493
 9512SOL    HW140172   2.619   1.987   3.246  0.2707  0.7009  1.3559
 9512SOL    HW240173   2.761   1.974   3.252  0.0963  0.8369 -0.0719
 9513SOL     OW40174   3.834   2.578   9.685 -0.0392 -0.0669  0.5791
 9513SOL    HW140175   3.786   2.595   9.766 -1.4906  0.2430 -0.3529
 9513SOL    HW240176   3.920   2.616   9.704 -0.5700  1.2307  0.3585
 9514SOL     OW40177   1.032   4.267   2.006 -0.1864  0.0749  0.6764
 9514SOL    HW140178   1.085   4.188   2.017 -1.5422 -0.8929  0.3437
 9514SOL    HW240179   0.951   4.232   2.044 -0.8811  0.5460 -0.3569
 9515SOL     OW40180   3.286   0.915   8.779  0.5952  0.0203  0.1066
 9515SOL    HW140181   3.254   0.856   8.846  1.4644  1.1529  1.5095
 9515SOL    HW240182   3.343   0.967   8.834 -0.3296  0.0206  1.0617
 9516SOL     OW40183   2.234   1.809   0.781 -0.7727 -0.3063 -0.2762
 9516SOL    HW140184   2.309   1.868   0.778 -1.2963  0.4521  1.6668
 9516SOL    HW240185   2.187   1.853   0.852  1.1259  1.3837 -0.0881
 9517SOL     OW40186   2.520   2.354   8.950 -0.0668 -0.5182 -1.2123
 9517SOL    HW140187   2.511   2.416   9.022  0.9086 -0.2094 -1.3489
 9517SOL    HW240188   2.456   2.286   8.973  0.8670 -0.4807  1.5444
 9518SOL     OW40189   3.464   0.328   1.138  0.3734  0.1737 -0.3396
 9518SOL    HW140190   3.435   0.249   1.183 -0.3489  0.3238 -0.5495
 9518SOL    HW240191   3.450   0.300   1.048 -2.3816 -0.8573  0.4368
 9519SOL     OW40192   1.508   0.082   1.385  0.2576 -0.3915  0.1209
 9519SOL    HW140193   1.521   0.007   1.327  1.9584 -0.4041  0.5051
 9519SOL    HW240194   1.517   0.029   1.464  1.0831  0.2454  0.4546
 9520SOL     OW40195   1.389   0.259   9.583  0.0605 -0.8197  0.2768
 9520SOL    HW140196   1.309   0.308   9.563 -1.8007 -3.3229  1.6670
 9520SOL    HW240197   1.446   0.285   9.511 -3.2304 -1.4083 -2.5116
 9521SOL     OW40198   0.829   0.321   3.533  0.2185  0.7486 -0.4178
 9521SOL    HW140199   0.826   0.378   3.610  0.3902 -1.1057  0.9508
 9521SOL    HW240200   0.896   0.363   3.479  0.0731  4.1065  2.0194
 9522SOL     OW40201   2.515   1.316  10.302 -0.3576 -0.0540  0.1980
 9522SOL    HW140202   2.587   1.284  10.248 -0.9067 -0.4672 -0.2862
 9522SOL    HW240203   2.564   1.395  10.327 -0.2209  0.2244 -0.9360
 9523SOL     OW40204   1.240   0.589   7.617 -0.5344  0.4486 -0.3080
 9523SOL    HW140205   1.191   0.584   7.534 -1.3289  1.1161  0.1142
 9523SOL    HW240206   1.309   0.524   7.622 -1.4574 -0.5244 -0.1855
 9524SOL     OW40207   1.925   4.451  17.116  0.2999 -0.1862 -0.4182
 9524SOL    HW140208   2.002   4.442  17.060  1.5170 -0.5216  1.2988
 9524SOL    HW240209   1.904   4.362  17.143  1.6257  0.3446  2.4362
 9525SOL     OW40210   3.593   1.794   9.449  0.2072  0.1127 -0.6428
 9525SOL    HW140211   3.613   1.783   9.542 -0.8910  1.1102 -0.2908
 9525SOL    HW240212   3.564   1.885   9.445 -3.4051 -1.1242 -2.3799
 9526SOL     OW40213   1.419   0.545   5.293 -0.4791 -0.3277 -0.4935
 9526SOL    HW140214   1.366   0.603   5.347  1.3558 -0.0175  0.9911
 9526SOL    HW240215   1.367   0.465   5.297  1.2808 -1.3954  0.8982
 9527SOL     OW40216   0.978   3.617   8.494 -0.5575 -0.2181 -0.8268
 9527SOL    HW140217   1.017   3.639   8.579 -0.8192  1.2003 -1.0867
 9527SOL    HW240218   1.003   3.525   8.483  1.6329  0.1165  1.1524
 9528SOL     OW40219   3.742   4.648   5.670 -0.2073 -0.5040  0.5647
 9528SOL    HW140220   3.761   0.002   5.680  0.6284 -0.6262  0.1288
 9528SOL    HW240221   3.771   4.643   5.579  1.9127  1.5271  1.1062
 9529SOL     OW40222   0.714   1.064   9.958 -0.0189 -0.0471  0.2810
 9529SOL    HW140223   0.623   1.049   9.931  0.9368 -2.5431 -1.5821
 9529SOL    HW240224   0.748   0.974   9.952 -0.2875  0.0189 -2.2131
 9530SOL     OW40225   3.970   2.623   9.235  0.5783 -0.3073  0.3739
 9530SOL    HW140226   3.935   2.684   9.301 -0.5442 -1.5863  0.9498
 9530SOL    HW240227   3.909   2.551   9.252  0.4501 -0.3902 -0.4375
 9531SOL     OW40228   2.729   4.013   5.496  0.0138  0.7560 -0.5084
 9531SOL    HW140229   2.723   3.947   5.566 -1.9560 -0.2767 -1.6371
 9531SOL    HW240230   2.819   4.043   5.502  0.2173  0.1420 -0.4795
 9532SOL     OW40231   3.890   1.877   3.026  0.0936  0.5953  0.7435
 9532SOL    HW140232   3.833   1.801   3.018  3.4733 -1.5889 -2.7706
 9532SOL    HW240233   3.869   1.921   3.108  0.1450  0.6947  0.7042
 9533SOL     OW40234   4.323   0.163   5.812  0.6117  0.5263  0.1923
 9533SOL    HW140235   4.304   0.086   5.759  1.1236  0.8419 -0.4359
 9533SOL    HW240236   4.250   0.226   5.810 -0.8773 -1.2373 -0.7731
 9534SOL     OW40237   3.558   3.736   3.184  0.1250 -0.1652 -0.6837
 9534SOL    HW140238   3.541   3.651   3.223  0.9228  0.3243  0.7159
 9534SOL    HW240239   3.637   3.763   3.230 -1.9741 -0.0008  2.8009
 9535SOL     OW40240   3.827   3.744   5.055 -0.2139  0.1419 -0.3385
 9535SOL    HW140241   3.764   3.812   5.031 -2.2577 -1.4392  0.6317
 9535SOL    HW240242   3.814   3.751   5.149  1.1729  1.1112 -0.2162
 9536SOL     OW40243   0.295   1.532   8.018  0.3353  0.2309  0.1518
 9536SOL    HW140244   0.212   1.566   7.983  0.7260 -0.0793 -1.0584
 9536SOL    HW240245   0.349   1.610   8.009 -0.7358  0.8970 -0.5553
 9537SOL     OW40246   4.447   0.901  14.298 -0.3882  0.8944  0.1001
 9537SOL    HW140247   4.486   0.866  14.378  0.7367 -0.1322 -0.8919
 9537SOL    HW240248   4.367   0.852  14.283 -0.5363  0.9256  0.7793
 9538SOL     OW40249   4.609   2.412   6.427  0.6559  0.8226  0.9053
 9538SOL    HW140250   4.642   2.487   6.476  1.7152  0.9950 -0.0647
 9538SOL    HW240251   4.526   2.446   6.394  1.1233  1.2578  0.1586
 9539SOL     OW40252   2.578   1.266   8.624  0.1718 -0.1968 -0.3988
 9539SOL    HW140253   2.617   1.249   8.710  2.8528  1.6744 -1.2489
 9539SOL    HW240254   2.501   1.316   8.651 -0.7484 -3.9026  3.7741
 9540SOL     OW40255   4.713   1.517   3.432 -0.9772  0.1410 -0.0546
 9540SOL    HW140256   0.034   1.499   3.361  1.6191  2.2088  1.6609
 9540SOL    HW240257   0.029   1.516   3.510  1.6451 -0.9628 -1.9507
 9541SOL     OW40258   2.888   3.521   7.212  0.3387 -0.0932  0.1347
 9541SOL    HW140259   2.906   3.551   7.301  0.9004  2.8769 -0.9554
 9541SOL    HW240260   2.832   3.592   7.181 -0.6302 -0.2996  1.4136
 9542SOL     OW40261   1.768   4.050   9.635 -0.3961 -0.0670 -0.5176
 9542SOL    HW140262   1.797   4.120   9.692  0.8189  0.1602 -1.4055
 9542SOL    HW240263   1.706   4.103   9.585 -0.2137  1.1282  0.5472
 9543SOL     OW40264   1.535   1.199   6.419  0.1228 -0.1821 -0.1889
 9543SOL    HW140265   1.614   1.172   6.372  0.3602 -1.0194  0.6841
 9543SOL    HW240266   1.534   1.142   6.496 -3.1385 -0.1324 -0.1797
 9544SOL     OW40267   1.597   0.530   2.516  0.1857 -0.1756 -0.2524
 9544SOL    HW140268   1.555   0.608   2.551 -2.3668 -0.1789 -3.2524
 9544SOL    HW240269   1.573   0.523   2.423 -2.4318  0.1351  0.4182
 9545SOL     OW40270   4.270   4.682   5.626 -0.2259 -0.2208  0.2470
 9545SOL    HW140271   4.322   4.732   5.562 -0.5023 -0.9571 -0.5585
 9545SOL    HW240272   4.328   4.606   5.633 -2.1186 -2.0163 -3.5690
 9546SOL     OW40273   3.494   2.184   3.531  0.1293 -0.4795  0.2374
 9546SOL    HW140274   3.421   2.159   3.475  0.5525  0.2459 -0.6492
 9546SOL    HW240275   3.549   2.232   3.469  0.7946  0.3097  1.4442
 9547SOL     OW40276   1.760   4.111   8.068 -0.3576  0.3451 -0.2965
 9547SOL    HW140277   1.781   4.178   8.133  3.2576 -0.5510 -0.5076
 9547SOL    HW240278   1.750   4.171   7.994 -0.1227 -0.3735 -0.9149
 9548SOL     OW40279   4.677   0.586  17.116  0.4793 -0.2389 -0.5695
 9548SOL    HW140280   4.593   0.557  17.154  0.4383 -1.3371 -1.4894
 9548SOL    HW240281   4.678   0.675  17.150 -0.5337 -0.8671  1.1342
 9549SOL     OW40282   1.828   0.383   5.405  0.4413 -0.2810 -0.1639
 9549SOL    HW140283   1.906   0.330   5.421  1.3907 -0.1010 -4.2570
 9549SOL    HW240284   1.865   0.437   5.336  1.4562  0.2122  0.7616
 9550SOL     OW40285   0.938   4.018   3.565 -0.1537  0.1924 -0.1114
 9550SOL    HW140286   0.975   4.028   3.477  0.5091  1.2812  0.2885
 9550SOL    HW240287   0.843   4.023   3.559 -0.1454  2.7397  1.8202
 9551SOL     OW40288   3.097   3.489  17.689  0.1875  0.2841  0.6416
 9551SOL    HW140289   3.084   3.580  17.660 -2.6332 -0.6280 -0.9786
 9551SOL    HW240290   3.162   3.489   0.003 -0.8920 -0.5972  1.6482
 9552SOL     OW40291   4.265   1.975   7.071  0.3333 -0.1268  0.3845
 9552SOL    HW140292   4.289   2.034   7.000 -0.0636 -0.2674  0.1353
 9552SOL    HW240293   4.307   2.023   7.143  1.4088 -0.1219 -0.2543
 9553SOL     OW40294   3.288   4.065   9.639  0.1773  0.1148  0.0419
 9553SOL    HW140295   3.201   4.070   9.599 -0.9401 -2.9081  1.9995
 9553SOL    HW240296   3.338   4.074   9.559 -1.9658 -1.3223 -1.4718
 9554SOL     OW40297   2.476   1.944   9.467  0.5946 -0.3940 -0.8266
 9554SOL    HW140298   2.502   2.035   9.451 -2.6979  1.3622  3.5322
 9554SOL    HW240299   2.507   1.932   9.557  1.4211 -2.0476 -1.3482
 9555SOL     OW40300   3.325   3.516   4.820  0.0522 -0.0530 -0.0500
 9555SOL    HW140301   3.292   3.505   4.909 -1.3208  0.7737 -0.4507
 9555SOL    HW240302   3.245   3.552   4.781  0.7191  0.0058 -1.3513
 9556SOL     OW40303   0.253   1.290   6.861 -0.1245 -0.6512  0.2891
 9556SOL    HW140304   0.320   1.243   6.909  0.8142 -0.3190 -0.7002
 9556SOL    HW240305   0.301   1.317   6.782  0.4480 -0.5640  0.6715
 9557SOL     OW40306   2.209   0.137   5.917 -0.3877 -0.2823  0.5397
 9557SOL    HW140307   2.256   0.059   5.887  1.3267  1.0442 -0.2584
 9557SOL    HW240308   2.249   0.146   6.003 -0.8707  1.7201  0.5670
 9558SOL     OW40309   3.860   0.040   7.993 -0.1489  0.0780  0.0650
 9558SOL    HW140310   3.912   0.092   8.054 -1.0793  0.5848  0.4292
 9558SOL    HW240311   3.812   0.110   7.947 -0.0909 -0.6528 -1.1187
 9559SOL     OW40312   2.777   0.293   5.800 -0.2826 -0.6552 -0.3233
 9559SOL    HW140313   2.707   0.229   5.811 -0.5697 -0.6837 -2.3616
 9559SOL    HW240314   2.741   0.375   5.835  0.1316 -0.0292 -1.3636
 9560SOL     OW40315   1.833   3.133   8.952  0.0053  0.2046  0.2354
 9560SOL    HW140316   1.760   3.141   8.891  0.5677  3.1865 -0.0544
 9560SOL    HW240317   1.900   3.104   8.890  2.0948  2.3650  1.4778
 9561SOL     OW40318   2.065   0.267  12.371 -0.2638  0.0127  0.7400
 9561SOL    HW140319   2.084   0.190  12.423  1.7456  0.9609  1.4326
 9561SOL    HW240320   2.011   0.318  12.432 -2.0453 -0.5488 -0.3771
 9562SOL     OW40321   4.475   0.710  13.798 -0.2842  0.4737 -0.2580
 9562SOL    HW140322   4.445   0.750  13.716 -0.6236  1.1686  0.2079
 9562SOL    HW240323   4.491   0.781  13.861  0.0344 -0.4942  0.7518
 9563SOL     OW40324   2.195   0.969   1.634 -0.2283  0.1552  0.4623
 9563SOL    HW140325   2.230   0.989   1.721  1.5215  0.0887 -0.2268
 9563SOL    HW240326   2.174   1.060   1.611  0.1414  0.4338  1.2054
 9564SOL     OW40327   2.149   4.456   4.151 -0.3359 -0.5390  0.5977
 9564SOL    HW140328   2.226   4.447   4.095 -1.0245  1.3241 -0.6330
 9564SOL    HW240329   2.178   4.532   4.201 -1.5605 -0.8766  1.8382
 9565SOL     OW40330   0.702   0.389  10.246 -0.2386 -0.2054 -0.3058
 9565SOL    HW140331   0.760   0.370  10.320  0.2861 -0.0195 -0.6674
 9565SOL    HW240332   0.766   0.412  10.178  0.7540 -2.2359 -0.0571
 9566SOL     OW40333   0.029   4.480   7.412  0.5699  0.0674 -0.1954
 9566SOL    HW140334   0.037   4.461   7.505 -0.7088  1.7010  0.2416
 9566SOL    HW240335   4.674   4.470   7.402  0.6206 -0.2843 -0.3220
 9567SOL     OW40336   0.391   3.839   8.657  0.0782 -0.6028  0.1004
 9567SOL    HW140337   0.470   3.785   8.656  2.5605  3.0117 -0.4366
 9567SOL    HW240338   0.403   3.882   8.572  1.2454  0.4022  0.7611
 9568SOL     OW40339   0.374   0.478   9.058 -0.0276 -0.5217  0.3259
 9568SOL    HW140340   0.291   0.518   9.032  0.4169  0.0623 -0.1831
 9568SOL    HW240341   0.413   0.462   8.973 -1.6950  1.4470 -0.7924
 9569SOL     OW40342   1.645   2.423   6.721 -0.0196 -0.1062  0.3184
 9569SOL    HW140343   1.724   2.375   6.743  0.6971  1.1491  0.4332
 9569SOL    HW240344   1.599   2.349   6.679  0.3702 -0.7666  1.0764
   4.73949   4.73949  17.75570
